Compiler and run-time data
===============================================================================
RASPA 3.0.4

Random seed: 3732413562

Compiled as a 64-bits application
Compiler: gcc Ubuntu Clang 18.1.3 (1ubuntu1)
Compile Date = Mar 15 2025, Compile Time = 19:39:45

2025-06-02 12:33:28.168004
Simulation started on Mon, Jun 02
The start time was 12:33:00

Hostname:    c062
OS type:     Linux on x86_64
OS release:  6.8.0-58-generic
OS version:  #60-Ubuntu SMP PREEMPT_DYNAMIC Fri Mar 14 18:29:48 UTC 2025


Mutual consistent basic set of units:
===============================================================================

Unit of temperature: 1 [K]
Unit of length:      1e-10 [m]
Unit of time:        1e-12 [s]
Unit of mass:        1.6605402e-27 [kg]
Unit of charge:      1.60217733e-19 [C/particle]


Boltzmann constant (internal units):          0.8314464919307584 [-]
represents conversion from energy (internal units) to temperature (in Kelvin)

Derived units and their conversion factors:
===============================================================================

Unit of energy:                           1.6605402000000002e-23 [J]
Unit of energy:                           10.000008872307538 [J.mol⁻¹]
Unit of velocity:                         100 [m.s⁻¹]
Unit of force:                            1.6605402000000002e-13 [N]
Unit of diffusion:                        1.0000000000000002e-08 [m².s⁻¹]
Unit of acceleration:                     1.0000000000000002e-08 [m².s⁻¹]
Unit of torque:                           1.6605402000000002e-23 [N.m]
Unit of pressure:                         16605402 [Pa]
Unit of volume:                           1e-30 [m³]
Unit of density:                          1660.5402 [kg.m⁻³]
Unit of dynamic viscosity:                1.6605401999999997e-05 [N.s.m⁻²]
Unit of enthalpy:                         1.6605402000000002e-23 [J]
Unit of polarizability:                   1.5458657349975198e-35 [-]
Unit of Coulomb potential:                167101.08000665612 [K]
Unit of dielectric constant:              1.5458657349975193e-05 [s².C².kg⁻¹.m⁻³]
Unit of dipole moment:                    1.60217733e-29 [C.m]
Unit of Debye:                            4.803206799099162 [C.m]
Unit of electric potential:               0.00010364272224473431 [V]
Unit of electric field:                   1036427.222447343 [V.m⁻¹]
Unit of isothermal compressibility:       6.02213665167516e-08 [Pa⁻¹]
Unit of heat capacity:                    10.000008872307538 [J.mol⁻¹.K⁻¹]
Unit of volumetric expansion coefficient: 1 [K⁻¹]


Internal conversion factors:
===============================================================================

Energy (internal units) to Kelvin:      1.202724284692786 [-]
Kelvin to energy (internal units):      0.8314457542157567 [-]


System definitions
===============================================================================

Temperature:          250 [K]
Beta:                 0.0048108928702210625 [-]
Pressure:             1.8e+07 [Pa]
Helium void fraction: 1 [-]

Box:      30.00000   0.00000   0.00000
           0.00000  30.00000   0.00000
           0.00000   0.00000  30.00000
Lengths:  30.00000  30.00000  30.00000
Angles:   90.00000  90.00000  90.00000
Rectangular boundary conditions



Property measurement settings
===============================================================================




Pseudo-atoms
===============================================================================

  0 - C_co2    framework-atom: false
  1 - O_co2    framework-atom: false

  0 - C_co2    mass: 12.00000, charge:  0.70000
  1 - O_co2    mass: 15.99940, charge: -0.35000

  0 - C_co2    polarizability:  0.00000
  1 - O_co2    polarizability:  0.00000

  0 - J. J. Potoff et al., AIChE J. 2001, 47, 1676–1682.
  1 - J. J. Potoff et al., AIChE J. 2001, 47, 1676–1682.

Force field status
===============================================================================

Cutoff Framework-Molecule VDW:  12.00000 [Å]
Cutoff Molecule-Molecule VDW:   12.00000 [Å]
Cutoff Coulomb:                 12.00000 [Å]

Overlap-criteria VDW:           1.000000e+05 [K]

C_co2    - C_co2    Lennard-Jones p₀/kʙ:  27.00000 [K], p₁:  2.80000 [Å]
                                  shift:   0.00000 [K], tailcorrections: true
C_co2    - O_co2    Lennard-Jones p₀/kʙ:  46.18441 [K], p₁:  2.92500 [Å]
                                  shift:   0.00000 [K], tailcorrections: true
O_co2    - O_co2    Lennard-Jones p₀/kʙ:  79.00000 [K], p₁:  3.05000 [Å]
                                  shift:   0.00000 [K], tailcorrections: true

Ewald precision: 1e-06
Ewald alpha: 0.26505830360350674
Ewald k-vectors: 8 8 8


Component definitions
===============================================================================

Component 0 [CO2]

    Type: Adsorbate

    Critical temperature:  304.1282 [K]
    Critical pressure:     7377300 [Pa]
    Acentric factor:       0.22394 [-]

    Mol-fraction:                 1 [-]
    Swappable:                   false

    Mass:                         43.9988 [-]
    Bulk fluid density:           0 [-]
    Compressibility:              0 [-]
    Excess molecules:             0 [-]

    Number Of Atoms:    3
    CBMC starting bead: 0
      0: O_co2  position  0.00000 -0.00000  1.16000, charge -0.35000
      1: C_co2  position  0.00000 -0.00000  0.00000, charge  0.70000
      2: O_co2  position  0.00000 -0.00000 -1.16000, charge -0.35000
    Diagonalized inertia-vector:      43.05758528 43.05758528 0.00000000
    Translational degrees of freedom: 3
    Rotational degrees of freedom:    2
    Shape of the molecule is: 'Linear'
    Net-charge:        0.00000000 [e]

    Move probabilities:
    Translation:                   0.331126 [-]
    Random translation:            0.000000 [-]
    Rotation:                      0.331126 [-]
    Random rotation:               0.000000 [-]
    Volume change:                 0.006623 [-]
    Reinsertion (CBMC):            0.331126 [-]
    Identity change (CBMC):        0.000000 [-]
    Swap:                          0.000000 [-]
    Swap (CBMC):                   0.000000 [-]
    Swap (CFCMC):                  0.000000 [-]
    Swap (CB/CFCMC):               0.000000 [-]
    Gibbs volume:                  0.000000 [-]
    Gibbs swap (CBMC):             0.000000 [-]
    Gibbs swap (CFCMC):            0.000000 [-]
    Widom:                         0.000000 [-]
    Widom (CFCMC):                 0.000000 [-]
    Widom (CB/CFCMC):              0.000000 [-]
    Parallel tempering:            0.000000 [-]
    Hybrid MC:                     0.000000 [-]

    number of blocking-pockets: 0

    number of bonds: 0





Number of pseudo-atoms
===============================================================================

Component   0 (CO2)
-------------------------------------------------------------------------------
    index   0 (C_co2): 250 atoms
    index   1 (O_co2): 500 atoms

Total number of pseudo-atoms:
-------------------------------------------------------------------------------
    index   0 (C_co2): 250 atoms
    index   1 (O_co2): 500 atoms




Energy status Recomputed from scratch
===============================================================================

Total potential energy/kʙ       -6.393731e+04 [K]
    external field VDW/kʙ        0.000000e+00 [K]
    external field Real/kʙ       0.000000e+00 [K]
    framework-molecule VDW/kʙ    0.000000e+00 [K]
    framework-molecule Real/kʙ   0.000000e+00 [K]
    molecule-molecule VDW/kʙ    -3.215269e+04 [K]
    molecule-molecule Real/kʙ   -2.621884e+04 [K]
    Van der Waals (Tail)/kʙ     -4.298852e+03 [K]
    Ewald Fourier/kʙ             1.343448e+04 [K]
    Ewald self/kʙ               -4.591696e+06 [K]
    Ewald exclusion/kʙ           4.576994e+06 [K]
    intra VDW/kʙ                 0.000000e+00 [K]
    intra Coulombic/kʙ           0.000000e+00 [K]
    polarization/kʙ              0.000000e+00 [K]
    dU/dlambda VDW/kʙ            0.000000e+00 [K]
    dU/dlambda Real/kʙ           0.000000e+00 [K]
    dU/dlambda Ewald/kʙ          0.000000e+00 [K]





Initialization: Current cycle: 0 out of 1000
===============================================================================

Box:      30.00000   0.00000   0.00000
           0.00000  30.00000   0.00000
           0.00000   0.00000  30.00000
Lengths:  30.00000  30.00000  30.00000
Angles:   90.00000  90.00000  90.00000
Rectangular boundary conditions

net charge:   0.00000000

component   0 (CO2) lambda:  0 occupancy:  1 (1.000000)
    net charge:   0.00000000 [e]

Amount of molecules per component :
-------------------------------------------------------------------------------
Component 0 (CO2)
    molecules:         2.500000e+02 molecules
    number density:    9.259259e-03 molec/A^3
    density:           6.764973e+02 kg/m^3

Total potential energy/kʙ       -1.050956e+05 [K]
-------------------------------------------------------------------------------
    external field VDW/kʙ        0.000000e+00 [K]
    external field Real/kʙ       0.000000e+00 [K]
    framework-molecule VDW/kʙ    0.000000e+00 [K]
    framework-molecule Real/kʙ   0.000000e+00 [K]
    molecule-molecule VDW/kʙ    -6.162921e+04 [K]
    molecule-molecule Real/kʙ   -3.642526e+04 [K]
    Van der Waals (Tail)/kʙ     -4.298852e+03 [K]
    Ewald Fourier/kʙ             1.195911e+04 [K]
    Ewald self/kʙ               -4.591696e+06 [K]
    Ewald exclusion/kʙ           4.576994e+06 [K]
    intra VDW/kʙ                 0.000000e+00 [K]
    intra Coulombic/kʙ           0.000000e+00 [K]
    polarization/kʙ              0.000000e+00 [K]
    dU/dlambda VDW/kʙ            0.000000e+00 [K]
    dU/dlambda Real/kʙ           0.000000e+00 [K]
    dU/dlambda Ewald/kʙ          0.000000e+00 [K]


Initialization: Current cycle: 100 out of 1000
===============================================================================

Box:      26.95893   0.00000   0.00000
           0.00000  26.95893   0.00000
           0.00000   0.00000  26.95893
Lengths:  26.95893  26.95893  26.95893
Angles:   90.00000  90.00000  90.00000
Rectangular boundary conditions

net charge:   0.00000000

component   0 (CO2) lambda:  0 occupancy:  1 (1.000000)
    net charge:   0.00000000 [e]

Amount of molecules per component :
-------------------------------------------------------------------------------
Component 0 (CO2)
    molecules:         2.500000e+02 molecules
    number density:    1.275946e-02 molec/A^3
    density:           9.322280e+02 kg/m^3

Total potential energy/kʙ       -3.247242e+05 [K]
-------------------------------------------------------------------------------
    external field VDW/kʙ        0.000000e+00 [K]
    external field Real/kʙ       0.000000e+00 [K]
    framework-molecule VDW/kʙ    0.000000e+00 [K]
    framework-molecule Real/kʙ   0.000000e+00 [K]
    molecule-molecule VDW/kʙ    -2.373641e+05 [K]
    molecule-molecule Real/kʙ   -7.313347e+04 [K]
    Van der Waals (Tail)/kʙ     -5.923911e+03 [K]
    Ewald Fourier/kʙ             6.398671e+03 [K]
    Ewald self/kʙ               -4.591696e+06 [K]
    Ewald exclusion/kʙ           4.576994e+06 [K]
    intra VDW/kʙ                 0.000000e+00 [K]
    intra Coulombic/kʙ           0.000000e+00 [K]
    polarization/kʙ              0.000000e+00 [K]
    dU/dlambda VDW/kʙ            0.000000e+00 [K]
    dU/dlambda Real/kʙ           0.000000e+00 [K]
    dU/dlambda Ewald/kʙ          0.000000e+00 [K]


Initialization: Current cycle: 200 out of 1000
===============================================================================

Box:      25.86388   0.00000   0.00000
           0.00000  25.86388   0.00000
           0.00000   0.00000  25.86388
Lengths:  25.86388  25.86388  25.86388
Angles:   90.00000  90.00000  90.00000
Rectangular boundary conditions

net charge:   0.00000000

component   0 (CO2) lambda:  0 occupancy:  1 (1.000000)
    net charge:   0.00000000 [e]

Amount of molecules per component :
-------------------------------------------------------------------------------
Component 0 (CO2)
    molecules:         2.500000e+02 molecules
    number density:    1.444970e-02 molec/A^3
    density:           1.055720e+03 kg/m^3

Total potential energy/kʙ       -3.723204e+05 [K]
-------------------------------------------------------------------------------
    external field VDW/kʙ        0.000000e+00 [K]
    external field Real/kʙ       0.000000e+00 [K]
    framework-molecule VDW/kʙ    0.000000e+00 [K]
    framework-molecule Real/kʙ   0.000000e+00 [K]
    molecule-molecule VDW/kʙ    -2.733312e+05 [K]
    molecule-molecule Real/kʙ   -8.404276e+04 [K]
    Van der Waals (Tail)/kʙ     -6.708651e+03 [K]
    Ewald Fourier/kʙ             6.463619e+03 [K]
    Ewald self/kʙ               -4.591696e+06 [K]
    Ewald exclusion/kʙ           4.576994e+06 [K]
    intra VDW/kʙ                 0.000000e+00 [K]
    intra Coulombic/kʙ           0.000000e+00 [K]
    polarization/kʙ              0.000000e+00 [K]
    dU/dlambda VDW/kʙ            0.000000e+00 [K]
    dU/dlambda Real/kʙ           0.000000e+00 [K]
    dU/dlambda Ewald/kʙ          0.000000e+00 [K]


Initialization: Current cycle: 300 out of 1000
===============================================================================

Box:      25.86495   0.00000   0.00000
           0.00000  25.86495   0.00000
           0.00000   0.00000  25.86495
Lengths:  25.86495  25.86495  25.86495
Angles:   90.00000  90.00000  90.00000
Rectangular boundary conditions

net charge:   0.00000000

component   0 (CO2) lambda:  0 occupancy:  1 (1.000000)
    net charge:   0.00000000 [e]

Amount of molecules per component :
-------------------------------------------------------------------------------
Component 0 (CO2)
    molecules:         2.500000e+02 molecules
    number density:    1.444791e-02 molec/A^3
    density:           1.055589e+03 kg/m^3

Total potential energy/kʙ       -3.812457e+05 [K]
-------------------------------------------------------------------------------
    external field VDW/kʙ        0.000000e+00 [K]
    external field Real/kʙ       0.000000e+00 [K]
    framework-molecule VDW/kʙ    0.000000e+00 [K]
    framework-molecule Real/kʙ   0.000000e+00 [K]
    molecule-molecule VDW/kʙ    -2.818566e+05 [K]
    molecule-molecule Real/kʙ   -8.473117e+04 [K]
    Van der Waals (Tail)/kʙ     -6.707818e+03 [K]
    Ewald Fourier/kʙ             6.751298e+03 [K]
    Ewald self/kʙ               -4.591696e+06 [K]
    Ewald exclusion/kʙ           4.576994e+06 [K]
    intra VDW/kʙ                 0.000000e+00 [K]
    intra Coulombic/kʙ           0.000000e+00 [K]
    polarization/kʙ              0.000000e+00 [K]
    dU/dlambda VDW/kʙ            0.000000e+00 [K]
    dU/dlambda Real/kʙ           0.000000e+00 [K]
    dU/dlambda Ewald/kʙ          0.000000e+00 [K]


Initialization: Current cycle: 400 out of 1000
===============================================================================

Box:      25.49565   0.00000   0.00000
           0.00000  25.49565   0.00000
           0.00000   0.00000  25.49565
Lengths:  25.49565  25.49565  25.49565
Angles:   90.00000  90.00000  90.00000
Rectangular boundary conditions

net charge:   0.00000000

component   0 (CO2) lambda:  0 occupancy:  1 (1.000000)
    net charge:   0.00000000 [e]

Amount of molecules per component :
-------------------------------------------------------------------------------
Component 0 (CO2)
    molecules:         2.500000e+02 molecules
    number density:    1.508487e-02 molec/A^3
    density:           1.102126e+03 kg/m^3

Total potential energy/kʙ       -3.961239e+05 [K]
-------------------------------------------------------------------------------
    external field VDW/kʙ        0.000000e+00 [K]
    external field Real/kʙ       0.000000e+00 [K]
    framework-molecule VDW/kʙ    0.000000e+00 [K]
    framework-molecule Real/kʙ   0.000000e+00 [K]
    molecule-molecule VDW/kʙ    -2.860605e+05 [K]
    molecule-molecule Real/kʙ   -9.462793e+04 [K]
    Van der Waals (Tail)/kʙ     -7.003543e+03 [K]
    Ewald Fourier/kʙ             6.269506e+03 [K]
    Ewald self/kʙ               -4.591696e+06 [K]
    Ewald exclusion/kʙ           4.576994e+06 [K]
    intra VDW/kʙ                 0.000000e+00 [K]
    intra Coulombic/kʙ           0.000000e+00 [K]
    polarization/kʙ              0.000000e+00 [K]
    dU/dlambda VDW/kʙ            0.000000e+00 [K]
    dU/dlambda Real/kʙ           0.000000e+00 [K]
    dU/dlambda Ewald/kʙ          0.000000e+00 [K]


Initialization: Current cycle: 500 out of 1000
===============================================================================

Box:      25.66417   0.00000   0.00000
           0.00000  25.66417   0.00000
           0.00000   0.00000  25.66417
Lengths:  25.66417  25.66417  25.66417
Angles:   90.00000  90.00000  90.00000
Rectangular boundary conditions

net charge:   0.00000000

component   0 (CO2) lambda:  0 occupancy:  1 (1.000000)
    net charge:   0.00000000 [e]

Amount of molecules per component :
-------------------------------------------------------------------------------
Component 0 (CO2)
    molecules:         2.500000e+02 molecules
    number density:    1.478967e-02 molec/A^3
    density:           1.080559e+03 kg/m^3

Total potential energy/kʙ       -3.822676e+05 [K]
-------------------------------------------------------------------------------
    external field VDW/kʙ        0.000000e+00 [K]
    external field Real/kʙ       0.000000e+00 [K]
    framework-molecule VDW/kʙ    0.000000e+00 [K]
    framework-molecule Real/kʙ   0.000000e+00 [K]
    molecule-molecule VDW/kʙ    -2.737162e+05 [K]
    molecule-molecule Real/kʙ   -9.288998e+04 [K]
    Van der Waals (Tail)/kʙ     -6.866490e+03 [K]
    Ewald Fourier/kʙ             5.906459e+03 [K]
    Ewald self/kʙ               -4.591696e+06 [K]
    Ewald exclusion/kʙ           4.576994e+06 [K]
    intra VDW/kʙ                 0.000000e+00 [K]
    intra Coulombic/kʙ           0.000000e+00 [K]
    polarization/kʙ              0.000000e+00 [K]
    dU/dlambda VDW/kʙ            0.000000e+00 [K]
    dU/dlambda Real/kʙ           0.000000e+00 [K]
    dU/dlambda Ewald/kʙ          0.000000e+00 [K]


Initialization: Current cycle: 600 out of 1000
===============================================================================

Box:      25.43252   0.00000   0.00000
           0.00000  25.43252   0.00000
           0.00000   0.00000  25.43252
Lengths:  25.43252  25.43252  25.43252
Angles:   90.00000  90.00000  90.00000
Rectangular boundary conditions

net charge:   0.00000000

component   0 (CO2) lambda:  0 occupancy:  1 (1.000000)
    net charge:   0.00000000 [e]

Amount of molecules per component :
-------------------------------------------------------------------------------
Component 0 (CO2)
    molecules:         2.500000e+02 molecules
    number density:    1.519749e-02 molec/A^3
    density:           1.110355e+03 kg/m^3

Total potential energy/kʙ       -4.020878e+05 [K]
-------------------------------------------------------------------------------
    external field VDW/kʙ        0.000000e+00 [K]
    external field Real/kʙ       0.000000e+00 [K]
    framework-molecule VDW/kʙ    0.000000e+00 [K]
    framework-molecule Real/kʙ   0.000000e+00 [K]
    molecule-molecule VDW/kʙ    -2.940235e+05 [K]
    molecule-molecule Real/kʙ   -9.204932e+04 [K]
    Van der Waals (Tail)/kʙ     -7.055830e+03 [K]
    Ewald Fourier/kʙ             5.742328e+03 [K]
    Ewald self/kʙ               -4.591696e+06 [K]
    Ewald exclusion/kʙ           4.576994e+06 [K]
    intra VDW/kʙ                 0.000000e+00 [K]
    intra Coulombic/kʙ           0.000000e+00 [K]
    polarization/kʙ              0.000000e+00 [K]
    dU/dlambda VDW/kʙ            0.000000e+00 [K]
    dU/dlambda Real/kʙ           0.000000e+00 [K]
    dU/dlambda Ewald/kʙ          0.000000e+00 [K]


Initialization: Current cycle: 700 out of 1000
===============================================================================

Box:      25.21865   0.00000   0.00000
           0.00000  25.21865   0.00000
           0.00000   0.00000  25.21865
Lengths:  25.21865  25.21865  25.21865
Angles:   90.00000  90.00000  90.00000
Rectangular boundary conditions

net charge:   0.00000000

component   0 (CO2) lambda:  0 occupancy:  1 (1.000000)
    net charge:   0.00000000 [e]

Amount of molecules per component :
-------------------------------------------------------------------------------
Component 0 (CO2)
    molecules:         2.500000e+02 molecules
    number density:    1.558743e-02 molec/A^3
    density:           1.138844e+03 kg/m^3

Total potential energy/kʙ       -4.151496e+05 [K]
-------------------------------------------------------------------------------
    external field VDW/kʙ        0.000000e+00 [K]
    external field Real/kʙ       0.000000e+00 [K]
    framework-molecule VDW/kʙ    0.000000e+00 [K]
    framework-molecule Real/kʙ   0.000000e+00 [K]
    molecule-molecule VDW/kʙ    -3.029623e+05 [K]
    molecule-molecule Real/kʙ   -9.558367e+04 [K]
    Van der Waals (Tail)/kʙ     -7.236867e+03 [K]
    Ewald Fourier/kʙ             5.334624e+03 [K]
    Ewald self/kʙ               -4.591696e+06 [K]
    Ewald exclusion/kʙ           4.576994e+06 [K]
    intra VDW/kʙ                 0.000000e+00 [K]
    intra Coulombic/kʙ           0.000000e+00 [K]
    polarization/kʙ              0.000000e+00 [K]
    dU/dlambda VDW/kʙ            0.000000e+00 [K]
    dU/dlambda Real/kʙ           0.000000e+00 [K]
    dU/dlambda Ewald/kʙ          0.000000e+00 [K]


Initialization: Current cycle: 800 out of 1000
===============================================================================

Box:      25.39293   0.00000   0.00000
           0.00000  25.39293   0.00000
           0.00000   0.00000  25.39293
Lengths:  25.39293  25.39293  25.39293
Angles:   90.00000  90.00000  90.00000
Rectangular boundary conditions

net charge:   0.00000000

component   0 (CO2) lambda:  0 occupancy:  1 (1.000000)
    net charge:   0.00000000 [e]

Amount of molecules per component :
-------------------------------------------------------------------------------
Component 0 (CO2)
    molecules:         2.500000e+02 molecules
    number density:    1.526868e-02 molec/A^3
    density:           1.115556e+03 kg/m^3

Total potential energy/kʙ       -4.091449e+05 [K]
-------------------------------------------------------------------------------
    external field VDW/kʙ        0.000000e+00 [K]
    external field Real/kʙ       0.000000e+00 [K]
    framework-molecule VDW/kʙ    0.000000e+00 [K]
    framework-molecule Real/kʙ   0.000000e+00 [K]
    molecule-molecule VDW/kʙ    -2.959634e+05 [K]
    molecule-molecule Real/kʙ   -9.734046e+04 [K]
    Van der Waals (Tail)/kʙ     -7.088880e+03 [K]
    Ewald Fourier/kʙ             5.949248e+03 [K]
    Ewald self/kʙ               -4.591696e+06 [K]
    Ewald exclusion/kʙ           4.576994e+06 [K]
    intra VDW/kʙ                 0.000000e+00 [K]
    intra Coulombic/kʙ           0.000000e+00 [K]
    polarization/kʙ              0.000000e+00 [K]
    dU/dlambda VDW/kʙ            0.000000e+00 [K]
    dU/dlambda Real/kʙ           0.000000e+00 [K]
    dU/dlambda Ewald/kʙ          0.000000e+00 [K]


Initialization: Current cycle: 900 out of 1000
===============================================================================

Box:      25.37704   0.00000   0.00000
           0.00000  25.37704   0.00000
           0.00000   0.00000  25.37704
Lengths:  25.37704  25.37704  25.37704
Angles:   90.00000  90.00000  90.00000
Rectangular boundary conditions

net charge:   0.00000000

component   0 (CO2) lambda:  0 occupancy:  1 (1.000000)
    net charge:   0.00000000 [e]

Amount of molecules per component :
-------------------------------------------------------------------------------
Component 0 (CO2)
    molecules:         2.500000e+02 molecules
    number density:    1.529738e-02 molec/A^3
    density:           1.117653e+03 kg/m^3

Total potential energy/kʙ       -4.060395e+05 [K]
-------------------------------------------------------------------------------
    external field VDW/kʙ        0.000000e+00 [K]
    external field Real/kʙ       0.000000e+00 [K]
    framework-molecule VDW/kʙ    0.000000e+00 [K]
    framework-molecule Real/kʙ   0.000000e+00 [K]
    molecule-molecule VDW/kʙ    -2.918832e+05 [K]
    molecule-molecule Real/kʙ   -9.843363e+04 [K]
    Van der Waals (Tail)/kʙ     -7.102207e+03 [K]
    Ewald Fourier/kʙ             6.080969e+03 [K]
    Ewald self/kʙ               -4.591696e+06 [K]
    Ewald exclusion/kʙ           4.576994e+06 [K]
    intra VDW/kʙ                 0.000000e+00 [K]
    intra Coulombic/kʙ           0.000000e+00 [K]
    polarization/kʙ              0.000000e+00 [K]
    dU/dlambda VDW/kʙ            0.000000e+00 [K]
    dU/dlambda Real/kʙ           0.000000e+00 [K]
    dU/dlambda Ewald/kʙ          0.000000e+00 [K]


Current cycle: 0 out of 5000
===============================================================================

Box:      25.22882   0.00000   0.00000  Average:  25.22882   0.00000   0.00000
           0.00000  25.22882   0.00000             0.00000  25.22882   0.00000
           0.00000   0.00000  25.22882             0.00000   0.00000  25.22882
Lengths:  25.22882  25.22882  25.22882  Average:  25.22882  25.22882  25.22882
Angles:   90.00000  90.00000  90.00000  Average:  90.00000  90.00000  90.00000
Rectangular boundary conditions

net charge:   0.00000000

component 0 (CO2) lambda:  0 occupancy:  1 (1.000000)
    net charge:   0.00000000 [e]

Amount of molecules per component :
-------------------------------------------------------------------------------
Component 0 (CO2)
    molecules:      2.500000e+02 molecules  (2.500000e+02 +/- 0.000000e+00)
    number density: 1.556858e-02 molec./A^3 (1.556858e-02 +/- 0.000000e+00)
    density:        1.137467e+03 kg/m^3     (1.137467e+03 +/- 0.000000e+00)

Average pressure tensor: 
-------------------------------------------------------------------------------
 5.3737e+02  0.0000e+00  0.0000e+00 +/- 0.0000e+00 0.0000e+00 0.0000e+00 [bar]
 0.0000e+00  5.3737e+02  0.0000e+00 +/- 0.0000e+00 0.0000e+00 0.0000e+00 [bar]
 0.0000e+00  0.0000e+00  5.3737e+02 +/- 0.0000e+00 0.0000e+00 0.0000e+00 [bar]
Ideal-gas pressure:   5.373691e+02 +/ 0.000000e+00 [bar]
Excess pressure:      0.000000e+00 +/ 0.000000e+00 [bar]
Pressure:             5.373691e+02 +/ 0.000000e+00 [bar]

Total potential energy/kʙ  -3.993046e+05 (-3.993046e+05 +/- 0.000000e+00) [K]
-------------------------------------------------------------------------------
ExternalField-molecule
    Van der Waals/kʙ        0.000000e+00 ( 0.000000e+00 +/- 0.000000e+00) [K]
Framework-molecule
    Van der Waals/kʙ        0.000000e+00 ( 0.000000e+00 +/- 0.000000e+00) [K]
    Van der Waals (Tail)/kʙ 0.000000e+00 ( 0.000000e+00 +/- 0.000000e+00) [K]
    Coulombic Real/kʙ       0.000000e+00 ( 0.000000e+00 +/- 0.000000e+00) [K]
    Coulombic Fourier/kʙ    0.000000e+00 ( 0.000000e+00 +/- 0.000000e+00) [K]
Molecule-molecule
    Van der Waals/kʙ       -2.888951e+05 (-2.888951e+05 +/- 0.000000e+00) [K]
    Van der Waals (Tail)/kʙ-7.228118e+03 (-7.228118e+03 +/- 0.000000e+00) [K]
    Coulombic Real/kʙ      -9.481888e+04 (-9.481888e+04 +/- 0.000000e+00) [K]
    Coulombic Fourier/kʙ   -8.362489e+03 (-8.362489e+03 +/- 0.000000e+00) [K]
    Molecule Intra/kʙ       0.000000e+00 ( 0.000000e+00 +/- 0.000000e+00) [K]

Current cycle: 100 out of 5000
===============================================================================

Box:      25.47306   0.00000   0.00000  Average:  25.41875   0.00000   0.00000
           0.00000  25.47306   0.00000             0.00000  25.41875   0.00000
           0.00000   0.00000  25.47306             0.00000   0.00000  25.41875
Lengths:  25.47306  25.47306  25.47306  Average:  25.41875  25.41875  25.41875
Angles:   90.00000  90.00000  90.00000  Average:  90.00000  90.00000  90.00000
Rectangular boundary conditions

net charge:   0.00000000

component 0 (CO2) lambda:  0 occupancy:  1 (1.000000)
    net charge:   0.00000000 [e]

Amount of molecules per component :
-------------------------------------------------------------------------------
Component 0 (CO2)
    molecules:      2.500000e+02 molecules  (2.500000e+02 +/- 0.000000e+00)
    number density: 1.512505e-02 molec./A^3 (1.522343e-02 +/- 0.000000e+00)
    density:        1.105062e+03 kg/m^3     (1.112250e+03 +/- 0.000000e+00)

Average pressure tensor: 
-------------------------------------------------------------------------------
 1.2767e+02 -5.5943e+01 -1.9894e+02 +/- 0.0000e+00 0.0000e+00 0.0000e+00 [bar]
-5.5943e+01  1.2826e+02 -1.9663e+02 +/- 0.0000e+00 0.0000e+00 0.0000e+00 [bar]
-1.9894e+02 -1.9663e+02  4.3291e+02 +/- 0.0000e+00 0.0000e+00 0.0000e+00 [bar]
Ideal-gas pressure:   5.254557e+02 +/ 0.000000e+00 [bar]
Excess pressure:     -2.958406e+02 +/ 0.000000e+00 [bar]
Pressure:             2.296151e+02 +/ 0.000000e+00 [bar]

Total potential energy/kʙ  -3.951062e+05 (-4.028327e+05 +/- 0.000000e+00) [K]
-------------------------------------------------------------------------------
ExternalField-molecule
    Van der Waals/kʙ        0.000000e+00 ( 0.000000e+00 +/- 0.000000e+00) [K]
Framework-molecule
    Van der Waals/kʙ        0.000000e+00 ( 0.000000e+00 +/- 0.000000e+00) [K]
    Van der Waals (Tail)/kʙ 0.000000e+00 ( 0.000000e+00 +/- 0.000000e+00) [K]
    Coulombic Real/kʙ       0.000000e+00 ( 0.000000e+00 +/- 0.000000e+00) [K]
    Coulombic Fourier/kʙ    0.000000e+00 ( 0.000000e+00 +/- 0.000000e+00) [K]
Molecule-molecule
    Van der Waals/kʙ       -2.837662e+05 (-2.902635e+05 +/- 0.000000e+00) [K]
    Van der Waals (Tail)/kʙ-7.022198e+03 (-7.073942e+03 +/- 0.000000e+00) [K]
    Coulombic Real/kʙ      -9.593183e+04 (-9.664106e+04 +/- 0.000000e+00) [K]
    Coulombic Fourier/kʙ   -8.385950e+03 (-8.854243e+03 +/- 0.000000e+00) [K]
    Molecule Intra/kʙ       0.000000e+00 ( 0.000000e+00 +/- 0.000000e+00) [K]

Current cycle: 200 out of 5000
===============================================================================

Box:      25.35818   0.00000   0.00000  Average:  25.36026   0.00000   0.00000
           0.00000  25.35818   0.00000             0.00000  25.36026   0.00000
           0.00000   0.00000  25.35818             0.00000   0.00000  25.36026
Lengths:  25.35818  25.35818  25.35818  Average:  25.36026  25.36026  25.36026
Angles:   90.00000  90.00000  90.00000  Average:  90.00000  90.00000  90.00000
Rectangular boundary conditions

net charge:   0.00000000

component 0 (CO2) lambda:  0 occupancy:  1 (1.000000)
    net charge:   0.00000000 [e]

Amount of molecules per component :
-------------------------------------------------------------------------------
Component 0 (CO2)
    molecules:      2.500000e+02 molecules  (2.500000e+02 +/- 0.000000e+00)
    number density: 1.533154e-02 molec./A^3 (1.532965e-02 +/- 0.000000e+00)
    density:        1.120149e+03 kg/m^3     (1.120010e+03 +/- 0.000000e+00)

Average pressure tensor: 
-------------------------------------------------------------------------------
 9.5740e+01 -2.3161e+01 -1.0593e+02 +/- 0.0000e+00 0.0000e+00 0.0000e+00 [bar]
-2.3161e+01  2.4582e+02 -7.9689e+01 +/- 0.0000e+00 0.0000e+00 0.0000e+00 [bar]
-1.0593e+02 -7.9689e+01  3.5923e+02 +/- 0.0000e+00 0.0000e+00 0.0000e+00 [bar]
Ideal-gas pressure:   5.291221e+02 +/ 0.000000e+00 [bar]
Excess pressure:     -2.955226e+02 +/ 0.000000e+00 [bar]
Pressure:             2.335995e+02 +/ 0.000000e+00 [bar]

Total potential energy/kʙ  -4.043260e+05 (-4.063434e+05 +/- 0.000000e+00) [K]
-------------------------------------------------------------------------------
ExternalField-molecule
    Van der Waals/kʙ        0.000000e+00 ( 0.000000e+00 +/- 0.000000e+00) [K]
Framework-molecule
    Van der Waals/kʙ        0.000000e+00 ( 0.000000e+00 +/- 0.000000e+00) [K]
    Van der Waals (Tail)/kʙ 0.000000e+00 ( 0.000000e+00 +/- 0.000000e+00) [K]
    Coulombic Real/kʙ       0.000000e+00 ( 0.000000e+00 +/- 0.000000e+00) [K]
    Coulombic Fourier/kʙ    0.000000e+00 ( 0.000000e+00 +/- 0.000000e+00) [K]
Molecule-molecule
    Van der Waals/kʙ       -2.957072e+05 (-2.928187e+05 +/- 0.000000e+00) [K]
    Van der Waals (Tail)/kʙ-7.118066e+03 (-7.119248e+03 +/- 0.000000e+00) [K]
    Coulombic Real/kʙ      -9.336619e+04 (-9.757000e+04 +/- 0.000000e+00) [K]
    Coulombic Fourier/kʙ   -8.134505e+03 (-8.835407e+03 +/- 0.000000e+00) [K]
    Molecule Intra/kʙ       0.000000e+00 ( 0.000000e+00 +/- 0.000000e+00) [K]

Current cycle: 300 out of 5000
===============================================================================

Box:      25.41348   0.00000   0.00000  Average:  25.39909   0.00000   0.00000
           0.00000  25.41348   0.00000             0.00000  25.39909   0.00000
           0.00000   0.00000  25.41348             0.00000   0.00000  25.39909
Lengths:  25.41348  25.41348  25.41348  Average:  25.39909  25.39909  25.39909
Angles:   90.00000  90.00000  90.00000  Average:  90.00000  90.00000  90.00000
Rectangular boundary conditions

net charge:   0.00000000

component 0 (CO2) lambda:  0 occupancy:  1 (1.000000)
    net charge:   0.00000000 [e]

Amount of molecules per component :
-------------------------------------------------------------------------------
Component 0 (CO2)
    molecules:      2.500000e+02 molecules  (2.500000e+02 +/- 0.000000e+00)
    number density: 1.523168e-02 molec./A^3 (1.525963e-02 +/- 0.000000e+00)
    density:        1.112852e+03 kg/m^3     (1.114895e+03 +/- 0.000000e+00)

Average pressure tensor: 
-------------------------------------------------------------------------------
 1.6232e+02  3.8589e+01 -7.6032e+01 +/- 0.0000e+00 0.0000e+00 0.0000e+00 [bar]
 3.8589e+01  2.8689e+02 -9.0247e+01 +/- 0.0000e+00 0.0000e+00 0.0000e+00 [bar]
-7.6032e+01 -9.0247e+01  3.8574e+02 +/- 0.0000e+00 0.0000e+00 0.0000e+00 [bar]
Ideal-gas pressure:   5.267055e+02 +/ 0.000000e+00 [bar]
Excess pressure:     -2.483878e+02 +/ 0.000000e+00 [bar]
Pressure:             2.783177e+02 +/ 0.000000e+00 [bar]

Total potential energy/kʙ  -4.036955e+05 (-4.042305e+05 +/- 0.000000e+00) [K]
-------------------------------------------------------------------------------
ExternalField-molecule
    Van der Waals/kʙ        0.000000e+00 ( 0.000000e+00 +/- 0.000000e+00) [K]
Framework-molecule
    Van der Waals/kʙ        0.000000e+00 ( 0.000000e+00 +/- 0.000000e+00) [K]
    Van der Waals (Tail)/kʙ 0.000000e+00 ( 0.000000e+00 +/- 0.000000e+00) [K]
    Coulombic Real/kʙ       0.000000e+00 ( 0.000000e+00 +/- 0.000000e+00) [K]
    Coulombic Fourier/kʙ    0.000000e+00 ( 0.000000e+00 +/- 0.000000e+00) [K]
Molecule-molecule
    Van der Waals/kʙ       -2.932315e+05 (-2.912014e+05 +/- 0.000000e+00) [K]
    Van der Waals (Tail)/kʙ-7.071701e+03 (-7.095683e+03 +/- 0.000000e+00) [K]
    Coulombic Real/kʙ      -9.509316e+04 (-9.722844e+04 +/- 0.000000e+00) [K]
    Coulombic Fourier/kʙ   -8.299142e+03 (-8.704954e+03 +/- 0.000000e+00) [K]
    Molecule Intra/kʙ       0.000000e+00 ( 0.000000e+00 +/- 0.000000e+00) [K]

Current cycle: 400 out of 5000
===============================================================================

Box:      25.39525   0.00000   0.00000  Average:  25.39895   0.00000   0.00000
           0.00000  25.39525   0.00000             0.00000  25.39895   0.00000
           0.00000   0.00000  25.39525             0.00000   0.00000  25.39895
Lengths:  25.39525  25.39525  25.39525  Average:  25.39895  25.39895  25.39895
Angles:   90.00000  90.00000  90.00000  Average:  90.00000  90.00000  90.00000
Rectangular boundary conditions

net charge:   0.00000000

component 0 (CO2) lambda:  0 occupancy:  1 (1.000000)
    net charge:   0.00000000 [e]

Amount of molecules per component :
-------------------------------------------------------------------------------
Component 0 (CO2)
    molecules:      2.500000e+02 molecules  (2.500000e+02 +/- 0.000000e+00)
    number density: 1.526450e-02 molec./A^3 (1.525965e-02 +/- 0.000000e+00)
    density:        1.115251e+03 kg/m^3     (1.114896e+03 +/- 0.000000e+00)

Average pressure tensor: 
-------------------------------------------------------------------------------
 1.6594e+02  5.7016e+01 -1.0120e+02 +/- 0.0000e+00 0.0000e+00 0.0000e+00 [bar]
 5.7016e+01  3.2987e+02 -9.3087e+01 +/- 0.0000e+00 0.0000e+00 0.0000e+00 [bar]
-1.0120e+02 -9.3087e+01  3.0635e+02 +/- 0.0000e+00 0.0000e+00 0.0000e+00 [bar]
Ideal-gas pressure:   5.267060e+02 +/ 0.000000e+00 [bar]
Excess pressure:     -2.593202e+02 +/ 0.000000e+00 [bar]
Pressure:             2.673858e+02 +/ 0.000000e+00 [bar]

Total potential energy/kʙ  -4.035095e+05 (-4.040854e+05 +/- 0.000000e+00) [K]
-------------------------------------------------------------------------------
ExternalField-molecule
    Van der Waals/kʙ        0.000000e+00 ( 0.000000e+00 +/- 0.000000e+00) [K]
Framework-molecule
    Van der Waals/kʙ        0.000000e+00 ( 0.000000e+00 +/- 0.000000e+00) [K]
    Van der Waals (Tail)/kʙ 0.000000e+00 ( 0.000000e+00 +/- 0.000000e+00) [K]
    Coulombic Real/kʙ       0.000000e+00 ( 0.000000e+00 +/- 0.000000e+00) [K]
    Coulombic Fourier/kʙ    0.000000e+00 ( 0.000000e+00 +/- 0.000000e+00) [K]
Molecule-molecule
    Van der Waals/kʙ       -2.896801e+05 (-2.912023e+05 +/- 0.000000e+00) [K]
    Van der Waals (Tail)/kʙ-7.086941e+03 (-7.095127e+03 +/- 0.000000e+00) [K]
    Coulombic Real/kʙ      -9.801167e+04 (-9.708733e+04 +/- 0.000000e+00) [K]
    Coulombic Fourier/kʙ   -8.730790e+03 (-8.700598e+03 +/- 0.000000e+00) [K]
    Molecule Intra/kʙ       0.000000e+00 ( 0.000000e+00 +/- 0.000000e+00) [K]

Current cycle: 500 out of 5000
===============================================================================

Box:      25.33324   0.00000   0.00000  Average:  25.39148   0.00000   0.00000
           0.00000  25.33324   0.00000             0.00000  25.39148   0.00000
           0.00000   0.00000  25.33324             0.00000   0.00000  25.39148
Lengths:  25.33324  25.33324  25.33324  Average:  25.39148  25.39148  25.39148
Angles:   90.00000  90.00000  90.00000  Average:  90.00000  90.00000  90.00000
Rectangular boundary conditions

net charge:   0.00000000

component 0 (CO2) lambda:  0 occupancy:  1 (1.000000)
    net charge:   0.00000000 [e]

Amount of molecules per component :
-------------------------------------------------------------------------------
Component 0 (CO2)
    molecules:      2.500000e+02 molecules  (2.500000e+02 +/- 0.000000e+00)
    number density: 1.537687e-02 molec./A^3 (1.527302e-02 +/- 0.000000e+00)
    density:        1.123460e+03 kg/m^3     (1.115873e+03 +/- 0.000000e+00)

Average pressure tensor: 
-------------------------------------------------------------------------------
 1.5360e+02  2.2727e+01 -1.2799e+02 +/- 0.0000e+00 0.0000e+00 0.0000e+00 [bar]
 2.2727e+01  3.4137e+02 -4.8962e+01 +/- 0.0000e+00 0.0000e+00 0.0000e+00 [bar]
-1.2799e+02 -4.8962e+01  3.3712e+02 +/- 0.0000e+00 0.0000e+00 0.0000e+00 [bar]
Ideal-gas pressure:   5.271674e+02 +/ 0.000000e+00 [bar]
Excess pressure:     -2.498043e+02 +/ 0.000000e+00 [bar]
Pressure:             2.773631e+02 +/ 0.000000e+00 [bar]

Total potential energy/kʙ  -4.006545e+05 (-4.046818e+05 +/- 0.000000e+00) [K]
-------------------------------------------------------------------------------
ExternalField-molecule
    Van der Waals/kʙ        0.000000e+00 ( 0.000000e+00 +/- 0.000000e+00) [K]
Framework-molecule
    Van der Waals/kʙ        0.000000e+00 ( 0.000000e+00 +/- 0.000000e+00) [K]
    Van der Waals (Tail)/kʙ 0.000000e+00 ( 0.000000e+00 +/- 0.000000e+00) [K]
    Coulombic Real/kʙ       0.000000e+00 ( 0.000000e+00 +/- 0.000000e+00) [K]
    Coulombic Fourier/kʙ    0.000000e+00 ( 0.000000e+00 +/- 0.000000e+00) [K]
Molecule-molecule
    Van der Waals/kʙ       -2.925294e+05 (-2.916383e+05 +/- 0.000000e+00) [K]
    Van der Waals (Tail)/kʙ-7.139112e+03 (-7.108418e+03 +/- 0.000000e+00) [K]
    Coulombic Real/kʙ      -9.260066e+04 (-9.724246e+04 +/- 0.000000e+00) [K]
    Coulombic Fourier/kʙ   -8.385306e+03 (-8.692654e+03 +/- 0.000000e+00) [K]
    Molecule Intra/kʙ       0.000000e+00 ( 0.000000e+00 +/- 0.000000e+00) [K]

Current cycle: 600 out of 5000
===============================================================================

Box:      25.35259   0.00000   0.00000  Average:  25.38816   0.00000   0.00000
           0.00000  25.35259   0.00000             0.00000  25.38816   0.00000
           0.00000   0.00000  25.35259             0.00000   0.00000  25.38816
Lengths:  25.35259  25.35259  25.35259  Average:  25.38816  25.38816  25.38816
Angles:   90.00000  90.00000  90.00000  Average:  90.00000  90.00000  90.00000
Rectangular boundary conditions

net charge:   0.00000000

component 0 (CO2) lambda:  0 occupancy:  1 (1.000000)
    net charge:   0.00000000 [e]

Amount of molecules per component :
-------------------------------------------------------------------------------
Component 0 (CO2)
    molecules:      2.500000e+02 molecules  (2.500000e+02 +/- 0.000000e+00)
    number density: 1.534168e-02 molec./A^3 (1.527888e-02 +/- 0.000000e+00)
    density:        1.120889e+03 kg/m^3     (1.116301e+03 +/- 0.000000e+00)

Average pressure tensor: 
-------------------------------------------------------------------------------
 1.5946e+02  1.1199e+01 -1.4835e+02 +/- 0.0000e+00 0.0000e+00 0.0000e+00 [bar]
 1.1199e+01  2.9814e+02 -2.7315e+01 +/- 0.0000e+00 0.0000e+00 0.0000e+00 [bar]
-1.4835e+02 -2.7315e+01  3.1154e+02 +/- 0.0000e+00 0.0000e+00 0.0000e+00 [bar]
Ideal-gas pressure:   5.273697e+02 +/ 0.000000e+00 [bar]
Excess pressure:     -2.709889e+02 +/ 0.000000e+00 [bar]
Pressure:             2.563808e+02 +/ 0.000000e+00 [bar]

Total potential energy/kʙ  -4.042737e+05 (-4.048439e+05 +/- 0.000000e+00) [K]
-------------------------------------------------------------------------------
ExternalField-molecule
    Van der Waals/kʙ        0.000000e+00 ( 0.000000e+00 +/- 0.000000e+00) [K]
Framework-molecule
    Van der Waals/kʙ        0.000000e+00 ( 0.000000e+00 +/- 0.000000e+00) [K]
    Van der Waals (Tail)/kʙ 0.000000e+00 ( 0.000000e+00 +/- 0.000000e+00) [K]
    Coulombic Real/kʙ       0.000000e+00 ( 0.000000e+00 +/- 0.000000e+00) [K]
    Coulombic Fourier/kʙ    0.000000e+00 ( 0.000000e+00 +/- 0.000000e+00) [K]
Molecule-molecule
    Van der Waals/kʙ       -2.946168e+05 (-2.918131e+05 +/- 0.000000e+00) [K]
    Van der Waals (Tail)/kʙ-7.122773e+03 (-7.106393e+03 +/- 0.000000e+00) [K]
    Coulombic Real/kʙ      -9.377591e+04 (-9.722490e+04 +/- 0.000000e+00) [K]
    Coulombic Fourier/kʙ   -8.758171e+03 (-8.699552e+03 +/- 0.000000e+00) [K]
    Molecule Intra/kʙ       0.000000e+00 ( 0.000000e+00 +/- 0.000000e+00) [K]

Current cycle: 700 out of 5000
===============================================================================

Box:      25.24066   0.00000   0.00000  Average:  25.37869   0.00000   0.00000
           0.00000  25.24066   0.00000             0.00000  25.37869   0.00000
           0.00000   0.00000  25.24066             0.00000   0.00000  25.37869
Lengths:  25.24066  25.24066  25.24066  Average:  25.37869  25.37869  25.37869
Angles:   90.00000  90.00000  90.00000  Average:  90.00000  90.00000  90.00000
Rectangular boundary conditions

net charge:   0.00000000

component 0 (CO2) lambda:  0 occupancy:  1 (1.000000)
    net charge:   0.00000000 [e]

Amount of molecules per component :
-------------------------------------------------------------------------------
Component 0 (CO2)
    molecules:      2.500000e+02 molecules  (2.500000e+02 +/- 0.000000e+00)
    number density: 1.554670e-02 molec./A^3 (1.529598e-02 +/- 0.000000e+00)
    density:        1.135868e+03 kg/m^3     (1.117551e+03 +/- 0.000000e+00)

Average pressure tensor: 
-------------------------------------------------------------------------------
 1.6360e+02 -2.4221e+00 -1.3875e+02 +/- 0.0000e+00 0.0000e+00 0.0000e+00 [bar]
-2.4221e+00  2.3040e+02 -4.0279e+01 +/- 0.0000e+00 0.0000e+00 0.0000e+00 [bar]
-1.3875e+02 -4.0279e+01  3.0301e+02 +/- 0.0000e+00 0.0000e+00 0.0000e+00 [bar]
Ideal-gas pressure:   5.279601e+02 +/ 0.000000e+00 [bar]
Excess pressure:     -2.956249e+02 +/ 0.000000e+00 [bar]
Pressure:             2.323351e+02 +/ 0.000000e+00 [bar]

Total potential energy/kʙ  -4.170997e+05 (-4.054496e+05 +/- 0.000000e+00) [K]
-------------------------------------------------------------------------------
ExternalField-molecule
    Van der Waals/kʙ        0.000000e+00 ( 0.000000e+00 +/- 0.000000e+00) [K]
Framework-molecule
    Van der Waals/kʙ        0.000000e+00 ( 0.000000e+00 +/- 0.000000e+00) [K]
    Van der Waals (Tail)/kʙ 0.000000e+00 ( 0.000000e+00 +/- 0.000000e+00) [K]
    Coulombic Real/kʙ       0.000000e+00 ( 0.000000e+00 +/- 0.000000e+00) [K]
    Coulombic Fourier/kʙ    0.000000e+00 ( 0.000000e+00 +/- 0.000000e+00) [K]
Molecule-molecule
    Van der Waals/kʙ       -2.959401e+05 (-2.925238e+05 +/- 0.000000e+00) [K]
    Van der Waals (Tail)/kʙ-7.217958e+03 (-7.111989e+03 +/- 0.000000e+00) [K]
    Coulombic Real/kʙ      -1.046103e+05 (-9.706972e+04 +/- 0.000000e+00) [K]
    Coulombic Fourier/kʙ   -9.331373e+03 (-8.744141e+03 +/- 0.000000e+00) [K]
    Molecule Intra/kʙ       0.000000e+00 ( 0.000000e+00 +/- 0.000000e+00) [K]

Current cycle: 800 out of 5000
===============================================================================

Box:      25.38864   0.00000   0.00000  Average:  25.37951   0.00000   0.00000
           0.00000  25.38864   0.00000             0.00000  25.37951   0.00000
           0.00000   0.00000  25.38864             0.00000   0.00000  25.37951
Lengths:  25.38864  25.38864  25.38864  Average:  25.37951  25.37951  25.37951
Angles:   90.00000  90.00000  90.00000  Average:  90.00000  90.00000  90.00000
Rectangular boundary conditions

net charge:   0.00000000

component 0 (CO2) lambda:  0 occupancy:  1 (1.000000)
    net charge:   0.00000000 [e]

Amount of molecules per component :
-------------------------------------------------------------------------------
Component 0 (CO2)
    molecules:      2.500000e+02 molecules  (2.500000e+02 +/- 0.000000e+00)
    number density: 1.527643e-02 molec./A^3 (1.529442e-02 +/- 0.000000e+00)
    density:        1.116122e+03 kg/m^3     (1.117437e+03 +/- 0.000000e+00)

Average pressure tensor: 
-------------------------------------------------------------------------------
 1.5674e+02 -9.0271e+00 -1.1599e+02 +/- 0.0000e+00 0.0000e+00 0.0000e+00 [bar]
-9.0271e+00  2.1118e+02 -3.9984e+01 +/- 0.0000e+00 0.0000e+00 0.0000e+00 [bar]
-1.1599e+02 -3.9984e+01  3.0309e+02 +/- 0.0000e+00 0.0000e+00 0.0000e+00 [bar]
Ideal-gas pressure:   5.279062e+02 +/ 0.000000e+00 [bar]
Excess pressure:     -3.042344e+02 +/ 0.000000e+00 [bar]
Pressure:             2.236718e+02 +/ 0.000000e+00 [bar]

Total potential energy/kʙ  -4.122280e+05 (-4.056858e+05 +/- 0.000000e+00) [K]
-------------------------------------------------------------------------------
ExternalField-molecule
    Van der Waals/kʙ        0.000000e+00 ( 0.000000e+00 +/- 0.000000e+00) [K]
Framework-molecule
    Van der Waals/kʙ        0.000000e+00 ( 0.000000e+00 +/- 0.000000e+00) [K]
    Van der Waals (Tail)/kʙ 0.000000e+00 ( 0.000000e+00 +/- 0.000000e+00) [K]
    Coulombic Real/kʙ       0.000000e+00 ( 0.000000e+00 +/- 0.000000e+00) [K]
    Coulombic Fourier/kʙ    0.000000e+00 ( 0.000000e+00 +/- 0.000000e+00) [K]
Molecule-molecule
    Van der Waals/kʙ       -2.895216e+05 (-2.924242e+05 +/- 0.000000e+00) [K]
    Van der Waals (Tail)/kʙ-7.092479e+03 (-7.107529e+03 +/- 0.000000e+00) [K]
    Coulombic Real/kʙ      -1.072805e+05 (-9.738734e+04 +/- 0.000000e+00) [K]
    Coulombic Fourier/kʙ   -8.333364e+03 (-8.766730e+03 +/- 0.000000e+00) [K]
    Molecule Intra/kʙ       0.000000e+00 ( 0.000000e+00 +/- 0.000000e+00) [K]

Current cycle: 900 out of 5000
===============================================================================

Box:      25.29070   0.00000   0.00000  Average:  25.37860   0.00000   0.00000
           0.00000  25.29070   0.00000             0.00000  25.37860   0.00000
           0.00000   0.00000  25.29070             0.00000   0.00000  25.37860
Lengths:  25.29070  25.29070  25.29070  Average:  25.37860  25.37860  25.37860
Angles:   90.00000  90.00000  90.00000  Average:  90.00000  90.00000  90.00000
Rectangular boundary conditions

net charge:   0.00000000

component 0 (CO2) lambda:  0 occupancy:  1 (1.000000)
    net charge:   0.00000000 [e]

Amount of molecules per component :
-------------------------------------------------------------------------------
Component 0 (CO2)
    molecules:      2.500000e+02 molecules  (2.500000e+02 +/- 0.000000e+00)
    number density: 1.545460e-02 molec./A^3 (1.529598e-02 +/- 0.000000e+00)
    density:        1.129139e+03 kg/m^3     (1.117550e+03 +/- 0.000000e+00)

Average pressure tensor: 
-------------------------------------------------------------------------------
 1.7598e+02 -1.7579e+01 -8.3982e+01 +/- 0.0000e+00 0.0000e+00 0.0000e+00 [bar]
-1.7579e+01  2.1394e+02 -5.5883e+01 +/- 0.0000e+00 0.0000e+00 0.0000e+00 [bar]
-8.3982e+01 -5.5883e+01  2.9604e+02 +/- 0.0000e+00 0.0000e+00 0.0000e+00 [bar]
Ideal-gas pressure:   5.279598e+02 +/ 0.000000e+00 [bar]
Excess pressure:     -2.993050e+02 +/ 0.000000e+00 [bar]
Pressure:             2.286548e+02 +/ 0.000000e+00 [bar]

Total potential energy/kʙ  -4.113490e+05 (-4.064524e+05 +/- 0.000000e+00) [K]
-------------------------------------------------------------------------------
ExternalField-molecule
    Van der Waals/kʙ        0.000000e+00 ( 0.000000e+00 +/- 0.000000e+00) [K]
Framework-molecule
    Van der Waals/kʙ        0.000000e+00 ( 0.000000e+00 +/- 0.000000e+00) [K]
    Van der Waals (Tail)/kʙ 0.000000e+00 ( 0.000000e+00 +/- 0.000000e+00) [K]
    Coulombic Real/kʙ       0.000000e+00 ( 0.000000e+00 +/- 0.000000e+00) [K]
    Coulombic Fourier/kʙ    0.000000e+00 ( 0.000000e+00 +/- 0.000000e+00) [K]
Molecule-molecule
    Van der Waals/kʙ       -2.926426e+05 (-2.922481e+05 +/- 0.000000e+00) [K]
    Van der Waals (Tail)/kʙ-7.175198e+03 (-7.108718e+03 +/- 0.000000e+00) [K]
    Coulombic Real/kʙ      -1.022504e+05 (-9.831992e+04 +/- 0.000000e+00) [K]
    Coulombic Fourier/kʙ   -9.280792e+03 (-8.775655e+03 +/- 0.000000e+00) [K]
    Molecule Intra/kʙ       0.000000e+00 ( 0.000000e+00 +/- 0.000000e+00) [K]

Current cycle: 1000 out of 5000
===============================================================================

Box:      25.59526   0.00000   0.00000  Average:  25.38228   0.00000   0.00000
           0.00000  25.59526   0.00000             0.00000  25.38228   0.00000
           0.00000   0.00000  25.59526             0.00000   0.00000  25.38228
Lengths:  25.59526  25.59526  25.59526  Average:  25.38228  25.38228  25.38228
Angles:   90.00000  90.00000  90.00000  Average:  90.00000  90.00000  90.00000
Rectangular boundary conditions

net charge:   0.00000000

component 0 (CO2) lambda:  0 occupancy:  1 (1.000000)
    net charge:   0.00000000 [e]

Amount of molecules per component :
-------------------------------------------------------------------------------
Component 0 (CO2)
    molecules:      2.500000e+02 molecules  (2.500000e+02 +/- 0.000000e+00)
    number density: 1.490944e-02 molec./A^3 (1.528933e-02 +/- 0.000000e+00)
    density:        1.089309e+03 kg/m^3     (1.117065e+03 +/- 0.000000e+00)

Average pressure tensor: 
-------------------------------------------------------------------------------
 1.7583e+02 -1.0237e+01 -6.6967e+01 +/- 0.0000e+00 0.0000e+00 0.0000e+00 [bar]
-1.0237e+01  2.1027e+02 -3.1485e+01 +/- 0.0000e+00 0.0000e+00 0.0000e+00 [bar]
-6.6967e+01 -3.1485e+01  2.7645e+02 +/- 0.0000e+00 0.0000e+00 0.0000e+00 [bar]
Ideal-gas pressure:   5.277306e+02 +/ 0.000000e+00 [bar]
Excess pressure:     -3.068786e+02 +/ 0.000000e+00 [bar]
Pressure:             2.208519e+02 +/ 0.000000e+00 [bar]

Total potential energy/kʙ  -3.968500e+05 (-4.062580e+05 +/- 0.000000e+00) [K]
-------------------------------------------------------------------------------
ExternalField-molecule
    Van der Waals/kʙ        0.000000e+00 ( 0.000000e+00 +/- 0.000000e+00) [K]
Framework-molecule
    Van der Waals/kʙ        0.000000e+00 ( 0.000000e+00 +/- 0.000000e+00) [K]
    Van der Waals (Tail)/kʙ 0.000000e+00 ( 0.000000e+00 +/- 0.000000e+00) [K]
    Coulombic Real/kʙ       0.000000e+00 ( 0.000000e+00 +/- 0.000000e+00) [K]
    Coulombic Fourier/kʙ    0.000000e+00 ( 0.000000e+00 +/- 0.000000e+00) [K]
Molecule-molecule
    Van der Waals/kʙ       -2.897840e+05 (-2.921197e+05 +/- 0.000000e+00) [K]
    Van der Waals (Tail)/kʙ-6.922096e+03 (-7.100927e+03 +/- 0.000000e+00) [K]
    Coulombic Real/kʙ      -9.229082e+04 (-9.829198e+04 +/- 0.000000e+00) [K]
    Coulombic Fourier/kʙ   -7.853096e+03 (-8.745459e+03 +/- 0.000000e+00) [K]
    Molecule Intra/kʙ       0.000000e+00 ( 0.000000e+00 +/- 0.000000e+00) [K]

Current cycle: 1100 out of 5000
===============================================================================

Box:      25.47159   0.00000   0.00000  Average:  25.40343   0.00000   0.00000
           0.00000  25.47159   0.00000             0.00000  25.40343   0.00000
           0.00000   0.00000  25.47159             0.00000   0.00000  25.40343
Lengths:  25.47159  25.47159  25.47159  Average:  25.40343  25.40343  25.40343
Angles:   90.00000  90.00000  90.00000  Average:  90.00000  90.00000  90.00000
Rectangular boundary conditions

net charge:   0.00000000

component 0 (CO2) lambda:  0 occupancy:  1 (1.000000)
    net charge:   0.00000000 [e]

Amount of molecules per component :
-------------------------------------------------------------------------------
Component 0 (CO2)
    molecules:      2.500000e+02 molecules  (2.500000e+02 +/- 0.000000e+00)
    number density: 1.512766e-02 molec./A^3 (1.525185e-02 +/- 0.000000e+00)
    density:        1.105253e+03 kg/m^3     (1.114326e+03 +/- 0.000000e+00)

Average pressure tensor: 
-------------------------------------------------------------------------------
 1.8419e+02 -4.2209e+00 -5.7995e+01 +/- 0.0000e+00 0.0000e+00 0.0000e+00 [bar]
-4.2209e+00  1.9814e+02 -3.1978e+01 +/- 0.0000e+00 0.0000e+00 0.0000e+00 [bar]
-5.7995e+01 -3.1978e+01  2.6782e+02 +/- 0.0000e+00 0.0000e+00 0.0000e+00 [bar]
Ideal-gas pressure:   5.264367e+02 +/ 0.000000e+00 [bar]
Excess pressure:     -3.097199e+02 +/ 0.000000e+00 [bar]
Pressure:             2.167167e+02 +/ 0.000000e+00 [bar]

Total potential energy/kʙ  -3.996015e+05 (-4.045559e+05 +/- 0.000000e+00) [K]
-------------------------------------------------------------------------------
ExternalField-molecule
    Van der Waals/kʙ        0.000000e+00 ( 0.000000e+00 +/- 0.000000e+00) [K]
Framework-molecule
    Van der Waals/kʙ        0.000000e+00 ( 0.000000e+00 +/- 0.000000e+00) [K]
    Van der Waals (Tail)/kʙ 0.000000e+00 ( 0.000000e+00 +/- 0.000000e+00) [K]
    Coulombic Real/kʙ       0.000000e+00 ( 0.000000e+00 +/- 0.000000e+00) [K]
    Coulombic Fourier/kʙ    0.000000e+00 ( 0.000000e+00 +/- 0.000000e+00) [K]
Molecule-molecule
    Van der Waals/kʙ       -2.870324e+05 (-2.913319e+05 +/- 0.000000e+00) [K]
    Van der Waals (Tail)/kʙ-7.023408e+03 (-7.083440e+03 +/- 0.000000e+00) [K]
    Coulombic Real/kʙ      -9.665558e+04 (-9.743793e+04 +/- 0.000000e+00) [K]
    Coulombic Fourier/kʙ   -8.890111e+03 (-8.702557e+03 +/- 0.000000e+00) [K]
    Molecule Intra/kʙ       0.000000e+00 ( 0.000000e+00 +/- 0.000000e+00) [K]

Current cycle: 1200 out of 5000
===============================================================================

Box:      25.42274   0.00000   0.00000  Average:  25.41424   0.00000   0.00000
           0.00000  25.42274   0.00000             0.00000  25.41424   0.00000
           0.00000   0.00000  25.42274             0.00000   0.00000  25.41424
Lengths:  25.42274  25.42274  25.42274  Average:  25.41424  25.41424  25.41424
Angles:   90.00000  90.00000  90.00000  Average:  90.00000  90.00000  90.00000
Rectangular boundary conditions

net charge:   0.00000000

component 0 (CO2) lambda:  0 occupancy:  1 (1.000000)
    net charge:   0.00000000 [e]

Amount of molecules per component :
-------------------------------------------------------------------------------
Component 0 (CO2)
    molecules:      2.500000e+02 molecules  (2.500000e+02 +/- 0.000000e+00)
    number density: 1.521503e-02 molec./A^3 (1.523250e-02 +/- 0.000000e+00)
    density:        1.111636e+03 kg/m^3     (1.112912e+03 +/- 0.000000e+00)

Average pressure tensor: 
-------------------------------------------------------------------------------
 1.8383e+02  2.3325e+00 -4.3136e+01 +/- 0.0000e+00 0.0000e+00 0.0000e+00 [bar]
 2.3325e+00  1.6633e+02 -2.1857e+01 +/- 0.0000e+00 0.0000e+00 0.0000e+00 [bar]
-4.3136e+01 -2.1857e+01  2.6225e+02 +/- 0.0000e+00 0.0000e+00 0.0000e+00 [bar]
Ideal-gas pressure:   5.257688e+02 +/ 0.000000e+00 [bar]
Excess pressure:     -3.216306e+02 +/ 0.000000e+00 [bar]
Pressure:             2.041382e+02 +/ 0.000000e+00 [bar]

Total potential energy/kʙ  -4.070694e+05 (-4.039630e+05 +/- 0.000000e+00) [K]
-------------------------------------------------------------------------------
ExternalField-molecule
    Van der Waals/kʙ        0.000000e+00 ( 0.000000e+00 +/- 0.000000e+00) [K]
Framework-molecule
    Van der Waals/kʙ        0.000000e+00 ( 0.000000e+00 +/- 0.000000e+00) [K]
    Van der Waals (Tail)/kʙ 0.000000e+00 ( 0.000000e+00 +/- 0.000000e+00) [K]
    Coulombic Real/kʙ       0.000000e+00 ( 0.000000e+00 +/- 0.000000e+00) [K]
    Coulombic Fourier/kʙ    0.000000e+00 ( 0.000000e+00 +/- 0.000000e+00) [K]
Molecule-molecule
    Van der Waals/kʙ       -2.932194e+05 (-2.910206e+05 +/- 0.000000e+00) [K]
    Van der Waals (Tail)/kʙ-7.063974e+03 (-7.072828e+03 +/- 0.000000e+00) [K]
    Coulombic Real/kʙ      -9.813460e+04 (-9.716415e+04 +/- 0.000000e+00) [K]
    Coulombic Fourier/kʙ   -8.651442e+03 (-8.705443e+03 +/- 0.000000e+00) [K]
    Molecule Intra/kʙ       0.000000e+00 ( 0.000000e+00 +/- 0.000000e+00) [K]

Current cycle: 1300 out of 5000
===============================================================================

Box:      25.60802   0.00000   0.00000  Average:  25.42593   0.00000   0.00000
           0.00000  25.60802   0.00000             0.00000  25.42593   0.00000
           0.00000   0.00000  25.60802             0.00000   0.00000  25.42593
Lengths:  25.60802  25.60802  25.60802  Average:  25.42593  25.42593  25.42593
Angles:   90.00000  90.00000  90.00000  Average:  90.00000  90.00000  90.00000
Rectangular boundary conditions

net charge:   0.00000000

component 0 (CO2) lambda:  0 occupancy:  1 (1.000000)
    net charge:   0.00000000 [e]

Amount of molecules per component :
-------------------------------------------------------------------------------
Component 0 (CO2)
    molecules:      2.500000e+02 molecules  (2.500000e+02 +/- 0.000000e+00)
    number density: 1.488716e-02 molec./A^3 (1.521170e-02 +/- 0.000000e+00)
    density:        1.087681e+03 kg/m^3     (1.111393e+03 +/- 0.000000e+00)

Average pressure tensor: 
-------------------------------------------------------------------------------
 1.6027e+02  1.3450e+01 -4.4566e+01 +/- 0.0000e+00 0.0000e+00 0.0000e+00 [bar]
 1.3450e+01  1.6400e+02 -1.0272e+01 +/- 0.0000e+00 0.0000e+00 0.0000e+00 [bar]
-4.4566e+01 -1.0272e+01  2.6661e+02 +/- 0.0000e+00 0.0000e+00 0.0000e+00 [bar]
Ideal-gas pressure:   5.250511e+02 +/ 0.000000e+00 [bar]
Excess pressure:     -3.280908e+02 +/ 0.000000e+00 [bar]
Pressure:             1.969602e+02 +/ 0.000000e+00 [bar]

Total potential energy/kʙ  -3.869823e+05 (-4.031675e+05 +/- 0.000000e+00) [K]
-------------------------------------------------------------------------------
ExternalField-molecule
    Van der Waals/kʙ        0.000000e+00 ( 0.000000e+00 +/- 0.000000e+00) [K]
Framework-molecule
    Van der Waals/kʙ        0.000000e+00 ( 0.000000e+00 +/- 0.000000e+00) [K]
    Van der Waals (Tail)/kʙ 0.000000e+00 ( 0.000000e+00 +/- 0.000000e+00) [K]
    Coulombic Real/kʙ       0.000000e+00 ( 0.000000e+00 +/- 0.000000e+00) [K]
    Coulombic Fourier/kʙ    0.000000e+00 ( 0.000000e+00 +/- 0.000000e+00) [K]
Molecule-molecule
    Van der Waals/kʙ       -2.817639e+05 (-2.905771e+05 +/- 0.000000e+00) [K]
    Van der Waals (Tail)/kʙ-6.911751e+03 (-7.061837e+03 +/- 0.000000e+00) [K]
    Coulombic Real/kʙ      -9.029287e+04 (-9.684498e+04 +/- 0.000000e+00) [K]
    Coulombic Fourier/kʙ   -8.013771e+03 (-8.683625e+03 +/- 0.000000e+00) [K]
    Molecule Intra/kʙ       0.000000e+00 ( 0.000000e+00 +/- 0.000000e+00) [K]

Current cycle: 1400 out of 5000
===============================================================================

Box:      25.67750   0.00000   0.00000  Average:  25.44157   0.00000   0.00000
           0.00000  25.67750   0.00000             0.00000  25.44157   0.00000
           0.00000   0.00000  25.67750             0.00000   0.00000  25.44157
Lengths:  25.67750  25.67750  25.67750  Average:  25.44157  25.44157  25.44157
Angles:   90.00000  90.00000  90.00000  Average:  90.00000  90.00000  90.00000
Rectangular boundary conditions

net charge:   0.00000000

component 0 (CO2) lambda:  0 occupancy:  1 (1.000000)
    net charge:   0.00000000 [e]

Amount of molecules per component :
-------------------------------------------------------------------------------
Component 0 (CO2)
    molecules:      2.500000e+02 molecules  (2.500000e+02 +/- 0.000000e+00)
    number density: 1.476664e-02 molec./A^3 (1.518411e-02 +/- 0.000000e+00)
    density:        1.078876e+03 kg/m^3     (1.109377e+03 +/- 0.000000e+00)

Average pressure tensor: 
-------------------------------------------------------------------------------
 1.5289e+02  7.2436e+00 -4.7263e+01 +/- 0.0000e+00 0.0000e+00 0.0000e+00 [bar]
 7.2436e+00  1.7715e+02 -6.7272e+00 +/- 0.0000e+00 0.0000e+00 0.0000e+00 [bar]
-4.7263e+01 -6.7272e+00  2.5672e+02 +/- 0.0000e+00 0.0000e+00 0.0000e+00 [bar]
Ideal-gas pressure:   5.240987e+02 +/ 0.000000e+00 [bar]
Excess pressure:     -3.285127e+02 +/ 0.000000e+00 [bar]
Pressure:             1.955860e+02 +/ 0.000000e+00 [bar]

Total potential energy/kʙ  -3.988836e+05 (-4.023533e+05 +/- 0.000000e+00) [K]
-------------------------------------------------------------------------------
ExternalField-molecule
    Van der Waals/kʙ        0.000000e+00 ( 0.000000e+00 +/- 0.000000e+00) [K]
Framework-molecule
    Van der Waals/kʙ        0.000000e+00 ( 0.000000e+00 +/- 0.000000e+00) [K]
    Van der Waals (Tail)/kʙ 0.000000e+00 ( 0.000000e+00 +/- 0.000000e+00) [K]
    Coulombic Real/kʙ       0.000000e+00 ( 0.000000e+00 +/- 0.000000e+00) [K]
    Coulombic Fourier/kʙ    0.000000e+00 ( 0.000000e+00 +/- 0.000000e+00) [K]
Molecule-molecule
    Van der Waals/kʙ       -2.886972e+05 (-2.901495e+05 +/- 0.000000e+00) [K]
    Van der Waals (Tail)/kʙ-6.855798e+03 (-7.049176e+03 +/- 0.000000e+00) [K]
    Coulombic Real/kʙ      -9.406293e+04 (-9.647334e+04 +/- 0.000000e+00) [K]
    Coulombic Fourier/kʙ   -9.267717e+03 (-8.681244e+03 +/- 0.000000e+00) [K]
    Molecule Intra/kʙ       0.000000e+00 ( 0.000000e+00 +/- 0.000000e+00) [K]

Current cycle: 1500 out of 5000
===============================================================================

Box:      25.59929   0.00000   0.00000  Average:  25.45138   0.00000   0.00000
           0.00000  25.59929   0.00000             0.00000  25.45138   0.00000
           0.00000   0.00000  25.59929             0.00000   0.00000  25.45138
Lengths:  25.59929  25.59929  25.59929  Average:  25.45138  25.45138  25.45138
Angles:   90.00000  90.00000  90.00000  Average:  90.00000  90.00000  90.00000
Rectangular boundary conditions

net charge:   0.00000000

component 0 (CO2) lambda:  0 occupancy:  1 (1.000000)
    net charge:   0.00000000 [e]

Amount of molecules per component :
-------------------------------------------------------------------------------
Component 0 (CO2)
    molecules:      2.500000e+02 molecules  (2.500000e+02 +/- 0.000000e+00)
    number density: 1.490240e-02 molec./A^3 (1.516664e-02 +/- 0.000000e+00)
    density:        1.088795e+03 kg/m^3     (1.108101e+03 +/- 0.000000e+00)

Average pressure tensor: 
-------------------------------------------------------------------------------
 1.5999e+02  6.9119e+00 -5.0004e+01 +/- 0.0000e+00 0.0000e+00 0.0000e+00 [bar]
 6.9119e+00  1.6418e+02 -8.2936e+00 +/- 0.0000e+00 0.0000e+00 0.0000e+00 [bar]
-5.0004e+01 -8.2936e+00  2.3972e+02 +/- 0.0000e+00 0.0000e+00 0.0000e+00 [bar]
Ideal-gas pressure:   5.234958e+02 +/ 0.000000e+00 [bar]
Excess pressure:     -3.355304e+02 +/ 0.000000e+00 [bar]
Pressure:             1.879655e+02 +/ 0.000000e+00 [bar]

Total potential energy/kʙ  -3.949909e+05 (-4.018520e+05 +/- 0.000000e+00) [K]
-------------------------------------------------------------------------------
ExternalField-molecule
    Van der Waals/kʙ        0.000000e+00 ( 0.000000e+00 +/- 0.000000e+00) [K]
Framework-molecule
    Van der Waals/kʙ        0.000000e+00 ( 0.000000e+00 +/- 0.000000e+00) [K]
    Van der Waals (Tail)/kʙ 0.000000e+00 ( 0.000000e+00 +/- 0.000000e+00) [K]
    Coulombic Real/kʙ       0.000000e+00 ( 0.000000e+00 +/- 0.000000e+00) [K]
    Coulombic Fourier/kʙ    0.000000e+00 ( 0.000000e+00 +/- 0.000000e+00) [K]
Molecule-molecule
    Van der Waals/kʙ       -2.860761e+05 (-2.898166e+05 +/- 0.000000e+00) [K]
    Van der Waals (Tail)/kʙ-6.918827e+03 (-7.039953e+03 +/- 0.000000e+00) [K]
    Coulombic Real/kʙ      -9.363896e+04 (-9.631377e+04 +/- 0.000000e+00) [K]
    Coulombic Fourier/kʙ   -8.356998e+03 (-8.681650e+03 +/- 0.000000e+00) [K]
    Molecule Intra/kʙ       0.000000e+00 ( 0.000000e+00 +/- 0.000000e+00) [K]

Current cycle: 1600 out of 5000
===============================================================================

Box:      25.52154   0.00000   0.00000  Average:  25.45130   0.00000   0.00000
           0.00000  25.52154   0.00000             0.00000  25.45130   0.00000
           0.00000   0.00000  25.52154             0.00000   0.00000  25.45130
Lengths:  25.52154  25.52154  25.52154  Average:  25.45130  25.45130  25.45130
Angles:   90.00000  90.00000  90.00000  Average:  90.00000  90.00000  90.00000
Rectangular boundary conditions

net charge:   0.00000000

component 0 (CO2) lambda:  0 occupancy:  1 (1.000000)
    net charge:   0.00000000 [e]

Amount of molecules per component :
-------------------------------------------------------------------------------
Component 0 (CO2)
    molecules:      2.500000e+02 molecules  (2.500000e+02 +/- 0.000000e+00)
    number density: 1.503901e-02 molec./A^3 (1.516671e-02 +/- 0.000000e+00)
    density:        1.098776e+03 kg/m^3     (1.108106e+03 +/- 0.000000e+00)

Average pressure tensor: 
-------------------------------------------------------------------------------
 1.7108e+02  1.6022e+01 -4.9510e+01 +/- 0.0000e+00 0.0000e+00 0.0000e+00 [bar]
 1.6022e+01  1.6723e+02 -1.8585e+01 +/- 0.0000e+00 0.0000e+00 0.0000e+00 [bar]
-4.9510e+01 -1.8585e+01  2.2891e+02 +/- 0.0000e+00 0.0000e+00 0.0000e+00 [bar]
Ideal-gas pressure:   5.234980e+02 +/ 0.000000e+00 [bar]
Excess pressure:     -3.344257e+02 +/ 0.000000e+00 [bar]
Pressure:             1.890722e+02 +/ 0.000000e+00 [bar]

Total potential energy/kʙ  -3.987035e+05 (-4.018216e+05 +/- 0.000000e+00) [K]
-------------------------------------------------------------------------------
ExternalField-molecule
    Van der Waals/kʙ        0.000000e+00 ( 0.000000e+00 +/- 0.000000e+00) [K]
Framework-molecule
    Van der Waals/kʙ        0.000000e+00 ( 0.000000e+00 +/- 0.000000e+00) [K]
    Van der Waals (Tail)/kʙ 0.000000e+00 ( 0.000000e+00 +/- 0.000000e+00) [K]
    Coulombic Real/kʙ       0.000000e+00 ( 0.000000e+00 +/- 0.000000e+00) [K]
    Coulombic Fourier/kʙ    0.000000e+00 ( 0.000000e+00 +/- 0.000000e+00) [K]
Molecule-molecule
    Van der Waals/kʙ       -2.932761e+05 (-2.898554e+05 +/- 0.000000e+00) [K]
    Van der Waals (Tail)/kʙ-6.982250e+03 (-7.040138e+03 +/- 0.000000e+00) [K]
    Coulombic Real/kʙ      -8.951686e+04 (-9.622266e+04 +/- 0.000000e+00) [K]
    Coulombic Fourier/kʙ   -8.928237e+03 (-8.703340e+03 +/- 0.000000e+00) [K]
    Molecule Intra/kʙ       0.000000e+00 ( 0.000000e+00 +/- 0.000000e+00) [K]

Current cycle: 1700 out of 5000
===============================================================================

Box:      25.67769   0.00000   0.00000  Average:  25.45480   0.00000   0.00000
           0.00000  25.67769   0.00000             0.00000  25.45480   0.00000
           0.00000   0.00000  25.67769             0.00000   0.00000  25.45480
Lengths:  25.67769  25.67769  25.67769  Average:  25.45480  25.45480  25.45480
Angles:   90.00000  90.00000  90.00000  Average:  90.00000  90.00000  90.00000
Rectangular boundary conditions

net charge:   0.00000000

component 0 (CO2) lambda:  0 occupancy:  1 (1.000000)
    net charge:   0.00000000 [e]

Amount of molecules per component :
-------------------------------------------------------------------------------
Component 0 (CO2)
    molecules:      2.500000e+02 molecules  (2.500000e+02 +/- 0.000000e+00)
    number density: 1.476631e-02 molec./A^3 (1.516040e-02 +/- 0.000000e+00)
    density:        1.078852e+03 kg/m^3     (1.107645e+03 +/- 0.000000e+00)

Average pressure tensor: 
-------------------------------------------------------------------------------
 1.6877e+02  1.5746e+01 -4.4398e+01 +/- 0.0000e+00 0.0000e+00 0.0000e+00 [bar]
 1.5746e+01  1.5505e+02 -2.6999e+01 +/- 0.0000e+00 0.0000e+00 0.0000e+00 [bar]
-4.4398e+01 -2.6999e+01  2.2294e+02 +/- 0.0000e+00 0.0000e+00 0.0000e+00 [bar]
Ideal-gas pressure:   5.232803e+02 +/ 0.000000e+00 [bar]
Excess pressure:     -3.410290e+02 +/ 0.000000e+00 [bar]
Pressure:             1.822512e+02 +/ 0.000000e+00 [bar]

Total potential energy/kʙ  -3.867331e+05 (-4.014463e+05 +/- 0.000000e+00) [K]
-------------------------------------------------------------------------------
ExternalField-molecule
    Van der Waals/kʙ        0.000000e+00 ( 0.000000e+00 +/- 0.000000e+00) [K]
Framework-molecule
    Van der Waals/kʙ        0.000000e+00 ( 0.000000e+00 +/- 0.000000e+00) [K]
    Van der Waals (Tail)/kʙ 0.000000e+00 ( 0.000000e+00 +/- 0.000000e+00) [K]
    Coulombic Real/kʙ       0.000000e+00 ( 0.000000e+00 +/- 0.000000e+00) [K]
    Coulombic Fourier/kʙ    0.000000e+00 ( 0.000000e+00 +/- 0.000000e+00) [K]
Molecule-molecule
    Van der Waals/kʙ       -2.849598e+05 (-2.897496e+05 +/- 0.000000e+00) [K]
    Van der Waals (Tail)/kʙ-6.855643e+03 (-7.035762e+03 +/- 0.000000e+00) [K]
    Coulombic Real/kʙ      -8.709597e+04 (-9.596902e+04 +/- 0.000000e+00) [K]
    Coulombic Fourier/kʙ   -7.821712e+03 (-8.691927e+03 +/- 0.000000e+00) [K]
    Molecule Intra/kʙ       0.000000e+00 ( 0.000000e+00 +/- 0.000000e+00) [K]

Current cycle: 1800 out of 5000
===============================================================================

Box:      25.69620   0.00000   0.00000  Average:  25.46667   0.00000   0.00000
           0.00000  25.69620   0.00000             0.00000  25.46667   0.00000
           0.00000   0.00000  25.69620             0.00000   0.00000  25.46667
Lengths:  25.69620  25.69620  25.69620  Average:  25.46667  25.46667  25.46667
Angles:   90.00000  90.00000  90.00000  Average:  90.00000  90.00000  90.00000
Rectangular boundary conditions

net charge:   0.00000000

component 0 (CO2) lambda:  0 occupancy:  1 (1.000000)
    net charge:   0.00000000 [e]

Amount of molecules per component :
-------------------------------------------------------------------------------
Component 0 (CO2)
    molecules:      2.500000e+02 molecules  (2.500000e+02 +/- 0.000000e+00)
    number density: 1.473442e-02 molec./A^3 (1.513949e-02 +/- 0.000000e+00)
    density:        1.076522e+03 kg/m^3     (1.106117e+03 +/- 0.000000e+00)

Average pressure tensor: 
-------------------------------------------------------------------------------
 1.6874e+02  1.9325e+01 -4.5673e+01 +/- 0.0000e+00 0.0000e+00 0.0000e+00 [bar]
 1.9325e+01  1.6723e+02 -1.6012e+01 +/- 0.0000e+00 0.0000e+00 0.0000e+00 [bar]
-4.5673e+01 -1.6012e+01  2.1792e+02 +/- 0.0000e+00 0.0000e+00 0.0000e+00 [bar]
Ideal-gas pressure:   5.225585e+02 +/ 0.000000e+00 [bar]
Excess pressure:     -3.379301e+02 +/ 0.000000e+00 [bar]
Pressure:             1.846284e+02 +/ 0.000000e+00 [bar]

Total potential energy/kʙ  -3.805628e+05 (-4.005475e+05 +/- 0.000000e+00) [K]
-------------------------------------------------------------------------------
ExternalField-molecule
    Van der Waals/kʙ        0.000000e+00 ( 0.000000e+00 +/- 0.000000e+00) [K]
Framework-molecule
    Van der Waals/kʙ        0.000000e+00 ( 0.000000e+00 +/- 0.000000e+00) [K]
    Van der Waals (Tail)/kʙ 0.000000e+00 ( 0.000000e+00 +/- 0.000000e+00) [K]
    Coulombic Real/kʙ       0.000000e+00 ( 0.000000e+00 +/- 0.000000e+00) [K]
    Coulombic Fourier/kʙ    0.000000e+00 ( 0.000000e+00 +/- 0.000000e+00) [K]
Molecule-molecule
    Van der Waals/kʙ       -2.810320e+05 (-2.892852e+05 +/- 0.000000e+00) [K]
    Van der Waals (Tail)/kʙ-6.840839e+03 (-7.028202e+03 +/- 0.000000e+00) [K]
    Coulombic Real/kʙ      -8.402843e+04 (-9.555809e+04 +/- 0.000000e+00) [K]
    Coulombic Fourier/kʙ   -8.661488e+03 (-8.675994e+03 +/- 0.000000e+00) [K]
    Molecule Intra/kʙ       0.000000e+00 ( 0.000000e+00 +/- 0.000000e+00) [K]

Current cycle: 1900 out of 5000
===============================================================================

Box:      25.67135   0.00000   0.00000  Average:  25.47638   0.00000   0.00000
           0.00000  25.67135   0.00000             0.00000  25.47638   0.00000
           0.00000   0.00000  25.67135             0.00000   0.00000  25.47638
Lengths:  25.67135  25.67135  25.67135  Average:  25.47638  25.47638  25.47638
Angles:   90.00000  90.00000  90.00000  Average:  90.00000  90.00000  90.00000
Rectangular boundary conditions

net charge:   0.00000000

component 0 (CO2) lambda:  0 occupancy:  1 (1.000000)
    net charge:   0.00000000 [e]

Amount of molecules per component :
-------------------------------------------------------------------------------
Component 0 (CO2)
    molecules:      2.500000e+02 molecules  (2.500000e+02 +/- 0.000000e+00)
    number density: 1.477726e-02 molec./A^3 (1.512232e-02 +/- 0.000000e+00)
    density:        1.079652e+03 kg/m^3     (1.104862e+03 +/- 0.000000e+00)

Average pressure tensor: 
-------------------------------------------------------------------------------
 1.7154e+02  1.8083e+01 -4.8114e+01 +/- 0.0000e+00 0.0000e+00 0.0000e+00 [bar]
 1.8083e+01  1.6896e+02 -1.2546e+01 +/- 0.0000e+00 0.0000e+00 0.0000e+00 [bar]
-4.8114e+01 -1.2546e+01  2.1202e+02 +/- 0.0000e+00 0.0000e+00 0.0000e+00 [bar]
Ideal-gas pressure:   5.219658e+02 +/ 0.000000e+00 [bar]
Excess pressure:     -3.377906e+02 +/ 0.000000e+00 [bar]
Pressure:             1.841752e+02 +/ 0.000000e+00 [bar]

Total potential energy/kʙ  -3.848685e+05 (-3.997313e+05 +/- 0.000000e+00) [K]
-------------------------------------------------------------------------------
ExternalField-molecule
    Van der Waals/kʙ        0.000000e+00 ( 0.000000e+00 +/- 0.000000e+00) [K]
Framework-molecule
    Van der Waals/kʙ        0.000000e+00 ( 0.000000e+00 +/- 0.000000e+00) [K]
    Van der Waals (Tail)/kʙ 0.000000e+00 ( 0.000000e+00 +/- 0.000000e+00) [K]
    Coulombic Real/kʙ       0.000000e+00 ( 0.000000e+00 +/- 0.000000e+00) [K]
    Coulombic Fourier/kʙ    0.000000e+00 ( 0.000000e+00 +/- 0.000000e+00) [K]
Molecule-molecule
    Van der Waals/kʙ       -2.821627e+05 (-2.889124e+05 +/- 0.000000e+00) [K]
    Van der Waals (Tail)/kʙ-6.860725e+03 (-7.020737e+03 +/- 0.000000e+00) [K]
    Coulombic Real/kʙ      -8.738168e+04 (-9.513893e+04 +/- 0.000000e+00) [K]
    Coulombic Fourier/kʙ   -8.463421e+03 (-8.659272e+03 +/- 0.000000e+00) [K]
    Molecule Intra/kʙ       0.000000e+00 ( 0.000000e+00 +/- 0.000000e+00) [K]

Current cycle: 2000 out of 5000
===============================================================================

Box:      25.81273   0.00000   0.00000  Average:  25.48562   0.00000   0.00000
           0.00000  25.81273   0.00000             0.00000  25.48562   0.00000
           0.00000   0.00000  25.81273             0.00000   0.00000  25.48562
Lengths:  25.81273  25.81273  25.81273  Average:  25.48562  25.48562  25.48562
Angles:   90.00000  90.00000  90.00000  Average:  90.00000  90.00000  90.00000
Rectangular boundary conditions

net charge:   0.00000000

component 0 (CO2) lambda:  0 occupancy:  1 (1.000000)
    net charge:   0.00000000 [e]

Amount of molecules per component :
-------------------------------------------------------------------------------
Component 0 (CO2)
    molecules:      2.500000e+02 molecules  (2.500000e+02 +/- 0.000000e+00)
    number density: 1.453578e-02 molec./A^3 (1.510600e-02 +/- 0.000000e+00)
    density:        1.062009e+03 kg/m^3     (1.103670e+03 +/- 0.000000e+00)

Average pressure tensor: 
-------------------------------------------------------------------------------
 1.7133e+02  1.5351e+01 -4.4097e+01 +/- 0.0000e+00 0.0000e+00 0.0000e+00 [bar]
 1.5351e+01  1.7730e+02 -4.9695e+00 +/- 0.0000e+00 0.0000e+00 0.0000e+00 [bar]
-4.4097e+01 -4.9695e+00  2.0839e+02 +/- 0.0000e+00 0.0000e+00 0.0000e+00 [bar]
Ideal-gas pressure:   5.214025e+02 +/ 0.000000e+00 [bar]
Excess pressure:     -3.357290e+02 +/ 0.000000e+00 [bar]
Pressure:             1.856735e+02 +/ 0.000000e+00 [bar]

Total potential energy/kʙ  -3.803884e+05 (-3.989841e+05 +/- 0.000000e+00) [K]
-------------------------------------------------------------------------------
ExternalField-molecule
    Van der Waals/kʙ        0.000000e+00 ( 0.000000e+00 +/- 0.000000e+00) [K]
Framework-molecule
    Van der Waals/kʙ        0.000000e+00 ( 0.000000e+00 +/- 0.000000e+00) [K]
    Van der Waals (Tail)/kʙ 0.000000e+00 ( 0.000000e+00 +/- 0.000000e+00) [K]
    Coulombic Real/kʙ       0.000000e+00 ( 0.000000e+00 +/- 0.000000e+00) [K]
    Coulombic Fourier/kʙ    0.000000e+00 ( 0.000000e+00 +/- 0.000000e+00) [K]
Molecule-molecule
    Van der Waals/kʙ       -2.775281e+05 (-2.885355e+05 +/- 0.000000e+00) [K]
    Van der Waals (Tail)/kʙ-6.748614e+03 (-7.013572e+03 +/- 0.000000e+00) [K]
    Coulombic Real/kʙ      -8.789272e+04 (-9.477227e+04 +/- 0.000000e+00) [K]
    Coulombic Fourier/kʙ   -8.218924e+03 (-8.662766e+03 +/- 0.000000e+00) [K]
    Molecule Intra/kʙ       0.000000e+00 ( 0.000000e+00 +/- 0.000000e+00) [K]

Current cycle: 2100 out of 5000
===============================================================================

Box:      25.67001   0.00000   0.00000  Average:  25.50024   0.00000   0.00000
           0.00000  25.67001   0.00000             0.00000  25.50024   0.00000
           0.00000   0.00000  25.67001             0.00000   0.00000  25.50024
Lengths:  25.67001  25.67001  25.67001  Average:  25.50024  25.50024  25.50024
Angles:   90.00000  90.00000  90.00000  Average:  90.00000  90.00000  90.00000
Rectangular boundary conditions

net charge:   0.00000000

component 0 (CO2) lambda:  0 occupancy:  1 (1.000000)
    net charge:   0.00000000 [e]

Amount of molecules per component :
-------------------------------------------------------------------------------
Component 0 (CO2)
    molecules:      2.500000e+02 molecules  (2.500000e+02 +/- 0.000000e+00)
    number density: 1.477958e-02 molec./A^3 (1.508052e-02 +/- 0.000000e+00)
    density:        1.079821e+03 kg/m^3     (1.101809e+03 +/- 0.000000e+00)

Average pressure tensor: 
-------------------------------------------------------------------------------
 1.7210e+02  2.4679e+01 -4.0773e+01 +/- 0.0000e+00 0.0000e+00 0.0000e+00 [bar]
 2.4679e+01  1.8325e+02 -4.0470e+00 +/- 0.0000e+00 0.0000e+00 0.0000e+00 [bar]
-4.0773e+01 -4.0470e+00  2.0597e+02 +/- 0.0000e+00 0.0000e+00 0.0000e+00 [bar]
Ideal-gas pressure:   5.205232e+02 +/ 0.000000e+00 [bar]
Excess pressure:     -3.334178e+02 +/ 0.000000e+00 [bar]
Pressure:             1.871054e+02 +/ 0.000000e+00 [bar]

Total potential energy/kʙ  -3.894332e+05 (-3.980553e+05 +/- 0.000000e+00) [K]
-------------------------------------------------------------------------------
ExternalField-molecule
    Van der Waals/kʙ        0.000000e+00 ( 0.000000e+00 +/- 0.000000e+00) [K]
Framework-molecule
    Van der Waals/kʙ        0.000000e+00 ( 0.000000e+00 +/- 0.000000e+00) [K]
    Van der Waals (Tail)/kʙ 0.000000e+00 ( 0.000000e+00 +/- 0.000000e+00) [K]
[...]
    Coulombic Fourier/kʙ    0.000000e+00 ( 0.000000e+00 +/- 0.000000e+00) [K]
Molecule-molecule
    Van der Waals/kʙ       -3.008061e+05 (-2.848892e+05 +/- 7.678519e+03) [K]
    Van der Waals (Tail)/kʙ-7.217967e+03 (-6.934862e+03 +/- 1.656116e+02) [K]
    Coulombic Real/kʙ      -9.711709e+04 (-9.307878e+04 +/- 4.174011e+03) [K]
    Coulombic Fourier/kʙ   -9.097720e+03 (-8.620266e+03 +/- 2.496311e+02) [K]
    Molecule Intra/kʙ       0.000000e+00 ( 0.000000e+00 +/- 0.000000e+00) [K]

Current cycle: 4700 out of 5000
===============================================================================

Box:      25.46773   0.00000   0.00000  Average:  25.58641   0.00000   0.00000
           0.00000  25.46773   0.00000             0.00000  25.58641   0.00000
           0.00000   0.00000  25.46773             0.00000   0.00000  25.58641
Lengths:  25.46773  25.46773  25.46773  Average:  25.58641  25.58641  25.58641
Angles:   90.00000  90.00000  90.00000  Average:  90.00000  90.00000  90.00000
Rectangular boundary conditions

net charge:   0.00000000

component 0 (CO2) lambda:  0 occupancy:  1 (1.000000)
    net charge:   0.00000000 [e]

Amount of molecules per component :
-------------------------------------------------------------------------------
Component 0 (CO2)
    molecules:      2.500000e+02 molecules  (2.500000e+02 +/- 3.944933e-14)
    number density: 1.513454e-02 molec./A^3 (1.493033e-02 +/- 3.567367e-04)
    density:        1.105755e+03 kg/m^3     (1.090835e+03 +/- 2.606380e+01)

Average pressure tensor: 
-------------------------------------------------------------------------------
 1.7488e+02  2.4470e+01 -1.3861e+01 +/- 6.0257e+01 4.8617e+01 5.1113e+01 [bar]
 2.4470e+01  1.9808e+02  1.6783e+00 +/- 4.8617e+01 5.5151e+01 5.9752e+01 [bar]
-1.3861e+01  1.6783e+00  1.8922e+02 +/- 5.1113e+01 5.9752e+01 1.0457e+02 [bar]
Ideal-gas pressure:   5.153390e+02 +/ 1.231322e+01 [bar]
Excess pressure:     -3.279452e+02 +/ 3.134525e+01 [bar]
Pressure:             1.873938e+02 +/ 3.215941e+01 [bar]

Total potential energy/kʙ  -3.988626e+05 (-3.936389e+05 +/- 1.157286e+04) [K]
-------------------------------------------------------------------------------
ExternalField-molecule
    Van der Waals/kʙ        0.000000e+00 ( 0.000000e+00 +/- 0.000000e+00) [K]
Framework-molecule
    Van der Waals/kʙ        0.000000e+00 ( 0.000000e+00 +/- 0.000000e+00) [K]
    Van der Waals (Tail)/kʙ 0.000000e+00 ( 0.000000e+00 +/- 0.000000e+00) [K]
    Coulombic Real/kʙ       0.000000e+00 ( 0.000000e+00 +/- 0.000000e+00) [K]
    Coulombic Fourier/kʙ    0.000000e+00 ( 0.000000e+00 +/- 0.000000e+00) [K]
Molecule-molecule
    Van der Waals/kʙ       -2.904876e+05 (-2.849871e+05 +/- 7.602508e+03) [K]
    Van der Waals (Tail)/kʙ-7.026602e+03 (-6.936334e+03 +/- 1.633541e+02) [K]
    Coulombic Real/kʙ      -9.271208e+04 (-9.308744e+04 +/- 4.166182e+03) [K]
    Coulombic Fourier/kʙ   -8.636247e+03 (-8.628058e+03 +/- 2.529570e+02) [K]
    Molecule Intra/kʙ       0.000000e+00 ( 0.000000e+00 +/- 0.000000e+00) [K]

Current cycle: 4800 out of 5000
===============================================================================

Box:      25.68435   0.00000   0.00000  Average:  25.58441   0.00000   0.00000
           0.00000  25.68435   0.00000             0.00000  25.58441   0.00000
           0.00000   0.00000  25.68435             0.00000   0.00000  25.58441
Lengths:  25.68435  25.68435  25.68435  Average:  25.58441  25.58441  25.58441
Angles:   90.00000  90.00000  90.00000  Average:  90.00000  90.00000  90.00000
Rectangular boundary conditions

net charge:   0.00000000

component 0 (CO2) lambda:  0 occupancy:  1 (1.000000)
    net charge:   0.00000000 [e]

Amount of molecules per component :
-------------------------------------------------------------------------------
Component 0 (CO2)
    molecules:      2.500000e+02 molecules  (2.500000e+02 +/- 0.000000e+00)
    number density: 1.475484e-02 molec./A^3 (1.493377e-02 +/- 3.537503e-04)
    density:        1.078014e+03 kg/m^3     (1.091087e+03 +/- 2.584560e+01)

Average pressure tensor: 
-------------------------------------------------------------------------------
 1.7703e+02  2.5390e+01 -1.0913e+01 +/- 6.0986e+01 4.3644e+01 4.8569e+01 [bar]
 2.5390e+01  1.9694e+02  2.8443e+00 +/- 4.3644e+01 5.5028e+01 5.8623e+01 [bar]
-1.0913e+01  2.8443e+00  1.8611e+02 +/- 4.8569e+01 5.8623e+01 1.0578e+02 [bar]
Ideal-gas pressure:   5.154578e+02 +/ 1.221014e+01 [bar]
Excess pressure:     -3.287648e+02 +/ 3.191312e+01 [bar]
Pressure:             1.866930e+02 +/ 3.251437e+01 [bar]

Total potential energy/kʙ  -3.840206e+05 (-3.937228e+05 +/- 1.147820e+04) [K]
-------------------------------------------------------------------------------
ExternalField-molecule
    Van der Waals/kʙ        0.000000e+00 ( 0.000000e+00 +/- 0.000000e+00) [K]
Framework-molecule
    Van der Waals/kʙ        0.000000e+00 ( 0.000000e+00 +/- 0.000000e+00) [K]
    Van der Waals (Tail)/kʙ 0.000000e+00 ( 0.000000e+00 +/- 0.000000e+00) [K]
    Coulombic Real/kʙ       0.000000e+00 ( 0.000000e+00 +/- 0.000000e+00) [K]
    Coulombic Fourier/kʙ    0.000000e+00 ( 0.000000e+00 +/- 0.000000e+00) [K]
Molecule-molecule
    Van der Waals/kʙ       -2.885393e+05 (-2.850659e+05 +/- 7.523620e+03) [K]
    Van der Waals (Tail)/kʙ-6.850317e+03 (-6.937476e+03 +/- 1.613680e+02) [K]
    Coulombic Real/kʙ      -7.993119e+04 (-9.308320e+04 +/- 4.155359e+03) [K]
    Coulombic Fourier/kʙ   -8.699740e+03 (-8.636235e+03 +/- 2.573698e+02) [K]
    Molecule Intra/kʙ       0.000000e+00 ( 0.000000e+00 +/- 0.000000e+00) [K]

Current cycle: 4900 out of 5000
===============================================================================

Box:      25.79727   0.00000   0.00000  Average:  25.58511   0.00000   0.00000
           0.00000  25.79727   0.00000             0.00000  25.58511   0.00000
           0.00000   0.00000  25.79727             0.00000   0.00000  25.58511
Lengths:  25.79727  25.79727  25.79727  Average:  25.58511  25.58511  25.58511
Angles:   90.00000  90.00000  90.00000  Average:  90.00000  90.00000  90.00000
Rectangular boundary conditions

net charge:   0.00000000

component 0 (CO2) lambda:  0 occupancy:  1 (1.000000)
    net charge:   0.00000000 [e]

Amount of molecules per component :
-------------------------------------------------------------------------------
Component 0 (CO2)
    molecules:      2.500000e+02 molecules  (2.500000e+02 +/- 0.000000e+00)
    number density: 1.456192e-02 molec./A^3 (1.493245e-02 +/- 3.457515e-04)
    density:        1.063919e+03 kg/m^3     (1.090990e+03 +/- 2.526120e+01)

Average pressure tensor: 
-------------------------------------------------------------------------------
 1.7789e+02  2.4521e+01 -8.5480e+00 +/- 5.8100e+01 4.3563e+01 4.8381e+01 [bar]
 2.4521e+01  1.9400e+02  1.3084e-01 +/- 4.3563e+01 5.5816e+01 4.9168e+01 [bar]
-8.5480e+00  1.3084e-01  1.8507e+02 +/- 4.8381e+01 4.9168e+01 1.0228e+02 [bar]
Ideal-gas pressure:   5.154122e+02 +/ 1.193405e+01 [bar]
Excess pressure:     -3.297606e+02 +/ 3.267849e+01 [bar]
Pressure:             1.856517e+02 +/ 3.316913e+01 [bar]

Total potential energy/kʙ  -3.899185e+05 (-3.936537e+05 +/- 1.124780e+04) [K]
-------------------------------------------------------------------------------
ExternalField-molecule
    Van der Waals/kʙ        0.000000e+00 ( 0.000000e+00 +/- 0.000000e+00) [K]
Framework-molecule
    Van der Waals/kʙ        0.000000e+00 ( 0.000000e+00 +/- 0.000000e+00) [K]
    Van der Waals (Tail)/kʙ 0.000000e+00 ( 0.000000e+00 +/- 0.000000e+00) [K]
    Coulombic Real/kʙ       0.000000e+00 ( 0.000000e+00 +/- 0.000000e+00) [K]
    Coulombic Fourier/kʙ    0.000000e+00 ( 0.000000e+00 +/- 0.000000e+00) [K]
Molecule-molecule
    Van der Waals/kʙ       -2.808511e+05 (-2.850546e+05 +/- 7.345033e+03) [K]
    Van der Waals (Tail)/kʙ-6.760750e+03 (-6.936648e+03 +/- 1.575800e+02) [K]
    Coulombic Real/kʙ      -9.307077e+04 (-9.302340e+04 +/- 4.132748e+03) [K]
    Coulombic Fourier/kʙ   -9.235905e+03 (-8.639079e+03 +/- 2.492675e+02) [K]
    Molecule Intra/kʙ       0.000000e+00 ( 0.000000e+00 +/- 0.000000e+00) [K]


Energy statistics             |  Energy [K]   | Recomputed [K]|  Drift [K]    |
===============================================================================
Total potential energy/kʙ     | -3.825314e+05 | -3.825314e+05 | -2.492933e-09 |
    external field VDW/kʙ     |  0.000000e+00 |  0.000000e+00 |  0.000000e+00 |
    external field Real/kʙ    |  0.000000e+00 |  0.000000e+00 |  0.000000e+00 |
    framework-molecule VDW/kʙ |  0.000000e+00 |  0.000000e+00 |  0.000000e+00 |
    framework-molecule Real/kʙ|  0.000000e+00 |  0.000000e+00 |  0.000000e+00 |
    molecule-molecule VDW/kʙ  | -2.730646e+05 | -2.730646e+05 | -1.855206e-09 |
    molecule-molecule Real/kʙ | -9.411168e+04 | -9.411168e+04 | -6.300699e-10 |
    Van der Waals (Tail)/kʙ   | -6.616339e+03 | -6.616339e+03 |  0.000000e+00 |
    Ewald Fourier/kʙ          |  5.962648e+03 |  5.962648e+03 | -7.657100e-12 |
    Ewald self/kʙ             | -4.591696e+06 | -4.591696e+06 |  0.000000e+00 |
    Ewald exclusion/kʙ        |  4.576994e+06 |  4.576994e+06 |  0.000000e+00 |
    intra VDW/kʙ              |  0.000000e+00 |  0.000000e+00 |  0.000000e+00 |
    intra Coulombic/kʙ        |  0.000000e+00 |  0.000000e+00 |  0.000000e+00 |
    polarization/kʙ           |  0.000000e+00 |  0.000000e+00 |  0.000000e+00 |
    dU/dlambda VDW/kʙ         |  0.000000e+00 |  0.000000e+00 |  0.000000e+00 |
    dU/dlambda Real/kʙ        |  0.000000e+00 |  0.000000e+00 |  0.000000e+00 |
    dU/dlambda Ewald/kʙ       |  0.000000e+00 |  0.000000e+00 |  0.000000e+00 |
-------------------------------------------------------------------------------


Monte-Carlo moves statistics
===============================================================================

    Volume change        all:                8309
    Volume change        total:              8309
    Volume change        constructed:        8309
    Volume change        accepted:           4097
    Volume change        fraction:       0.493080
    Volume change        max-change:     0.025000

Component 0 [CO2]
    Reinsertion (CBMC)   all:              413581
    Reinsertion (CBMC)   total:            413581
    Reinsertion (CBMC)   constructed:      356247
    Reinsertion (CBMC)   accepted:           3874
    Reinsertion (CBMC)   fraction:       0.009367
    Reinsertion (CBMC)   max-change:     0.000000

    Translation          all:              414357
    Translation          total:            138468     138179     137710
    Translation          constructed:      138434     138179     137710
    Translation          accepted:          51212      70227      60952
    Translation          fraction:       0.369847   0.508232   0.442611
    Translation          max-change:     0.965787   0.619355   0.767616

    Rotation             all:              413753
    Rotation             total:            137969     138042     137742
    Rotation             constructed:      137969     138042     137742
    Rotation             accepted:          73210      62152      63520
    Rotation             fraction:       0.530626   0.450240   0.461152
    Rotation             max-change:     0.608696   0.784780   0.763393



Production run counting of the MC moves summed over systems and components
===============================================================================

Volume change                          8309 (0.6647 [%])
Reinsertion (CBMC)                   413581 (33.0865 [%])
Translation                          414357 (33.1486 [%])
Rotation                             413753 (33.1002 [%])

Production count MC-steps:          1250000 [-]
               All summed:          1250000 [-]
               difference:                0 [-]


Production run CPU timings of the MC moves
===============================================================================

Component 0 CO2

Rotation                             61.131923 [s]
    Ewald                            16.591540 [s]
    ExternalField-Molecule            0.014306 [s]
    Framework-Molecule                0.012955 [s]
    Molecule-Molecule                43.057164 [s]
    Overhead                          1.455958 [s]

Reinsertion (CBMC)                  290.856088 [s]
    Ewald                            14.431116 [s]
    NonEwald                        276.052797 [s]
    Overhead                          0.372175 [s]

Translation                          61.306714 [s]
    Ewald                            16.606983 [s]
    ExternalField-Molecule            0.013335 [s]
    Framework-Molecule                0.022304 [s]
    Molecule-Molecule                43.333387 [s]
    Overhead                          1.330705 [s]



Volume change                         72.790987 [s]
    Ewald                             15.291271 [s]
    NonEwald                          54.714915 [s]
    Tail                               2.476522 [s]

Property sampling                     0.304226 [s]
Energy/pressure sampling:             8.281658 [s]


Production run CPU timings of the MC moves summed over systems and components
===============================================================================


Translation                          61.306714 [s]
    Ewald                            16.606983 [s]
    ExternalField-Molecule            0.013335 [s]
    Framework-Molecule                0.022304 [s]
    Molecule-Molecule                43.333387 [s]
    Overhead                          1.330705 [s]

Rotation                             61.131923 [s]
    Ewald                            16.591540 [s]
    ExternalField-Molecule            0.014306 [s]
    Framework-Molecule                0.012955 [s]
    Molecule-Molecule                43.057164 [s]
    Overhead                          1.455958 [s]

Volume change                        72.790987 [s]
    Ewald                            15.291271 [s]
    NonEwald                         54.714915 [s]
    Tail                              2.476522 [s]
    Overhead                          0.308279 [s]

Reinsertion (CBMC)                  290.856088 [s]
    Ewald                            14.431116 [s]
    NonEwald                        276.052797 [s]
    Overhead                          0.372175 [s]

Property sampling:                    0.304226 [s]
Energy/pressure sampling:             8.281658 [s]

Production simulation time:         495.546781 [s]
                All summed:         494.671596 [s]
                  Overhead:           0.875185 [s]


Initalization simulation time:       97.612444 [s]
Equilibration simulation time:        0.000000 [s]
Production simulation time:         495.546781 [s]
Total simulation time:              593.159225 [s]


Energy averages and statistics:
===============================================================================

Framework-molecule energy:
-------------------------------------------------------------------------------



Framework-molecule energy contributions per energy type:
-------------------------------------------------------------------------------



Inter-molecular energy:
-------------------------------------------------------------------------------

    Inter-molecular energy/kʙ 0-0 [CO2-CO2]:
    ---------------------------------------------------------------------------
        Block[  0] -4.063521e+05
        Block[  1] -3.918020e+05
        Block[  2] -3.843100e+05
        Block[  3] -3.869982e+05
        Block[  4] -3.985562e+05
        -----------------------------------------------------------------------
        Average  -3.936037e+05 +/-  1.110923e+04 [K]



Inter-molecular energy contributions per energy type:
-------------------------------------------------------------------------------

    Van der Waals energy/kʙ 0-0 [CO2-CO2]:
    ---------------------------------------------------------------------------
        Block[  0] -2.921430e+05
        Block[  1] -2.850380e+05
        Block[  2] -2.796012e+05
        Block[  3] -2.790172e+05
        Block[  4] -2.889542e+05
        -----------------------------------------------------------------------
        Average  -2.849507e+05 +/-  7.120539e+03 [K]

    VDW Tail-Correction energy/kʙ 0-0 [CO2-CO2]:
    ---------------------------------------------------------------------------
        Block[  0] -7.102715e+03
        Block[  1] -6.927078e+03
        Block[  2] -6.822078e+03
        Block[  3] -6.812337e+03
        Block[  4] -7.003038e+03
        -----------------------------------------------------------------------
        Average  -6.933449e+03 +/-  1.528136e+02 [K]

    Coulomb Real energy/kʙ 0-0 [CO2-CO2]:
    ---------------------------------------------------------------------------
        Block[  0] -9.835199e+04
        Block[  1] -9.126135e+04
        Block[  2] -8.949463e+04
        Block[  3] -9.259041e+04
        Block[  4] -9.368756e+04
        -----------------------------------------------------------------------
        Average  -9.307719e+04 +/-  4.143827e+03 [K]

    Coulomb Fourier energy/kʙ 0-0 [CO2-CO2]:
    ---------------------------------------------------------------------------
        Block[  0] -8.754383e+03
        Block[  1] -8.575587e+03
        Block[  2] -8.392044e+03
        Block[  3] -8.578206e+03
        Block[  4] -8.911408e+03
        -----------------------------------------------------------------------
        Average  -8.642326e+03 +/-  2.453021e+02 [K]


Total energy/kʙ
-------------------------------------------------------------------------------
    Block[  0] -4.063521e+05
    Block[  1] -3.918020e+05
    Block[  2] -3.843100e+05
    Block[  3] -3.869982e+05
    Block[  4] -3.985562e+05
    ---------------------------------------------------------------------------
    Average  -3.936037e+05 +/-  1.110923e+04 [K]

Pressure averages and statistics:
===============================================================================

Average pressure tensor: 
-------------------------------------------------------------------------------
 1.8027e+02  2.2139e+01 -8.0806e+00 +/- 6.0062e+01 4.6493e+01 4.8451e+01 [bar]
 2.2139e+01  1.8931e+02 -1.5272e+00 +/- 4.6493e+01 5.9118e+01 4.4380e+01 [bar]
-8.0806e+00 -1.5272e+00  1.8216e+02 +/- 4.8451e+01 4.4380e+01 1.0365e+02 [bar]

    Block[  0]  5.277437e+07
    Block[  1]  5.150810e+07
    Block[  2]  5.066189e+07
    Block[  3]  5.058804e+07
    Block[  4]  5.204607e+07
    ---------------------------------------------------------------------------
    Ideal gas pressure   5.151569e+07 +/-  6.948440e-02 [Pa]
                         5.151569e+02 +/-  1.153816e+01 [bar]


    Block[  0] -3.065720e+07
    Block[  1] -3.648689e+07
    Block[  2] -3.104881e+07
    Block[  3] -3.174234e+07
    Block[  4] -3.568842e+07
    ---------------------------------------------------------------------------
    Excess pressure  -3.312473e+07 +/-  3.410404e+06 [Pa]
                     -3.312473e+02 +/-  3.410404e+01 [bar]


    Block[  0]  2.211717e+07
    Block[  1]  1.502121e+07
    Block[  2]  1.961308e+07
    Block[  3]  1.884570e+07
    Block[  4]  1.635765e+07
    ---------------------------------------------------------------------------
    Pressure average   1.839096e+07 +/-  3.460248e+06 [Pa]
                       1.839096e+02 +/-  3.460248e+01 [bar]


Enthalpy of adsorption
===============================================================================

No fluctuating components present.


Densities
===============================================================================

Component 0 (CO2)
    Block[  0] 250
    Block[  1] 250
    Block[  2] 250
    Block[  3] 250
    Block[  4] 250
    -----------------------------------------------------------------------
    Density average   2.500000e+02 +/-  0.000000e+00 [molecules]
    Density average   1.492505e-02 +/-  3.342820e-04 [molec/A^3]
    Density average   1.090450e+03 +/-  2.442322e+01 [kg.m⁻³]

