Compiler and run-time data
===============================================================================
RASPA 3.0.4

Random seed: 2549710119

Compiled as a 64-bits application
Compiler: gcc Ubuntu Clang 18.1.3 (1ubuntu1)
Compile Date = Mar 15 2025, Compile Time = 19:39:45

2025-06-03 09:35:50.144697
Simulation started on Tue, Jun 03
The start time was 09:35:00

Hostname:    c061
OS type:     Linux on x86_64
OS release:  6.8.0-58-generic
OS version:  #60-Ubuntu SMP PREEMPT_DYNAMIC Fri Mar 14 18:29:48 UTC 2025


Mutual consistent basic set of units:
===============================================================================

Unit of temperature: 1 [K]
Unit of length:      1e-10 [m]
Unit of time:        1e-12 [s]
Unit of mass:        1.6605402e-27 [kg]
Unit of charge:      1.60217733e-19 [C/particle]


Boltzmann constant (internal units):          0.8314464919307584 [-]
represents conversion from energy (internal units) to temperature (in Kelvin)

Derived units and their conversion factors:
===============================================================================

Unit of energy:                           1.6605402000000002e-23 [J]
Unit of energy:                           10.000008872307538 [J.mol⁻¹]
Unit of velocity:                         100 [m.s⁻¹]
Unit of force:                            1.6605402000000002e-13 [N]
Unit of diffusion:                        1.0000000000000002e-08 [m².s⁻¹]
Unit of acceleration:                     1.0000000000000002e-08 [m².s⁻¹]
Unit of torque:                           1.6605402000000002e-23 [N.m]
Unit of pressure:                         16605402 [Pa]
Unit of volume:                           1e-30 [m³]
Unit of density:                          1660.5402 [kg.m⁻³]
Unit of dynamic viscosity:                1.6605401999999997e-05 [N.s.m⁻²]
Unit of enthalpy:                         1.6605402000000002e-23 [J]
Unit of polarizability:                   1.5458657349975198e-35 [-]
Unit of Coulomb potential:                167101.08000665612 [K]
Unit of dielectric constant:              1.5458657349975193e-05 [s².C².kg⁻¹.m⁻³]
Unit of dipole moment:                    1.60217733e-29 [C.m]
Unit of Debye:                            4.803206799099162 [C.m]
Unit of electric potential:               0.00010364272224473431 [V]
Unit of electric field:                   1036427.222447343 [V.m⁻¹]
Unit of isothermal compressibility:       6.02213665167516e-08 [Pa⁻¹]
Unit of heat capacity:                    10.000008872307538 [J.mol⁻¹.K⁻¹]
Unit of volumetric expansion coefficient: 1 [K⁻¹]


Internal conversion factors:
===============================================================================

Energy (internal units) to Kelvin:      1.202724284692786 [-]
Kelvin to energy (internal units):      0.8314457542157567 [-]


System definitions
===============================================================================

Temperature:          250 [K]
Beta:                 0.0048108928702210625 [-]
Pressure:             1.2e+07 [Pa]
Helium void fraction: 1 [-]

Box:      30.00000   0.00000   0.00000
           0.00000  30.00000   0.00000
           0.00000   0.00000  30.00000
Lengths:  30.00000  30.00000  30.00000
Angles:   90.00000  90.00000  90.00000
Rectangular boundary conditions



Property measurement settings
===============================================================================




Pseudo-atoms
===============================================================================

  0 - C_co2    framework-atom: false
  1 - O_co2    framework-atom: false

  0 - C_co2    mass: 12.00000, charge:  0.70000
  1 - O_co2    mass: 15.99940, charge: -0.35000

  0 - C_co2    polarizability:  0.00000
  1 - O_co2    polarizability:  0.00000

  0 - J. J. Potoff et al., AIChE J. 2001, 47, 1676–1682.
  1 - J. J. Potoff et al., AIChE J. 2001, 47, 1676–1682.

Force field status
===============================================================================

Cutoff Framework-Molecule VDW:  10.00000 [Å]
Cutoff Molecule-Molecule VDW:   10.00000 [Å]
Cutoff Coulomb:                 10.00000 [Å]

Overlap-criteria VDW:           1.000000e+05 [K]

C_co2    - C_co2    Lennard-Jones p₀/kʙ:  27.00000 [K], p₁:  2.80000 [Å]
                                  shift:   0.00000 [K], tailcorrections: true
C_co2    - O_co2    Lennard-Jones p₀/kʙ:  46.18441 [K], p₁:  2.92500 [Å]
                                  shift:   0.00000 [K], tailcorrections: true
O_co2    - O_co2    Lennard-Jones p₀/kʙ:  79.00000 [K], p₁:  3.05000 [Å]
                                  shift:   0.00000 [K], tailcorrections: true

Ewald precision: 1e-06
Ewald alpha: 0.32079885109097883
Ewald k-vectors: 10 10 10


Component definitions
===============================================================================

Component 0 [CO2]

    Type: Adsorbate

    Critical temperature:  304.1282 [K]
    Critical pressure:     7377300 [Pa]
    Acentric factor:       0.22394 [-]

    Mol-fraction:                 1 [-]
    Swappable:                   false

    Mass:                         43.9988 [-]
    Bulk fluid density:           0 [-]
    Compressibility:              0 [-]
    Excess molecules:             0 [-]

    Number Of Atoms:    3
    CBMC starting bead: 0
      0: O_co2  position  0.00000 -0.00000  1.16000, charge -0.35000
      1: C_co2  position  0.00000 -0.00000  0.00000, charge  0.70000
      2: O_co2  position  0.00000 -0.00000 -1.16000, charge -0.35000
    Diagonalized inertia-vector:      43.05758528 43.05758528 0.00000000
    Translational degrees of freedom: 3
    Rotational degrees of freedom:    2
    Shape of the molecule is: 'Linear'
    Net-charge:        0.00000000 [e]

    Move probabilities:
    Translation:                   0.331126 [-]
    Random translation:            0.000000 [-]
    Rotation:                      0.331126 [-]
    Random rotation:               0.000000 [-]
    Volume change:                 0.006623 [-]
    Reinsertion (CBMC):            0.331126 [-]
    Identity change (CBMC):        0.000000 [-]
    Swap:                          0.000000 [-]
    Swap (CBMC):                   0.000000 [-]
    Swap (CFCMC):                  0.000000 [-]
    Swap (CB/CFCMC):               0.000000 [-]
    Gibbs volume:                  0.000000 [-]
    Gibbs swap (CBMC):             0.000000 [-]
    Gibbs swap (CFCMC):            0.000000 [-]
    Widom:                         0.000000 [-]
    Widom (CFCMC):                 0.000000 [-]
    Widom (CB/CFCMC):              0.000000 [-]
    Parallel tempering:            0.000000 [-]
    Hybrid MC:                     0.000000 [-]

    number of blocking-pockets: 0

    number of bonds: 0





Number of pseudo-atoms
===============================================================================

Component   0 (CO2)
-------------------------------------------------------------------------------
    index   0 (C_co2): 150 atoms
    index   1 (O_co2): 300 atoms

Total number of pseudo-atoms:
-------------------------------------------------------------------------------
    index   0 (C_co2): 150 atoms
    index   1 (O_co2): 300 atoms




Energy status Recomputed from scratch
===============================================================================

Total potential energy/kʙ       -4.667017e+04 [K]
    external field VDW/kʙ        0.000000e+00 [K]
    external field Real/kʙ       0.000000e+00 [K]
    framework-molecule VDW/kʙ    0.000000e+00 [K]
    framework-molecule Real/kʙ   0.000000e+00 [K]
    molecule-molecule VDW/kʙ    -3.201442e+04 [K]
    molecule-molecule Real/kʙ   -1.032970e+04 [K]
    Van der Waals (Tail)/kʙ     -2.673791e+03 [K]
    Ewald Fourier/kʙ             2.014403e+04 [K]
    Ewald self/kʙ               -3.334385e+06 [K]
    Ewald exclusion/kʙ           3.312589e+06 [K]
    intra VDW/kʙ                 0.000000e+00 [K]
    intra Coulombic/kʙ           0.000000e+00 [K]
    polarization/kʙ              0.000000e+00 [K]
    dU/dlambda VDW/kʙ            0.000000e+00 [K]
    dU/dlambda Real/kʙ           0.000000e+00 [K]
    dU/dlambda Ewald/kʙ          0.000000e+00 [K]





Initialization: Current cycle: 0 out of 1000
===============================================================================

Box:      30.83236   0.00000   0.00000
           0.00000  30.83236   0.00000
           0.00000   0.00000  30.83236
Lengths:  30.83236  30.83236  30.83236
Angles:   90.00000  90.00000  90.00000
Rectangular boundary conditions

net charge:   0.00000000

component   0 (CO2) lambda:  0 occupancy:  1 (1.000000)
    net charge:   0.00000000 [e]

Amount of molecules per component :
-------------------------------------------------------------------------------
Component 0 (CO2)
    molecules:         1.500000e+02 molecules
    number density:    5.117653e-03 molec/A^3
    density:           3.739045e+02 kg/m^3

Total potential energy/kʙ       -7.055424e+04 [K]
-------------------------------------------------------------------------------
    external field VDW/kʙ        0.000000e+00 [K]
    external field Real/kʙ       0.000000e+00 [K]
    framework-molecule VDW/kʙ    0.000000e+00 [K]
    framework-molecule Real/kʙ   0.000000e+00 [K]
    molecule-molecule VDW/kʙ    -5.469637e+04 [K]
    molecule-molecule Real/kʙ   -1.020419e+04 [K]
    Van der Waals (Tail)/kʙ     -2.463036e+03 [K]
    Ewald Fourier/kʙ             1.860563e+04 [K]
    Ewald self/kʙ               -3.334385e+06 [K]
    Ewald exclusion/kʙ           3.312589e+06 [K]
    intra VDW/kʙ                 0.000000e+00 [K]
    intra Coulombic/kʙ           0.000000e+00 [K]
    polarization/kʙ              0.000000e+00 [K]
    dU/dlambda VDW/kʙ            0.000000e+00 [K]
    dU/dlambda Real/kʙ           0.000000e+00 [K]
    dU/dlambda Ewald/kʙ          0.000000e+00 [K]


Initialization: Current cycle: 100 out of 1000
===============================================================================

Box:      27.88838   0.00000   0.00000
           0.00000  27.88838   0.00000
           0.00000   0.00000  27.88838
Lengths:  27.88838  27.88838  27.88838
Angles:   90.00000  90.00000  90.00000
Rectangular boundary conditions

net charge:   0.00000000

component   0 (CO2) lambda:  0 occupancy:  1 (1.000000)
    net charge:   0.00000000 [e]

Amount of molecules per component :
-------------------------------------------------------------------------------
Component 0 (CO2)
    molecules:         1.500000e+02 molecules
    number density:    6.915465e-03 molec/A^3
    density:           5.052557e+02 kg/m^3

Total potential energy/kʙ       -1.280524e+05 [K]
-------------------------------------------------------------------------------
    external field VDW/kʙ        0.000000e+00 [K]
    external field Real/kʙ       0.000000e+00 [K]
    framework-molecule VDW/kʙ    0.000000e+00 [K]
    framework-molecule Real/kʙ   0.000000e+00 [K]
    molecule-molecule VDW/kʙ    -9.047052e+04 [K]
    molecule-molecule Real/kʙ   -2.837707e+04 [K]
    Van der Waals (Tail)/kʙ     -3.328291e+03 [K]
    Ewald Fourier/kʙ             1.591974e+04 [K]
    Ewald self/kʙ               -3.334385e+06 [K]
    Ewald exclusion/kʙ           3.312589e+06 [K]
    intra VDW/kʙ                 0.000000e+00 [K]
    intra Coulombic/kʙ           0.000000e+00 [K]
    polarization/kʙ              0.000000e+00 [K]
    dU/dlambda VDW/kʙ            0.000000e+00 [K]
    dU/dlambda Real/kʙ           0.000000e+00 [K]
    dU/dlambda Ewald/kʙ          0.000000e+00 [K]


Initialization: Current cycle: 200 out of 1000
===============================================================================

Box:      26.66365   0.00000   0.00000
           0.00000  26.66365   0.00000
           0.00000   0.00000  26.66365
Lengths:  26.66365  26.66365  26.66365
Angles:   90.00000  90.00000  90.00000
Rectangular boundary conditions

net charge:   0.00000000

component   0 (CO2) lambda:  0 occupancy:  1 (1.000000)
    net charge:   0.00000000 [e]

Amount of molecules per component :
-------------------------------------------------------------------------------
Component 0 (CO2)
    molecules:         1.500000e+02 molecules
    number density:    7.912841e-03 molec/A^3
    density:           5.781257e+02 kg/m^3

Total potential energy/kʙ       -1.398387e+05 [K]
-------------------------------------------------------------------------------
    external field VDW/kʙ        0.000000e+00 [K]
    external field Real/kʙ       0.000000e+00 [K]
    framework-molecule VDW/kʙ    0.000000e+00 [K]
    framework-molecule Real/kʙ   0.000000e+00 [K]
    molecule-molecule VDW/kʙ    -1.016976e+05 [K]
    molecule-molecule Real/kʙ   -2.827610e+04 [K]
    Van der Waals (Tail)/kʙ     -3.808311e+03 [K]
    Ewald Fourier/kʙ             1.573968e+04 [K]
    Ewald self/kʙ               -3.334385e+06 [K]
    Ewald exclusion/kʙ           3.312589e+06 [K]
    intra VDW/kʙ                 0.000000e+00 [K]
    intra Coulombic/kʙ           0.000000e+00 [K]
    polarization/kʙ              0.000000e+00 [K]
    dU/dlambda VDW/kʙ            0.000000e+00 [K]
    dU/dlambda Real/kʙ           0.000000e+00 [K]
    dU/dlambda Ewald/kʙ          0.000000e+00 [K]


Initialization: Current cycle: 300 out of 1000
===============================================================================

Box:      25.54330   0.00000   0.00000
           0.00000  25.54330   0.00000
           0.00000   0.00000  25.54330
Lengths:  25.54330  25.54330  25.54330
Angles:   90.00000  90.00000  90.00000
Rectangular boundary conditions

net charge:   0.00000000

component   0 (CO2) lambda:  0 occupancy:  1 (1.000000)
    net charge:   0.00000000 [e]

Amount of molecules per component :
-------------------------------------------------------------------------------
Component 0 (CO2)
    molecules:         1.500000e+02 molecules
    number density:    9.000368e-03 molec/A^3
    density:           6.575823e+02 kg/m^3

Total potential energy/kʙ       -1.522962e+05 [K]
-------------------------------------------------------------------------------
    external field VDW/kʙ        0.000000e+00 [K]
    external field Real/kʙ       0.000000e+00 [K]
    framework-molecule VDW/kʙ    0.000000e+00 [K]
    framework-molecule Real/kʙ   0.000000e+00 [K]
    molecule-molecule VDW/kʙ    -1.067519e+05 [K]
    molecule-molecule Real/kʙ   -3.314088e+04 [K]
    Van der Waals (Tail)/kʙ     -4.331718e+03 [K]
    Ewald Fourier/kʙ             1.372458e+04 [K]
    Ewald self/kʙ               -3.334385e+06 [K]
    Ewald exclusion/kʙ           3.312589e+06 [K]
    intra VDW/kʙ                 0.000000e+00 [K]
    intra Coulombic/kʙ           0.000000e+00 [K]
    polarization/kʙ              0.000000e+00 [K]
    dU/dlambda VDW/kʙ            0.000000e+00 [K]
    dU/dlambda Real/kʙ           0.000000e+00 [K]
    dU/dlambda Ewald/kʙ          0.000000e+00 [K]


Initialization: Current cycle: 400 out of 1000
===============================================================================

Box:      23.65842   0.00000   0.00000
           0.00000  23.65842   0.00000
           0.00000   0.00000  23.65842
Lengths:  23.65842  23.65842  23.65842
Angles:   90.00000  90.00000  90.00000
Rectangular boundary conditions

net charge:   0.00000000

component   0 (CO2) lambda:  0 occupancy:  1 (1.000000)
    net charge:   0.00000000 [e]

Amount of molecules per component :
-------------------------------------------------------------------------------
Component 0 (CO2)
    molecules:         1.500000e+02 molecules
    number density:    1.132750e-02 molec/A^3
    density:           8.276068e+02 kg/m^3

Total potential energy/kʙ       -1.736903e+05 [K]
-------------------------------------------------------------------------------
    external field VDW/kʙ        0.000000e+00 [K]
    external field Real/kʙ       0.000000e+00 [K]
    framework-molecule VDW/kʙ    0.000000e+00 [K]
    framework-molecule Real/kʙ   0.000000e+00 [K]
    molecule-molecule VDW/kʙ    -1.265881e+05 [K]
    molecule-molecule Real/kʙ   -3.269875e+04 [K]
    Van der Waals (Tail)/kʙ     -5.451728e+03 [K]
    Ewald Fourier/kʙ             1.284458e+04 [K]
    Ewald self/kʙ               -3.334385e+06 [K]
    Ewald exclusion/kʙ           3.312589e+06 [K]
    intra VDW/kʙ                 0.000000e+00 [K]
    intra Coulombic/kʙ           0.000000e+00 [K]
    polarization/kʙ              0.000000e+00 [K]
    dU/dlambda VDW/kʙ            0.000000e+00 [K]
    dU/dlambda Real/kʙ           0.000000e+00 [K]
    dU/dlambda Ewald/kʙ          0.000000e+00 [K]


Initialization: Current cycle: 500 out of 1000
===============================================================================

Box:      22.58212   0.00000   0.00000
           0.00000  22.58212   0.00000
           0.00000   0.00000  22.58212
Lengths:  22.58212  22.58212  22.58212
Angles:   90.00000  90.00000  90.00000
Rectangular boundary conditions

net charge:   0.00000000

component   0 (CO2) lambda:  0 occupancy:  1 (1.000000)
    net charge:   0.00000000 [e]

Amount of molecules per component :
-------------------------------------------------------------------------------
Component 0 (CO2)
    molecules:         1.500000e+02 molecules
    number density:    1.302559e-02 molec/A^3
    density:           9.516718e+02 kg/m^3

Total potential energy/kʙ       -2.015049e+05 [K]
-------------------------------------------------------------------------------
    external field VDW/kʙ        0.000000e+00 [K]
    external field Real/kʙ       0.000000e+00 [K]
    framework-molecule VDW/kʙ    0.000000e+00 [K]
    framework-molecule Real/kʙ   0.000000e+00 [K]
    molecule-molecule VDW/kʙ    -1.408384e+05 [K]
    molecule-molecule Real/kʙ   -4.355361e+04 [K]
    Van der Waals (Tail)/kʙ     -6.268986e+03 [K]
    Ewald Fourier/kʙ             1.095244e+04 [K]
    Ewald self/kʙ               -3.334385e+06 [K]
    Ewald exclusion/kʙ           3.312589e+06 [K]
    intra VDW/kʙ                 0.000000e+00 [K]
    intra Coulombic/kʙ           0.000000e+00 [K]
    polarization/kʙ              0.000000e+00 [K]
    dU/dlambda VDW/kʙ            0.000000e+00 [K]
    dU/dlambda Real/kʙ           0.000000e+00 [K]
    dU/dlambda Ewald/kʙ          0.000000e+00 [K]


Initialization: Current cycle: 600 out of 1000
===============================================================================

Box:      22.21116   0.00000   0.00000
           0.00000  22.21116   0.00000
           0.00000   0.00000  22.21116
Lengths:  22.21116  22.21116  22.21116
Angles:   90.00000  90.00000  90.00000
Rectangular boundary conditions

net charge:   0.00000000

component   0 (CO2) lambda:  0 occupancy:  1 (1.000000)
    net charge:   0.00000000 [e]

Amount of molecules per component :
-------------------------------------------------------------------------------
Component 0 (CO2)
    molecules:         1.500000e+02 molecules
    number density:    1.368919e-02 molec/A^3
    density:           1.000156e+03 kg/m^3

Total potential energy/kʙ       -2.109653e+05 [K]
-------------------------------------------------------------------------------
    external field VDW/kʙ        0.000000e+00 [K]
    external field Real/kʙ       0.000000e+00 [K]
    framework-molecule VDW/kʙ    0.000000e+00 [K]
    framework-molecule Real/kʙ   0.000000e+00 [K]
    molecule-molecule VDW/kʙ    -1.552189e+05 [K]
    molecule-molecule Real/kʙ   -3.872097e+04 [K]
    Van der Waals (Tail)/kʙ     -6.588367e+03 [K]
    Ewald Fourier/kʙ             1.135918e+04 [K]
    Ewald self/kʙ               -3.334385e+06 [K]
    Ewald exclusion/kʙ           3.312589e+06 [K]
    intra VDW/kʙ                 0.000000e+00 [K]
    intra Coulombic/kʙ           0.000000e+00 [K]
    polarization/kʙ              0.000000e+00 [K]
    dU/dlambda VDW/kʙ            0.000000e+00 [K]
    dU/dlambda Real/kʙ           0.000000e+00 [K]
    dU/dlambda Ewald/kʙ          0.000000e+00 [K]


Initialization: Current cycle: 700 out of 1000
===============================================================================

Box:      21.77814   0.00000   0.00000
           0.00000  21.77814   0.00000
           0.00000   0.00000  21.77814
Lengths:  21.77814  21.77814  21.77814
Angles:   90.00000  90.00000  90.00000
Rectangular boundary conditions

net charge:   0.00000000

component   0 (CO2) lambda:  0 occupancy:  1 (1.000000)
    net charge:   0.00000000 [e]

Amount of molecules per component :
-------------------------------------------------------------------------------
Component 0 (CO2)
    molecules:         1.500000e+02 molecules
    number density:    1.452208e-02 molec/A^3
    density:           1.061008e+03 kg/m^3

Total potential energy/kʙ       -2.242002e+05 [K]
-------------------------------------------------------------------------------
    external field VDW/kʙ        0.000000e+00 [K]
    external field Real/kʙ       0.000000e+00 [K]
    framework-molecule VDW/kʙ    0.000000e+00 [K]
    framework-molecule Real/kʙ   0.000000e+00 [K]
    molecule-molecule VDW/kʙ    -1.644018e+05 [K]
    molecule-molecule Real/kʙ   -4.149249e+04 [K]
    Van der Waals (Tail)/kʙ     -6.989222e+03 [K]
    Ewald Fourier/kʙ             1.047958e+04 [K]
    Ewald self/kʙ               -3.334385e+06 [K]
    Ewald exclusion/kʙ           3.312589e+06 [K]
    intra VDW/kʙ                 0.000000e+00 [K]
    intra Coulombic/kʙ           0.000000e+00 [K]
    polarization/kʙ              0.000000e+00 [K]
    dU/dlambda VDW/kʙ            0.000000e+00 [K]
    dU/dlambda Real/kʙ           0.000000e+00 [K]
    dU/dlambda Ewald/kʙ          0.000000e+00 [K]


Initialization: Current cycle: 800 out of 1000
===============================================================================

Box:      21.81479   0.00000   0.00000
           0.00000  21.81479   0.00000
           0.00000   0.00000  21.81479
Lengths:  21.81479  21.81479  21.81479
Angles:   90.00000  90.00000  90.00000
Rectangular boundary conditions

net charge:   0.00000000

component   0 (CO2) lambda:  0 occupancy:  1 (1.000000)
    net charge:   0.00000000 [e]

Amount of molecules per component :
-------------------------------------------------------------------------------
Component 0 (CO2)
    molecules:         1.500000e+02 molecules
    number density:    1.444901e-02 molec/A^3
    density:           1.055670e+03 kg/m^3

Total potential energy/kʙ       -2.268252e+05 [K]
-------------------------------------------------------------------------------
    external field VDW/kʙ        0.000000e+00 [K]
    external field Real/kʙ       0.000000e+00 [K]
    framework-molecule VDW/kʙ    0.000000e+00 [K]
    framework-molecule Real/kʙ   0.000000e+00 [K]
    molecule-molecule VDW/kʙ    -1.639451e+05 [K]
    molecule-molecule Real/kʙ   -4.424178e+04 [K]
    Van der Waals (Tail)/kʙ     -6.954055e+03 [K]
    Ewald Fourier/kʙ             1.011202e+04 [K]
    Ewald self/kʙ               -3.334385e+06 [K]
    Ewald exclusion/kʙ           3.312589e+06 [K]
    intra VDW/kʙ                 0.000000e+00 [K]
    intra Coulombic/kʙ           0.000000e+00 [K]
    polarization/kʙ              0.000000e+00 [K]
    dU/dlambda VDW/kʙ            0.000000e+00 [K]
    dU/dlambda Real/kʙ           0.000000e+00 [K]
    dU/dlambda Ewald/kʙ          0.000000e+00 [K]


Initialization: Current cycle: 900 out of 1000
===============================================================================

Box:      21.56351   0.00000   0.00000
           0.00000  21.56351   0.00000
           0.00000   0.00000  21.56351
Lengths:  21.56351  21.56351  21.56351
Angles:   90.00000  90.00000  90.00000
Rectangular boundary conditions

net charge:   0.00000000

component   0 (CO2) lambda:  0 occupancy:  1 (1.000000)
    net charge:   0.00000000 [e]

Amount of molecules per component :
-------------------------------------------------------------------------------
Component 0 (CO2)
    molecules:         1.500000e+02 molecules
    number density:    1.496004e-02 molec/A^3
    density:           1.093006e+03 kg/m^3

Total potential energy/kʙ       -2.363610e+05 [K]
-------------------------------------------------------------------------------
    external field VDW/kʙ        0.000000e+00 [K]
    external field Real/kʙ       0.000000e+00 [K]
    framework-molecule VDW/kʙ    0.000000e+00 [K]
    framework-molecule Real/kʙ   0.000000e+00 [K]
    molecule-molecule VDW/kʙ    -1.703079e+05 [K]
    molecule-molecule Real/kʙ   -4.700214e+04 [K]
    Van der Waals (Tail)/kʙ     -7.200004e+03 [K]
    Ewald Fourier/kʙ             9.945312e+03 [K]
    Ewald self/kʙ               -3.334385e+06 [K]
    Ewald exclusion/kʙ           3.312589e+06 [K]
    intra VDW/kʙ                 0.000000e+00 [K]
    intra Coulombic/kʙ           0.000000e+00 [K]
    polarization/kʙ              0.000000e+00 [K]
    dU/dlambda VDW/kʙ            0.000000e+00 [K]
    dU/dlambda Real/kʙ           0.000000e+00 [K]
    dU/dlambda Ewald/kʙ          0.000000e+00 [K]


Current cycle: 0 out of 5000
===============================================================================

Box:      21.34159   0.00000   0.00000  Average:  21.34159   0.00000   0.00000
           0.00000  21.34159   0.00000             0.00000  21.34159   0.00000
           0.00000   0.00000  21.34159             0.00000   0.00000  21.34159
Lengths:  21.34159  21.34159  21.34159  Average:  21.34159  21.34159  21.34159
Angles:   90.00000  90.00000  90.00000  Average:  90.00000  90.00000  90.00000
Rectangular boundary conditions

net charge:   0.00000000

component 0 (CO2) lambda:  0 occupancy:  1 (1.000000)
    net charge:   0.00000000 [e]

Amount of molecules per component :
-------------------------------------------------------------------------------
Component 0 (CO2)
    molecules:      1.500000e+02 molecules  (1.500000e+02 +/- 0.000000e+00)
    number density: 1.543159e-02 molec./A^3 (1.543159e-02 +/- 0.000000e+00)
    density:        1.127458e+03 kg/m^3     (1.127458e+03 +/- 0.000000e+00)

Average pressure tensor: 
-------------------------------------------------------------------------------
 5.3264e+02  0.0000e+00  0.0000e+00 +/- 0.0000e+00 0.0000e+00 0.0000e+00 [bar]
 0.0000e+00  5.3264e+02  0.0000e+00 +/- 0.0000e+00 0.0000e+00 0.0000e+00 [bar]
 0.0000e+00  0.0000e+00  5.3264e+02 +/- 0.0000e+00 0.0000e+00 0.0000e+00 [bar]
Ideal-gas pressure:   5.326407e+02 +/ 0.000000e+00 [bar]
Excess pressure:      0.000000e+00 +/ 0.000000e+00 [bar]
Pressure:             5.326407e+02 +/ 0.000000e+00 [bar]

Total potential energy/kʙ  -2.348669e+05 (-2.348669e+05 +/- 0.000000e+00) [K]
-------------------------------------------------------------------------------
ExternalField-molecule
    Van der Waals/kʙ        0.000000e+00 ( 0.000000e+00 +/- 0.000000e+00) [K]
Framework-molecule
    Van der Waals/kʙ        0.000000e+00 ( 0.000000e+00 +/- 0.000000e+00) [K]
    Van der Waals (Tail)/kʙ 0.000000e+00 ( 0.000000e+00 +/- 0.000000e+00) [K]
    Coulombic Real/kʙ       0.000000e+00 ( 0.000000e+00 +/- 0.000000e+00) [K]
    Coulombic Fourier/kʙ    0.000000e+00 ( 0.000000e+00 +/- 0.000000e+00) [K]
Molecule-molecule
    Van der Waals/kʙ       -1.704185e+05 (-1.704185e+05 +/- 0.000000e+00) [K]
    Van der Waals (Tail)/kʙ-7.426951e+03 (-7.426951e+03 +/- 0.000000e+00) [K]
    Coulombic Real/kʙ      -4.531344e+04 (-4.531344e+04 +/- 0.000000e+00) [K]
    Coulombic Fourier/kʙ   -1.170801e+04 (-1.170801e+04 +/- 0.000000e+00) [K]
    Molecule Intra/kʙ       0.000000e+00 ( 0.000000e+00 +/- 0.000000e+00) [K]

Current cycle: 100 out of 5000
===============================================================================

Box:      22.10310   0.00000   0.00000  Average:  21.92121   0.00000   0.00000
           0.00000  22.10310   0.00000             0.00000  21.92121   0.00000
           0.00000   0.00000  22.10310             0.00000   0.00000  21.92121
Lengths:  22.10310  22.10310  22.10310  Average:  21.92121  21.92121  21.92121
Angles:   90.00000  90.00000  90.00000  Average:  90.00000  90.00000  90.00000
Rectangular boundary conditions

net charge:   0.00000000

component 0 (CO2) lambda:  0 occupancy:  1 (1.000000)
    net charge:   0.00000000 [e]

Amount of molecules per component :
-------------------------------------------------------------------------------
Component 0 (CO2)
    molecules:      1.500000e+02 molecules  (1.500000e+02 +/- 0.000000e+00)
    number density: 1.389094e-02 molec./A^3 (1.424679e-02 +/- 0.000000e+00)
    density:        1.014896e+03 kg/m^3     (1.040895e+03 +/- 0.000000e+00)

Average pressure tensor: 
-------------------------------------------------------------------------------
 2.0831e+02 -1.3613e+01  6.3681e+01 +/- 0.0000e+00 0.0000e+00 0.0000e+00 [bar]
-1.3613e+01  3.5918e+01 -9.8081e+01 +/- 0.0000e+00 0.0000e+00 0.0000e+00 [bar]
 6.3681e+01 -9.8081e+01  1.8800e+02 +/- 0.0000e+00 0.0000e+00 0.0000e+00 [bar]
Ideal-gas pressure:   4.917458e+02 +/ 0.000000e+00 [bar]
Excess pressure:     -3.476698e+02 +/ 0.000000e+00 [bar]
Pressure:             1.440760e+02 +/ 0.000000e+00 [bar]

Total potential energy/kʙ  -2.187461e+05 (-2.219092e+05 +/- 0.000000e+00) [K]
-------------------------------------------------------------------------------
ExternalField-molecule
    Van der Waals/kʙ        0.000000e+00 ( 0.000000e+00 +/- 0.000000e+00) [K]
Framework-molecule
    Van der Waals/kʙ        0.000000e+00 ( 0.000000e+00 +/- 0.000000e+00) [K]
    Van der Waals (Tail)/kʙ 0.000000e+00 ( 0.000000e+00 +/- 0.000000e+00) [K]
    Coulombic Real/kʙ       0.000000e+00 ( 0.000000e+00 +/- 0.000000e+00) [K]
    Coulombic Fourier/kʙ    0.000000e+00 ( 0.000000e+00 +/- 0.000000e+00) [K]
Molecule-molecule
    Van der Waals/kʙ       -1.593988e+05 (-1.607442e+05 +/- 0.000000e+00) [K]
    Van der Waals (Tail)/kʙ-6.685466e+03 (-6.878130e+03 +/- 0.000000e+00) [K]
    Coulombic Real/kʙ      -4.100899e+04 (-4.298858e+04 +/- 0.000000e+00) [K]
    Coulombic Fourier/kʙ   -1.165289e+04 (-1.129826e+04 +/- 0.000000e+00) [K]
    Molecule Intra/kʙ       0.000000e+00 ( 0.000000e+00 +/- 0.000000e+00) [K]

Current cycle: 200 out of 5000
===============================================================================

Box:      21.62823   0.00000   0.00000  Average:  21.84480   0.00000   0.00000
           0.00000  21.62823   0.00000             0.00000  21.84480   0.00000
           0.00000   0.00000  21.62823             0.00000   0.00000  21.84480
Lengths:  21.62823  21.62823  21.62823  Average:  21.84480  21.84480  21.84480
Angles:   90.00000  90.00000  90.00000  Average:  90.00000  90.00000  90.00000
Rectangular boundary conditions

net charge:   0.00000000

component 0 (CO2) lambda:  0 occupancy:  1 (1.000000)
    net charge:   0.00000000 [e]

Amount of molecules per component :
-------------------------------------------------------------------------------
Component 0 (CO2)
    molecules:      1.500000e+02 molecules  (1.500000e+02 +/- 0.000000e+00)
    number density: 1.482614e-02 molec./A^3 (1.439598e-02 +/- 0.000000e+00)
    density:        1.083223e+03 kg/m^3     (1.051795e+03 +/- 0.000000e+00)

Average pressure tensor: 
-------------------------------------------------------------------------------
 1.5409e+02  3.8639e+01  7.2680e+00 +/- 0.0000e+00 0.0000e+00 0.0000e+00 [bar]
 3.8639e+01  1.7752e+02  3.0052e+01 +/- 0.0000e+00 0.0000e+00 0.0000e+00 [bar]
 7.2680e+00  3.0052e+01  5.8214e+01 +/- 0.0000e+00 0.0000e+00 0.0000e+00 [bar]
Ideal-gas pressure:   4.968952e+02 +/ 0.000000e+00 [bar]
Excess pressure:     -3.669543e+02 +/ 0.000000e+00 [bar]
Pressure:             1.299409e+02 +/ 0.000000e+00 [bar]

Total potential energy/kʙ  -2.257020e+05 (-2.246913e+05 +/- 0.000000e+00) [K]
-------------------------------------------------------------------------------
ExternalField-molecule
    Van der Waals/kʙ        0.000000e+00 ( 0.000000e+00 +/- 0.000000e+00) [K]
Framework-molecule
    Van der Waals/kʙ        0.000000e+00 ( 0.000000e+00 +/- 0.000000e+00) [K]
    Van der Waals (Tail)/kʙ 0.000000e+00 ( 0.000000e+00 +/- 0.000000e+00) [K]
    Coulombic Real/kʙ       0.000000e+00 ( 0.000000e+00 +/- 0.000000e+00) [K]
    Coulombic Fourier/kʙ    0.000000e+00 ( 0.000000e+00 +/- 0.000000e+00) [K]
Molecule-molecule
    Van der Waals/kʙ       -1.652571e+05 (-1.625484e+05 +/- 0.000000e+00) [K]
    Van der Waals (Tail)/kʙ-7.135562e+03 (-6.963524e+03 +/- 0.000000e+00) [K]
    Coulombic Real/kʙ      -4.268259e+04 (-4.398837e+04 +/- 0.000000e+00) [K]
    Coulombic Fourier/kʙ   -1.062671e+04 (-1.119104e+04 +/- 0.000000e+00) [K]
    Molecule Intra/kʙ       0.000000e+00 ( 0.000000e+00 +/- 0.000000e+00) [K]

Current cycle: 300 out of 5000
===============================================================================

Box:      21.54518   0.00000   0.00000  Average:  21.76956   0.00000   0.00000
           0.00000  21.54518   0.00000             0.00000  21.76956   0.00000
           0.00000   0.00000  21.54518             0.00000   0.00000  21.76956
Lengths:  21.54518  21.54518  21.54518  Average:  21.76956  21.76956  21.76956
Angles:   90.00000  90.00000  90.00000  Average:  90.00000  90.00000  90.00000
Rectangular boundary conditions

net charge:   0.00000000

component 0 (CO2) lambda:  0 occupancy:  1 (1.000000)
    net charge:   0.00000000 [e]

Amount of molecules per component :
-------------------------------------------------------------------------------
Component 0 (CO2)
    molecules:      1.500000e+02 molecules  (1.500000e+02 +/- 0.000000e+00)
    number density: 1.499825e-02 molec./A^3 (1.454615e-02 +/- 0.000000e+00)
    density:        1.095798e+03 kg/m^3     (1.062767e+03 +/- 0.000000e+00)

Average pressure tensor: 
-------------------------------------------------------------------------------
 9.4203e+01  3.3283e+01  7.6693e+01 +/- 0.0000e+00 0.0000e+00 0.0000e+00 [bar]
 3.3283e+01  1.9692e+02 -2.1104e+01 +/- 0.0000e+00 0.0000e+00 0.0000e+00 [bar]
 7.6693e+01 -2.1104e+01  8.2448e+01 +/- 0.0000e+00 0.0000e+00 0.0000e+00 [bar]
Ideal-gas pressure:   5.020788e+02 +/ 0.000000e+00 [bar]
Excess pressure:     -3.775560e+02 +/ 0.000000e+00 [bar]
Pressure:             1.245228e+02 +/ 0.000000e+00 [bar]

Total potential energy/kʙ  -2.344802e+05 (-2.272602e+05 +/- 0.000000e+00) [K]
-------------------------------------------------------------------------------
ExternalField-molecule
    Van der Waals/kʙ        0.000000e+00 ( 0.000000e+00 +/- 0.000000e+00) [K]
Framework-molecule
    Van der Waals/kʙ        0.000000e+00 ( 0.000000e+00 +/- 0.000000e+00) [K]
    Van der Waals (Tail)/kʙ 0.000000e+00 ( 0.000000e+00 +/- 0.000000e+00) [K]
    Coulombic Real/kʙ       0.000000e+00 ( 0.000000e+00 +/- 0.000000e+00) [K]
    Coulombic Fourier/kʙ    0.000000e+00 ( 0.000000e+00 +/- 0.000000e+00) [K]
Molecule-molecule
    Van der Waals/kʙ       -1.702738e+05 (-1.641101e+05 +/- 0.000000e+00) [K]
    Van der Waals (Tail)/kʙ-7.218394e+03 (-7.019835e+03 +/- 0.000000e+00) [K]
    Coulombic Real/kʙ      -4.685407e+04 (-4.493048e+04 +/- 0.000000e+00) [K]
    Coulombic Fourier/kʙ   -1.013399e+04 (-1.119978e+04 +/- 0.000000e+00) [K]
    Molecule Intra/kʙ       0.000000e+00 ( 0.000000e+00 +/- 0.000000e+00) [K]

Current cycle: 400 out of 5000
===============================================================================

Box:      21.43959   0.00000   0.00000  Average:  21.72008   0.00000   0.00000
           0.00000  21.43959   0.00000             0.00000  21.72008   0.00000
           0.00000   0.00000  21.43959             0.00000   0.00000  21.72008
Lengths:  21.43959  21.43959  21.43959  Average:  21.72008  21.72008  21.72008
Angles:   90.00000  90.00000  90.00000  Average:  90.00000  90.00000  90.00000
Rectangular boundary conditions

net charge:   0.00000000

component 0 (CO2) lambda:  0 occupancy:  1 (1.000000)
    net charge:   0.00000000 [e]

Amount of molecules per component :
-------------------------------------------------------------------------------
Component 0 (CO2)
    molecules:      1.500000e+02 molecules  (1.500000e+02 +/- 0.000000e+00)
    number density: 1.522094e-02 molec./A^3 (1.464590e-02 +/- 0.000000e+00)
    density:        1.112068e+03 kg/m^3     (1.070055e+03 +/- 0.000000e+00)

Average pressure tensor: 
-------------------------------------------------------------------------------
 9.3030e+01  1.0175e+02  5.5927e+01 +/- 0.0000e+00 0.0000e+00 0.0000e+00 [bar]
 1.0175e+02  2.0244e+02 -3.7108e+01 +/- 0.0000e+00 0.0000e+00 0.0000e+00 [bar]
 5.5927e+01 -3.7108e+01  1.4674e+02 +/- 0.0000e+00 0.0000e+00 0.0000e+00 [bar]
Ideal-gas pressure:   5.055218e+02 +/ 0.000000e+00 [bar]
Excess pressure:     -3.581195e+02 +/ 0.000000e+00 [bar]
Pressure:             1.474023e+02 +/ 0.000000e+00 [bar]

Total potential energy/kʙ  -2.379042e+05 (-2.295228e+05 +/- 0.000000e+00) [K]
-------------------------------------------------------------------------------
ExternalField-molecule
    Van der Waals/kʙ        0.000000e+00 ( 0.000000e+00 +/- 0.000000e+00) [K]
Framework-molecule
    Van der Waals/kʙ        0.000000e+00 ( 0.000000e+00 +/- 0.000000e+00) [K]
    Van der Waals (Tail)/kʙ 0.000000e+00 ( 0.000000e+00 +/- 0.000000e+00) [K]
    Coulombic Real/kʙ       0.000000e+00 ( 0.000000e+00 +/- 0.000000e+00) [K]
    Coulombic Fourier/kʙ    0.000000e+00 ( 0.000000e+00 +/- 0.000000e+00) [K]
Molecule-molecule
    Van der Waals/kʙ       -1.688888e+05 (-1.651237e+05 +/- 0.000000e+00) [K]
    Van der Waals (Tail)/kʙ-7.325571e+03 (-7.064271e+03 +/- 0.000000e+00) [K]
    Coulombic Real/kʙ      -4.947907e+04 (-4.597357e+04 +/- 0.000000e+00) [K]
    Coulombic Fourier/kʙ   -1.221075e+04 (-1.136130e+04 +/- 0.000000e+00) [K]
    Molecule Intra/kʙ       0.000000e+00 ( 0.000000e+00 +/- 0.000000e+00) [K]

Current cycle: 500 out of 5000
===============================================================================

Box:      21.28236   0.00000   0.00000  Average:  21.67239   0.00000   0.00000
           0.00000  21.28236   0.00000             0.00000  21.67239   0.00000
           0.00000   0.00000  21.28236             0.00000   0.00000  21.67239
Lengths:  21.28236  21.28236  21.28236  Average:  21.67239  21.67239  21.67239
Angles:   90.00000  90.00000  90.00000  Average:  90.00000  90.00000  90.00000
Rectangular boundary conditions

net charge:   0.00000000

component 0 (CO2) lambda:  0 occupancy:  1 (1.000000)
    net charge:   0.00000000 [e]

Amount of molecules per component :
-------------------------------------------------------------------------------
Component 0 (CO2)
    molecules:      1.500000e+02 molecules  (1.500000e+02 +/- 0.000000e+00)
    number density: 1.556080e-02 molec./A^3 (1.474337e-02 +/- 0.000000e+00)
    density:        1.136899e+03 kg/m^3     (1.077176e+03 +/- 0.000000e+00)

Average pressure tensor: 
-------------------------------------------------------------------------------
 3.0452e+01  8.8404e+01  1.1153e+01 +/- 0.0000e+00 0.0000e+00 0.0000e+00 [bar]
 8.8404e+01  2.5492e+02  3.6019e+01 +/- 0.0000e+00 0.0000e+00 0.0000e+00 [bar]
 1.1153e+01  3.6019e+01  1.4650e+02 +/- 0.0000e+00 0.0000e+00 0.0000e+00 [bar]
Ideal-gas pressure:   5.088861e+02 +/ 0.000000e+00 [bar]
Excess pressure:     -3.649313e+02 +/ 0.000000e+00 [bar]
Pressure:             1.439548e+02 +/ 0.000000e+00 [bar]

Total potential energy/kʙ  -2.457514e+05 (-2.314563e+05 +/- 0.000000e+00) [K]
-------------------------------------------------------------------------------
ExternalField-molecule
    Van der Waals/kʙ        0.000000e+00 ( 0.000000e+00 +/- 0.000000e+00) [K]
Framework-molecule
    Van der Waals/kʙ        0.000000e+00 ( 0.000000e+00 +/- 0.000000e+00) [K]
    Van der Waals (Tail)/kʙ 0.000000e+00 ( 0.000000e+00 +/- 0.000000e+00) [K]
    Coulombic Real/kʙ       0.000000e+00 ( 0.000000e+00 +/- 0.000000e+00) [K]
    Coulombic Fourier/kʙ    0.000000e+00 ( 0.000000e+00 +/- 0.000000e+00) [K]
Molecule-molecule
    Van der Waals/kʙ       -1.732204e+05 (-1.660696e+05 +/- 0.000000e+00) [K]
    Van der Waals (Tail)/kʙ-7.489140e+03 (-7.107861e+03 +/- 0.000000e+00) [K]
    Coulombic Real/kʙ      -5.199786e+04 (-4.664397e+04 +/- 0.000000e+00) [K]
    Coulombic Fourier/kʙ   -1.304398e+04 (-1.163485e+04 +/- 0.000000e+00) [K]
    Molecule Intra/kʙ       0.000000e+00 ( 0.000000e+00 +/- 0.000000e+00) [K]

Current cycle: 600 out of 5000
===============================================================================

Box:      21.26580   0.00000   0.00000  Average:  21.61378   0.00000   0.00000
           0.00000  21.26580   0.00000             0.00000  21.61378   0.00000
           0.00000   0.00000  21.26580             0.00000   0.00000  21.61378
Lengths:  21.26580  21.26580  21.26580  Average:  21.61378  21.61378  21.61378
Angles:   90.00000  90.00000  90.00000  Average:  90.00000  90.00000  90.00000
Rectangular boundary conditions

net charge:   0.00000000

component 0 (CO2) lambda:  0 occupancy:  1 (1.000000)
    net charge:   0.00000000 [e]

Amount of molecules per component :
-------------------------------------------------------------------------------
Component 0 (CO2)
    molecules:      1.500000e+02 molecules  (1.500000e+02 +/- 0.000000e+00)
    number density: 1.559717e-02 molec./A^3 (1.486592e-02 +/- 0.000000e+00)
    density:        1.139556e+03 kg/m^3     (1.086130e+03 +/- 0.000000e+00)

Average pressure tensor: 
-------------------------------------------------------------------------------
 3.2123e+01  6.0263e+01  2.3694e+01 +/- 0.0000e+00 0.0000e+00 0.0000e+00 [bar]
 6.0263e+01  2.6792e+02 -9.8828e-01 +/- 0.0000e+00 0.0000e+00 0.0000e+00 [bar]
 2.3694e+01 -9.8828e-01  1.8970e+02 +/- 0.0000e+00 0.0000e+00 0.0000e+00 [bar]
Ideal-gas pressure:   5.131159e+02 +/ 0.000000e+00 [bar]
Excess pressure:     -3.498674e+02 +/ 0.000000e+00 [bar]
Pressure:             1.632485e+02 +/ 0.000000e+00 [bar]

Total potential energy/kʙ  -2.472997e+05 (-2.340899e+05 +/- 0.000000e+00) [K]
-------------------------------------------------------------------------------
ExternalField-molecule
    Van der Waals/kʙ        0.000000e+00 ( 0.000000e+00 +/- 0.000000e+00) [K]
Framework-molecule
    Van der Waals/kʙ        0.000000e+00 ( 0.000000e+00 +/- 0.000000e+00) [K]
    Van der Waals (Tail)/kʙ 0.000000e+00 ( 0.000000e+00 +/- 0.000000e+00) [K]
    Coulombic Real/kʙ       0.000000e+00 ( 0.000000e+00 +/- 0.000000e+00) [K]
    Coulombic Fourier/kʙ    0.000000e+00 ( 0.000000e+00 +/- 0.000000e+00) [K]
Molecule-molecule
    Van der Waals/kʙ       -1.740201e+05 (-1.675159e+05 +/- 0.000000e+00) [K]
    Van der Waals (Tail)/kʙ-7.506644e+03 (-7.165361e+03 +/- 0.000000e+00) [K]
    Coulombic Real/kʙ      -5.288516e+04 (-4.756673e+04 +/- 0.000000e+00) [K]
    Coulombic Fourier/kʙ   -1.288781e+04 (-1.184192e+04 +/- 0.000000e+00) [K]
    Molecule Intra/kʙ       0.000000e+00 ( 0.000000e+00 +/- 0.000000e+00) [K]

Current cycle: 700 out of 5000
===============================================================================

Box:      21.36403   0.00000   0.00000  Average:  21.59536   0.00000   0.00000
           0.00000  21.36403   0.00000             0.00000  21.59536   0.00000
           0.00000   0.00000  21.36403             0.00000   0.00000  21.59536
Lengths:  21.36403  21.36403  21.36403  Average:  21.59536  21.59536  21.59536
Angles:   90.00000  90.00000  90.00000  Average:  90.00000  90.00000  90.00000
Rectangular boundary conditions

net charge:   0.00000000

component 0 (CO2) lambda:  0 occupancy:  1 (1.000000)
    net charge:   0.00000000 [e]

Amount of molecules per component :
-------------------------------------------------------------------------------
Component 0 (CO2)
    molecules:      1.500000e+02 molecules  (1.500000e+02 +/- 0.000000e+00)
    number density: 1.538303e-02 molec./A^3 (1.490343e-02 +/- 0.000000e+00)
    density:        1.123911e+03 kg/m^3     (1.088870e+03 +/- 0.000000e+00)

Average pressure tensor: 
-------------------------------------------------------------------------------
 4.4831e+01  7.1219e+01  3.6633e+01 +/- 0.0000e+00 0.0000e+00 0.0000e+00 [bar]
 7.1219e+01  2.4963e+02 -1.4579e+01 +/- 0.0000e+00 0.0000e+00 0.0000e+00 [bar]
 3.6633e+01 -1.4579e+01  2.2065e+02 +/- 0.0000e+00 0.0000e+00 0.0000e+00 [bar]
Ideal-gas pressure:   5.144108e+02 +/ 0.000000e+00 [bar]
Excess pressure:     -3.427069e+02 +/ 0.000000e+00 [bar]
Pressure:             1.717039e+02 +/ 0.000000e+00 [bar]

Total potential energy/kʙ  -2.358660e+05 (-2.343452e+05 +/- 0.000000e+00) [K]
-------------------------------------------------------------------------------
ExternalField-molecule
    Van der Waals/kʙ        0.000000e+00 ( 0.000000e+00 +/- 0.000000e+00) [K]
Framework-molecule
    Van der Waals/kʙ        0.000000e+00 ( 0.000000e+00 +/- 0.000000e+00) [K]
    Van der Waals (Tail)/kʙ 0.000000e+00 ( 0.000000e+00 +/- 0.000000e+00) [K]
    Coulombic Real/kʙ       0.000000e+00 ( 0.000000e+00 +/- 0.000000e+00) [K]
    Coulombic Fourier/kʙ    0.000000e+00 ( 0.000000e+00 +/- 0.000000e+00) [K]
Molecule-molecule
    Van der Waals/kʙ       -1.704211e+05 (-1.679123e+05 +/- 0.000000e+00) [K]
    Van der Waals (Tail)/kʙ-7.403582e+03 (-7.180554e+03 +/- 0.000000e+00) [K]
    Coulombic Real/kʙ      -4.625332e+04 (-4.739013e+04 +/- 0.000000e+00) [K]
    Coulombic Fourier/kʙ   -1.178799e+04 (-1.186229e+04 +/- 0.000000e+00) [K]
    Molecule Intra/kʙ       0.000000e+00 ( 0.000000e+00 +/- 0.000000e+00) [K]

Current cycle: 800 out of 5000
===============================================================================

Box:      21.56555   0.00000   0.00000  Average:  21.60563   0.00000   0.00000
           0.00000  21.56555   0.00000             0.00000  21.60563   0.00000
           0.00000   0.00000  21.56555             0.00000   0.00000  21.60563
Lengths:  21.56555  21.56555  21.56555  Average:  21.60563  21.60563  21.60563
Angles:   90.00000  90.00000  90.00000  Average:  90.00000  90.00000  90.00000
Rectangular boundary conditions

net charge:   0.00000000

component 0 (CO2) lambda:  0 occupancy:  1 (1.000000)
    net charge:   0.00000000 [e]

Amount of molecules per component :
-------------------------------------------------------------------------------
Component 0 (CO2)
    molecules:      1.500000e+02 molecules  (1.500000e+02 +/- 0.000000e+00)
    number density: 1.495579e-02 molec./A^3 (1.488153e-02 +/- 0.000000e+00)
    density:        1.092696e+03 kg/m^3     (1.087270e+03 +/- 0.000000e+00)

Average pressure tensor: 
-------------------------------------------------------------------------------
 6.9526e+01  6.9236e+01 -2.1792e+00 +/- 0.0000e+00 0.0000e+00 0.0000e+00 [bar]
 6.9236e+01  2.2711e+02 -9.9957e+00 +/- 0.0000e+00 0.0000e+00 0.0000e+00 [bar]
-2.1792e+00 -9.9957e+00  2.1739e+02 +/- 0.0000e+00 0.0000e+00 0.0000e+00 [bar]
Ideal-gas pressure:   5.136546e+02 +/ 0.000000e+00 [bar]
Excess pressure:     -3.423117e+02 +/ 0.000000e+00 [bar]
Pressure:             1.713429e+02 +/ 0.000000e+00 [bar]

Total potential energy/kʙ  -2.329313e+05 (-2.337794e+05 +/- 0.000000e+00) [K]
-------------------------------------------------------------------------------
ExternalField-molecule
    Van der Waals/kʙ        0.000000e+00 ( 0.000000e+00 +/- 0.000000e+00) [K]
Framework-molecule
    Van der Waals/kʙ        0.000000e+00 ( 0.000000e+00 +/- 0.000000e+00) [K]
    Van der Waals (Tail)/kʙ 0.000000e+00 ( 0.000000e+00 +/- 0.000000e+00) [K]
    Coulombic Real/kʙ       0.000000e+00 ( 0.000000e+00 +/- 0.000000e+00) [K]
    Coulombic Fourier/kʙ    0.000000e+00 ( 0.000000e+00 +/- 0.000000e+00) [K]
Molecule-molecule
    Van der Waals/kʙ       -1.663223e+05 (-1.674734e+05 +/- 0.000000e+00) [K]
    Van der Waals (Tail)/kʙ-7.197958e+03 (-7.166631e+03 +/- 0.000000e+00) [K]
    Coulombic Real/kʙ      -4.730153e+04 (-4.726487e+04 +/- 0.000000e+00) [K]
    Coulombic Fourier/kʙ   -1.210958e+04 (-1.187445e+04 +/- 0.000000e+00) [K]
    Molecule Intra/kʙ       0.000000e+00 ( 0.000000e+00 +/- 0.000000e+00) [K]

Current cycle: 900 out of 5000
===============================================================================

Box:      21.44761   0.00000   0.00000  Average:  21.59992   0.00000   0.00000
           0.00000  21.44761   0.00000             0.00000  21.59992   0.00000
           0.00000   0.00000  21.44761             0.00000   0.00000  21.59992
Lengths:  21.44761  21.44761  21.44761  Average:  21.59992  21.59992  21.59992
Angles:   90.00000  90.00000  90.00000  Average:  90.00000  90.00000  90.00000
Rectangular boundary conditions

net charge:   0.00000000

component 0 (CO2) lambda:  0 occupancy:  1 (1.000000)
    net charge:   0.00000000 [e]

Amount of molecules per component :
-------------------------------------------------------------------------------
Component 0 (CO2)
    molecules:      1.500000e+02 molecules  (1.500000e+02 +/- 0.000000e+00)
    number density: 1.520389e-02 molec./A^3 (1.489262e-02 +/- 0.000000e+00)
    density:        1.110822e+03 kg/m^3     (1.088080e+03 +/- 0.000000e+00)

Average pressure tensor: 
-------------------------------------------------------------------------------
 6.5513e+01  6.4618e+01  2.0066e+01 +/- 0.0000e+00 0.0000e+00 0.0000e+00 [bar]
 6.4618e+01  1.9181e+02  7.0142e+00 +/- 0.0000e+00 0.0000e+00 0.0000e+00 [bar]
 2.0066e+01  7.0142e+00  2.4714e+02 +/- 0.0000e+00 0.0000e+00 0.0000e+00 [bar]
Ideal-gas pressure:   5.140375e+02 +/ 0.000000e+00 [bar]
Excess pressure:     -3.458809e+02 +/ 0.000000e+00 [bar]
Pressure:             1.681566e+02 +/ 0.000000e+00 [bar]

Total potential energy/kʙ  -2.409228e+05 (-2.340739e+05 +/- 0.000000e+00) [K]
-------------------------------------------------------------------------------
ExternalField-molecule
    Van der Waals/kʙ        0.000000e+00 ( 0.000000e+00 +/- 0.000000e+00) [K]
Framework-molecule
    Van der Waals/kʙ        0.000000e+00 ( 0.000000e+00 +/- 0.000000e+00) [K]
    Van der Waals (Tail)/kʙ 0.000000e+00 ( 0.000000e+00 +/- 0.000000e+00) [K]
    Coulombic Real/kʙ       0.000000e+00 ( 0.000000e+00 +/- 0.000000e+00) [K]
    Coulombic Fourier/kʙ    0.000000e+00 ( 0.000000e+00 +/- 0.000000e+00) [K]
Molecule-molecule
    Van der Waals/kʙ       -1.677210e+05 (-1.674545e+05 +/- 0.000000e+00) [K]
    Van der Waals (Tail)/kʙ-7.317365e+03 (-7.171525e+03 +/- 0.000000e+00) [K]
    Coulombic Real/kʙ      -5.335111e+04 (-4.758156e+04 +/- 0.000000e+00) [K]
    Coulombic Fourier/kʙ   -1.253339e+04 (-1.186634e+04 +/- 0.000000e+00) [K]
    Molecule Intra/kʙ       0.000000e+00 ( 0.000000e+00 +/- 0.000000e+00) [K]

Current cycle: 1000 out of 5000
===============================================================================

Box:      21.84288   0.00000   0.00000  Average:  21.61473   0.00000   0.00000
           0.00000  21.84288   0.00000             0.00000  21.61473   0.00000
           0.00000   0.00000  21.84288             0.00000   0.00000  21.61473
Lengths:  21.84288  21.84288  21.84288  Average:  21.61473  21.61473  21.61473
Angles:   90.00000  90.00000  90.00000  Average:  90.00000  90.00000  90.00000
Rectangular boundary conditions

net charge:   0.00000000

component 0 (CO2) lambda:  0 occupancy:  1 (1.000000)
    net charge:   0.00000000 [e]

Amount of molecules per component :
-------------------------------------------------------------------------------
Component 0 (CO2)
    molecules:      1.500000e+02 molecules  (1.500000e+02 +/- 0.000000e+00)
    number density: 1.439334e-02 molec./A^3 (1.486197e-02 +/- 0.000000e+00)
    density:        1.051602e+03 kg/m^3     (1.085841e+03 +/- 0.000000e+00)

Average pressure tensor: 
-------------------------------------------------------------------------------
 8.6316e+01  4.8736e+01  1.4309e+01 +/- 0.0000e+00 0.0000e+00 0.0000e+00 [bar]
 4.8736e+01  1.7702e+02 -5.1605e-01 +/- 0.0000e+00 0.0000e+00 0.0000e+00 [bar]
 1.4309e+01 -5.1605e-01  2.3879e+02 +/- 0.0000e+00 0.0000e+00 0.0000e+00 [bar]
Ideal-gas pressure:   5.129795e+02 +/ 0.000000e+00 [bar]
Excess pressure:     -3.456045e+02 +/ 0.000000e+00 [bar]
Pressure:             1.673749e+02 +/ 0.000000e+00 [bar]

Total potential energy/kʙ  -2.231527e+05 (-2.336718e+05 +/- 0.000000e+00) [K]
-------------------------------------------------------------------------------
ExternalField-molecule
    Van der Waals/kʙ        0.000000e+00 ( 0.000000e+00 +/- 0.000000e+00) [K]
Framework-molecule
    Van der Waals/kʙ        0.000000e+00 ( 0.000000e+00 +/- 0.000000e+00) [K]
    Van der Waals (Tail)/kʙ 0.000000e+00 ( 0.000000e+00 +/- 0.000000e+00) [K]
    Coulombic Real/kʙ       0.000000e+00 ( 0.000000e+00 +/- 0.000000e+00) [K]
    Coulombic Fourier/kʙ    0.000000e+00 ( 0.000000e+00 +/- 0.000000e+00) [K]
Molecule-molecule
    Van der Waals/kʙ       -1.588196e+05 (-1.670483e+05 +/- 0.000000e+00) [K]
    Van der Waals (Tail)/kʙ-6.927260e+03 (-7.156024e+03 +/- 0.000000e+00) [K]
    Coulombic Real/kʙ      -4.565613e+04 (-4.758433e+04 +/- 0.000000e+00) [K]
    Coulombic Fourier/kʙ   -1.174967e+04 (-1.188321e+04 +/- 0.000000e+00) [K]
    Molecule Intra/kʙ       0.000000e+00 ( 0.000000e+00 +/- 0.000000e+00) [K]

Current cycle: 1100 out of 5000
===============================================================================

Box:      21.58804   0.00000   0.00000  Average:  21.61656   0.00000   0.00000
           0.00000  21.58804   0.00000             0.00000  21.61656   0.00000
           0.00000   0.00000  21.58804             0.00000   0.00000  21.61656
Lengths:  21.58804  21.58804  21.58804  Average:  21.61656  21.61656  21.61656
Angles:   90.00000  90.00000  90.00000  Average:  90.00000  90.00000  90.00000
Rectangular boundary conditions

net charge:   0.00000000

component 0 (CO2) lambda:  0 occupancy:  1 (1.000000)
    net charge:   0.00000000 [e]

Amount of molecules per component :
-------------------------------------------------------------------------------
Component 0 (CO2)
    molecules:      1.500000e+02 molecules  (1.500000e+02 +/- 0.000000e+00)
    number density: 1.490910e-02 molec./A^3 (1.485775e-02 +/- 0.000000e+00)
    density:        1.089284e+03 kg/m^3     (1.085533e+03 +/- 0.000000e+00)

Average pressure tensor: 
-------------------------------------------------------------------------------
 1.1310e+02  2.0477e+01  2.4471e+01 +/- 0.0000e+00 0.0000e+00 0.0000e+00 [bar]
 2.0477e+01  1.5095e+02 -2.5760e+01 +/- 0.0000e+00 0.0000e+00 0.0000e+00 [bar]
 2.4471e+01 -2.5760e+01  2.4719e+02 +/- 0.0000e+00 0.0000e+00 0.0000e+00 [bar]
Ideal-gas pressure:   5.128340e+02 +/ 0.000000e+00 [bar]
Excess pressure:     -3.424218e+02 +/ 0.000000e+00 [bar]
Pressure:             1.704122e+02 +/ 0.000000e+00 [bar]

Total potential energy/kʙ  -2.388183e+05 (-2.337210e+05 +/- 0.000000e+00) [K]
-------------------------------------------------------------------------------
ExternalField-molecule
    Van der Waals/kʙ        0.000000e+00 ( 0.000000e+00 +/- 0.000000e+00) [K]
Framework-molecule
    Van der Waals/kʙ        0.000000e+00 ( 0.000000e+00 +/- 0.000000e+00) [K]
    Van der Waals (Tail)/kʙ 0.000000e+00 ( 0.000000e+00 +/- 0.000000e+00) [K]
    Coulombic Real/kʙ       0.000000e+00 ( 0.000000e+00 +/- 0.000000e+00) [K]
    Coulombic Fourier/kʙ    0.000000e+00 ( 0.000000e+00 +/- 0.000000e+00) [K]
Molecule-molecule
    Van der Waals/kʙ       -1.725787e+05 (-1.670580e+05 +/- 0.000000e+00) [K]
    Van der Waals (Tail)/kʙ-7.175485e+03 (-7.153495e+03 +/- 0.000000e+00) [K]
    Coulombic Real/kʙ      -4.699787e+04 (-4.762028e+04 +/- 0.000000e+00) [K]
    Coulombic Fourier/kʙ   -1.206624e+04 (-1.188922e+04 +/- 0.000000e+00) [K]
    Molecule Intra/kʙ       0.000000e+00 ( 0.000000e+00 +/- 0.000000e+00) [K]

Current cycle: 1200 out of 5000
===============================================================================

Box:      21.45244   0.00000   0.00000  Average:  21.61069   0.00000   0.00000
           0.00000  21.45244   0.00000             0.00000  21.61069   0.00000
           0.00000   0.00000  21.45244             0.00000   0.00000  21.61069
Lengths:  21.45244  21.45244  21.45244  Average:  21.61069  21.61069  21.61069
Angles:   90.00000  90.00000  90.00000  Average:  90.00000  90.00000  90.00000
Rectangular boundary conditions

net charge:   0.00000000

component 0 (CO2) lambda:  0 occupancy:  1 (1.000000)
    net charge:   0.00000000 [e]

Amount of molecules per component :
-------------------------------------------------------------------------------
Component 0 (CO2)
    molecules:      1.500000e+02 molecules  (1.500000e+02 +/- 0.000000e+00)
    number density: 1.519361e-02 molec./A^3 (1.486938e-02 +/- 0.000000e+00)
    density:        1.110071e+03 kg/m^3     (1.086383e+03 +/- 0.000000e+00)

Average pressure tensor: 
-------------------------------------------------------------------------------
 8.4250e+01  1.0929e+01  4.8768e+00 +/- 0.0000e+00 0.0000e+00 0.0000e+00 [bar]
 1.0929e+01  1.6252e+02 -3.9071e+01 +/- 0.0000e+00 0.0000e+00 0.0000e+00 [bar]
 4.8768e+00 -3.9071e+01  2.6761e+02 +/- 0.0000e+00 0.0000e+00 0.0000e+00 [bar]
Ideal-gas pressure:   5.132355e+02 +/ 0.000000e+00 [bar]
Excess pressure:     -3.417741e+02 +/ 0.000000e+00 [bar]
Pressure:             1.714614e+02 +/ 0.000000e+00 [bar]

Total potential energy/kʙ  -2.440763e+05 (-2.343133e+05 +/- 0.000000e+00) [K]
-------------------------------------------------------------------------------
ExternalField-molecule
    Van der Waals/kʙ        0.000000e+00 ( 0.000000e+00 +/- 0.000000e+00) [K]
Framework-molecule
    Van der Waals/kʙ        0.000000e+00 ( 0.000000e+00 +/- 0.000000e+00) [K]
    Van der Waals (Tail)/kʙ 0.000000e+00 ( 0.000000e+00 +/- 0.000000e+00) [K]
    Coulombic Real/kʙ       0.000000e+00 ( 0.000000e+00 +/- 0.000000e+00) [K]
    Coulombic Fourier/kʙ    0.000000e+00 ( 0.000000e+00 +/- 0.000000e+00) [K]
Molecule-molecule
    Van der Waals/kʙ       -1.705558e+05 (-1.672724e+05 +/- 0.000000e+00) [K]
    Van der Waals (Tail)/kʙ-7.312418e+03 (-7.160130e+03 +/- 0.000000e+00) [K]
    Coulombic Real/kʙ      -5.379492e+04 (-4.796345e+04 +/- 0.000000e+00) [K]
    Coulombic Fourier/kʙ   -1.241322e+04 (-1.191732e+04 +/- 0.000000e+00) [K]
    Molecule Intra/kʙ       0.000000e+00 ( 0.000000e+00 +/- 0.000000e+00) [K]

Current cycle: 1300 out of 5000
===============================================================================

Box:      21.64989   0.00000   0.00000  Average:  21.61565   0.00000   0.00000
           0.00000  21.64989   0.00000             0.00000  21.61565   0.00000
           0.00000   0.00000  21.64989             0.00000   0.00000  21.61565
Lengths:  21.64989  21.64989  21.64989  Average:  21.61565  21.61565  21.61565
Angles:   90.00000  90.00000  90.00000  Average:  90.00000  90.00000  90.00000
Rectangular boundary conditions

net charge:   0.00000000

component 0 (CO2) lambda:  0 occupancy:  1 (1.000000)
    net charge:   0.00000000 [e]

Amount of molecules per component :
-------------------------------------------------------------------------------
Component 0 (CO2)
    molecules:      1.500000e+02 molecules  (1.500000e+02 +/- 0.000000e+00)
    number density: 1.478169e-02 molec./A^3 (1.485899e-02 +/- 0.000000e+00)
    density:        1.079975e+03 kg/m^3     (1.085623e+03 +/- 0.000000e+00)

Average pressure tensor: 
-------------------------------------------------------------------------------
 7.6081e+01  7.1304e+00  1.0153e+01 +/- 0.0000e+00 0.0000e+00 0.0000e+00 [bar]
 7.1304e+00  1.5010e+02 -2.8000e+01 +/- 0.0000e+00 0.0000e+00 0.0000e+00 [bar]
 1.0153e+01 -2.8000e+01  2.7260e+02 +/- 0.0000e+00 0.0000e+00 0.0000e+00 [bar]
Ideal-gas pressure:   5.128767e+02 +/ 0.000000e+00 [bar]
Excess pressure:     -3.466140e+02 +/ 0.000000e+00 [bar]
Pressure:             1.662628e+02 +/ 0.000000e+00 [bar]

Total potential energy/kʙ  -2.364411e+05 (-2.344927e+05 +/- 0.000000e+00) [K]
-------------------------------------------------------------------------------
ExternalField-molecule
    Van der Waals/kʙ        0.000000e+00 ( 0.000000e+00 +/- 0.000000e+00) [K]
Framework-molecule
    Van der Waals/kʙ        0.000000e+00 ( 0.000000e+00 +/- 0.000000e+00) [K]
    Van der Waals (Tail)/kʙ 0.000000e+00 ( 0.000000e+00 +/- 0.000000e+00) [K]
    Coulombic Real/kʙ       0.000000e+00 ( 0.000000e+00 +/- 0.000000e+00) [K]
    Coulombic Fourier/kʙ    0.000000e+00 ( 0.000000e+00 +/- 0.000000e+00) [K]
Molecule-molecule
    Van der Waals/kʙ       -1.662548e+05 (-1.671119e+05 +/- 0.000000e+00) [K]
    Van der Waals (Tail)/kʙ-7.114166e+03 (-7.155379e+03 +/- 0.000000e+00) [K]
    Coulombic Real/kʙ      -5.146676e+04 (-4.829374e+04 +/- 0.000000e+00) [K]
    Coulombic Fourier/kʙ   -1.160531e+04 (-1.193169e+04 +/- 0.000000e+00) [K]
    Molecule Intra/kʙ       0.000000e+00 ( 0.000000e+00 +/- 0.000000e+00) [K]

Current cycle: 1400 out of 5000
===============================================================================

Box:      21.51885   0.00000   0.00000  Average:  21.61512   0.00000   0.00000
           0.00000  21.51885   0.00000             0.00000  21.61512   0.00000
           0.00000   0.00000  21.51885             0.00000   0.00000  21.61512
Lengths:  21.51885  21.51885  21.51885  Average:  21.61512  21.61512  21.61512
Angles:   90.00000  90.00000  90.00000  Average:  90.00000  90.00000  90.00000
Rectangular boundary conditions

net charge:   0.00000000

component 0 (CO2) lambda:  0 occupancy:  1 (1.000000)
    net charge:   0.00000000 [e]

Amount of molecules per component :
-------------------------------------------------------------------------------
Component 0 (CO2)
    molecules:      1.500000e+02 molecules  (1.500000e+02 +/- 0.000000e+00)
    number density: 1.505338e-02 molec./A^3 (1.485979e-02 +/- 0.000000e+00)
    density:        1.099826e+03 kg/m^3     (1.085682e+03 +/- 0.000000e+00)

Average pressure tensor: 
-------------------------------------------------------------------------------
 8.0715e+01  9.6514e-01  2.3928e+01 +/- 0.0000e+00 0.0000e+00 0.0000e+00 [bar]
 9.6514e-01  1.4851e+02 -2.3720e+01 +/- 0.0000e+00 0.0000e+00 0.0000e+00 [bar]
 2.3928e+01 -2.3720e+01  2.6648e+02 +/- 0.0000e+00 0.0000e+00 0.0000e+00 [bar]
Ideal-gas pressure:   5.129043e+02 +/ 0.000000e+00 [bar]
Excess pressure:     -3.476717e+02 +/ 0.000000e+00 [bar]
Pressure:             1.652326e+02 +/ 0.000000e+00 [bar]

Total potential energy/kʙ  -2.319044e+05 (-2.344809e+05 +/- 0.000000e+00) [K]
-------------------------------------------------------------------------------
ExternalField-molecule
    Van der Waals/kʙ        0.000000e+00 ( 0.000000e+00 +/- 0.000000e+00) [K]
Framework-molecule
    Van der Waals/kʙ        0.000000e+00 ( 0.000000e+00 +/- 0.000000e+00) [K]
    Van der Waals (Tail)/kʙ 0.000000e+00 ( 0.000000e+00 +/- 0.000000e+00) [K]
    Coulombic Real/kʙ       0.000000e+00 ( 0.000000e+00 +/- 0.000000e+00) [K]
    Coulombic Fourier/kʙ    0.000000e+00 ( 0.000000e+00 +/- 0.000000e+00) [K]
Molecule-molecule
    Van der Waals/kʙ       -1.656490e+05 (-1.671020e+05 +/- 0.000000e+00) [K]
    Van der Waals (Tail)/kʙ-7.244926e+03 (-7.156065e+03 +/- 0.000000e+00) [K]
    Coulombic Real/kʙ      -4.706949e+04 (-4.826987e+04 +/- 0.000000e+00) [K]
    Coulombic Fourier/kʙ   -1.194092e+04 (-1.195294e+04 +/- 0.000000e+00) [K]
    Molecule Intra/kʙ       0.000000e+00 ( 0.000000e+00 +/- 0.000000e+00) [K]

Current cycle: 1500 out of 5000
===============================================================================

Box:      21.35581   0.00000   0.00000  Average:  21.60853   0.00000   0.00000
           0.00000  21.35581   0.00000             0.00000  21.60853   0.00000
           0.00000   0.00000  21.35581             0.00000   0.00000  21.60853
Lengths:  21.35581  21.35581  21.35581  Average:  21.60853  21.60853  21.60853
Angles:   90.00000  90.00000  90.00000  Average:  90.00000  90.00000  90.00000
Rectangular boundary conditions

net charge:   0.00000000

component 0 (CO2) lambda:  0 occupancy:  1 (1.000000)
    net charge:   0.00000000 [e]

Amount of molecules per component :
-------------------------------------------------------------------------------
Component 0 (CO2)
    molecules:      1.500000e+02 molecules  (1.500000e+02 +/- 0.000000e+00)
    number density: 1.540079e-02 molec./A^3 (1.487321e-02 +/- 0.000000e+00)
    density:        1.125208e+03 kg/m^3     (1.086662e+03 +/- 0.000000e+00)

Average pressure tensor: 
-------------------------------------------------------------------------------
 9.4373e+01  1.3160e+01  2.1701e+01 +/- 0.0000e+00 0.0000e+00 0.0000e+00 [bar]
 1.3160e+01  1.4124e+02 -1.2139e+01 +/- 0.0000e+00 0.0000e+00 0.0000e+00 [bar]
 2.1701e+01 -1.2139e+01  2.5309e+02 +/- 0.0000e+00 0.0000e+00 0.0000e+00 [bar]
Ideal-gas pressure:   5.133677e+02 +/ 0.000000e+00 [bar]
Excess pressure:     -3.504652e+02 +/ 0.000000e+00 [bar]
Pressure:             1.629025e+02 +/ 0.000000e+00 [bar]

Total potential energy/kʙ  -2.365241e+05 (-2.348366e+05 +/- 0.000000e+00) [K]
-------------------------------------------------------------------------------
ExternalField-molecule
    Van der Waals/kʙ        0.000000e+00 ( 0.000000e+00 +/- 0.000000e+00) [K]
Framework-molecule
    Van der Waals/kʙ        0.000000e+00 ( 0.000000e+00 +/- 0.000000e+00) [K]
    Van der Waals (Tail)/kʙ 0.000000e+00 ( 0.000000e+00 +/- 0.000000e+00) [K]
    Coulombic Real/kʙ       0.000000e+00 ( 0.000000e+00 +/- 0.000000e+00) [K]
    Coulombic Fourier/kʙ    0.000000e+00 ( 0.000000e+00 +/- 0.000000e+00) [K]
Molecule-molecule
    Van der Waals/kʙ       -1.627965e+05 (-1.671788e+05 +/- 0.000000e+00) [K]
    Van der Waals (Tail)/kʙ-7.412128e+03 (-7.162881e+03 +/- 0.000000e+00) [K]
    Coulombic Real/kʙ      -5.473131e+04 (-4.853110e+04 +/- 0.000000e+00) [K]
    Coulombic Fourier/kʙ   -1.158420e+04 (-1.196388e+04 +/- 0.000000e+00) [K]
    Molecule Intra/kʙ       0.000000e+00 ( 0.000000e+00 +/- 0.000000e+00) [K]

Current cycle: 1600 out of 5000
===============================================================================

Box:      21.36742   0.00000   0.00000  Average:  21.59852   0.00000   0.00000
           0.00000  21.36742   0.00000             0.00000  21.59852   0.00000
           0.00000   0.00000  21.36742             0.00000   0.00000  21.59852
Lengths:  21.36742  21.36742  21.36742  Average:  21.59852  21.59852  21.59852
Angles:   90.00000  90.00000  90.00000  Average:  90.00000  90.00000  90.00000
Rectangular boundary conditions

net charge:   0.00000000

component 0 (CO2) lambda:  0 occupancy:  1 (1.000000)
    net charge:   0.00000000 [e]

Amount of molecules per component :
-------------------------------------------------------------------------------
Component 0 (CO2)
    molecules:      1.500000e+02 molecules  (1.500000e+02 +/- 0.000000e+00)
    number density: 1.537570e-02 molec./A^3 (1.489387e-02 +/- 0.000000e+00)
    density:        1.123375e+03 kg/m^3     (1.088172e+03 +/- 0.000000e+00)

Average pressure tensor: 
-------------------------------------------------------------------------------
 1.1555e+02  3.0329e+01  1.8770e+01 +/- 0.0000e+00 0.0000e+00 0.0000e+00 [bar]
 3.0329e+01  1.4943e+02 -1.1212e+01 +/- 0.0000e+00 0.0000e+00 0.0000e+00 [bar]
 1.8770e+01 -1.1212e+01  2.4491e+02 +/- 0.0000e+00 0.0000e+00 0.0000e+00 [bar]
Ideal-gas pressure:   5.140807e+02 +/ 0.000000e+00 [bar]
Excess pressure:     -3.441186e+02 +/ 0.000000e+00 [bar]
Pressure:             1.699621e+02 +/ 0.000000e+00 [bar]

Total potential energy/kʙ  -2.481978e+05 (-2.354106e+05 +/- 0.000000e+00) [K]
-------------------------------------------------------------------------------
ExternalField-molecule
    Van der Waals/kʙ        0.000000e+00 ( 0.000000e+00 +/- 0.000000e+00) [K]
Framework-molecule
    Van der Waals/kʙ        0.000000e+00 ( 0.000000e+00 +/- 0.000000e+00) [K]
    Van der Waals (Tail)/kʙ 0.000000e+00 ( 0.000000e+00 +/- 0.000000e+00) [K]
    Coulombic Real/kʙ       0.000000e+00 ( 0.000000e+00 +/- 0.000000e+00) [K]
    Coulombic Fourier/kʙ    0.000000e+00 ( 0.000000e+00 +/- 0.000000e+00) [K]
Molecule-molecule
    Van der Waals/kʙ       -1.767695e+05 (-1.673980e+05 +/- 0.000000e+00) [K]
    Van der Waals (Tail)/kʙ-7.400053e+03 (-7.173143e+03 +/- 0.000000e+00) [K]
    Coulombic Real/kʙ      -5.086493e+04 (-4.884232e+04 +/- 0.000000e+00) [K]
    Coulombic Fourier/kʙ   -1.316335e+04 (-1.199714e+04 +/- 0.000000e+00) [K]
    Molecule Intra/kʙ       0.000000e+00 ( 0.000000e+00 +/- 0.000000e+00) [K]

Current cycle: 1700 out of 5000
===============================================================================

Box:      21.55212   0.00000   0.00000  Average:  21.58874   0.00000   0.00000
           0.00000  21.55212   0.00000             0.00000  21.58874   0.00000
           0.00000   0.00000  21.55212             0.00000   0.00000  21.58874
Lengths:  21.55212  21.55212  21.55212  Average:  21.58874  21.58874  21.58874
Angles:   90.00000  90.00000  90.00000  Average:  90.00000  90.00000  90.00000
Rectangular boundary conditions

net charge:   0.00000000

component 0 (CO2) lambda:  0 occupancy:  1 (1.000000)
    net charge:   0.00000000 [e]

Amount of molecules per component :
-------------------------------------------------------------------------------
Component 0 (CO2)
    molecules:      1.500000e+02 molecules  (1.500000e+02 +/- 0.000000e+00)
    number density: 1.498377e-02 molec./A^3 (1.491421e-02 +/- 0.000000e+00)
    density:        1.094740e+03 kg/m^3     (1.089657e+03 +/- 0.000000e+00)

Average pressure tensor: 
-------------------------------------------------------------------------------
 1.0221e+02  3.9056e+01  1.5317e+01 +/- 0.0000e+00 0.0000e+00 0.0000e+00 [bar]
 3.9056e+01  1.5761e+02 -1.1264e+01 +/- 0.0000e+00 0.0000e+00 0.0000e+00 [bar]
 1.5317e+01 -1.1264e+01  2.4912e+02 +/- 0.0000e+00 0.0000e+00 0.0000e+00 [bar]
Ideal-gas pressure:   5.147826e+02 +/ 0.000000e+00 [bar]
Excess pressure:     -3.451357e+02 +/ 0.000000e+00 [bar]
Pressure:             1.696469e+02 +/ 0.000000e+00 [bar]

Total potential energy/kʙ  -2.431567e+05 (-2.361278e+05 +/- 0.000000e+00) [K]
-------------------------------------------------------------------------------
ExternalField-molecule
    Van der Waals/kʙ        0.000000e+00 ( 0.000000e+00 +/- 0.000000e+00) [K]
Framework-molecule
    Van der Waals/kʙ        0.000000e+00 ( 0.000000e+00 +/- 0.000000e+00) [K]
    Van der Waals (Tail)/kʙ 0.000000e+00 ( 0.000000e+00 +/- 0.000000e+00) [K]
    Coulombic Real/kʙ       0.000000e+00 ( 0.000000e+00 +/- 0.000000e+00) [K]
    Coulombic Fourier/kʙ    0.000000e+00 ( 0.000000e+00 +/- 0.000000e+00) [K]
Molecule-molecule
    Van der Waals/kʙ       -1.720374e+05 (-1.677102e+05 +/- 0.000000e+00) [K]
    Van der Waals (Tail)/kʙ-7.211425e+03 (-7.183792e+03 +/- 0.000000e+00) [K]
    Coulombic Real/kʙ      -5.154690e+04 (-4.920083e+04 +/- 0.000000e+00) [K]
    Coulombic Fourier/kʙ   -1.236098e+04 (-1.203296e+04 +/- 0.000000e+00) [K]
    Molecule Intra/kʙ       0.000000e+00 ( 0.000000e+00 +/- 0.000000e+00) [K]

Current cycle: 1800 out of 5000
===============================================================================

Box:      21.22597   0.00000   0.00000  Average:  21.58281   0.00000   0.00000
           0.00000  21.22597   0.00000             0.00000  21.58281   0.00000
           0.00000   0.00000  21.22597             0.00000   0.00000  21.58281
Lengths:  21.22597  21.22597  21.22597  Average:  21.58281  21.58281  21.58281
Angles:   90.00000  90.00000  90.00000  Average:  90.00000  90.00000  90.00000
Rectangular boundary conditions

net charge:   0.00000000

component 0 (CO2) lambda:  0 occupancy:  1 (1.000000)
    net charge:   0.00000000 [e]

Amount of molecules per component :
-------------------------------------------------------------------------------
Component 0 (CO2)
    molecules:      1.500000e+02 molecules  (1.500000e+02 +/- 0.000000e+00)
    number density: 1.568516e-02 molec./A^3 (1.492634e-02 +/- 0.000000e+00)
    density:        1.145984e+03 kg/m^3     (1.090544e+03 +/- 0.000000e+00)

Average pressure tensor: 
-------------------------------------------------------------------------------
 1.0260e+02  4.0219e+01  1.1965e+01 +/- 0.0000e+00 0.0000e+00 0.0000e+00 [bar]
 4.0219e+01  1.4079e+02 -2.3198e+01 +/- 0.0000e+00 0.0000e+00 0.0000e+00 [bar]
 1.1965e+01 -2.3198e+01  2.4149e+02 +/- 0.0000e+00 0.0000e+00 0.0000e+00 [bar]
Ideal-gas pressure:   5.152014e+02 +/ 0.000000e+00 [bar]
Excess pressure:     -3.535769e+02 +/ 0.000000e+00 [bar]
Pressure:             1.616245e+02 +/ 0.000000e+00 [bar]

Total potential energy/kʙ  -2.503765e+05 (-2.366668e+05 +/- 0.000000e+00) [K]
-------------------------------------------------------------------------------
ExternalField-molecule
    Van der Waals/kʙ        0.000000e+00 ( 0.000000e+00 +/- 0.000000e+00) [K]
Framework-molecule
    Van der Waals/kʙ        0.000000e+00 ( 0.000000e+00 +/- 0.000000e+00) [K]
    Van der Waals (Tail)/kʙ 0.000000e+00 ( 0.000000e+00 +/- 0.000000e+00) [K]
    Coulombic Real/kʙ       0.000000e+00 ( 0.000000e+00 +/- 0.000000e+00) [K]
    Coulombic Fourier/kʙ    0.000000e+00 ( 0.000000e+00 +/- 0.000000e+00) [K]
Molecule-molecule
    Van der Waals/kʙ       -1.718535e+05 (-1.678549e+05 +/- 0.000000e+00) [K]
    Van der Waals (Tail)/kʙ-7.548990e+03 (-7.190244e+03 +/- 0.000000e+00) [K]
    Coulombic Real/kʙ      -5.733900e+04 (-4.954268e+04 +/- 0.000000e+00) [K]
    Coulombic Fourier/kʙ   -1.363500e+04 (-1.207894e+04 +/- 0.000000e+00) [K]
    Molecule Intra/kʙ       0.000000e+00 ( 0.000000e+00 +/- 0.000000e+00) [K]

Current cycle: 1900 out of 5000
===============================================================================

Box:      21.13442   0.00000   0.00000  Average:  21.56228   0.00000   0.00000
           0.00000  21.13442   0.00000             0.00000  21.56228   0.00000
           0.00000   0.00000  21.13442             0.00000   0.00000  21.56228
Lengths:  21.13442  21.13442  21.13442  Average:  21.56228  21.56228  21.56228
Angles:   90.00000  90.00000  90.00000  Average:  90.00000  90.00000  90.00000
Rectangular boundary conditions

net charge:   0.00000000

component 0 (CO2) lambda:  0 occupancy:  1 (1.000000)
    net charge:   0.00000000 [e]

Amount of molecules per component :
-------------------------------------------------------------------------------
Component 0 (CO2)
    molecules:      1.500000e+02 molecules  (1.500000e+02 +/- 0.000000e+00)
    number density: 1.588987e-02 molec./A^3 (1.497028e-02 +/- 0.000000e+00)
    density:        1.160941e+03 kg/m^3     (1.093754e+03 +/- 0.000000e+00)

Average pressure tensor: 
-------------------------------------------------------------------------------
 1.1557e+02  4.3900e+01  7.7892e+00 +/- 0.0000e+00 0.0000e+00 0.0000e+00 [bar]
 4.3900e+01  1.3937e+02 -2.8935e+01 +/- 0.0000e+00 0.0000e+00 0.0000e+00 [bar]
 7.7892e+00 -2.8935e+01  2.2689e+02 +/- 0.0000e+00 0.0000e+00 0.0000e+00 [bar]
Ideal-gas pressure:   5.167180e+02 +/ 0.000000e+00 [bar]
Excess pressure:     -3.561080e+02 +/ 0.000000e+00 [bar]
Pressure:             1.606100e+02 +/ 0.000000e+00 [bar]

Total potential energy/kʙ  -2.580830e+05 (-2.376960e+05 +/- 0.000000e+00) [K]
-------------------------------------------------------------------------------
ExternalField-molecule
    Van der Waals/kʙ        0.000000e+00 ( 0.000000e+00 +/- 0.000000e+00) [K]
Framework-molecule
    Van der Waals/kʙ        0.000000e+00 ( 0.000000e+00 +/- 0.000000e+00) [K]
    Van der Waals (Tail)/kʙ 0.000000e+00 ( 0.000000e+00 +/- 0.000000e+00) [K]
    Coulombic Real/kʙ       0.000000e+00 ( 0.000000e+00 +/- 0.000000e+00) [K]
    Coulombic Fourier/kʙ    0.000000e+00 ( 0.000000e+00 +/- 0.000000e+00) [K]
Molecule-molecule
    Van der Waals/kʙ       -1.817565e+05 (-1.684429e+05 +/- 0.000000e+00) [K]
    Van der Waals (Tail)/kʙ-7.647513e+03 (-7.211097e+03 +/- 0.000000e+00) [K]
    Coulombic Real/kʙ      -5.616690e+04 (-4.991556e+04 +/- 0.000000e+00) [K]
    Coulombic Fourier/kʙ   -1.251209e+04 (-1.212650e+04 +/- 0.000000e+00) [K]
    Molecule Intra/kʙ       0.000000e+00 ( 0.000000e+00 +/- 0.000000e+00) [K]

Current cycle: 2000 out of 5000
===============================================================================

Box:      21.33628   0.00000   0.00000  Average:  21.54404   0.00000   0.00000
           0.00000  21.33628   0.00000             0.00000  21.54404   0.00000
           0.00000   0.00000  21.33628             0.00000   0.00000  21.54404
Lengths:  21.33628  21.33628  21.33628  Average:  21.54404  21.54404  21.54404
Angles:   90.00000  90.00000  90.00000  Average:  90.00000  90.00000  90.00000
Rectangular boundary conditions

net charge:   0.00000000

component 0 (CO2) lambda:  0 occupancy:  1 (1.000000)
    net charge:   0.00000000 [e]

Amount of molecules per component :
-------------------------------------------------------------------------------
Component 0 (CO2)
    molecules:      1.500000e+02 molecules  (1.500000e+02 +/- 0.000000e+00)
    number density: 1.544311e-02 molec./A^3 (1.500933e-02 +/- 0.000000e+00)
    density:        1.128300e+03 kg/m^3     (1.096608e+03 +/- 0.000000e+00)

Average pressure tensor: 
-------------------------------------------------------------------------------
 1.1805e+02  4.1025e+01  1.8821e+01 +/- 0.0000e+00 0.0000e+00 0.0000e+00 [bar]
 4.1025e+01  1.3332e+02 -3.4119e+01 +/- 0.0000e+00 0.0000e+00 0.0000e+00 [bar]
 1.8821e+01 -3.4119e+01  2.0907e+02 +/- 0.0000e+00 0.0000e+00 0.0000e+00 [bar]
Ideal-gas pressure:   5.180660e+02 +/ 0.000000e+00 [bar]
Excess pressure:     -3.645876e+02 +/ 0.000000e+00 [bar]
Pressure:             1.534785e+02 +/ 0.000000e+00 [bar]

Total potential energy/kʙ  -2.479287e+05 (-2.386726e+05 +/- 0.000000e+00) [K]
-------------------------------------------------------------------------------
ExternalField-molecule
    Van der Waals/kʙ        0.000000e+00 ( 0.000000e+00 +/- 0.000000e+00) [K]
Framework-molecule
    Van der Waals/kʙ        0.000000e+00 ( 0.000000e+00 +/- 0.000000e+00) [K]
    Van der Waals (Tail)/kʙ 0.000000e+00 ( 0.000000e+00 +/- 0.000000e+00) [K]
    Coulombic Real/kʙ       0.000000e+00 ( 0.000000e+00 +/- 0.000000e+00) [K]
    Coulombic Fourier/kʙ    0.000000e+00 ( 0.000000e+00 +/- 0.000000e+00) [K]
Molecule-molecule
    Van der Waals/kʙ       -1.711847e+05 (-1.689023e+05 +/- 0.000000e+00) [K]
    Van der Waals (Tail)/kʙ-7.432498e+03 (-7.227909e+03 +/- 0.000000e+00) [K]
    Coulombic Real/kʙ      -5.618983e+04 (-5.034812e+04 +/- 0.000000e+00) [K]
    Coulombic Fourier/kʙ   -1.312172e+04 (-1.219428e+04 +/- 0.000000e+00) [K]
    Molecule Intra/kʙ       0.000000e+00 ( 0.000000e+00 +/- 0.000000e+00) [K]

Current cycle: 2100 out of 5000
===============================================================================

Box:      21.33099   0.00000   0.00000  Average:  21.53299   0.00000   0.00000
           0.00000  21.33099   0.00000             0.00000  21.53299   0.00000
           0.00000   0.00000  21.33099             0.00000   0.00000  21.53299
Lengths:  21.33099  21.33099  21.33099  Average:  21.53299  21.53299  21.53299
Angles:   90.00000  90.00000  90.00000  Average:  90.00000  90.00000  90.00000
Rectangular boundary conditions

net charge:   0.00000000

component 0 (CO2) lambda:  0 occupancy:  1 (1.000000)
    net charge:   0.00000000 [e]

Amount of molecules per component :
-------------------------------------------------------------------------------
Component 0 (CO2)
    molecules:      1.500000e+02 molecules  (1.500000e+02 +/- 0.000000e+00)
    number density: 1.545461e-02 molec./A^3 (1.503258e-02 +/- 0.000000e+00)
    density:        1.129140e+03 kg/m^3     (1.098306e+03 +/- 0.000000e+00)

Average pressure tensor: 
-------------------------------------------------------------------------------
 1.4354e+02  3.8884e+01  2.7958e+01 +/- 0.0000e+00 0.0000e+00 0.0000e+00 [bar]
 3.8884e+01  1.4064e+02 -4.2989e+01 +/- 0.0000e+00 0.0000e+00 0.0000e+00 [bar]
 2.7958e+01 -4.2989e+01  2.1313e+02 +/- 0.0000e+00 0.0000e+00 0.0000e+00 [bar]
Ideal-gas pressure:   5.188683e+02 +/ 0.000000e+00 [bar]
Excess pressure:     -3.530978e+02 +/ 0.000000e+00 [bar]
Pressure:             1.657704e+02 +/ 0.000000e+00 [bar]

Total potential energy/kʙ  -2.470582e+05 (-2.390935e+05 +/- 0.000000e+00) [K]
-------------------------------------------------------------------------------
ExternalField-molecule
    Van der Waals/kʙ        0.000000e+00 ( 0.000000e+00 +/- 0.000000e+00) [K]
Framework-molecule
    Van der Waals/kʙ        0.000000e+00 ( 0.000000e+00 +/- 0.000000e+00) [K]
    Van der Waals (Tail)/kʙ 0.000000e+00 ( 0.000000e+00 +/- 0.000000e+00) [K]
[...]
    Coulombic Fourier/kʙ    0.000000e+00 ( 0.000000e+00 +/- 0.000000e+00) [K]
Molecule-molecule
    Van der Waals/kʙ       -1.691251e+05 (-1.682148e+05 +/- 2.781331e+03) [K]
    Van der Waals (Tail)/kʙ-7.191957e+03 (-7.191657e+03 +/- 1.141935e+02) [K]
    Coulombic Real/kʙ      -4.921708e+04 (-4.945972e+04 +/- 2.678584e+03) [K]
    Coulombic Fourier/kʙ   -1.078982e+04 (-1.197136e+04 +/- 3.873577e+02) [K]
    Molecule Intra/kʙ       0.000000e+00 ( 0.000000e+00 +/- 0.000000e+00) [K]

Current cycle: 4700 out of 5000
===============================================================================

Box:      21.58732   0.00000   0.00000  Average:  21.57881   0.00000   0.00000
           0.00000  21.58732   0.00000             0.00000  21.57881   0.00000
           0.00000   0.00000  21.58732             0.00000   0.00000  21.57881
Lengths:  21.58732  21.58732  21.58732  Average:  21.57881  21.57881  21.57881
Angles:   90.00000  90.00000  90.00000  Average:  90.00000  90.00000  90.00000
Rectangular boundary conditions

net charge:   0.00000000

component 0 (CO2) lambda:  0 occupancy:  1 (1.000000)
    net charge:   0.00000000 [e]

Amount of molecules per component :
-------------------------------------------------------------------------------
Component 0 (CO2)
    molecules:      1.500000e+02 molecules  (1.500000e+02 +/- 0.000000e+00)
    number density: 1.491059e-02 molec./A^3 (1.493684e-02 +/- 2.266456e-04)
    density:        1.089393e+03 kg/m^3     (1.091311e+03 +/- 1.655911e+01)

Average pressure tensor: 
-------------------------------------------------------------------------------
 1.6028e+02  2.5013e+01  3.1491e+00 +/- 6.2087e+01 4.7755e+01 2.4960e+01 [bar]
 2.5013e+01  1.1886e+02 -9.3932e+00 +/- 4.7755e+01 4.7807e+01 6.8629e+01 [bar]
 3.1491e+00 -9.3932e+00  1.3007e+02 +/- 2.4960e+01 6.8629e+01 1.1549e+02 [bar]
Ideal-gas pressure:   5.155640e+02 +/ 7.822957e+00 [bar]
Excess pressure:     -3.791597e+02 +/ 3.653978e+01 [bar]
Pressure:             1.364043e+02 +/ 4.051266e+01 [bar]

Total potential energy/kʙ  -2.349913e+05 (-2.367331e+05 +/- 5.631232e+03) [K]
-------------------------------------------------------------------------------
ExternalField-molecule
    Van der Waals/kʙ        0.000000e+00 ( 0.000000e+00 +/- 0.000000e+00) [K]
Framework-molecule
    Van der Waals/kʙ        0.000000e+00 ( 0.000000e+00 +/- 0.000000e+00) [K]
    Van der Waals (Tail)/kʙ 0.000000e+00 ( 0.000000e+00 +/- 0.000000e+00) [K]
    Coulombic Real/kʙ       0.000000e+00 ( 0.000000e+00 +/- 0.000000e+00) [K]
    Coulombic Fourier/kʙ    0.000000e+00 ( 0.000000e+00 +/- 0.000000e+00) [K]
Molecule-molecule
    Van der Waals/kʙ       -1.712596e+05 (-1.681832e+05 +/- 2.699122e+03) [K]
    Van der Waals (Tail)/kʙ-7.176206e+03 (-7.190727e+03 +/- 1.088378e+02) [K]
    Coulombic Real/kʙ      -4.470035e+04 (-4.939366e+04 +/- 2.720321e+03) [K]
    Coulombic Fourier/kʙ   -1.185516e+04 (-1.196553e+04 +/- 3.887248e+02) [K]
    Molecule Intra/kʙ       0.000000e+00 ( 0.000000e+00 +/- 0.000000e+00) [K]

Current cycle: 4800 out of 5000
===============================================================================

Box:      21.74467   0.00000   0.00000  Average:  21.58184   0.00000   0.00000
           0.00000  21.74467   0.00000             0.00000  21.58184   0.00000
           0.00000   0.00000  21.74467             0.00000   0.00000  21.58184
Lengths:  21.74467  21.74467  21.74467  Average:  21.58184  21.58184  21.58184
Angles:   90.00000  90.00000  90.00000  Average:  90.00000  90.00000  90.00000
Rectangular boundary conditions

net charge:   0.00000000

component 0 (CO2) lambda:  0 occupancy:  1 (1.000000)
    net charge:   0.00000000 [e]

Amount of molecules per component :
-------------------------------------------------------------------------------
Component 0 (CO2)
    molecules:      1.500000e+02 molecules  (1.500000e+02 +/- 0.000000e+00)
    number density: 1.458925e-02 molec./A^3 (1.493057e-02 +/- 2.286643e-04)
    density:        1.065916e+03 kg/m^3     (1.090853e+03 +/- 1.670661e+01)

Average pressure tensor: 
-------------------------------------------------------------------------------
 1.6412e+02  2.7137e+01  1.8970e+00 +/- 6.2277e+01 4.2896e+01 2.6585e+01 [bar]
 2.7137e+01  1.1392e+02 -7.7939e+00 +/- 4.2896e+01 5.6522e+01 6.7472e+01 [bar]
 1.8970e+00 -7.7939e+00  1.2478e+02 +/- 2.6585e+01 6.7472e+01 1.2130e+02 [bar]
Ideal-gas pressure:   5.153475e+02 +/ 7.892637e+00 [bar]
Excess pressure:     -3.810774e+02 +/ 3.907052e+01 [bar]
Pressure:             1.342701e+02 +/ 4.340058e+01 [bar]

Total potential energy/kʙ  -2.253352e+05 (-2.365990e+05 +/- 5.704087e+03) [K]
-------------------------------------------------------------------------------
ExternalField-molecule
    Van der Waals/kʙ        0.000000e+00 ( 0.000000e+00 +/- 0.000000e+00) [K]
Framework-molecule
    Van der Waals/kʙ        0.000000e+00 ( 0.000000e+00 +/- 0.000000e+00) [K]
    Van der Waals (Tail)/kʙ 0.000000e+00 ( 0.000000e+00 +/- 0.000000e+00) [K]
    Coulombic Real/kʙ       0.000000e+00 ( 0.000000e+00 +/- 0.000000e+00) [K]
    Coulombic Fourier/kʙ    0.000000e+00 ( 0.000000e+00 +/- 0.000000e+00) [K]
Molecule-molecule
    Van der Waals/kʙ       -1.599090e+05 (-1.680934e+05 +/- 2.769097e+03) [K]
    Van der Waals (Tail)/kʙ-7.021550e+03 (-7.187375e+03 +/- 1.107592e+02) [K]
    Coulombic Real/kʙ      -4.621896e+04 (-4.935396e+04 +/- 2.734594e+03) [K]
    Coulombic Fourier/kʙ   -1.218572e+04 (-1.196423e+04 +/- 3.846654e+02) [K]
    Molecule Intra/kʙ       0.000000e+00 ( 0.000000e+00 +/- 0.000000e+00) [K]

Current cycle: 4900 out of 5000
===============================================================================

Box:      21.98926   0.00000   0.00000  Average:  21.58769   0.00000   0.00000
           0.00000  21.98926   0.00000             0.00000  21.58769   0.00000
           0.00000   0.00000  21.98926             0.00000   0.00000  21.58769
Lengths:  21.98926  21.98926  21.98926  Average:  21.58769  21.58769  21.58769
Angles:   90.00000  90.00000  90.00000  Average:  90.00000  90.00000  90.00000
Rectangular boundary conditions

net charge:   0.00000000

component 0 (CO2) lambda:  0 occupancy:  1 (1.000000)
    net charge:   0.00000000 [e]

Amount of molecules per component :
-------------------------------------------------------------------------------
Component 0 (CO2)
    molecules:      1.500000e+02 molecules  (1.500000e+02 +/- 0.000000e+00)
    number density: 1.410779e-02 molec./A^3 (1.491860e-02 +/- 2.439218e-04)
    density:        1.030740e+03 kg/m^3     (1.089979e+03 +/- 1.782134e+01)

Average pressure tensor: 
-------------------------------------------------------------------------------
 1.6353e+02  2.6570e+01  6.8120e-01 +/- 6.2022e+01 4.2942e+01 2.7943e+01 [bar]
 2.6570e+01  1.1722e+02 -3.7088e+00 +/- 4.2942e+01 4.7675e+01 7.3449e+01 [bar]
 6.8120e-01 -3.7088e+00  1.2721e+02 +/- 2.7943e+01 7.3449e+01 1.1490e+02 [bar]
Ideal-gas pressure:   5.149343e+02 +/ 8.419268e+00 [bar]
Excess pressure:     -3.789488e+02 +/ 3.374025e+01 [bar]
Pressure:             1.359855e+02 +/ 3.775164e+01 [bar]

Total potential energy/kʙ  -2.173912e+05 (-2.363718e+05 +/- 5.922277e+03) [K]
-------------------------------------------------------------------------------
ExternalField-molecule
    Van der Waals/kʙ        0.000000e+00 ( 0.000000e+00 +/- 0.000000e+00) [K]
Framework-molecule
    Van der Waals/kʙ        0.000000e+00 ( 0.000000e+00 +/- 0.000000e+00) [K]
    Van der Waals (Tail)/kʙ 0.000000e+00 ( 0.000000e+00 +/- 0.000000e+00) [K]
    Coulombic Real/kʙ       0.000000e+00 ( 0.000000e+00 +/- 0.000000e+00) [K]
    Coulombic Fourier/kʙ    0.000000e+00 ( 0.000000e+00 +/- 0.000000e+00) [K]
Molecule-molecule
    Van der Waals/kʙ       -1.570953e+05 (-1.679318e+05 +/- 2.986533e+03) [K]
    Van der Waals (Tail)/kʙ-6.789833e+03 (-7.181357e+03 +/- 1.186036e+02) [K]
    Coulombic Real/kʙ      -4.235856e+04 (-4.929958e+04 +/- 2.761637e+03) [K]
    Coulombic Fourier/kʙ   -1.114751e+04 (-1.195901e+04 +/- 3.858055e+02) [K]
    Molecule Intra/kʙ       0.000000e+00 ( 0.000000e+00 +/- 0.000000e+00) [K]


Energy statistics             |  Energy [K]   | Recomputed [K]|  Drift [K]    |
===============================================================================
Total potential energy/kʙ     | -2.330584e+05 | -2.330584e+05 | -1.120124e-09 |
    external field VDW/kʙ     |  0.000000e+00 |  0.000000e+00 |  0.000000e+00 |
    external field Real/kʙ    |  0.000000e+00 |  0.000000e+00 |  0.000000e+00 |
    framework-molecule VDW/kʙ |  0.000000e+00 |  0.000000e+00 |  0.000000e+00 |
    framework-molecule Real/kʙ|  0.000000e+00 |  0.000000e+00 |  0.000000e+00 |
    molecule-molecule VDW/kʙ  | -1.632930e+05 | -1.632930e+05 | -3.500388e-10 |
    molecule-molecule Real/kʙ | -5.083463e+04 | -5.083463e+04 | -7.700854e-10 |
    Van der Waals (Tail)/kʙ   | -7.206779e+03 | -7.206779e+03 |  0.000000e+00 |
    Ewald Fourier/kʙ          |  1.007232e+04 |  1.007232e+04 |  0.000000e+00 |
    Ewald self/kʙ             | -3.334385e+06 | -3.334385e+06 |  0.000000e+00 |
    Ewald exclusion/kʙ        |  3.312589e+06 |  3.312589e+06 |  0.000000e+00 |
    intra VDW/kʙ              |  0.000000e+00 |  0.000000e+00 |  0.000000e+00 |
    intra Coulombic/kʙ        |  0.000000e+00 |  0.000000e+00 |  0.000000e+00 |
    polarization/kʙ           |  0.000000e+00 |  0.000000e+00 |  0.000000e+00 |
    dU/dlambda VDW/kʙ         |  0.000000e+00 |  0.000000e+00 |  0.000000e+00 |
    dU/dlambda Real/kʙ        |  0.000000e+00 |  0.000000e+00 |  0.000000e+00 |
    dU/dlambda Ewald/kʙ       |  0.000000e+00 |  0.000000e+00 |  0.000000e+00 |
-------------------------------------------------------------------------------


Monte-Carlo moves statistics
===============================================================================

    Volume change        all:                4878
    Volume change        total:              4878
    Volume change        constructed:        4878
    Volume change        accepted:           1837
    Volume change        fraction:       0.376589
    Volume change        max-change:     0.044444

Component 0 [CO2]
    Reinsertion (CBMC)   all:              248114
    Reinsertion (CBMC)   total:            248114
    Reinsertion (CBMC)   constructed:      214398
    Reinsertion (CBMC)   accepted:           2604
    Reinsertion (CBMC)   fraction:       0.010495
    Reinsertion (CBMC)   max-change:     0.000000

    Translation          all:              248269
    Translation          total:             82849      82907      82513
    Translation          constructed:       82849      82904      82512
    Translation          accepted:          42165      32934      33564
    Translation          fraction:       0.508938   0.397240   0.406772
    Translation          max-change:     0.631579   0.884211   0.849673

    Rotation             all:              248739
    Rotation             total:             83354      82448      82937
    Rotation             constructed:       83354      82447      82690
    Rotation             accepted:          41393      38143      25825
    Rotation             fraction:       0.496593   0.462631   0.311381
    Rotation             max-change:     0.687500   0.761905   1.263158



Production run counting of the MC moves summed over systems and components
===============================================================================

Volume change                          4878 (0.6504 [%])
Reinsertion (CBMC)                   248114 (33.0819 [%])
Translation                          248269 (33.1025 [%])
Rotation                             248739 (33.1652 [%])

Production count MC-steps:           750000 [-]
               All summed:           750000 [-]
               difference:                0 [-]


Production run CPU timings of the MC moves
===============================================================================

Component 0 CO2

Rotation                             36.567164 [s]
    Ewald                            20.054434 [s]
    ExternalField-Molecule            0.009338 [s]
    Framework-Molecule                0.007459 [s]
    Molecule-Molecule                15.137358 [s]
    Overhead                          1.358575 [s]

Reinsertion (CBMC)                  116.358621 [s]
    Ewald                            16.330349 [s]
    NonEwald                         99.796565 [s]
    Overhead                          0.231707 [s]

Translation                          35.114839 [s]
    Ewald                            18.579352 [s]
    ExternalField-Molecule            0.009540 [s]
    Framework-Molecule                0.013254 [s]
    Molecule-Molecule                15.142500 [s]
    Overhead                          1.370193 [s]



Volume change                         22.706158 [s]
    Ewald                             10.721529 [s]
    NonEwald                          11.225281 [s]
    Tail                               0.616600 [s]

Property sampling                     0.254420 [s]
Energy/pressure sampling:             5.199973 [s]


Production run CPU timings of the MC moves summed over systems and components
===============================================================================


Translation                          35.114839 [s]
    Ewald                            18.579352 [s]
    ExternalField-Molecule            0.009540 [s]
    Framework-Molecule                0.013254 [s]
    Molecule-Molecule                15.142500 [s]
    Overhead                          1.370193 [s]

Rotation                             36.567164 [s]
    Ewald                            20.054434 [s]
    ExternalField-Molecule            0.009338 [s]
    Framework-Molecule                0.007459 [s]
    Molecule-Molecule                15.137358 [s]
    Overhead                          1.358575 [s]

Volume change                        22.706158 [s]
    Ewald                            10.721529 [s]
    NonEwald                         11.225281 [s]
    Tail                              0.616600 [s]
    Overhead                          0.142748 [s]

Reinsertion (CBMC)                  116.358621 [s]
    Ewald                            16.330349 [s]
    NonEwald                         99.796565 [s]
    Overhead                          0.231707 [s]

Property sampling:                    0.254420 [s]
Energy/pressure sampling:             5.199973 [s]

Production simulation time:         216.779087 [s]
                All summed:         216.201175 [s]
                  Overhead:           0.577912 [s]


Initalization simulation time:       39.780280 [s]
Equilibration simulation time:        0.000000 [s]
Production simulation time:         216.779087 [s]
Total simulation time:              256.559367 [s]


Energy averages and statistics:
===============================================================================

Framework-molecule energy:
-------------------------------------------------------------------------------



Framework-molecule energy contributions per energy type:
-------------------------------------------------------------------------------



Inter-molecular energy:
-------------------------------------------------------------------------------

    Inter-molecular energy/kʙ 0-0 [CO2-CO2]:
    ---------------------------------------------------------------------------
        Block[  0] -2.337770e+05
        Block[  1] -2.434755e+05
        Block[  2] -2.386179e+05
        Block[  3] -2.339927e+05
        Block[  4] -2.311396e+05
        -----------------------------------------------------------------------
        Average  -2.362006e+05 +/-  6.054300e+03 [K]



Inter-molecular energy contributions per energy type:
-------------------------------------------------------------------------------

    Van der Waals energy/kʙ 0-0 [CO2-CO2]:
    ---------------------------------------------------------------------------
        Block[  0] -1.671306e+05
        Block[  1] -1.706511e+05
        Block[  2] -1.699168e+05
        Block[  3] -1.669308e+05
        Block[  4] -1.644815e+05
        -----------------------------------------------------------------------
        Average  -1.678222e+05 +/-  3.092689e+03 [K]

    VDW Tail-Correction energy/kʙ 0-0 [CO2-CO2]:
    ---------------------------------------------------------------------------
        Block[  0] -7.158311e+03
        Block[  1] -7.295461e+03
        Block[  2] -7.245754e+03
        Block[  3] -7.146644e+03
        Block[  4] -7.039982e+03
        -----------------------------------------------------------------------
        Average  -7.177230e+03 +/-  1.222773e+02 [K]

    Coulomb Real energy/kʙ 0-0 [CO2-CO2]:
    ---------------------------------------------------------------------------
        Block[  0] -4.760361e+04
        Block[  1] -5.303421e+04
        Block[  2] -4.955012e+04
        Block[  3] -4.818265e+04
        Block[  4] -4.790574e+04
        -----------------------------------------------------------------------
        Average  -4.925527e+04 +/-  2.780651e+03 [K]

    Coulomb Fourier energy/kʙ 0-0 [CO2-CO2]:
    ---------------------------------------------------------------------------
        Block[  0] -1.188454e+04
        Block[  1] -1.249474e+04
        Block[  2] -1.190523e+04
        Block[  3] -1.173257e+04
        Block[  4] -1.171241e+04
        -----------------------------------------------------------------------
        Average  -1.194590e+04 +/-  3.958456e+02 [K]


Total energy/kʙ
-------------------------------------------------------------------------------
    Block[  0] -2.337770e+05
    Block[  1] -2.434755e+05
    Block[  2] -2.386179e+05
    Block[  3] -2.339927e+05
    Block[  4] -2.311396e+05
    ---------------------------------------------------------------------------
    Average  -2.362006e+05 +/-  6.054300e+03 [K]

Pressure averages and statistics:
===============================================================================

Average pressure tensor: 
-------------------------------------------------------------------------------
 1.5964e+02  2.8765e+01 -3.8139e+00 +/- 6.2112e+01 4.0571e+01 3.6981e+01 [bar]
 2.8765e+01  1.2001e+02 -2.3349e+00 +/- 4.0571e+01 4.2964e+01 7.2064e+01 [bar]
-3.8139e+00 -2.3349e+00  1.2433e+02 +/- 3.6981e+01 7.2064e+01 1.1665e+02 [bar]

    Block[  0]  5.129957e+07
    Block[  1]  5.231214e+07
    Block[  2]  5.192467e+07
    Block[  3]  5.129521e+07
    Block[  4]  5.048067e+07
    ---------------------------------------------------------------------------
    Ideal gas pressure   5.146245e+07 +/-  5.225403e-02 [Pa]
                         5.146245e+02 +/-  8.676991e+00 [bar]


    Block[  0] -3.455167e+07
    Block[  1] -3.840194e+07
    Block[  2] -3.576979e+07
    Block[  3] -4.056725e+07
    Block[  4] -4.069179e+07
    ---------------------------------------------------------------------------
    Excess pressure  -3.799649e+07 +/-  3.448436e+06 [Pa]
                     -3.799649e+02 +/-  3.448436e+01 [bar]


    Block[  0]  1.674789e+07
    Block[  1]  1.391021e+07
    Block[  2]  1.615488e+07
    Block[  3]  1.072796e+07
    Block[  4]  9.788878e+06
    ---------------------------------------------------------------------------
    Pressure average   1.346596e+07 +/-  3.887208e+06 [Pa]
                       1.346596e+02 +/-  3.887208e+01 [bar]


Enthalpy of adsorption
===============================================================================

No fluctuating components present.


Densities
===============================================================================

Component 0 (CO2)
    Block[  0] 150
    Block[  1] 150
    Block[  2] 150
    Block[  3] 150
    Block[  4] 150
    -----------------------------------------------------------------------
    Density average   1.500000e+02 +/-  0.000000e+00 [molecules]
    Density average   1.490963e-02 +/-  2.513885e-04 [molec/A^3]
    Density average   1.089323e+03 +/-  1.836688e+01 [kg.m⁻³]

