Compiler and run-time data
===============================================================================
RASPA 3.0.4

Random seed: 2090347715

Compiled as a 64-bits application
Compiler: gcc Ubuntu Clang 18.1.3 (1ubuntu1)
Compile Date = Mar 15 2025, Compile Time = 19:39:45

2025-06-03 11:00:36.157445
Simulation started on Tue, Jun 03
The start time was 11:00:00

Hostname:    c060
OS type:     Linux on x86_64
OS release:  6.8.0-58-generic
OS version:  #60-Ubuntu SMP PREEMPT_DYNAMIC Fri Mar 14 18:29:48 UTC 2025


Mutual consistent basic set of units:
===============================================================================

Unit of temperature: 1 [K]
Unit of length:      1e-10 [m]
Unit of time:        1e-12 [s]
Unit of mass:        1.6605402e-27 [kg]
Unit of charge:      1.60217733e-19 [C/particle]


Boltzmann constant (internal units):          0.8314464919307584 [-]
represents conversion from energy (internal units) to temperature (in Kelvin)

Derived units and their conversion factors:
===============================================================================

Unit of energy:                           1.6605402000000002e-23 [J]
Unit of energy:                           10.000008872307538 [J.mol⁻¹]
Unit of velocity:                         100 [m.s⁻¹]
Unit of force:                            1.6605402000000002e-13 [N]
Unit of diffusion:                        1.0000000000000002e-08 [m².s⁻¹]
Unit of acceleration:                     1.0000000000000002e-08 [m².s⁻¹]
Unit of torque:                           1.6605402000000002e-23 [N.m]
Unit of pressure:                         16605402 [Pa]
Unit of volume:                           1e-30 [m³]
Unit of density:                          1660.5402 [kg.m⁻³]
Unit of dynamic viscosity:                1.6605401999999997e-05 [N.s.m⁻²]
Unit of enthalpy:                         1.6605402000000002e-23 [J]
Unit of polarizability:                   1.5458657349975198e-35 [-]
Unit of Coulomb potential:                167101.08000665612 [K]
Unit of dielectric constant:              1.5458657349975193e-05 [s².C².kg⁻¹.m⁻³]
Unit of dipole moment:                    1.60217733e-29 [C.m]
Unit of Debye:                            4.803206799099162 [C.m]
Unit of electric potential:               0.00010364272224473431 [V]
Unit of electric field:                   1036427.222447343 [V.m⁻¹]
Unit of isothermal compressibility:       6.02213665167516e-08 [Pa⁻¹]
Unit of heat capacity:                    10.000008872307538 [J.mol⁻¹.K⁻¹]
Unit of volumetric expansion coefficient: 1 [K⁻¹]


Internal conversion factors:
===============================================================================

Energy (internal units) to Kelvin:      1.202724284692786 [-]
Kelvin to energy (internal units):      0.8314457542157567 [-]


System definitions
===============================================================================

Temperature:          220 [K]
Beta:                 0.005466923716160299 [-]
Pressure:             0 [Pa]
Helium void fraction: 1 [-]

Box:      30.00000   0.00000   0.00000
           0.00000  30.00000   0.00000
           0.00000   0.00000  30.00000
Lengths:  30.00000  30.00000  30.00000
Angles:   90.00000  90.00000  90.00000
Rectangular boundary conditions



Property measurement settings
===============================================================================




Pseudo-atoms
===============================================================================

  0 - C_co2    framework-atom: false
  1 - O_co2    framework-atom: false

  0 - C_co2    mass: 12.00000, charge:  0.70000
  1 - O_co2    mass: 15.99940, charge: -0.35000

  0 - C_co2    polarizability:  0.00000
  1 - O_co2    polarizability:  0.00000

  0 - J. J. Potoff et al., AIChE J. 2001, 47, 1676–1682.
  1 - J. J. Potoff et al., AIChE J. 2001, 47, 1676–1682.

Force field status
===============================================================================

Cutoff Framework-Molecule VDW:  10.00000 [Å]
Cutoff Molecule-Molecule VDW:   10.00000 [Å]
Cutoff Coulomb:                 10.00000 [Å]

Overlap-criteria VDW:           1.000000e+05 [K]

C_co2    - C_co2    Lennard-Jones p₀/kʙ:  27.00000 [K], p₁:  2.80000 [Å]
                                  shift:   0.00000 [K], tailcorrections: true
C_co2    - O_co2    Lennard-Jones p₀/kʙ:  46.18441 [K], p₁:  2.92500 [Å]
                                  shift:   0.00000 [K], tailcorrections: true
O_co2    - O_co2    Lennard-Jones p₀/kʙ:  79.00000 [K], p₁:  3.05000 [Å]
                                  shift:   0.00000 [K], tailcorrections: true

Ewald precision: 1e-06
Ewald alpha: 0.32079885109097883
Ewald k-vectors: 10 10 10


Component definitions
===============================================================================

Component 0 [CO2]

    Type: Adsorbate

    Critical temperature:  304.1282 [K]
    Critical pressure:     7377300 [Pa]
    Acentric factor:       0.22394 [-]

    Mol-fraction:                 1 [-]
    Swappable:                   true

    Mass:                         43.9988 [-]
    Fugacity coefficient:         -nan [-]
    Bulk fluid density:           0 [-]
    Compressibility:              1 [-]
    Excess molecules:             0 [-]

    Number Of Atoms:    3
    CBMC starting bead: 0
      0: O_co2  position  0.00000 -0.00000  1.16000, charge -0.35000
      1: C_co2  position  0.00000 -0.00000  0.00000, charge  0.70000
      2: O_co2  position  0.00000 -0.00000 -1.16000, charge -0.35000
    Diagonalized inertia-vector:      43.05758528 43.05758528 0.00000000
    Translational degrees of freedom: 3
    Rotational degrees of freedom:    2
    Shape of the molecule is: 'Linear'
    Net-charge:        0.00000000 [e]

    Move probabilities:
    Translation:                   0.199203 [-]
    Random translation:            0.000000 [-]
    Rotation:                      0.199203 [-]
    Random rotation:               0.000000 [-]
    Volume change:                 0.000000 [-]
    Reinsertion (CBMC):            0.199203 [-]
    Identity change (CBMC):        0.000000 [-]
    Swap:                          0.000000 [-]
    Swap (CBMC):                   0.000000 [-]
    Swap (CFCMC):                  0.000000 [-]
    Swap (CB/CFCMC):               0.000000 [-]
    Gibbs volume:                  0.003984 [-]
    Gibbs swap (CBMC):             0.398406 [-]
    Gibbs swap (CFCMC):            0.000000 [-]
    Widom:                         0.000000 [-]
    Widom (CFCMC):                 0.000000 [-]
    Widom (CB/CFCMC):              0.000000 [-]
    Parallel tempering:            0.000000 [-]
    Hybrid MC:                     0.000000 [-]

    number of blocking-pockets: 0

    number of bonds: 0





Number of pseudo-atoms
===============================================================================

Component   0 (CO2)
-------------------------------------------------------------------------------
    index   0 (C_co2): 210 atoms
    index   1 (O_co2): 420 atoms

Total number of pseudo-atoms:
-------------------------------------------------------------------------------
    index   0 (C_co2): 210 atoms
    index   1 (O_co2): 420 atoms




Energy status Recomputed from scratch
===============================================================================

Total potential energy/kʙ       -9.138785e+04 [K]
    external field VDW/kʙ        0.000000e+00 [K]
    external field Real/kʙ       0.000000e+00 [K]
    framework-molecule VDW/kʙ    0.000000e+00 [K]
    framework-molecule Real/kʙ   0.000000e+00 [K]
    molecule-molecule VDW/kʙ    -6.839185e+04 [K]
    molecule-molecule Real/kʙ   -1.469934e+04 [K]
    Van der Waals (Tail)/kʙ     -5.240630e+03 [K]
    Ewald Fourier/kʙ             2.745877e+04 [K]
    Ewald self/kʙ               -4.668139e+06 [K]
    Ewald exclusion/kʙ           4.637624e+06 [K]
    intra VDW/kʙ                 0.000000e+00 [K]
    intra Coulombic/kʙ           0.000000e+00 [K]
    polarization/kʙ              0.000000e+00 [K]
    dU/dlambda VDW/kʙ            0.000000e+00 [K]
    dU/dlambda Real/kʙ           0.000000e+00 [K]
    dU/dlambda Ewald/kʙ          0.000000e+00 [K]





Initialization: Current cycle: 0 out of 2000
===============================================================================

Box:      30.00000   0.00000   0.00000
           0.00000  30.00000   0.00000
           0.00000   0.00000  30.00000
Lengths:  30.00000  30.00000  30.00000
Angles:   90.00000  90.00000  90.00000
Rectangular boundary conditions

net charge:   0.00000000

component   0 (CO2) lambda:  0 occupancy:  0 (0.000000)
    net charge:   0.00000000 [e]

Amount of molecules per component :
-------------------------------------------------------------------------------
Component 0 (CO2)
    molecules:         2.220000e+02 molecules
    number density:    8.222222e-03 molec/A^3
    density:           6.007296e+02 kg/m^3

Total potential energy/kʙ       -1.199612e+05 [K]
-------------------------------------------------------------------------------
    external field VDW/kʙ        0.000000e+00 [K]
    external field Real/kʙ       0.000000e+00 [K]
    framework-molecule VDW/kʙ    0.000000e+00 [K]
    framework-molecule Real/kʙ   0.000000e+00 [K]
    molecule-molecule VDW/kʙ    -9.033624e+04 [K]
    molecule-molecule Real/kʙ   -1.858549e+04 [K]
    Van der Waals (Tail)/kʙ     -5.856672e+03 [K]
    Ewald Fourier/kʙ             2.707565e+04 [K]
    Ewald self/kʙ               -4.934890e+06 [K]
    Ewald exclusion/kʙ           4.902631e+06 [K]
    intra VDW/kʙ                 0.000000e+00 [K]
    intra Coulombic/kʙ           0.000000e+00 [K]
    polarization/kʙ              0.000000e+00 [K]
    dU/dlambda VDW/kʙ            0.000000e+00 [K]
    dU/dlambda Real/kʙ           0.000000e+00 [K]
    dU/dlambda Ewald/kʙ          0.000000e+00 [K]


Initialization: Current cycle: 100 out of 2000
===============================================================================

Box:      28.78261   0.00000   0.00000
           0.00000  28.78261   0.00000
           0.00000   0.00000  28.78261
Lengths:  28.78261  28.78261  28.78261
Angles:   90.00000  90.00000  90.00000
Rectangular boundary conditions

net charge:   0.00000000

component   0 (CO2) lambda:  0 occupancy:  0 (0.000000)
    net charge:   0.00000000 [e]

Amount of molecules per component :
-------------------------------------------------------------------------------
Component 0 (CO2)
    molecules:         2.450000e+02 molecules
    number density:    1.027485e-02 molec/A^3
    density:           7.506979e+02 kg/m^3

Total potential energy/kʙ       -3.018765e+05 [K]
-------------------------------------------------------------------------------
    external field VDW/kʙ        0.000000e+00 [K]
    external field Real/kʙ       0.000000e+00 [K]
    framework-molecule VDW/kʙ    0.000000e+00 [K]
    framework-molecule Real/kʙ   0.000000e+00 [K]
    molecule-molecule VDW/kʙ    -2.144168e+05 [K]
    molecule-molecule Real/kʙ   -6.495801e+04 [K]
    Van der Waals (Tail)/kʙ     -8.077001e+03 [K]
    Ewald Fourier/kʙ             2.117590e+04 [K]
    Ewald self/kʙ               -5.446162e+06 [K]
    Ewald exclusion/kʙ           5.410561e+06 [K]
    intra VDW/kʙ                 0.000000e+00 [K]
    intra Coulombic/kʙ           0.000000e+00 [K]
    polarization/kʙ              0.000000e+00 [K]
    dU/dlambda VDW/kʙ            0.000000e+00 [K]
    dU/dlambda Real/kʙ           0.000000e+00 [K]
    dU/dlambda Ewald/kʙ          0.000000e+00 [K]


Initialization: Current cycle: 200 out of 2000
===============================================================================

Box:      27.74089   0.00000   0.00000
           0.00000  27.74089   0.00000
           0.00000   0.00000  27.74089
Lengths:  27.74089  27.74089  27.74089
Angles:   90.00000  90.00000  90.00000
Rectangular boundary conditions

net charge:   0.00000000

component   0 (CO2) lambda:  0 occupancy:  0 (0.000000)
    net charge:   0.00000000 [e]

Amount of molecules per component :
-------------------------------------------------------------------------------
Component 0 (CO2)
    molecules:         2.470000e+02 molecules
    number density:    1.157007e-02 molec/A^3
    density:           8.453292e+02 kg/m^3

Total potential energy/kʙ       -3.286457e+05 [K]
-------------------------------------------------------------------------------
    external field VDW/kʙ        0.000000e+00 [K]
    external field Real/kʙ       0.000000e+00 [K]
    framework-molecule VDW/kʙ    0.000000e+00 [K]
    framework-molecule Real/kʙ   0.000000e+00 [K]
    molecule-molecule VDW/kʙ    -2.279289e+05 [K]
    molecule-molecule Real/kʙ   -7.423137e+04 [K]
    Van der Waals (Tail)/kʙ     -9.169415e+03 [K]
    Ewald Fourier/kʙ             1.857513e+04 [K]
    Ewald self/kʙ               -5.490620e+06 [K]
    Ewald exclusion/kʙ           5.454729e+06 [K]
    intra VDW/kʙ                 0.000000e+00 [K]
    intra Coulombic/kʙ           0.000000e+00 [K]
    polarization/kʙ              0.000000e+00 [K]
    dU/dlambda VDW/kʙ            0.000000e+00 [K]
    dU/dlambda Real/kʙ           0.000000e+00 [K]
    dU/dlambda Ewald/kʙ          0.000000e+00 [K]


Initialization: Current cycle: 300 out of 2000
===============================================================================

Box:      27.41573   0.00000   0.00000
           0.00000  27.41573   0.00000
           0.00000   0.00000  27.41573
Lengths:  27.41573  27.41573  27.41573
Angles:   90.00000  90.00000  90.00000
Rectangular boundary conditions

net charge:   0.00000000

component   0 (CO2) lambda:  0 occupancy:  0 (0.000000)
    net charge:   0.00000000 [e]

Amount of molecules per component :
-------------------------------------------------------------------------------
Component 0 (CO2)
    molecules:         2.480000e+02 molecules
    number density:    1.203517e-02 molec/A^3
    density:           8.793099e+02 kg/m^3

Total potential energy/kʙ       -3.468438e+05 [K]
-------------------------------------------------------------------------------
    external field VDW/kʙ        0.000000e+00 [K]
    external field Real/kʙ       0.000000e+00 [K]
    framework-molecule VDW/kʙ    0.000000e+00 [K]
    framework-molecule Real/kʙ   0.000000e+00 [K]
    molecule-molecule VDW/kʙ    -2.406737e+05 [K]
    molecule-molecule Real/kʙ   -7.837528e+04 [K]
    Van der Waals (Tail)/kʙ     -9.576625e+03 [K]
    Ewald Fourier/kʙ             1.781828e+04 [K]
    Ewald self/kʙ               -5.512850e+06 [K]
    Ewald exclusion/kʙ           5.476813e+06 [K]
    intra VDW/kʙ                 0.000000e+00 [K]
    intra Coulombic/kʙ           0.000000e+00 [K]
    polarization/kʙ              0.000000e+00 [K]
    dU/dlambda VDW/kʙ            0.000000e+00 [K]
    dU/dlambda Real/kʙ           0.000000e+00 [K]
    dU/dlambda Ewald/kʙ          0.000000e+00 [K]


Initialization: Current cycle: 400 out of 2000
===============================================================================

Box:      26.49640   0.00000   0.00000
           0.00000  26.49640   0.00000
           0.00000   0.00000  26.49640
Lengths:  26.49640  26.49640  26.49640
Angles:   90.00000  90.00000  90.00000
Rectangular boundary conditions

net charge:   0.00000000

component   0 (CO2) lambda:  0 occupancy:  0 (0.000000)
    net charge:   0.00000000 [e]

Amount of molecules per component :
-------------------------------------------------------------------------------
Component 0 (CO2)
    molecules:         2.500000e+02 molecules
    number density:    1.343938e-02 molec/A^3
    density:           9.819044e+02 kg/m^3

Total potential energy/kʙ       -3.711736e+05 [K]
-------------------------------------------------------------------------------
    external field VDW/kʙ        0.000000e+00 [K]
    external field Real/kʙ       0.000000e+00 [K]
    framework-molecule VDW/kʙ    0.000000e+00 [K]
    framework-molecule Real/kʙ   0.000000e+00 [K]
    molecule-molecule VDW/kʙ    -2.595141e+05 [K]
    molecule-molecule Real/kʙ   -8.262548e+04 [K]
    Van der Waals (Tail)/kʙ     -1.078023e+04 [K]
    Ewald Fourier/kʙ             1.807328e+04 [K]
    Ewald self/kʙ               -5.557308e+06 [K]
    Ewald exclusion/kʙ           5.520981e+06 [K]
    intra VDW/kʙ                 0.000000e+00 [K]
    intra Coulombic/kʙ           0.000000e+00 [K]
    polarization/kʙ              0.000000e+00 [K]
    dU/dlambda VDW/kʙ            0.000000e+00 [K]
    dU/dlambda Real/kʙ           0.000000e+00 [K]
    dU/dlambda Ewald/kʙ          0.000000e+00 [K]


Initialization: Current cycle: 500 out of 2000
===============================================================================

Box:      25.77580   0.00000   0.00000
           0.00000  25.77580   0.00000
           0.00000   0.00000  25.77580
Lengths:  25.77580  25.77580  25.77580
Angles:   90.00000  90.00000  90.00000
Rectangular boundary conditions

net charge:   0.00000000

component   0 (CO2) lambda:  0 occupancy:  0 (0.000000)
    net charge:   0.00000000 [e]

Amount of molecules per component :
-------------------------------------------------------------------------------
Component 0 (CO2)
    molecules:         2.500000e+02 molecules
    number density:    1.459834e-02 molec/A^3
    density:           1.066580e+03 kg/m^3

Total potential energy/kʙ       -3.877773e+05 [K]
-------------------------------------------------------------------------------
    external field VDW/kʙ        0.000000e+00 [K]
    external field Real/kʙ       0.000000e+00 [K]
    framework-molecule VDW/kʙ    0.000000e+00 [K]
    framework-molecule Real/kʙ   0.000000e+00 [K]
    molecule-molecule VDW/kʙ    -2.733054e+05 [K]
    molecule-molecule Real/kʙ   -8.256582e+04 [K]
    Van der Waals (Tail)/kʙ     -1.170987e+04 [K]
    Ewald Fourier/kʙ             1.613092e+04 [K]
    Ewald self/kʙ               -5.557308e+06 [K]
    Ewald exclusion/kʙ           5.520981e+06 [K]
    intra VDW/kʙ                 0.000000e+00 [K]
    intra Coulombic/kʙ           0.000000e+00 [K]
    polarization/kʙ              0.000000e+00 [K]
    dU/dlambda VDW/kʙ            0.000000e+00 [K]
    dU/dlambda Real/kʙ           0.000000e+00 [K]
    dU/dlambda Ewald/kʙ          0.000000e+00 [K]


Initialization: Current cycle: 600 out of 2000
===============================================================================

Box:      25.47487   0.00000   0.00000
           0.00000  25.47487   0.00000
           0.00000   0.00000  25.47487
Lengths:  25.47487  25.47487  25.47487
Angles:   90.00000  90.00000  90.00000
Rectangular boundary conditions

net charge:   0.00000000

component   0 (CO2) lambda:  0 occupancy:  0 (0.000000)
    net charge:   0.00000000 [e]

Amount of molecules per component :
-------------------------------------------------------------------------------
Component 0 (CO2)
    molecules:         2.440000e+02 molecules
    number density:    1.475890e-02 molec/A^3
    density:           1.078310e+03 kg/m^3

Total potential energy/kʙ       -3.868399e+05 [K]
-------------------------------------------------------------------------------
    external field VDW/kʙ        0.000000e+00 [K]
    external field Real/kʙ       0.000000e+00 [K]
    framework-molecule VDW/kʙ    0.000000e+00 [K]
    framework-molecule Real/kʙ   0.000000e+00 [K]
    molecule-molecule VDW/kʙ    -2.740675e+05 [K]
    molecule-molecule Real/kʙ   -8.206622e+04 [K]
    Van der Waals (Tail)/kʙ     -1.155453e+04 [K]
    Ewald Fourier/kʙ             1.630362e+04 [K]
    Ewald self/kʙ               -5.423933e+06 [K]
    Ewald exclusion/kʙ           5.388477e+06 [K]
    intra VDW/kʙ                 0.000000e+00 [K]
    intra Coulombic/kʙ           0.000000e+00 [K]
    polarization/kʙ              0.000000e+00 [K]
    dU/dlambda VDW/kʙ            0.000000e+00 [K]
    dU/dlambda Real/kʙ           0.000000e+00 [K]
    dU/dlambda Ewald/kʙ          0.000000e+00 [K]


Initialization: Current cycle: 700 out of 2000
===============================================================================

Box:      25.07929   0.00000   0.00000
           0.00000  25.07929   0.00000
           0.00000   0.00000  25.07929
Lengths:  25.07929  25.07929  25.07929
Angles:   90.00000  90.00000  90.00000
Rectangular boundary conditions

net charge:   0.00000000

component   0 (CO2) lambda:  0 occupancy:  0 (0.000000)
    net charge:   0.00000000 [e]

Amount of molecules per component :
-------------------------------------------------------------------------------
Component 0 (CO2)
    molecules:         2.440000e+02 molecules
    number density:    1.546835e-02 molec/A^3
    density:           1.130144e+03 kg/m^3

Total potential energy/kʙ       -4.068954e+05 [K]
-------------------------------------------------------------------------------
    external field VDW/kʙ        0.000000e+00 [K]
    external field Real/kʙ       0.000000e+00 [K]
    framework-molecule VDW/kʙ    0.000000e+00 [K]
    framework-molecule Real/kʙ   0.000000e+00 [K]
    molecule-molecule VDW/kʙ    -2.889201e+05 [K]
    molecule-molecule Real/kʙ   -8.526772e+04 [K]
    Van der Waals (Tail)/kʙ     -1.210995e+04 [K]
    Ewald Fourier/kʙ             1.485759e+04 [K]
    Ewald self/kʙ               -5.423933e+06 [K]
    Ewald exclusion/kʙ           5.388477e+06 [K]
    intra VDW/kʙ                 0.000000e+00 [K]
    intra Coulombic/kʙ           0.000000e+00 [K]
    polarization/kʙ              0.000000e+00 [K]
    dU/dlambda VDW/kʙ            0.000000e+00 [K]
    dU/dlambda Real/kʙ           0.000000e+00 [K]
    dU/dlambda Ewald/kʙ          0.000000e+00 [K]


Initialization: Current cycle: 800 out of 2000
===============================================================================

Box:      24.91940   0.00000   0.00000
           0.00000  24.91940   0.00000
           0.00000   0.00000  24.91940
Lengths:  24.91940  24.91940  24.91940
Angles:   90.00000  90.00000  90.00000
Rectangular boundary conditions

net charge:   0.00000000

component   0 (CO2) lambda:  0 occupancy:  0 (0.000000)
    net charge:   0.00000000 [e]

Amount of molecules per component :
-------------------------------------------------------------------------------
Component 0 (CO2)
    molecules:         2.430000e+02 molecules
    number density:    1.570340e-02 molec/A^3
    density:           1.147317e+03 kg/m^3

Total potential energy/kʙ       -4.096323e+05 [K]
-------------------------------------------------------------------------------
    external field VDW/kʙ        0.000000e+00 [K]
    external field Real/kʙ       0.000000e+00 [K]
    framework-molecule VDW/kʙ    0.000000e+00 [K]
    framework-molecule Real/kʙ   0.000000e+00 [K]
    molecule-molecule VDW/kʙ    -2.809830e+05 [K]
    molecule-molecule Real/kʙ   -9.565047e+04 [K]
    Van der Waals (Tail)/kʙ     -1.224358e+04 [K]
    Ewald Fourier/kʙ             1.455474e+04 [K]
    Ewald self/kʙ               -5.401703e+06 [K]
    Ewald exclusion/kʙ           5.366393e+06 [K]
    intra VDW/kʙ                 0.000000e+00 [K]
    intra Coulombic/kʙ           0.000000e+00 [K]
    polarization/kʙ              0.000000e+00 [K]
    dU/dlambda VDW/kʙ            0.000000e+00 [K]
    dU/dlambda Real/kʙ           0.000000e+00 [K]
    dU/dlambda Ewald/kʙ          0.000000e+00 [K]


Initialization: Current cycle: 900 out of 2000
===============================================================================

Box:      25.06388   0.00000   0.00000
           0.00000  25.06388   0.00000
           0.00000   0.00000  25.06388
Lengths:  25.06388  25.06388  25.06388
Angles:   90.00000  90.00000  90.00000
Rectangular boundary conditions

net charge:   0.00000000

component   0 (CO2) lambda:  0 occupancy:  0 (0.000000)
    net charge:   0.00000000 [e]

Amount of molecules per component :
-------------------------------------------------------------------------------
Component 0 (CO2)
    molecules:         2.440000e+02 molecules
    number density:    1.549691e-02 molec/A^3
    density:           1.132231e+03 kg/m^3

Total potential energy/kʙ       -4.149489e+05 [K]
-------------------------------------------------------------------------------
    external field VDW/kʙ        0.000000e+00 [K]
    external field Real/kʙ       0.000000e+00 [K]
    framework-molecule VDW/kʙ    0.000000e+00 [K]
    framework-molecule Real/kʙ   0.000000e+00 [K]
    molecule-molecule VDW/kʙ    -2.903406e+05 [K]
    molecule-molecule Real/kʙ   -9.134635e+04 [K]
    Van der Waals (Tail)/kʙ     -1.213231e+04 [K]
    Ewald Fourier/kʙ             1.432567e+04 [K]
    Ewald self/kʙ               -5.423933e+06 [K]
    Ewald exclusion/kʙ           5.388477e+06 [K]
    intra VDW/kʙ                 0.000000e+00 [K]
    intra Coulombic/kʙ           0.000000e+00 [K]
    polarization/kʙ              0.000000e+00 [K]
    dU/dlambda VDW/kʙ            0.000000e+00 [K]
    dU/dlambda Real/kʙ           0.000000e+00 [K]
    dU/dlambda Ewald/kʙ          0.000000e+00 [K]


Initialization: Current cycle: 1000 out of 2000
===============================================================================

Box:      24.93618   0.00000   0.00000
           0.00000  24.93618   0.00000
           0.00000   0.00000  24.93618
Lengths:  24.93618  24.93618  24.93618
Angles:   90.00000  90.00000  90.00000
Rectangular boundary conditions

net charge:   0.00000000

component   0 (CO2) lambda:  0 occupancy:  0 (0.000000)
    net charge:   0.00000000 [e]

Amount of molecules per component :
-------------------------------------------------------------------------------
Component 0 (CO2)
    molecules:         2.420000e+02 molecules
    number density:    1.560722e-02 molec/A^3
    density:           1.140290e+03 kg/m^3

Total potential energy/kʙ       -4.149946e+05 [K]
-------------------------------------------------------------------------------
    external field VDW/kʙ        0.000000e+00 [K]
    external field Real/kʙ       0.000000e+00 [K]
    framework-molecule VDW/kʙ    0.000000e+00 [K]
    framework-molecule Real/kʙ   0.000000e+00 [K]
    molecule-molecule VDW/kʙ    -2.892121e+05 [K]
    molecule-molecule Real/kʙ   -9.261368e+04 [K]
    Van der Waals (Tail)/kʙ     -1.211852e+04 [K]
    Ewald Fourier/kʙ             1.411438e+04 [K]
    Ewald self/kʙ               -5.379474e+06 [K]
    Ewald exclusion/kʙ           5.344310e+06 [K]
    intra VDW/kʙ                 0.000000e+00 [K]
    intra Coulombic/kʙ           0.000000e+00 [K]
    polarization/kʙ              0.000000e+00 [K]
    dU/dlambda VDW/kʙ            0.000000e+00 [K]
    dU/dlambda Real/kʙ           0.000000e+00 [K]
    dU/dlambda Ewald/kʙ          0.000000e+00 [K]


Initialization: Current cycle: 1100 out of 2000
===============================================================================

Box:      24.79682   0.00000   0.00000
           0.00000  24.79682   0.00000
           0.00000   0.00000  24.79682
Lengths:  24.79682  24.79682  24.79682
Angles:   90.00000  90.00000  90.00000
Rectangular boundary conditions

net charge:   0.00000000

component   0 (CO2) lambda:  0 occupancy:  0 (0.000000)
    net charge:   0.00000000 [e]

Amount of molecules per component :
-------------------------------------------------------------------------------
Component 0 (CO2)
    molecules:         2.410000e+02 molecules
    number density:    1.580626e-02 molec/A^3
    density:           1.154832e+03 kg/m^3

Total potential energy/kʙ       -4.053289e+05 [K]
-------------------------------------------------------------------------------
    external field VDW/kʙ        0.000000e+00 [K]
    external field Real/kʙ       0.000000e+00 [K]
    framework-molecule VDW/kʙ    0.000000e+00 [K]
    framework-molecule Real/kʙ   0.000000e+00 [K]
    molecule-molecule VDW/kʙ    -2.839145e+05 [K]
    molecule-molecule Real/kʙ   -8.891357e+04 [K]
    Van der Waals (Tail)/kʙ     -1.222235e+04 [K]
    Ewald Fourier/kʙ             1.474082e+04 [K]
    Ewald self/kʙ               -5.357245e+06 [K]
    Ewald exclusion/kʙ           5.322226e+06 [K]
    intra VDW/kʙ                 0.000000e+00 [K]
    intra Coulombic/kʙ           0.000000e+00 [K]
    polarization/kʙ              0.000000e+00 [K]
    dU/dlambda VDW/kʙ            0.000000e+00 [K]
    dU/dlambda Real/kʙ           0.000000e+00 [K]
    dU/dlambda Ewald/kʙ          0.000000e+00 [K]


Initialization: Current cycle: 1200 out of 2000
===============================================================================

Box:      24.60640   0.00000   0.00000
           0.00000  24.60640   0.00000
           0.00000   0.00000  24.60640
Lengths:  24.60640  24.60640  24.60640
Angles:   90.00000  90.00000  90.00000
Rectangular boundary conditions

net charge:   0.00000000

component   0 (CO2) lambda:  0 occupancy:  0 (0.000000)
    net charge:   0.00000000 [e]

Amount of molecules per component :
-------------------------------------------------------------------------------
Component 0 (CO2)
    molecules:         2.410000e+02 molecules
    number density:    1.617606e-02 molec/A^3
    density:           1.181851e+03 kg/m^3

Total potential energy/kʙ       -4.179422e+05 [K]
-------------------------------------------------------------------------------
    external field VDW/kʙ        0.000000e+00 [K]
    external field Real/kʙ       0.000000e+00 [K]
    framework-molecule VDW/kʙ    0.000000e+00 [K]
    framework-molecule Real/kʙ   0.000000e+00 [K]
    molecule-molecule VDW/kʙ    -2.975595e+05 [K]
    molecule-molecule Real/kʙ   -8.816775e+04 [K]
    Van der Waals (Tail)/kʙ     -1.250830e+04 [K]
    Ewald Fourier/kʙ             1.531275e+04 [K]
    Ewald self/kʙ               -5.357245e+06 [K]
    Ewald exclusion/kʙ           5.322226e+06 [K]
    intra VDW/kʙ                 0.000000e+00 [K]
    intra Coulombic/kʙ           0.000000e+00 [K]
    polarization/kʙ              0.000000e+00 [K]
    dU/dlambda VDW/kʙ            0.000000e+00 [K]
    dU/dlambda Real/kʙ           0.000000e+00 [K]
    dU/dlambda Ewald/kʙ          0.000000e+00 [K]


Initialization: Current cycle: 1300 out of 2000
===============================================================================

Box:      24.78859   0.00000   0.00000
           0.00000  24.78859   0.00000
           0.00000   0.00000  24.78859
Lengths:  24.78859  24.78859  24.78859
Angles:   90.00000  90.00000  90.00000
Rectangular boundary conditions

net charge:   0.00000000

component   0 (CO2) lambda:  0 occupancy:  0 (0.000000)
    net charge:   0.00000000 [e]

Amount of molecules per component :
-------------------------------------------------------------------------------
Component 0 (CO2)
    molecules:         2.440000e+02 molecules
    number density:    1.601895e-02 molec/A^3
    density:           1.170372e+03 kg/m^3

Total potential energy/kʙ       -4.234895e+05 [K]
-------------------------------------------------------------------------------
    external field VDW/kʙ        0.000000e+00 [K]
    external field Real/kʙ       0.000000e+00 [K]
    framework-molecule VDW/kʙ    0.000000e+00 [K]
    framework-molecule Real/kʙ   0.000000e+00 [K]
    molecule-molecule VDW/kʙ    -3.041304e+05 [K]
    molecule-molecule Real/kʙ   -8.724071e+04 [K]
    Van der Waals (Tail)/kʙ     -1.254101e+04 [K]
    Ewald Fourier/kʙ             1.587797e+04 [K]
    Ewald self/kʙ               -5.423933e+06 [K]
    Ewald exclusion/kʙ           5.388477e+06 [K]
    intra VDW/kʙ                 0.000000e+00 [K]
    intra Coulombic/kʙ           0.000000e+00 [K]
    polarization/kʙ              0.000000e+00 [K]
    dU/dlambda VDW/kʙ            0.000000e+00 [K]
    dU/dlambda Real/kʙ           0.000000e+00 [K]
    dU/dlambda Ewald/kʙ          0.000000e+00 [K]


Initialization: Current cycle: 1400 out of 2000
===============================================================================

Box:      24.88730   0.00000   0.00000
           0.00000  24.88730   0.00000
           0.00000   0.00000  24.88730
Lengths:  24.88730  24.88730  24.88730
Angles:   90.00000  90.00000  90.00000
Rectangular boundary conditions

net charge:   0.00000000

component   0 (CO2) lambda:  0 occupancy:  0 (0.000000)
    net charge:   0.00000000 [e]

Amount of molecules per component :
-------------------------------------------------------------------------------
Component 0 (CO2)
    molecules:         2.450000e+02 molecules
    number density:    1.589398e-02 molec/A^3
    density:           1.161241e+03 kg/m^3

Total potential energy/kʙ       -4.187555e+05 [K]
-------------------------------------------------------------------------------
    external field VDW/kʙ        0.000000e+00 [K]
    external field Real/kʙ       0.000000e+00 [K]
    framework-molecule VDW/kʙ    0.000000e+00 [K]
    framework-molecule Real/kʙ   0.000000e+00 [K]
    molecule-molecule VDW/kʙ    -2.969850e+05 [K]
    molecule-molecule Real/kʙ   -8.978846e+04 [K]
    Van der Waals (Tail)/kʙ     -1.249417e+04 [K]
    Ewald Fourier/kʙ             1.611272e+04 [K]
    Ewald self/kʙ               -5.446162e+06 [K]
    Ewald exclusion/kʙ           5.410561e+06 [K]
    intra VDW/kʙ                 0.000000e+00 [K]
    intra Coulombic/kʙ           0.000000e+00 [K]
    polarization/kʙ              0.000000e+00 [K]
    dU/dlambda VDW/kʙ            0.000000e+00 [K]
    dU/dlambda Real/kʙ           0.000000e+00 [K]
    dU/dlambda Ewald/kʙ          0.000000e+00 [K]


Initialization: Current cycle: 1500 out of 2000
===============================================================================

Box:      24.84044   0.00000   0.00000
           0.00000  24.84044   0.00000
           0.00000   0.00000  24.84044
Lengths:  24.84044  24.84044  24.84044
Angles:   90.00000  90.00000  90.00000
Rectangular boundary conditions

net charge:   0.00000000

component   0 (CO2) lambda:  0 occupancy:  0 (0.000000)
    net charge:   0.00000000 [e]

Amount of molecules per component :
-------------------------------------------------------------------------------
Component 0 (CO2)
    molecules:         2.430000e+02 molecules
    number density:    1.585363e-02 molec/A^3
    density:           1.158293e+03 kg/m^3

Total potential energy/kʙ       -4.133143e+05 [K]
-------------------------------------------------------------------------------
    external field VDW/kʙ        0.000000e+00 [K]
    external field Real/kʙ       0.000000e+00 [K]
    framework-molecule VDW/kʙ    0.000000e+00 [K]
    framework-molecule Real/kʙ   0.000000e+00 [K]
    molecule-molecule VDW/kʙ    -2.884994e+05 [K]
    molecule-molecule Real/kʙ   -9.217215e+04 [K]
    Van der Waals (Tail)/kʙ     -1.236071e+04 [K]
    Ewald Fourier/kʙ             1.502788e+04 [K]
    Ewald self/kʙ               -5.401703e+06 [K]
    Ewald exclusion/kʙ           5.366393e+06 [K]
    intra VDW/kʙ                 0.000000e+00 [K]
    intra Coulombic/kʙ           0.000000e+00 [K]
    polarization/kʙ              0.000000e+00 [K]
    dU/dlambda VDW/kʙ            0.000000e+00 [K]
    dU/dlambda Real/kʙ           0.000000e+00 [K]
    dU/dlambda Ewald/kʙ          0.000000e+00 [K]


Initialization: Current cycle: 1600 out of 2000
===============================================================================

Box:      25.01215   0.00000   0.00000
           0.00000  25.01215   0.00000
           0.00000   0.00000  25.01215
Lengths:  25.01215  25.01215  25.01215
Angles:   90.00000  90.00000  90.00000
Rectangular boundary conditions

net charge:   0.00000000

component   0 (CO2) lambda:  0 occupancy:  0 (0.000000)
    net charge:   0.00000000 [e]

Amount of molecules per component :
-------------------------------------------------------------------------------
Component 0 (CO2)
    molecules:         2.410000e+02 molecules
    number density:    1.540154e-02 molec/A^3
    density:           1.125263e+03 kg/m^3

Total potential energy/kʙ       -4.035363e+05 [K]
-------------------------------------------------------------------------------
    external field VDW/kʙ        0.000000e+00 [K]
    external field Real/kʙ       0.000000e+00 [K]
    framework-molecule VDW/kʙ    0.000000e+00 [K]
    framework-molecule Real/kʙ   0.000000e+00 [K]
    molecule-molecule VDW/kʙ    -2.853981e+05 [K]
    molecule-molecule Real/kʙ   -8.708033e+04 [K]
    Van der Waals (Tail)/kʙ     -1.190940e+04 [K]
    Ewald Fourier/kʙ             1.587090e+04 [K]
    Ewald self/kʙ               -5.357245e+06 [K]
    Ewald exclusion/kʙ           5.322226e+06 [K]
    intra VDW/kʙ                 0.000000e+00 [K]
    intra Coulombic/kʙ           0.000000e+00 [K]
    polarization/kʙ              0.000000e+00 [K]
    dU/dlambda VDW/kʙ            0.000000e+00 [K]
    dU/dlambda Real/kʙ           0.000000e+00 [K]
    dU/dlambda Ewald/kʙ          0.000000e+00 [K]


Initialization: Current cycle: 1700 out of 2000
===============================================================================

Box:      25.01990   0.00000   0.00000
           0.00000  25.01990   0.00000
           0.00000   0.00000  25.01990
Lengths:  25.01990  25.01990  25.01990
Angles:   90.00000  90.00000  90.00000
Rectangular boundary conditions

net charge:   0.00000000

component   0 (CO2) lambda:  0 occupancy:  0 (0.000000)
    net charge:   0.00000000 [e]

Amount of molecules per component :
-------------------------------------------------------------------------------
Component 0 (CO2)
    molecules:         2.440000e+02 molecules
    number density:    1.557876e-02 molec/A^3
    density:           1.138211e+03 kg/m^3

Total potential energy/kʙ       -4.028523e+05 [K]
-------------------------------------------------------------------------------
    external field VDW/kʙ        0.000000e+00 [K]
    external field Real/kʙ       0.000000e+00 [K]
    framework-molecule VDW/kʙ    0.000000e+00 [K]
    framework-molecule Real/kʙ   0.000000e+00 [K]
    molecule-molecule VDW/kʙ    -2.831670e+05 [K]
    molecule-molecule Real/kʙ   -8.686715e+04 [K]
    Van der Waals (Tail)/kʙ     -1.219639e+04 [K]
    Ewald Fourier/kʙ             1.483353e+04 [K]
    Ewald self/kʙ               -5.423933e+06 [K]
    Ewald exclusion/kʙ           5.388477e+06 [K]
    intra VDW/kʙ                 0.000000e+00 [K]
    intra Coulombic/kʙ           0.000000e+00 [K]
    polarization/kʙ              0.000000e+00 [K]
    dU/dlambda VDW/kʙ            0.000000e+00 [K]
    dU/dlambda Real/kʙ           0.000000e+00 [K]
    dU/dlambda Ewald/kʙ          0.000000e+00 [K]


Initialization: Current cycle: 1800 out of 2000
===============================================================================

Box:      24.83217   0.00000   0.00000
           0.00000  24.83217   0.00000
           0.00000   0.00000  24.83217
Lengths:  24.83217  24.83217  24.83217
Angles:   90.00000  90.00000  90.00000
Rectangular boundary conditions

net charge:   0.00000000

component   0 (CO2) lambda:  0 occupancy:  0 (0.000000)
    net charge:   0.00000000 [e]

Amount of molecules per component :
-------------------------------------------------------------------------------
Component 0 (CO2)
    molecules:         2.410000e+02 molecules
    number density:    1.573885e-02 molec/A^3
    density:           1.149908e+03 kg/m^3

Total potential energy/kʙ       -4.111467e+05 [K]
-------------------------------------------------------------------------------
    external field VDW/kʙ        0.000000e+00 [K]
    external field Real/kʙ       0.000000e+00 [K]
    framework-molecule VDW/kʙ    0.000000e+00 [K]
    framework-molecule Real/kʙ   0.000000e+00 [K]
    molecule-molecule VDW/kʙ    -2.906283e+05 [K]
    molecule-molecule Real/kʙ   -8.855718e+04 [K]
    Van der Waals (Tail)/kʙ     -1.217023e+04 [K]
    Ewald Fourier/kʙ             1.522840e+04 [K]
    Ewald self/kʙ               -5.357245e+06 [K]
    Ewald exclusion/kʙ           5.322226e+06 [K]
    intra VDW/kʙ                 0.000000e+00 [K]
    intra Coulombic/kʙ           0.000000e+00 [K]
    polarization/kʙ              0.000000e+00 [K]
    dU/dlambda VDW/kʙ            0.000000e+00 [K]
    dU/dlambda Real/kʙ           0.000000e+00 [K]
    dU/dlambda Ewald/kʙ          0.000000e+00 [K]


Initialization: Current cycle: 1900 out of 2000
===============================================================================

Box:      24.68210   0.00000   0.00000
           0.00000  24.68210   0.00000
           0.00000   0.00000  24.68210
Lengths:  24.68210  24.68210  24.68210
Angles:   90.00000  90.00000  90.00000
Rectangular boundary conditions

net charge:   0.00000000

component   0 (CO2) lambda:  0 occupancy:  0 (0.000000)
    net charge:   0.00000000 [e]

Amount of molecules per component :
-------------------------------------------------------------------------------
Component 0 (CO2)
    molecules:         2.420000e+02 molecules
    number density:    1.609418e-02 molec/A^3
    density:           1.175868e+03 kg/m^3

Total potential energy/kʙ       -4.230266e+05 [K]
-------------------------------------------------------------------------------
    external field VDW/kʙ        0.000000e+00 [K]
    external field Real/kʙ       0.000000e+00 [K]
    framework-molecule VDW/kʙ    0.000000e+00 [K]
    framework-molecule Real/kʙ   0.000000e+00 [K]
    molecule-molecule VDW/kʙ    -2.947893e+05 [K]
    molecule-molecule Real/kʙ   -9.410131e+04 [K]
    Van der Waals (Tail)/kʙ     -1.249663e+04 [K]
    Ewald Fourier/kʙ             1.352525e+04 [K]
    Ewald self/kʙ               -5.379474e+06 [K]
    Ewald exclusion/kʙ           5.344310e+06 [K]
    intra VDW/kʙ                 0.000000e+00 [K]
    intra Coulombic/kʙ           0.000000e+00 [K]
    polarization/kʙ              0.000000e+00 [K]
    dU/dlambda VDW/kʙ            0.000000e+00 [K]
    dU/dlambda Real/kʙ           0.000000e+00 [K]
    dU/dlambda Ewald/kʙ          0.000000e+00 [K]


Current cycle: 0 out of 6000
===============================================================================

Box:      24.69396   0.00000   0.00000  Average:  24.69396   0.00000   0.00000
           0.00000  24.69396   0.00000             0.00000  24.69396   0.00000
           0.00000   0.00000  24.69396             0.00000   0.00000  24.69396
Lengths:  24.69396  24.69396  24.69396  Average:  24.69396  24.69396  24.69396
Angles:   90.00000  90.00000  90.00000  Average:  90.00000  90.00000  90.00000
Rectangular boundary conditions

net charge:   0.00000000

component 0 (CO2) lambda:  0 occupancy:  0 (0.000000)
    net charge:   0.00000000 [e]

Amount of molecules per component :
-------------------------------------------------------------------------------
Component 0 (CO2)
    molecules:      2.400000e+02 molecules  (2.400000e+02 +/- 0.000000e+00)
    number density: 1.593819e-02 molec./A^3 (1.593819e-02 +/- 0.000000e+00)
    density:        1.164472e+03 kg/m^3     (1.164472e+03 +/- 0.000000e+00)

Average pressure tensor: 
-------------------------------------------------------------------------------
 4.8411e+02  0.0000e+00  0.0000e+00 +/- 0.0000e+00 0.0000e+00 0.0000e+00 [bar]
 0.0000e+00  4.8411e+02  0.0000e+00 +/- 0.0000e+00 0.0000e+00 0.0000e+00 [bar]
 0.0000e+00  0.0000e+00  4.8411e+02 +/- 0.0000e+00 0.0000e+00 0.0000e+00 [bar]
Ideal-gas pressure:   4.841116e+02 +/ 0.000000e+00 [bar]
Excess pressure:      0.000000e+00 +/ 0.000000e+00 [bar]
Pressure:             4.841116e+02 +/ 0.000000e+00 [bar]

Total potential energy/kʙ  -4.193812e+05 (-4.193812e+05 +/- 0.000000e+00) [K]
-------------------------------------------------------------------------------
ExternalField-molecule
    Van der Waals/kʙ        0.000000e+00 ( 0.000000e+00 +/- 0.000000e+00) [K]
Framework-molecule
    Van der Waals/kʙ        0.000000e+00 ( 0.000000e+00 +/- 0.000000e+00) [K]
    Van der Waals (Tail)/kʙ 0.000000e+00 ( 0.000000e+00 +/- 0.000000e+00) [K]
    Coulombic Real/kʙ       0.000000e+00 ( 0.000000e+00 +/- 0.000000e+00) [K]
    Coulombic Fourier/kʙ    0.000000e+00 ( 0.000000e+00 +/- 0.000000e+00) [K]
Molecule-molecule
    Van der Waals/kʙ       -2.963846e+05 (-2.963846e+05 +/- 0.000000e+00) [K]
    Van der Waals (Tail)/kʙ-1.227323e+04 (-1.227323e+04 +/- 0.000000e+00) [K]
    Coulombic Real/kʙ      -8.970948e+04 (-8.970948e+04 +/- 0.000000e+00) [K]
    Coulombic Fourier/kʙ   -2.101383e+04 (-2.101383e+04 +/- 0.000000e+00) [K]
    Molecule Intra/kʙ       0.000000e+00 ( 0.000000e+00 +/- 0.000000e+00) [K]

Current cycle: 100 out of 6000
===============================================================================

Box:      24.76394   0.00000   0.00000  Average:  24.69013   0.00000   0.00000
           0.00000  24.76394   0.00000             0.00000  24.69013   0.00000
           0.00000   0.00000  24.76394             0.00000   0.00000  24.69013
Lengths:  24.76394  24.76394  24.76394  Average:  24.69013  24.69013  24.69013
Angles:   90.00000  90.00000  90.00000  Average:  90.00000  90.00000  90.00000
Rectangular boundary conditions

net charge:   0.00000000

component 0 (CO2) lambda:  0 occupancy:  0 (0.000000)
    net charge:   0.00000000 [e]

Amount of molecules per component :
-------------------------------------------------------------------------------
Component 0 (CO2)
    molecules:      2.410000e+02 molecules  (2.410495e+02 +/- 0.000000e+00)
    number density: 1.586930e-02 molec./A^3 (1.601617e-02 +/- 0.000000e+00)
    density:        1.159438e+03 kg/m^3     (1.170169e+03 +/- 0.000000e+00)

Average pressure tensor: 
-------------------------------------------------------------------------------
 5.4831e+00 -3.7966e+02 -9.5345e+01 +/- 0.0000e+00 0.0000e+00 0.0000e+00 [bar]
-3.7966e+02 -3.1595e+02 -3.3672e+01 +/- 0.0000e+00 0.0000e+00 0.0000e+00 [bar]
-9.5345e+01 -3.3672e+01  3.0876e+02 +/- 0.0000e+00 0.0000e+00 0.0000e+00 [bar]
Ideal-gas pressure:   4.864800e+02 +/ 0.000000e+00 [bar]
Excess pressure:     -4.870465e+02 +/ 0.000000e+00 [bar]
Pressure:            -5.664780e-01 +/ 0.000000e+00 [bar]

Total potential energy/kʙ  -4.152889e+05 (-4.199694e+05 +/- 0.000000e+00) [K]
-------------------------------------------------------------------------------
ExternalField-molecule
    Van der Waals/kʙ        0.000000e+00 ( 0.000000e+00 +/- 0.000000e+00) [K]
Framework-molecule
    Van der Waals/kʙ        0.000000e+00 ( 0.000000e+00 +/- 0.000000e+00) [K]
    Van der Waals (Tail)/kʙ 0.000000e+00 ( 0.000000e+00 +/- 0.000000e+00) [K]
    Coulombic Real/kʙ       0.000000e+00 ( 0.000000e+00 +/- 0.000000e+00) [K]
    Coulombic Fourier/kʙ    0.000000e+00 ( 0.000000e+00 +/- 0.000000e+00) [K]
Molecule-molecule
    Van der Waals/kʙ       -2.934904e+05 (-2.949089e+05 +/- 0.000000e+00) [K]
    Van der Waals (Tail)/kʙ-1.227110e+04 (-1.241619e+04 +/- 0.000000e+00) [K]
    Coulombic Real/kʙ      -8.886410e+04 (-9.151720e+04 +/- 0.000000e+00) [K]
    Coulombic Fourier/kʙ   -2.066326e+04 (-2.112716e+04 +/- 0.000000e+00) [K]
    Molecule Intra/kʙ       0.000000e+00 ( 0.000000e+00 +/- 0.000000e+00) [K]

Current cycle: 200 out of 6000
===============================================================================

Box:      24.79513   0.00000   0.00000  Average:  24.74657   0.00000   0.00000
           0.00000  24.79513   0.00000             0.00000  24.74657   0.00000
           0.00000   0.00000  24.79513             0.00000   0.00000  24.74657
Lengths:  24.79513  24.79513  24.79513  Average:  24.74657  24.74657  24.74657
Angles:   90.00000  90.00000  90.00000  Average:  90.00000  90.00000  90.00000
Rectangular boundary conditions

net charge:   0.00000000

component 0 (CO2) lambda:  0 occupancy:  0 (0.000000)
    net charge:   0.00000000 [e]

Amount of molecules per component :
-------------------------------------------------------------------------------
Component 0 (CO2)
    molecules:      2.410000e+02 molecules  (2.415522e+02 +/- 0.000000e+00)
    number density: 1.580949e-02 molec./A^3 (1.594028e-02 +/- 0.000000e+00)
    density:        1.155069e+03 kg/m^3     (1.164624e+03 +/- 0.000000e+00)

Average pressure tensor: 
-------------------------------------------------------------------------------
-1.6657e+01 -4.0821e+02 -6.8955e+01 +/- 0.0000e+00 0.0000e+00 0.0000e+00 [bar]
-4.0821e+02 -1.8549e+02  3.3495e-01 +/- 0.0000e+00 0.0000e+00 0.0000e+00 [bar]
-6.8955e+01  3.3495e-01  9.1180e+01 +/- 0.0000e+00 0.0000e+00 0.0000e+00 [bar]
Ideal-gas pressure:   4.841751e+02 +/ 0.000000e+00 [bar]
Excess pressure:     -5.211636e+02 +/ 0.000000e+00 [bar]
Pressure:            -3.698847e+01 +/ 0.000000e+00 [bar]

Total potential energy/kʙ  -4.179340e+05 (-4.193145e+05 +/- 0.000000e+00) [K]
-------------------------------------------------------------------------------
ExternalField-molecule
    Van der Waals/kʙ        0.000000e+00 ( 0.000000e+00 +/- 0.000000e+00) [K]
Framework-molecule
    Van der Waals/kʙ        0.000000e+00 ( 0.000000e+00 +/- 0.000000e+00) [K]
    Van der Waals (Tail)/kʙ 0.000000e+00 ( 0.000000e+00 +/- 0.000000e+00) [K]
    Coulombic Real/kʙ       0.000000e+00 ( 0.000000e+00 +/- 0.000000e+00) [K]
    Coulombic Fourier/kʙ    0.000000e+00 ( 0.000000e+00 +/- 0.000000e+00) [K]
Molecule-molecule
    Van der Waals/kʙ       -2.890087e+05 (-2.940110e+05 +/- 0.000000e+00) [K]
    Van der Waals (Tail)/kʙ-1.222485e+04 (-1.237018e+04 +/- 0.000000e+00) [K]
    Coulombic Real/kʙ      -9.565783e+04 (-9.189181e+04 +/- 0.000000e+00) [K]
    Coulombic Fourier/kʙ   -2.104264e+04 (-2.104149e+04 +/- 0.000000e+00) [K]
    Molecule Intra/kʙ       0.000000e+00 ( 0.000000e+00 +/- 0.000000e+00) [K]

Current cycle: 300 out of 6000
===============================================================================

Box:      24.65736   0.00000   0.00000  Average:  24.75844   0.00000   0.00000
           0.00000  24.65736   0.00000             0.00000  24.75844   0.00000
           0.00000   0.00000  24.65736             0.00000   0.00000  24.75844
Lengths:  24.65736  24.65736  24.65736  Average:  24.75844  24.75844  24.75844
Angles:   90.00000  90.00000  90.00000  Average:  90.00000  90.00000  90.00000
Rectangular boundary conditions

net charge:   0.00000000

component 0 (CO2) lambda:  0 occupancy:  0 (0.000000)
    net charge:   0.00000000 [e]

Amount of molecules per component :
-------------------------------------------------------------------------------
Component 0 (CO2)
    molecules:      2.440000e+02 molecules  (2.418671e+02 +/- 0.000000e+00)
    number density: 1.627609e-02 molec./A^3 (1.593798e-02 +/- 0.000000e+00)
    density:        1.189159e+03 kg/m^3     (1.164456e+03 +/- 0.000000e+00)

Average pressure tensor: 
-------------------------------------------------------------------------------
 2.1557e+01 -3.7483e+02 -8.1213e+01 +/- 0.0000e+00 0.0000e+00 0.0000e+00 [bar]
-3.7483e+02 -1.5771e+02 -1.5000e+01 +/- 0.0000e+00 0.0000e+00 0.0000e+00 [bar]
-8.1213e+01 -1.5000e+01  8.0167e+01 +/- 0.0000e+00 0.0000e+00 0.0000e+00 [bar]
Ideal-gas pressure:   4.841050e+02 +/ 0.000000e+00 [bar]
Excess pressure:     -5.027675e+02 +/ 0.000000e+00 [bar]
Pressure:            -1.866244e+01 +/ 0.000000e+00 [bar]

Total potential energy/kʙ  -4.218190e+05 (-4.196852e+05 +/- 0.000000e+00) [K]
-------------------------------------------------------------------------------
ExternalField-molecule
    Van der Waals/kʙ        0.000000e+00 ( 0.000000e+00 +/- 0.000000e+00) [K]
Framework-molecule
    Van der Waals/kʙ        0.000000e+00 ( 0.000000e+00 +/- 0.000000e+00) [K]
    Van der Waals (Tail)/kʙ 0.000000e+00 ( 0.000000e+00 +/- 0.000000e+00) [K]
    Coulombic Real/kʙ       0.000000e+00 ( 0.000000e+00 +/- 0.000000e+00) [K]
    Coulombic Fourier/kʙ    0.000000e+00 ( 0.000000e+00 +/- 0.000000e+00) [K]
Molecule-molecule
    Van der Waals/kʙ       -2.924196e+05 (-2.935047e+05 +/- 0.000000e+00) [K]
    Van der Waals (Tail)/kʙ-1.274232e+04 (-1.238650e+04 +/- 0.000000e+00) [K]
    Coulombic Real/kʙ      -9.472879e+04 (-9.259500e+04 +/- 0.000000e+00) [K]
    Coulombic Fourier/kʙ   -2.192833e+04 (-2.119896e+04 +/- 0.000000e+00) [K]
    Molecule Intra/kʙ       0.000000e+00 ( 0.000000e+00 +/- 0.000000e+00) [K]

Current cycle: 400 out of 6000
===============================================================================

Box:      24.88319   0.00000   0.00000  Average:  24.75440   0.00000   0.00000
           0.00000  24.88319   0.00000             0.00000  24.75440   0.00000
           0.00000   0.00000  24.88319             0.00000   0.00000  24.75440
Lengths:  24.88319  24.88319  24.88319  Average:  24.75440  24.75440  24.75440
Angles:   90.00000  90.00000  90.00000  Average:  90.00000  90.00000  90.00000
Rectangular boundary conditions

net charge:   0.00000000

component 0 (CO2) lambda:  0 occupancy:  0 (0.000000)
    net charge:   0.00000000 [e]

Amount of molecules per component :
-------------------------------------------------------------------------------
Component 0 (CO2)
    molecules:      2.410000e+02 molecules  (2.416908e+02 +/- 0.000000e+00)
    number density: 1.564223e-02 molec./A^3 (1.593406e-02 +/- 0.000000e+00)
    density:        1.142848e+03 kg/m^3     (1.164170e+03 +/- 0.000000e+00)

Average pressure tensor: 
-------------------------------------------------------------------------------
-1.6251e+01 -3.4243e+02 -8.7021e+01 +/- 0.0000e+00 0.0000e+00 0.0000e+00 [bar]
-3.4243e+02 -1.3846e+02  3.2674e+01 +/- 0.0000e+00 0.0000e+00 0.0000e+00 [bar]
-8.7021e+01  3.2674e+01  1.8443e+02 +/- 0.0000e+00 0.0000e+00 0.0000e+00 [bar]
Ideal-gas pressure:   4.839860e+02 +/ 0.000000e+00 [bar]
Excess pressure:     -4.740800e+02 +/ 0.000000e+00 [bar]
Pressure:             9.906041e+00 +/ 0.000000e+00 [bar]

Total potential energy/kʙ  -4.101842e+05 (-4.181069e+05 +/- 0.000000e+00) [K]
-------------------------------------------------------------------------------
ExternalField-molecule
    Van der Waals/kʙ        0.000000e+00 ( 0.000000e+00 +/- 0.000000e+00) [K]
Framework-molecule
    Van der Waals/kʙ        0.000000e+00 ( 0.000000e+00 +/- 0.000000e+00) [K]
    Van der Waals (Tail)/kʙ 0.000000e+00 ( 0.000000e+00 +/- 0.000000e+00) [K]
    Coulombic Real/kʙ       0.000000e+00 ( 0.000000e+00 +/- 0.000000e+00) [K]
    Coulombic Fourier/kʙ    0.000000e+00 ( 0.000000e+00 +/- 0.000000e+00) [K]
Molecule-molecule
    Van der Waals/kʙ       -2.952807e+05 (-2.935566e+05 +/- 0.000000e+00) [K]
    Van der Waals (Tail)/kʙ-1.209552e+04 (-1.236538e+04 +/- 0.000000e+00) [K]
    Coulombic Real/kʙ      -8.198977e+04 (-9.117448e+04 +/- 0.000000e+00) [K]
    Coulombic Fourier/kʙ   -2.081824e+04 (-2.101041e+04 +/- 0.000000e+00) [K]
    Molecule Intra/kʙ       0.000000e+00 ( 0.000000e+00 +/- 0.000000e+00) [K]

Current cycle: 500 out of 6000
===============================================================================

Box:      24.89555   0.00000   0.00000  Average:  24.75598   0.00000   0.00000
           0.00000  24.89555   0.00000             0.00000  24.75598   0.00000
           0.00000   0.00000  24.89555             0.00000   0.00000  24.75598
Lengths:  24.89555  24.89555  24.89555  Average:  24.75598  24.75598  24.75598
Angles:   90.00000  90.00000  90.00000  Average:  90.00000  90.00000  90.00000
Rectangular boundary conditions

net charge:   0.00000000

component 0 (CO2) lambda:  0 occupancy:  0 (0.000000)
    net charge:   0.00000000 [e]

Amount of molecules per component :
-------------------------------------------------------------------------------
Component 0 (CO2)
    molecules:      2.400000e+02 molecules  (2.411737e+02 +/- 0.000000e+00)
    number density: 1.555415e-02 molec./A^3 (1.589684e-02 +/- 0.000000e+00)
    density:        1.136413e+03 kg/m^3     (1.161450e+03 +/- 0.000000e+00)

Average pressure tensor: 
-------------------------------------------------------------------------------
 1.3294e+01 -3.1270e+02 -5.9137e+01 +/- 0.0000e+00 0.0000e+00 0.0000e+00 [bar]
-3.1270e+02 -2.0987e+02  2.9405e+01 +/- 0.0000e+00 0.0000e+00 0.0000e+00 [bar]
-5.9137e+01  2.9405e+01  1.6531e+02 +/- 0.0000e+00 0.0000e+00 0.0000e+00 [bar]
Ideal-gas pressure:   4.828555e+02 +/ 0.000000e+00 [bar]
Excess pressure:     -4.932767e+02 +/ 0.000000e+00 [bar]
Pressure:            -1.042121e+01 +/ 0.000000e+00 [bar]

Total potential energy/kʙ  -4.071672e+05 (-4.157735e+05 +/- 0.000000e+00) [K]
-------------------------------------------------------------------------------
ExternalField-molecule
    Van der Waals/kʙ        0.000000e+00 ( 0.000000e+00 +/- 0.000000e+00) [K]
Framework-molecule
    Van der Waals/kʙ        0.000000e+00 ( 0.000000e+00 +/- 0.000000e+00) [K]
    Van der Waals (Tail)/kʙ 0.000000e+00 ( 0.000000e+00 +/- 0.000000e+00) [K]
    Coulombic Real/kʙ       0.000000e+00 ( 0.000000e+00 +/- 0.000000e+00) [K]
    Coulombic Fourier/kʙ    0.000000e+00 ( 0.000000e+00 +/- 0.000000e+00) [K]
Molecule-molecule
    Van der Waals/kʙ       -2.862308e+05 (-2.920909e+05 +/- 0.000000e+00) [K]
    Van der Waals (Tail)/kʙ-1.197750e+04 (-1.230685e+04 +/- 0.000000e+00) [K]
    Coulombic Real/kʙ      -8.908364e+04 (-9.054383e+04 +/- 0.000000e+00) [K]
    Coulombic Fourier/kʙ   -1.987527e+04 (-2.083198e+04 +/- 0.000000e+00) [K]
    Molecule Intra/kʙ       0.000000e+00 ( 0.000000e+00 +/- 0.000000e+00) [K]

Current cycle: 600 out of 6000
===============================================================================

Box:      24.89590   0.00000   0.00000  Average:  24.77193   0.00000   0.00000
           0.00000  24.89590   0.00000             0.00000  24.77193   0.00000
           0.00000   0.00000  24.89590             0.00000   0.00000  24.77193
Lengths:  24.89590  24.89590  24.89590  Average:  24.77193  24.77193  24.77193
Angles:   90.00000  90.00000  90.00000  Average:  90.00000  90.00000  90.00000
Rectangular boundary conditions

net charge:   0.00000000

component 0 (CO2) lambda:  0 occupancy:  0 (0.000000)
    net charge:   0.00000000 [e]

Amount of molecules per component :
-------------------------------------------------------------------------------
Component 0 (CO2)
    molecules:      2.440000e+02 molecules  (2.412646e+02 +/- 0.000000e+00)
    number density: 1.581271e-02 molec./A^3 (1.587221e-02 +/- 0.000000e+00)
    density:        1.155304e+03 kg/m^3     (1.159651e+03 +/- 0.000000e+00)

Average pressure tensor: 
-------------------------------------------------------------------------------
 2.8552e+01 -2.6580e+02 -5.8661e+01 +/- 0.0000e+00 0.0000e+00 0.0000e+00 [bar]
-2.6580e+02 -1.9496e+02  3.5274e+01 +/- 0.0000e+00 0.0000e+00 0.0000e+00 [bar]
-5.8661e+01  3.5274e+01  1.4822e+02 +/- 0.0000e+00 0.0000e+00 0.0000e+00 [bar]
Ideal-gas pressure:   4.821074e+02 +/ 0.000000e+00 [bar]
Excess pressure:     -4.881705e+02 +/ 0.000000e+00 [bar]
Pressure:            -6.063110e+00 +/ 0.000000e+00 [bar]

Total potential energy/kʙ  -4.177414e+05 (-4.152102e+05 +/- 0.000000e+00) [K]
-------------------------------------------------------------------------------
ExternalField-molecule
    Van der Waals/kʙ        0.000000e+00 ( 0.000000e+00 +/- 0.000000e+00) [K]
Framework-molecule
    Van der Waals/kʙ        0.000000e+00 ( 0.000000e+00 +/- 0.000000e+00) [K]
    Van der Waals (Tail)/kʙ 0.000000e+00 ( 0.000000e+00 +/- 0.000000e+00) [K]
    Coulombic Real/kʙ       0.000000e+00 ( 0.000000e+00 +/- 0.000000e+00) [K]
    Coulombic Fourier/kʙ    0.000000e+00 ( 0.000000e+00 +/- 0.000000e+00) [K]
Molecule-molecule
    Van der Waals/kʙ       -2.902897e+05 (-2.915435e+05 +/- 0.000000e+00) [K]
    Van der Waals (Tail)/kʙ-1.237955e+04 (-1.229680e+04 +/- 0.000000e+00) [K]
    Coulombic Real/kʙ      -9.380253e+04 (-9.060491e+04 +/- 0.000000e+00) [K]
    Coulombic Fourier/kʙ   -2.126962e+04 (-2.076494e+04 +/- 0.000000e+00) [K]
    Molecule Intra/kʙ       0.000000e+00 ( 0.000000e+00 +/- 0.000000e+00) [K]

Current cycle: 700 out of 6000
===============================================================================

Box:      24.99400   0.00000   0.00000  Average:  24.80869   0.00000   0.00000
           0.00000  24.99400   0.00000             0.00000  24.80869   0.00000
           0.00000   0.00000  24.99400             0.00000   0.00000  24.80869
Lengths:  24.99400  24.99400  24.99400  Average:  24.80869  24.80869  24.80869
Angles:   90.00000  90.00000  90.00000  Average:  90.00000  90.00000  90.00000
Rectangular boundary conditions

net charge:   0.00000000

component 0 (CO2) lambda:  0 occupancy:  0 (0.000000)
    net charge:   0.00000000 [e]

Amount of molecules per component :
-------------------------------------------------------------------------------
Component 0 (CO2)
    molecules:      2.420000e+02 molecules  (2.414893e+02 +/- 0.000000e+00)
    number density: 1.549915e-02 molec./A^3 (1.581736e-02 +/- 0.000000e+00)
    density:        1.132395e+03 kg/m^3     (1.155643e+03 +/- 0.000000e+00)

Average pressure tensor: 
-------------------------------------------------------------------------------
 4.4690e+00 -2.5220e+02 -3.5924e+01 +/- 0.0000e+00 0.0000e+00 0.0000e+00 [bar]
-2.5220e+02 -1.6250e+02  7.5968e+01 +/- 0.0000e+00 0.0000e+00 0.0000e+00 [bar]
-3.5924e+01  7.5968e+01  1.2096e+02 +/- 0.0000e+00 0.0000e+00 0.0000e+00 [bar]
Ideal-gas pressure:   4.804414e+02 +/ 0.000000e+00 [bar]
Excess pressure:     -4.927975e+02 +/ 0.000000e+00 [bar]
Pressure:            -1.235618e+01 +/ 0.000000e+00 [bar]

Total potential energy/kʙ  -4.063912e+05 (-4.138430e+05 +/- 0.000000e+00) [K]
-------------------------------------------------------------------------------
ExternalField-molecule
    Van der Waals/kʙ        0.000000e+00 ( 0.000000e+00 +/- 0.000000e+00) [K]
Framework-molecule
    Van der Waals/kʙ        0.000000e+00 ( 0.000000e+00 +/- 0.000000e+00) [K]
    Van der Waals (Tail)/kʙ 0.000000e+00 ( 0.000000e+00 +/- 0.000000e+00) [K]
    Coulombic Real/kʙ       0.000000e+00 ( 0.000000e+00 +/- 0.000000e+00) [K]
    Coulombic Fourier/kʙ    0.000000e+00 ( 0.000000e+00 +/- 0.000000e+00) [K]
Molecule-molecule
    Van der Waals/kʙ       -2.859418e+05 (-2.905004e+05 +/- 0.000000e+00) [K]
    Van der Waals (Tail)/kʙ-1.203461e+04 (-1.225931e+04 +/- 0.000000e+00) [K]
    Coulombic Real/kʙ      -8.798984e+04 (-9.030653e+04 +/- 0.000000e+00) [K]
    Coulombic Fourier/kʙ   -2.042495e+04 (-2.077673e+04 +/- 0.000000e+00) [K]
    Molecule Intra/kʙ       0.000000e+00 ( 0.000000e+00 +/- 0.000000e+00) [K]

Current cycle: 800 out of 6000
===============================================================================

Box:      24.82181   0.00000   0.00000  Average:  24.82148   0.00000   0.00000
           0.00000  24.82181   0.00000             0.00000  24.82148   0.00000
           0.00000   0.00000  24.82181             0.00000   0.00000  24.82148
Lengths:  24.82181  24.82181  24.82181  Average:  24.82148  24.82148  24.82148
Angles:   90.00000  90.00000  90.00000  Average:  90.00000  90.00000  90.00000
Rectangular boundary conditions

net charge:   0.00000000

component 0 (CO2) lambda:  0 occupancy:  0 (0.000000)
    net charge:   0.00000000 [e]

Amount of molecules per component :
-------------------------------------------------------------------------------
Component 0 (CO2)
    molecules:      2.430000e+02 molecules  (2.415918e+02 +/- 0.000000e+00)
    number density: 1.588933e-02 molec./A^3 (1.579969e-02 +/- 0.000000e+00)
    density:        1.160902e+03 kg/m^3     (1.154353e+03 +/- 0.000000e+00)

Average pressure tensor: 
-------------------------------------------------------------------------------
 1.4376e+01 -2.2759e+02 -2.0792e+01 +/- 0.0000e+00 0.0000e+00 0.0000e+00 [bar]
-2.2759e+02 -1.7509e+02  8.9817e+01 +/- 0.0000e+00 0.0000e+00 0.0000e+00 [bar]
-2.0792e+01  8.9817e+01  1.4886e+02 +/- 0.0000e+00 0.0000e+00 0.0000e+00 [bar]
Ideal-gas pressure:   4.799048e+02 +/ 0.000000e+00 [bar]
Excess pressure:     -4.838573e+02 +/ 0.000000e+00 [bar]
Pressure:            -3.952561e+00 +/ 0.000000e+00 [bar]

Total potential energy/kʙ  -4.150152e+05 (-4.134354e+05 +/- 0.000000e+00) [K]
-------------------------------------------------------------------------------
ExternalField-molecule
    Van der Waals/kʙ        0.000000e+00 ( 0.000000e+00 +/- 0.000000e+00) [K]
Framework-molecule
    Van der Waals/kʙ        0.000000e+00 ( 0.000000e+00 +/- 0.000000e+00) [K]
    Van der Waals (Tail)/kʙ 0.000000e+00 ( 0.000000e+00 +/- 0.000000e+00) [K]
    Coulombic Real/kʙ       0.000000e+00 ( 0.000000e+00 +/- 0.000000e+00) [K]
    Coulombic Fourier/kʙ    0.000000e+00 ( 0.000000e+00 +/- 0.000000e+00) [K]
Molecule-molecule
    Van der Waals/kʙ       -2.892203e+05 (-2.901759e+05 +/- 0.000000e+00) [K]
    Van der Waals (Tail)/kʙ-1.238856e+04 (-1.225010e+04 +/- 0.000000e+00) [K]
    Coulombic Real/kʙ      -9.284275e+04 (-9.030273e+04 +/- 0.000000e+00) [K]
    Coulombic Fourier/kʙ   -2.056358e+04 (-2.070665e+04 +/- 0.000000e+00) [K]
    Molecule Intra/kʙ       0.000000e+00 ( 0.000000e+00 +/- 0.000000e+00) [K]

Current cycle: 900 out of 6000
===============================================================================

Box:      24.77683   0.00000   0.00000  Average:  24.81946   0.00000   0.00000
           0.00000  24.77683   0.00000             0.00000  24.81946   0.00000
           0.00000   0.00000  24.77683             0.00000   0.00000  24.81946
Lengths:  24.77683  24.77683  24.77683  Average:  24.81946  24.81946  24.81946
Angles:   90.00000  90.00000  90.00000  Average:  90.00000  90.00000  90.00000
Rectangular boundary conditions

net charge:   0.00000000

component 0 (CO2) lambda:  0 occupancy:  0 (0.000000)
    net charge:   0.00000000 [e]

Amount of molecules per component :
-------------------------------------------------------------------------------
Component 0 (CO2)
    molecules:      2.420000e+02 molecules  (2.415960e+02 +/- 0.000000e+00)
    number density: 1.591029e-02 molec./A^3 (1.580368e-02 +/- 0.000000e+00)
    density:        1.162433e+03 kg/m^3     (1.154644e+03 +/- 0.000000e+00)

Average pressure tensor: 
-------------------------------------------------------------------------------
 1.3759e+01 -2.0631e+02 -2.7714e+01 +/- 0.0000e+00 0.0000e+00 0.0000e+00 [bar]
-2.0631e+02 -1.6582e+02  8.8574e+01 +/- 0.0000e+00 0.0000e+00 0.0000e+00 [bar]
-2.7714e+01  8.8574e+01  1.6665e+02 +/- 0.0000e+00 0.0000e+00 0.0000e+00 [bar]
Ideal-gas pressure:   4.800259e+02 +/ 0.000000e+00 [bar]
Excess pressure:     -4.751657e+02 +/ 0.000000e+00 [bar]
Pressure:             4.860204e+00 +/ 0.000000e+00 [bar]

Total potential energy/kʙ  -4.149037e+05 (-4.137276e+05 +/- 0.000000e+00) [K]
-------------------------------------------------------------------------------
ExternalField-molecule
    Van der Waals/kʙ        0.000000e+00 ( 0.000000e+00 +/- 0.000000e+00) [K]
Framework-molecule
    Van der Waals/kʙ        0.000000e+00 ( 0.000000e+00 +/- 0.000000e+00) [K]
    Van der Waals (Tail)/kʙ 0.000000e+00 ( 0.000000e+00 +/- 0.000000e+00) [K]
    Coulombic Real/kʙ       0.000000e+00 ( 0.000000e+00 +/- 0.000000e+00) [K]
    Coulombic Fourier/kʙ    0.000000e+00 ( 0.000000e+00 +/- 0.000000e+00) [K]
Molecule-molecule
    Van der Waals/kʙ       -2.923126e+05 (-2.902874e+05 +/- 0.000000e+00) [K]
    Van der Waals (Tail)/kʙ-1.235384e+04 (-1.225634e+04 +/- 0.000000e+00) [K]
    Coulombic Real/kʙ      -8.881823e+04 (-9.046604e+04 +/- 0.000000e+00) [K]
    Coulombic Fourier/kʙ   -2.141904e+04 (-2.071781e+04 +/- 0.000000e+00) [K]
    Molecule Intra/kʙ       0.000000e+00 ( 0.000000e+00 +/- 0.000000e+00) [K]

Current cycle: 1000 out of 6000
===============================================================================

Box:      24.76503   0.00000   0.00000  Average:  24.81624   0.00000   0.00000
           0.00000  24.76503   0.00000             0.00000  24.81624   0.00000
           0.00000   0.00000  24.76503             0.00000   0.00000  24.81624
Lengths:  24.76503  24.76503  24.76503  Average:  24.81624  24.81624  24.81624
Angles:   90.00000  90.00000  90.00000  Average:  90.00000  90.00000  90.00000
Rectangular boundary conditions

net charge:   0.00000000

component 0 (CO2) lambda:  0 occupancy:  0 (0.000000)
    net charge:   0.00000000 [e]

Amount of molecules per component :
-------------------------------------------------------------------------------
Component 0 (CO2)
    molecules:      2.420000e+02 molecules  (2.416044e+02 +/- 0.000000e+00)
    number density: 1.593305e-02 molec./A^3 (1.581032e-02 +/- 0.000000e+00)
    density:        1.164096e+03 kg/m^3     (1.155129e+03 +/- 0.000000e+00)

Average pressure tensor: 
-------------------------------------------------------------------------------
 2.0144e+01 -1.6717e+02 -5.7670e+00 +/- 0.0000e+00 0.0000e+00 0.0000e+00 [bar]
-1.6717e+02 -1.6661e+02  8.5666e+01 +/- 0.0000e+00 0.0000e+00 0.0000e+00 [bar]
-5.7670e+00  8.5666e+01  1.7455e+02 +/- 0.0000e+00 0.0000e+00 0.0000e+00 [bar]
Ideal-gas pressure:   4.802276e+02 +/ 0.000000e+00 [bar]
Excess pressure:     -4.708645e+02 +/ 0.000000e+00 [bar]
Pressure:             9.363087e+00 +/ 0.000000e+00 [bar]

Total potential energy/kʙ  -4.154095e+05 (-4.137398e+05 +/- 0.000000e+00) [K]
-------------------------------------------------------------------------------
ExternalField-molecule
    Van der Waals/kʙ        0.000000e+00 ( 0.000000e+00 +/- 0.000000e+00) [K]
Framework-molecule
    Van der Waals/kʙ        0.000000e+00 ( 0.000000e+00 +/- 0.000000e+00) [K]
    Van der Waals (Tail)/kʙ 0.000000e+00 ( 0.000000e+00 +/- 0.000000e+00) [K]
    Coulombic Real/kʙ       0.000000e+00 ( 0.000000e+00 +/- 0.000000e+00) [K]
    Coulombic Fourier/kʙ    0.000000e+00 ( 0.000000e+00 +/- 0.000000e+00) [K]
Molecule-molecule
    Van der Waals/kʙ       -2.964791e+05 (-2.905530e+05 +/- 0.000000e+00) [K]
    Van der Waals (Tail)/kʙ-1.237152e+04 (-1.226281e+04 +/- 0.000000e+00) [K]
    Coulombic Real/kʙ      -8.627952e+04 (-9.024137e+04 +/- 0.000000e+00) [K]
    Coulombic Fourier/kʙ   -2.027943e+04 (-2.068265e+04 +/- 0.000000e+00) [K]
    Molecule Intra/kʙ       0.000000e+00 ( 0.000000e+00 +/- 0.000000e+00) [K]

Current cycle: 1100 out of 6000
===============================================================================

Box:      24.65523   0.00000   0.00000  Average:  24.80876   0.00000   0.00000
           0.00000  24.65523   0.00000             0.00000  24.80876   0.00000
           0.00000   0.00000  24.65523             0.00000   0.00000  24.80876
Lengths:  24.65523  24.65523  24.65523  Average:  24.80876  24.80876  24.80876
Angles:   90.00000  90.00000  90.00000  Average:  90.00000  90.00000  90.00000
Rectangular boundary conditions

net charge:   0.00000000

component 0 (CO2) lambda:  0 occupancy:  0 (0.000000)
    net charge:   0.00000000 [e]

Amount of molecules per component :
-------------------------------------------------------------------------------
Component 0 (CO2)
    molecules:      2.400000e+02 molecules  (2.415849e+02 +/- 0.000000e+00)
    number density: 1.601343e-02 molec./A^3 (1.582335e-02 +/- 0.000000e+00)
    density:        1.169968e+03 kg/m^3     (1.156081e+03 +/- 0.000000e+00)

Average pressure tensor: 
-------------------------------------------------------------------------------
 2.1477e+01 -1.4061e+02 -1.2851e+01 +/- 0.0000e+00 0.0000e+00 0.0000e+00 [bar]
-1.4061e+02 -1.4608e+02  7.9578e+01 +/- 0.0000e+00 0.0000e+00 0.0000e+00 [bar]
-1.2851e+01  7.9578e+01  1.5494e+02 +/- 0.0000e+00 0.0000e+00 0.0000e+00 [bar]
Ideal-gas pressure:   4.806233e+02 +/ 0.000000e+00 [bar]
Excess pressure:     -4.705125e+02 +/ 0.000000e+00 [bar]
Pressure:             1.011077e+01 +/ 0.000000e+00 [bar]

Total potential energy/kʙ  -4.078591e+05 (-4.137350e+05 +/- 0.000000e+00) [K]
-------------------------------------------------------------------------------
ExternalField-molecule
    Van der Waals/kʙ        0.000000e+00 ( 0.000000e+00 +/- 0.000000e+00) [K]
Framework-molecule
    Van der Waals/kʙ        0.000000e+00 ( 0.000000e+00 +/- 0.000000e+00) [K]
    Van der Waals (Tail)/kʙ 0.000000e+00 ( 0.000000e+00 +/- 0.000000e+00) [K]
    Coulombic Real/kʙ       0.000000e+00 ( 0.000000e+00 +/- 0.000000e+00) [K]
    Coulombic Fourier/kʙ    0.000000e+00 ( 0.000000e+00 +/- 0.000000e+00) [K]
Molecule-molecule
    Van der Waals/kʙ       -2.858560e+05 (-2.908030e+05 +/- 0.000000e+00) [K]
    Van der Waals (Tail)/kʙ-1.233117e+04 (-1.227144e+04 +/- 0.000000e+00) [K]
    Coulombic Real/kʙ      -8.953099e+04 (-9.004391e+04 +/- 0.000000e+00) [K]
    Coulombic Fourier/kʙ   -2.014097e+04 (-2.061657e+04 +/- 0.000000e+00) [K]
    Molecule Intra/kʙ       0.000000e+00 ( 0.000000e+00 +/- 0.000000e+00) [K]

Current cycle: 1200 out of 6000
===============================================================================

Box:      24.68538   0.00000   0.00000  Average:  24.79953   0.00000   0.00000
           0.00000  24.68538   0.00000             0.00000  24.79953   0.00000
           0.00000   0.00000  24.68538             0.00000   0.00000  24.79953
Lengths:  24.68538  24.68538  24.68538  Average:  24.79953  24.79953  24.79953
Angles:   90.00000  90.00000  90.00000  Average:  90.00000  90.00000  90.00000
Rectangular boundary conditions

net charge:   0.00000000

component 0 (CO2) lambda:  0 occupancy:  0 (0.000000)
    net charge:   0.00000000 [e]

Amount of molecules per component :
-------------------------------------------------------------------------------
Component 0 (CO2)
    molecules:      2.400000e+02 molecules  (2.414921e+02 +/- 0.000000e+00)
    number density: 1.595481e-02 molec./A^3 (1.583490e-02 +/- 0.000000e+00)
    density:        1.165686e+03 kg/m^3     (1.156925e+03 +/- 0.000000e+00)

Average pressure tensor: 
-------------------------------------------------------------------------------
 4.2870e+00 -1.1182e+02  1.6798e+00 +/- 0.0000e+00 0.0000e+00 0.0000e+00 [bar]
-1.1182e+02 -1.5096e+02  5.9387e+01 +/- 0.0000e+00 0.0000e+00 0.0000e+00 [bar]
 1.6798e+00  5.9387e+01  1.6698e+02 +/- 0.0000e+00 0.0000e+00 0.0000e+00 [bar]
Ideal-gas pressure:   4.809740e+02 +/ 0.000000e+00 [bar]
Excess pressure:     -4.742066e+02 +/ 0.000000e+00 [bar]
Pressure:             6.767483e+00 +/ 0.000000e+00 [bar]

Total potential energy/kʙ  -4.209081e+05 (-4.141054e+05 +/- 0.000000e+00) [K]
-------------------------------------------------------------------------------
ExternalField-molecule
    Van der Waals/kʙ        0.000000e+00 ( 0.000000e+00 +/- 0.000000e+00) [K]
Framework-molecule
    Van der Waals/kʙ        0.000000e+00 ( 0.000000e+00 +/- 0.000000e+00) [K]
    Van der Waals (Tail)/kʙ 0.000000e+00 ( 0.000000e+00 +/- 0.000000e+00) [K]
    Coulombic Real/kʙ       0.000000e+00 ( 0.000000e+00 +/- 0.000000e+00) [K]
    Coulombic Fourier/kʙ    0.000000e+00 ( 0.000000e+00 +/- 0.000000e+00) [K]
Molecule-molecule
    Van der Waals/kʙ       -2.913521e+05 (-2.909592e+05 +/- 0.000000e+00) [K]
    Van der Waals (Tail)/kʙ-1.228603e+04 (-1.227168e+04 +/- 0.000000e+00) [K]
    Coulombic Real/kʙ      -9.688683e+04 (-9.028400e+04 +/- 0.000000e+00) [K]
    Coulombic Fourier/kʙ   -2.038312e+04 (-2.059043e+04 +/- 0.000000e+00) [K]
    Molecule Intra/kʙ       0.000000e+00 ( 0.000000e+00 +/- 0.000000e+00) [K]

Current cycle: 1300 out of 6000
===============================================================================

Box:      24.59515   0.00000   0.00000  Average:  24.78709   0.00000   0.00000
           0.00000  24.59515   0.00000             0.00000  24.78709   0.00000
           0.00000   0.00000  24.59515             0.00000   0.00000  24.78709
Lengths:  24.59515  24.59515  24.59515  Average:  24.78709  24.78709  24.78709
Angles:   90.00000  90.00000  90.00000  Average:  90.00000  90.00000  90.00000
Rectangular boundary conditions

net charge:   0.00000000

component 0 (CO2) lambda:  0 occupancy:  0 (0.000000)
    net charge:   0.00000000 [e]

Amount of molecules per component :
-------------------------------------------------------------------------------
Component 0 (CO2)
    molecules:      2.430000e+02 molecules  (2.414427e+02 +/- 0.000000e+00)
    number density: 1.633269e-02 molec./A^3 (1.585566e-02 +/- 0.000000e+00)
    density:        1.193294e+03 kg/m^3     (1.158442e+03 +/- 0.000000e+00)

Average pressure tensor: 
-------------------------------------------------------------------------------
 1.2996e+01 -9.5576e+01 -2.8146e+00 +/- 0.0000e+00 0.0000e+00 0.0000e+00 [bar]
-9.5576e+01 -1.2480e+02  7.0106e+01 +/- 0.0000e+00 0.0000e+00 0.0000e+00 [bar]
-2.8146e+00  7.0106e+01  1.6185e+02 +/- 0.0000e+00 0.0000e+00 0.0000e+00 [bar]
Ideal-gas pressure:   4.816046e+02 +/ 0.000000e+00 [bar]
Excess pressure:     -4.649253e+02 +/ 0.000000e+00 [bar]
Pressure:             1.667936e+01 +/ 0.000000e+00 [bar]

Total potential energy/kʙ  -4.312832e+05 (-4.150143e+05 +/- 0.000000e+00) [K]
-------------------------------------------------------------------------------
ExternalField-molecule
    Van der Waals/kʙ        0.000000e+00 ( 0.000000e+00 +/- 0.000000e+00) [K]
Framework-molecule
    Van der Waals/kʙ        0.000000e+00 ( 0.000000e+00 +/- 0.000000e+00) [K]
    Van der Waals (Tail)/kʙ 0.000000e+00 ( 0.000000e+00 +/- 0.000000e+00) [K]
    Coulombic Real/kʙ       0.000000e+00 ( 0.000000e+00 +/- 0.000000e+00) [K]
    Coulombic Fourier/kʙ    0.000000e+00 ( 0.000000e+00 +/- 0.000000e+00) [K]
Molecule-molecule
    Van der Waals/kʙ       -2.948683e+05 (-2.912701e+05 +/- 0.000000e+00) [K]
    Van der Waals (Tail)/kʙ-1.273423e+04 (-1.228757e+04 +/- 0.000000e+00) [K]
    Coulombic Real/kʙ      -1.015038e+05 (-9.081528e+04 +/- 0.000000e+00) [K]
    Coulombic Fourier/kʙ   -2.217685e+04 (-2.064129e+04 +/- 0.000000e+00) [K]
    Molecule Intra/kʙ       0.000000e+00 ( 0.000000e+00 +/- 0.000000e+00) [K]

Current cycle: 1400 out of 6000
===============================================================================

Box:      24.88282   0.00000   0.00000  Average:  24.78223   0.00000   0.00000
           0.00000  24.88282   0.00000             0.00000  24.78223   0.00000
           0.00000   0.00000  24.88282             0.00000   0.00000  24.78223
Lengths:  24.88282  24.88282  24.88282  Average:  24.78223  24.78223  24.78223
Angles:   90.00000  90.00000  90.00000  Average:  90.00000  90.00000  90.00000
Rectangular boundary conditions

net charge:   0.00000000

component 0 (CO2) lambda:  0 occupancy:  0 (0.000000)
    net charge:   0.00000000 [e]

Amount of molecules per component :
-------------------------------------------------------------------------------
Component 0 (CO2)
    molecules:      2.430000e+02 molecules  (2.414447e+02 +/- 0.000000e+00)
    number density: 1.577275e-02 molec./A^3 (1.586505e-02 +/- 0.000000e+00)
    density:        1.152384e+03 kg/m^3     (1.159128e+03 +/- 0.000000e+00)

Average pressure tensor: 
-------------------------------------------------------------------------------
 2.7777e+01 -7.9506e+01 -1.9032e+01 +/- 0.0000e+00 0.0000e+00 0.0000e+00 [bar]
-7.9506e+01 -1.2660e+02  6.0713e+01 +/- 0.0000e+00 0.0000e+00 0.0000e+00 [bar]
-1.9032e+01  6.0713e+01  1.4770e+02 +/- 0.0000e+00 0.0000e+00 0.0000e+00 [bar]
Ideal-gas pressure:   4.818900e+02 +/ 0.000000e+00 [bar]
Excess pressure:     -4.655971e+02 +/ 0.000000e+00 [bar]
Pressure:             1.629293e+01 +/ 0.000000e+00 [bar]

Total potential energy/kʙ  -4.176480e+05 (-4.154207e+05 +/- 0.000000e+00) [K]
-------------------------------------------------------------------------------
ExternalField-molecule
    Van der Waals/kʙ        0.000000e+00 ( 0.000000e+00 +/- 0.000000e+00) [K]
Framework-molecule
    Van der Waals/kʙ        0.000000e+00 ( 0.000000e+00 +/- 0.000000e+00) [K]
    Van der Waals (Tail)/kʙ 0.000000e+00 ( 0.000000e+00 +/- 0.000000e+00) [K]
    Coulombic Real/kʙ       0.000000e+00 ( 0.000000e+00 +/- 0.000000e+00) [K]
    Coulombic Fourier/kʙ    0.000000e+00 ( 0.000000e+00 +/- 0.000000e+00) [K]
Molecule-molecule
    Van der Waals/kʙ       -3.005326e+05 (-2.915538e+05 +/- 0.000000e+00) [K]
    Van der Waals (Tail)/kʙ-1.229766e+04 (-1.229109e+04 +/- 0.000000e+00) [K]
    Coulombic Real/kʙ      -8.375195e+04 (-9.089973e+04 +/- 0.000000e+00) [K]
    Coulombic Fourier/kʙ   -2.106576e+04 (-2.067600e+04 +/- 0.000000e+00) [K]
    Molecule Intra/kʙ       0.000000e+00 ( 0.000000e+00 +/- 0.000000e+00) [K]

Current cycle: 1500 out of 6000
===============================================================================

Box:      24.71805   0.00000   0.00000  Average:  24.78087   0.00000   0.00000
           0.00000  24.71805   0.00000             0.00000  24.78087   0.00000
           0.00000   0.00000  24.71805             0.00000   0.00000  24.78087
[...]
    number density: 1.610715e-02 molec./A^3 (1.597733e-02 +/- 1.553005e-04)
    density:        1.176816e+03 kg/m^3     (1.167331e+03 +/- 1.134652e+01)

Average pressure tensor: 
-------------------------------------------------------------------------------
 9.2987e+01 -8.9414e+01  2.6849e+00 +/- 1.3134e+02 1.1281e+02 6.7544e+01 [bar]
-8.9414e+01 -3.3597e+01 -1.1844e+00 +/- 1.1281e+02 1.5100e+02 7.3693e+01 [bar]
 2.6849e+00 -1.1844e+00  1.4636e+01 +/- 6.7544e+01 7.3693e+01 1.1305e+02 [bar]
Ideal-gas pressure:   4.853003e+02 +/ 4.717146e+00 [bar]
Excess pressure:     -4.606248e+02 +/ 4.875242e+01 [bar]
Pressure:             2.467549e+01 +/ 5.214146e+01 [bar]

Total potential energy/kʙ  -4.220303e+05 (-4.219519e+05 +/- 9.317626e+03) [K]
-------------------------------------------------------------------------------
ExternalField-molecule
    Van der Waals/kʙ        0.000000e+00 ( 0.000000e+00 +/- 0.000000e+00) [K]
Framework-molecule
    Van der Waals/kʙ        0.000000e+00 ( 0.000000e+00 +/- 0.000000e+00) [K]
    Van der Waals (Tail)/kʙ 0.000000e+00 ( 0.000000e+00 +/- 0.000000e+00) [K]
    Coulombic Real/kʙ       0.000000e+00 ( 0.000000e+00 +/- 0.000000e+00) [K]
    Coulombic Fourier/kʙ    0.000000e+00 ( 0.000000e+00 +/- 0.000000e+00) [K]
Molecule-molecule
    Van der Waals/kʙ       -2.977029e+05 (-2.954595e+05 +/- 3.571894e+03) [K]
    Van der Waals (Tail)/kʙ-1.224830e+04 (-1.241799e+04 +/- 1.331373e+02) [K]
    Coulombic Real/kʙ      -9.080410e+04 (-9.305182e+04 +/- 5.451680e+03) [K]
    Coulombic Fourier/kʙ   -2.127500e+04 (-2.102252e+04 +/- 7.654570e+02) [K]
    Molecule Intra/kʙ       0.000000e+00 ( 0.000000e+00 +/- 0.000000e+00) [K]

Current cycle: 5800 out of 6000
===============================================================================

Box:      24.62695   0.00000   0.00000  Average:  24.74268   0.00000   0.00000
           0.00000  24.62695   0.00000             0.00000  24.74268   0.00000
           0.00000   0.00000  24.62695             0.00000   0.00000  24.74268
Lengths:  24.62695  24.62695  24.62695  Average:  24.74268  24.74268  24.74268
Angles:   90.00000  90.00000  90.00000  Average:  90.00000  90.00000  90.00000
Rectangular boundary conditions

net charge:   0.00000000

component 0 (CO2) lambda:  0 occupancy:  0 (0.000000)
    net charge:   0.00000000 [e]

Amount of molecules per component :
-------------------------------------------------------------------------------
Component 0 (CO2)
    molecules:      2.380000e+02 molecules  (2.420790e+02 +/- 1.081160e+00)
    number density: 1.593474e-02 molec./A^3 (1.598336e-02 +/- 1.616213e-04)
    density:        1.164219e+03 kg/m^3     (1.167771e+03 +/- 1.180833e+01)

Average pressure tensor: 
-------------------------------------------------------------------------------
 9.9145e+01 -8.9018e+01  6.4278e+00 +/- 1.3623e+02 1.0997e+02 6.9729e+01 [bar]
-8.9018e+01 -3.7371e+01 -1.2155e+00 +/- 1.0997e+02 1.5299e+02 7.3615e+01 [bar]
 6.4278e+00 -1.2155e+00  1.0007e+01 +/- 6.9729e+01 7.3615e+01 1.1313e+02 [bar]
Ideal-gas pressure:   4.854834e+02 +/ 4.909135e+00 [bar]
Excess pressure:     -4.615567e+02 +/ 4.875431e+01 [bar]
Pressure:             2.392670e+01 +/ 5.202636e+01 [bar]

Total potential energy/kʙ  -4.238887e+05 (-4.219505e+05 +/- 8.701008e+03) [K]
-------------------------------------------------------------------------------
ExternalField-molecule
    Van der Waals/kʙ        0.000000e+00 ( 0.000000e+00 +/- 0.000000e+00) [K]
Framework-molecule
    Van der Waals/kʙ        0.000000e+00 ( 0.000000e+00 +/- 0.000000e+00) [K]
    Van der Waals (Tail)/kʙ 0.000000e+00 ( 0.000000e+00 +/- 0.000000e+00) [K]
    Coulombic Real/kʙ       0.000000e+00 ( 0.000000e+00 +/- 0.000000e+00) [K]
    Coulombic Fourier/kʙ    0.000000e+00 ( 0.000000e+00 +/- 0.000000e+00) [K]
Molecule-molecule
    Van der Waals/kʙ       -2.989159e+05 (-2.954978e+05 +/- 3.529427e+03) [K]
    Van der Waals (Tail)/kʙ-1.216832e+04 (-1.241764e+04 +/- 1.267603e+02) [K]
    Coulombic Real/kʙ      -9.054661e+04 (-9.300301e+04 +/- 4.883981e+03) [K]
    Coulombic Fourier/kʙ   -2.225787e+04 (-2.103212e+04 +/- 7.390586e+02) [K]
    Molecule Intra/kʙ       0.000000e+00 ( 0.000000e+00 +/- 0.000000e+00) [K]

Current cycle: 5900 out of 6000
===============================================================================

Box:      24.47520   0.00000   0.00000  Average:  24.73788   0.00000   0.00000
           0.00000  24.47520   0.00000             0.00000  24.73788   0.00000
           0.00000   0.00000  24.47520             0.00000   0.00000  24.73788
Lengths:  24.47520  24.47520  24.47520  Average:  24.73788  24.73788  24.73788
Angles:   90.00000  90.00000  90.00000  Average:  90.00000  90.00000  90.00000
Rectangular boundary conditions

net charge:   0.00000000

component 0 (CO2) lambda:  0 occupancy:  0 (0.000000)
    net charge:   0.00000000 [e]

Amount of molecules per component :
-------------------------------------------------------------------------------
Component 0 (CO2)
    molecules:      2.350000e+02 molecules  (2.419971e+02 +/- 1.014781e+00)
    number density: 1.602835e-02 molec./A^3 (1.598726e-02 +/- 1.644009e-04)
    density:        1.171059e+03 kg/m^3     (1.168057e+03 +/- 1.201141e+01)

Average pressure tensor: 
-------------------------------------------------------------------------------
 1.0222e+02 -8.5957e+01  3.3974e+00 +/- 1.3824e+02 1.1246e+02 6.7655e+01 [bar]
-8.5957e+01 -4.1091e+01 -4.5127e+00 +/- 1.1246e+02 1.5514e+02 7.3363e+01 [bar]
 3.3974e+00 -4.5127e+00  1.1405e+01 +/- 6.7655e+01 7.3363e+01 1.1287e+02 [bar]
Ideal-gas pressure:   4.856020e+02 +/ 4.993564e+00 [bar]
Excess pressure:     -4.614223e+02 +/ 4.873997e+01 [bar]
Pressure:             2.417963e+01 +/ 5.204201e+01 [bar]

Total potential energy/kʙ  -4.116954e+05 (-4.219113e+05 +/- 8.119697e+03) [K]
-------------------------------------------------------------------------------
ExternalField-molecule
    Van der Waals/kʙ        0.000000e+00 ( 0.000000e+00 +/- 0.000000e+00) [K]
Framework-molecule
    Van der Waals/kʙ        0.000000e+00 ( 0.000000e+00 +/- 0.000000e+00) [K]
    Van der Waals (Tail)/kʙ 0.000000e+00 ( 0.000000e+00 +/- 0.000000e+00) [K]
    Coulombic Real/kʙ       0.000000e+00 ( 0.000000e+00 +/- 0.000000e+00) [K]
    Coulombic Fourier/kʙ    0.000000e+00 ( 0.000000e+00 +/- 0.000000e+00) [K]
Molecule-molecule
    Van der Waals/kʙ       -2.899912e+05 (-2.954715e+05 +/- 3.387473e+03) [K]
    Van der Waals (Tail)/kʙ-1.208552e+04 (-1.241689e+04 +/- 1.211109e+02) [K]
    Coulombic Real/kʙ      -8.956801e+04 (-9.298477e+04 +/- 4.509728e+03) [K]
    Coulombic Fourier/kʙ   -2.005062e+04 (-2.103813e+04 +/- 7.095089e+02) [K]
    Molecule Intra/kʙ       0.000000e+00 ( 0.000000e+00 +/- 0.000000e+00) [K]


Energy statistics             |  Energy [K]   | Recomputed [K]|  Drift [K]    |
===============================================================================
Total potential energy/kʙ     | -4.214456e+05 | -4.214456e+05 | -7.525835e-10 |
    external field VDW/kʙ     |  0.000000e+00 |  0.000000e+00 |  0.000000e+00 |
    external field Real/kʙ    |  0.000000e+00 |  0.000000e+00 |  0.000000e+00 |
    framework-molecule VDW/kʙ |  0.000000e+00 |  0.000000e+00 |  0.000000e+00 |
    framework-molecule Real/kʙ|  0.000000e+00 |  0.000000e+00 |  0.000000e+00 |
    molecule-molecule VDW/kʙ  | -2.968230e+05 | -2.968230e+05 | -7.000777e-10 |
    molecule-molecule Real/kʙ | -9.175912e+04 | -9.175912e+04 | -8.750971e-11 |
    Van der Waals (Tail)/kʙ   | -1.235686e+04 | -1.235686e+04 |  0.000000e+00 |
    Ewald Fourier/kʙ          |  1.436747e+04 |  1.436747e+04 |  3.500388e-11 |
    Ewald self/kʙ             | -5.335016e+06 | -5.335016e+06 |  0.000000e+00 |
    Ewald exclusion/kʙ        |  5.300142e+06 |  5.300142e+06 |  0.000000e+00 |
    intra VDW/kʙ              |  0.000000e+00 |  0.000000e+00 |  0.000000e+00 |
    intra Coulombic/kʙ        |  0.000000e+00 |  0.000000e+00 |  0.000000e+00 |
    polarization/kʙ           |  0.000000e+00 |  0.000000e+00 |  0.000000e+00 |
    dU/dlambda VDW/kʙ         |  0.000000e+00 |  0.000000e+00 |  0.000000e+00 |
    dU/dlambda Real/kʙ        |  0.000000e+00 |  0.000000e+00 |  0.000000e+00 |
    dU/dlambda Ewald/kʙ       |  0.000000e+00 |  0.000000e+00 |  0.000000e+00 |
-------------------------------------------------------------------------------


Monte-Carlo moves statistics
===============================================================================

    Gibbs volume         all:                2915
    Gibbs volume         total:              5834
    Gibbs volume         constructed:        5834
    Gibbs volume         accepted:           3541
    Gibbs volume         fraction:       0.606959
    Gibbs volume         max-change:     0.030823

Component 0 [CO2]
    Reinsertion (CBMC)   all:              149514
    Reinsertion (CBMC)   total:            149514
    Reinsertion (CBMC)   constructed:      108187
    Reinsertion (CBMC)   accepted:            294
    Reinsertion (CBMC)   fraction:       0.001966
    Reinsertion (CBMC)   max-change:     0.000000

    Gibbs swap (CBMC)    all:              298526
    Gibbs swap (CBMC)    total:            597061
    Gibbs swap (CBMC)    constructed:      511265
    Gibbs swap (CBMC)    accepted:           6910
    Gibbs swap (CBMC)    fraction:       0.011573
    Gibbs swap (CBMC)    max-change:     0.000000

    Translation          all:              149808
    Translation          total:             49804      50080      49924
    Translation          constructed:       49737      50080      49924
    Translation          accepted:          15481      30026      23129
    Translation          fraction:       0.310838   0.599561   0.463284
    Translation          max-change:     0.631883   0.487784   0.583690

    Rotation             all:              149121
    Rotation             total:             49635      49781      49705
    Rotation             constructed:       49635      49781      49705
    Rotation             accepted:          24580      22888      24601
    Rotation             fraction:       0.495215   0.459774   0.494940
    Rotation             max-change:     0.596568   0.611509   0.594459



Production run counting of the MC moves summed over systems and components
===============================================================================

Reinsertion (CBMC)                   298765 (19.9177 [%])
Gibbs volume                           5834 (0.3889 [%])
Gibbs swap (CBMC)                    597061 (39.8041 [%])
Translation                          299900 (19.9933 [%])
Rotation                             298440 (19.8960 [%])

Production count MC-steps:          1500000 [-]
               All summed:          1500000 [-]
               difference:                0 [-]


Production run CPU timings of the MC moves
===============================================================================

Component 0 CO2

Rotation                             23.361604 [s]
    Ewald                            11.262616 [s]
    ExternalField-Molecule            0.006855 [s]
    Framework-Molecule                0.005721 [s]
    Molecule-Molecule                11.106243 [s]
    Overhead                          0.980169 [s]

Reinsertion (CBMC)                   73.202032 [s]
    Ewald                             8.193727 [s]
    NonEwald                         64.849258 [s]
    Overhead                          0.159047 [s]

Translation                          23.537916 [s]
    Ewald                            11.314876 [s]
    ExternalField-Molecule            0.006177 [s]
    Framework-Molecule                0.012491 [s]
    Molecule-Molecule                11.266578 [s]
    Overhead                          0.937794 [s]



Gibbs swap (CBMC)                   102.570110 [s]
    Ewald                            19.277367 [s]
    NonEwald                         81.783511 [s]
    Tail                              1.026844 [s]

Gibbs volume                         23.909391 [s]
    Ewald                            10.039432 [s]
    NonEwald                         12.902230 [s]
    Tail                              0.822416 [s]

Property sampling                     0.330774 [s]
Energy/pressure sampling:            11.463560 [s]


Production run CPU timings of the MC moves summed over systems and components
===============================================================================


Translation                          30.842114 [s]
    Ewald                            17.360021 [s]
    ExternalField-Molecule            0.012233 [s]
    Framework-Molecule                0.024924 [s]
    Molecule-Molecule                11.593496 [s]
    Overhead                          1.851440 [s]

Rotation                             30.606770 [s]
    Ewald                            17.269626 [s]
    ExternalField-Molecule            0.013610 [s]
    Framework-Molecule                0.011371 [s]
    Molecule-Molecule                11.426163 [s]
    Overhead                          1.886000 [s]

Reinsertion (CBMC)                   85.468299 [s]
    Ewald                            14.225491 [s]
    NonEwald                         70.252494 [s]
    Overhead                          0.990314 [s]

Gibbs volume                         47.859480 [s]
    Ewald                            20.096117 [s]
    NonEwald                         25.829400 [s]
    Tail                              1.645829 [s]
    Overhead                          0.288134 [s]

Gibbs swap (CBMC)                   279.134591 [s]
    Ewald                            46.349110 [s]
    NonEwald                        229.082325 [s]
    Tail                              2.592964 [s]
    Overhead                          1.110192 [s]

Property sampling:                    0.561077 [s]
Energy/pressure sampling:            11.637058 [s]

Production simulation time:         487.400917 [s]
                All summed:         486.109389 [s]
                  Overhead:           1.291528 [s]


Initalization simulation time:      159.658003 [s]
Equilibration simulation time:        0.000000 [s]
Production simulation time:         487.400917 [s]
Total simulation time:              647.058920 [s]


Energy averages and statistics:
===============================================================================

Framework-molecule energy:
-------------------------------------------------------------------------------



Framework-molecule energy contributions per energy type:
-------------------------------------------------------------------------------



Inter-molecular energy:
-------------------------------------------------------------------------------

    Inter-molecular energy/kʙ 0-0 [CO2-CO2]:
    ---------------------------------------------------------------------------
        Block[  0] -4.140487e+05
        Block[  1] -4.223074e+05
        Block[  2] -4.189521e+05
        Block[  3] -4.231399e+05
        Block[  4] -4.304616e+05
        -----------------------------------------------------------------------
        Average  -4.217819e+05 +/-  7.481528e+03 [K]



Inter-molecular energy contributions per energy type:
-------------------------------------------------------------------------------

    Van der Waals energy/kʙ 0-0 [CO2-CO2]:
    ---------------------------------------------------------------------------
        Block[  0] -2.909560e+05
        Block[  1] -2.965169e+05
        Block[  2] -2.957170e+05
        Block[  3] -2.961074e+05
        Block[  4] -2.975855e+05
        -----------------------------------------------------------------------
        Average  -2.953766e+05 +/-  3.187657e+03 [K]

    VDW Tail-Correction energy/kʙ 0-0 [CO2-CO2]:
    ---------------------------------------------------------------------------
        Block[  0] -1.227156e+04
        Block[  1] -1.246830e+04
        Block[  2] -1.238247e+04
        Block[  3] -1.244186e+04
        Block[  4] -1.249624e+04
        -----------------------------------------------------------------------
        Average  -1.241209e+04 +/-  1.106134e+02 [K]

    Coulomb Real energy/kʙ 0-0 [CO2-CO2]:
    ---------------------------------------------------------------------------
        Block[  0] -9.022898e+04
        Block[  1] -9.227768e+04
        Block[  2] -9.030693e+04
        Block[  3] -9.347814e+04
        Block[  4] -9.857214e+04
        -----------------------------------------------------------------------
        Average  -9.297277e+04 +/-  4.243132e+03 [K]

    Coulomb Fourier energy/kʙ 0-0 [CO2-CO2]:
    ---------------------------------------------------------------------------
        Block[  0] -2.059216e+04
        Block[  1] -2.104455e+04
        Block[  2] -2.054573e+04
        Block[  3] -2.111246e+04
        Block[  4] -2.180774e+04
        -----------------------------------------------------------------------
        Average  -2.102053e+04 +/-  6.323128e+02 [K]


Total energy/kʙ
-------------------------------------------------------------------------------
    Block[  0] -4.140487e+05
    Block[  1] -4.223074e+05
    Block[  2] -4.189521e+05
    Block[  3] -4.231399e+05
    Block[  4] -4.304616e+05
    ---------------------------------------------------------------------------
    Average  -4.217819e+05 +/-  7.481528e+03 [K]

Pressure averages and statistics:
===============================================================================

Average pressure tensor: 
-------------------------------------------------------------------------------
 9.8611e+01 -8.4643e+01  5.0591e+00 +/- 1.3373e+02 1.1186e+02 6.8274e+01 [bar]
-8.4643e+01 -4.2226e+01 -6.7200e+00 +/- 1.1186e+02 1.5520e+02 7.3870e+01 [bar]
 5.0591e+00 -6.7200e+00  1.3368e+01 +/- 6.8274e+01 7.3870e+01 1.1284e+02 [bar]

    Block[  0]  4.809710e+07
    Block[  1]  4.872210e+07
    Block[  2]  4.817535e+07
    Block[  3]  4.889657e+07
    Block[  4]  4.890997e+07
    ---------------------------------------------------------------------------
    Ideal gas pressure   4.856022e+07 +/-  2.953502e-02 [Pa]
                         4.856022e+02 +/-  4.904409e+00 [bar]


    Block[  0] -4.738767e+07
    Block[  1] -4.085846e+07
    Block[  2] -5.159476e+07
    Block[  3] -4.458346e+07
    Block[  4] -4.675126e+07
    ---------------------------------------------------------------------------
    Excess pressure  -4.623512e+07 +/-  4.885956e+06 [Pa]
                     -4.623512e+02 +/-  4.885956e+01 [bar]


    Block[  0]  7.094350e+05
    Block[  1]  7.863642e+06
    Block[  2] -3.419409e+06
    Block[  3]  4.313102e+06
    Block[  4]  2.158708e+06
    ---------------------------------------------------------------------------
    Pressure average   2.325096e+06 +/-  5.203243e+06 [Pa]
                       2.325096e+01 +/-  5.203243e+01 [bar]


Enthalpy of adsorption
===============================================================================

Component 0 [CO2]
-------------------------------------------------------------------------------
    Block[  0] -2.496408e+03
    Block[  1] -3.065007e+03
    Block[  2] -2.208083e+03
    Block[  3] -2.646152e+03
    Block[  4] -3.165541e+03
    ---------------------------------------------------------------------------
    Enthalpy of adsorption: -2.716238e+03 +/-  4.946315e+02 [K]
                            -2.258407e+01 +/-  4.112596e+00 [kJ/mol]
    Warning: need to subtract the ideal-gas energy.


Densities
===============================================================================

Component 0 (CO2)
    Block[  0] 241.49333333333334
    Block[  1] 242.01333333333335
    Block[  2] 243.2425
    Block[  3] 241.08166666666668
    Block[  4] 241.60000000000002
    -----------------------------------------------------------------------
    Density average   2.418862e+02 +/-  1.027353e+00 [molecules]
    Density average   1.598727e-02 +/-  1.614657e-04 [molec/A^3]
    Density average   1.168057e+03 +/-  1.179696e+01 [kg.m⁻³]

