Compiler and run-time data
===============================================================================
RASPA 3.0.4

Random seed: 3590380095

Compiled as a 64-bits application
Compiler: gcc Ubuntu Clang 18.1.3 (1ubuntu1)
Compile Date = Mar 15 2025, Compile Time = 19:39:45

2025-06-02 14:17:00.099845
Simulation started on Mon, Jun 02
The start time was 14:17:00

Hostname:    c061
OS type:     Linux on x86_64
OS release:  6.8.0-58-generic
OS version:  #60-Ubuntu SMP PREEMPT_DYNAMIC Fri Mar 14 18:29:48 UTC 2025


Mutual consistent basic set of units:
===============================================================================

Unit of temperature: 1 [K]
Unit of length:      1e-10 [m]
Unit of time:        1e-12 [s]
Unit of mass:        1.6605402e-27 [kg]
Unit of charge:      1.60217733e-19 [C/particle]


Boltzmann constant (internal units):          0.8314464919307584 [-]
represents conversion from energy (internal units) to temperature (in Kelvin)

Derived units and their conversion factors:
===============================================================================

Unit of energy:                           1.6605402000000002e-23 [J]
Unit of energy:                           10.000008872307538 [J.mol⁻¹]
Unit of velocity:                         100 [m.s⁻¹]
Unit of force:                            1.6605402000000002e-13 [N]
Unit of diffusion:                        1.0000000000000002e-08 [m².s⁻¹]
Unit of acceleration:                     1.0000000000000002e-08 [m².s⁻¹]
Unit of torque:                           1.6605402000000002e-23 [N.m]
Unit of pressure:                         16605402 [Pa]
Unit of volume:                           1e-30 [m³]
Unit of density:                          1660.5402 [kg.m⁻³]
Unit of dynamic viscosity:                1.6605401999999997e-05 [N.s.m⁻²]
Unit of enthalpy:                         1.6605402000000002e-23 [J]
Unit of polarizability:                   1.5458657349975198e-35 [-]
Unit of Coulomb potential:                167101.08000665612 [K]
Unit of dielectric constant:              1.5458657349975193e-05 [s².C².kg⁻¹.m⁻³]
Unit of dipole moment:                    1.60217733e-29 [C.m]
Unit of Debye:                            4.803206799099162 [C.m]
Unit of electric potential:               0.00010364272224473431 [V]
Unit of electric field:                   1036427.222447343 [V.m⁻¹]
Unit of isothermal compressibility:       6.02213665167516e-08 [Pa⁻¹]
Unit of heat capacity:                    10.000008872307538 [J.mol⁻¹.K⁻¹]
Unit of volumetric expansion coefficient: 1 [K⁻¹]


Internal conversion factors:
===============================================================================

Energy (internal units) to Kelvin:      1.202724284692786 [-]
Kelvin to energy (internal units):      0.8314457542157567 [-]


System definitions
===============================================================================

Temperature:          250 [K]
Beta:                 0.0048108928702210625 [-]
Pressure:             1e+07 [Pa]
Helium void fraction: 1 [-]

Box:      30.00000   0.00000   0.00000
           0.00000  30.00000   0.00000
           0.00000   0.00000  30.00000
Lengths:  30.00000  30.00000  30.00000
Angles:   90.00000  90.00000  90.00000
Rectangular boundary conditions



Property measurement settings
===============================================================================




Pseudo-atoms
===============================================================================

  0 - C_co2    framework-atom: false
  1 - O_co2    framework-atom: false

  0 - C_co2    mass: 12.00000, charge:  0.70000
  1 - O_co2    mass: 15.99940, charge: -0.35000

  0 - C_co2    polarizability:  0.00000
  1 - O_co2    polarizability:  0.00000

  0 - J. J. Potoff et al., AIChE J. 2001, 47, 1676–1682.
  1 - J. J. Potoff et al., AIChE J. 2001, 47, 1676–1682.

Force field status
===============================================================================

Cutoff Framework-Molecule VDW:  10.00000 [Å]
Cutoff Molecule-Molecule VDW:   10.00000 [Å]
Cutoff Coulomb:                 10.00000 [Å]

Overlap-criteria VDW:           1.000000e+05 [K]

C_co2    - C_co2    Lennard-Jones p₀/kʙ:  27.00000 [K], p₁:  2.80000 [Å]
                                  shift:   0.00000 [K], tailcorrections: true
C_co2    - O_co2    Lennard-Jones p₀/kʙ:  46.18441 [K], p₁:  2.92500 [Å]
                                  shift:   0.00000 [K], tailcorrections: true
O_co2    - O_co2    Lennard-Jones p₀/kʙ:  79.00000 [K], p₁:  3.05000 [Å]
                                  shift:   0.00000 [K], tailcorrections: true

Ewald precision: 1e-06
Ewald alpha: 0.32079885109097883
Ewald k-vectors: 10 10 10


Component definitions
===============================================================================

Component 0 [CO2]

    Type: Adsorbate

    Critical temperature:  304.1282 [K]
    Critical pressure:     7377300 [Pa]
    Acentric factor:       0.22394 [-]

    Mol-fraction:                 1 [-]
    Swappable:                   false

    Mass:                         43.9988 [-]
    Bulk fluid density:           0 [-]
    Compressibility:              0 [-]
    Excess molecules:             0 [-]

    Number Of Atoms:    3
    CBMC starting bead: 0
      0: O_co2  position  0.00000 -0.00000  1.16000, charge -0.35000
      1: C_co2  position  0.00000 -0.00000  0.00000, charge  0.70000
      2: O_co2  position  0.00000 -0.00000 -1.16000, charge -0.35000
    Diagonalized inertia-vector:      43.05758528 43.05758528 0.00000000
    Translational degrees of freedom: 3
    Rotational degrees of freedom:    2
    Shape of the molecule is: 'Linear'
    Net-charge:        0.00000000 [e]

    Move probabilities:
    Translation:                   0.331126 [-]
    Random translation:            0.000000 [-]
    Rotation:                      0.331126 [-]
    Random rotation:               0.000000 [-]
    Volume change:                 0.006623 [-]
    Reinsertion (CBMC):            0.331126 [-]
    Identity change (CBMC):        0.000000 [-]
    Swap:                          0.000000 [-]
    Swap (CBMC):                   0.000000 [-]
    Swap (CFCMC):                  0.000000 [-]
    Swap (CB/CFCMC):               0.000000 [-]
    Gibbs volume:                  0.000000 [-]
    Gibbs swap (CBMC):             0.000000 [-]
    Gibbs swap (CFCMC):            0.000000 [-]
    Widom:                         0.000000 [-]
    Widom (CFCMC):                 0.000000 [-]
    Widom (CB/CFCMC):              0.000000 [-]
    Parallel tempering:            0.000000 [-]
    Hybrid MC:                     0.000000 [-]

    number of blocking-pockets: 0

    number of bonds: 0





Number of pseudo-atoms
===============================================================================

Component   0 (CO2)
-------------------------------------------------------------------------------
    index   0 (C_co2): 100 atoms
    index   1 (O_co2): 200 atoms

Total number of pseudo-atoms:
-------------------------------------------------------------------------------
    index   0 (C_co2): 100 atoms
    index   1 (O_co2): 200 atoms




Energy status Recomputed from scratch
===============================================================================

Total potential energy/kʙ       -4.134792e+03 [K]
    external field VDW/kʙ        0.000000e+00 [K]
    external field Real/kʙ       0.000000e+00 [K]
    framework-molecule VDW/kʙ    0.000000e+00 [K]
    framework-molecule Real/kʙ   0.000000e+00 [K]
    molecule-molecule VDW/kʙ    -5.412412e+02 [K]
    molecule-molecule Real/kʙ   -2.528339e+03 [K]
    Van der Waals (Tail)/kʙ     -1.188352e+03 [K]
    Ewald Fourier/kʙ             1.465399e+04 [K]
    Ewald self/kʙ               -2.222923e+06 [K]
    Ewald exclusion/kʙ           2.208392e+06 [K]
    intra VDW/kʙ                 0.000000e+00 [K]
    intra Coulombic/kʙ           0.000000e+00 [K]
    polarization/kʙ              0.000000e+00 [K]
    dU/dlambda VDW/kʙ            0.000000e+00 [K]
    dU/dlambda Real/kʙ           0.000000e+00 [K]
    dU/dlambda Ewald/kʙ          0.000000e+00 [K]





Initialization: Current cycle: 0 out of 1000
===============================================================================

Box:      30.00000   0.00000   0.00000
           0.00000  30.00000   0.00000
           0.00000   0.00000  30.00000
Lengths:  30.00000  30.00000  30.00000
Angles:   90.00000  90.00000  90.00000
Rectangular boundary conditions

net charge:   0.00000000

component   0 (CO2) lambda:  0 occupancy:  1 (1.000000)
    net charge:   0.00000000 [e]

Amount of molecules per component :
-------------------------------------------------------------------------------
Component 0 (CO2)
    molecules:         1.000000e+02 molecules
    number density:    3.703704e-03 molec/A^3
    density:           2.705989e+02 kg/m^3

Total potential energy/kʙ       -3.322574e+04 [K]
-------------------------------------------------------------------------------
    external field VDW/kʙ        0.000000e+00 [K]
    external field Real/kʙ       0.000000e+00 [K]
    framework-molecule VDW/kʙ    0.000000e+00 [K]
    framework-molecule Real/kʙ   0.000000e+00 [K]
    molecule-molecule VDW/kʙ    -2.758375e+04 [K]
    molecule-molecule Real/kʙ   -4.019790e+03 [K]
    Van der Waals (Tail)/kʙ     -1.188352e+03 [K]
    Ewald Fourier/kʙ             1.409700e+04 [K]
    Ewald self/kʙ               -2.222923e+06 [K]
    Ewald exclusion/kʙ           2.208392e+06 [K]
    intra VDW/kʙ                 0.000000e+00 [K]
    intra Coulombic/kʙ           0.000000e+00 [K]
    polarization/kʙ              0.000000e+00 [K]
    dU/dlambda VDW/kʙ            0.000000e+00 [K]
    dU/dlambda Real/kʙ           0.000000e+00 [K]
    dU/dlambda Ewald/kʙ          0.000000e+00 [K]


Initialization: Current cycle: 100 out of 1000
===============================================================================

Box:      28.47273   0.00000   0.00000
           0.00000  28.47273   0.00000
           0.00000   0.00000  28.47273
Lengths:  28.47273  28.47273  28.47273
Angles:   90.00000  90.00000  90.00000
Rectangular boundary conditions

net charge:   0.00000000

component   0 (CO2) lambda:  0 occupancy:  1 (1.000000)
    net charge:   0.00000000 [e]

Amount of molecules per component :
-------------------------------------------------------------------------------
Component 0 (CO2)
    molecules:         1.000000e+02 molecules
    number density:    4.332241e-03 molec/A^3
    density:           3.165210e+02 kg/m^3

Total potential energy/kʙ       -4.782108e+04 [K]
-------------------------------------------------------------------------------
    external field VDW/kʙ        0.000000e+00 [K]
    external field Real/kʙ       0.000000e+00 [K]
    framework-molecule VDW/kʙ    0.000000e+00 [K]
    framework-molecule Real/kʙ   0.000000e+00 [K]
    molecule-molecule VDW/kʙ    -3.498945e+04 [K]
    molecule-molecule Real/kʙ   -9.102851e+03 [K]
    Van der Waals (Tail)/kʙ     -1.390021e+03 [K]
    Ewald Fourier/kʙ             1.219210e+04 [K]
    Ewald self/kʙ               -2.222923e+06 [K]
    Ewald exclusion/kʙ           2.208392e+06 [K]
    intra VDW/kʙ                 0.000000e+00 [K]
    intra Coulombic/kʙ           0.000000e+00 [K]
    polarization/kʙ              0.000000e+00 [K]
    dU/dlambda VDW/kʙ            0.000000e+00 [K]
    dU/dlambda Real/kʙ           0.000000e+00 [K]
    dU/dlambda Ewald/kʙ          0.000000e+00 [K]


Initialization: Current cycle: 200 out of 1000
===============================================================================

Box:      26.73588   0.00000   0.00000
           0.00000  26.73588   0.00000
           0.00000   0.00000  26.73588
Lengths:  26.73588  26.73588  26.73588
Angles:   90.00000  90.00000  90.00000
Rectangular boundary conditions

net charge:   0.00000000

component   0 (CO2) lambda:  0 occupancy:  1 (1.000000)
    net charge:   0.00000000 [e]

Amount of molecules per component :
-------------------------------------------------------------------------------
Component 0 (CO2)
    molecules:         1.000000e+02 molecules
    number density:    5.232590e-03 molec/A^3
    density:           3.823020e+02 kg/m^3

Total potential energy/kʙ       -7.539830e+04 [K]
-------------------------------------------------------------------------------
    external field VDW/kʙ        0.000000e+00 [K]
    external field Real/kʙ       0.000000e+00 [K]
    framework-molecule VDW/kʙ    0.000000e+00 [K]
    framework-molecule Real/kʙ   0.000000e+00 [K]
    molecule-molecule VDW/kʙ    -5.663097e+04 [K]
    molecule-molecule Real/kʙ   -1.331651e+04 [K]
    Van der Waals (Tail)/kʙ     -1.678902e+03 [K]
    Ewald Fourier/kʙ             1.075893e+04 [K]
    Ewald self/kʙ               -2.222923e+06 [K]
    Ewald exclusion/kʙ           2.208392e+06 [K]
    intra VDW/kʙ                 0.000000e+00 [K]
    intra Coulombic/kʙ           0.000000e+00 [K]
    polarization/kʙ              0.000000e+00 [K]
    dU/dlambda VDW/kʙ            0.000000e+00 [K]
    dU/dlambda Real/kʙ           0.000000e+00 [K]
    dU/dlambda Ewald/kʙ          0.000000e+00 [K]


Initialization: Current cycle: 300 out of 1000
===============================================================================

Box:      26.07824   0.00000   0.00000
           0.00000  26.07824   0.00000
           0.00000   0.00000  26.07824
Lengths:  26.07824  26.07824  26.07824
Angles:   90.00000  90.00000  90.00000
Rectangular boundary conditions

net charge:   0.00000000

component   0 (CO2) lambda:  0 occupancy:  1 (1.000000)
    net charge:   0.00000000 [e]

Amount of molecules per component :
-------------------------------------------------------------------------------
Component 0 (CO2)
    molecules:         1.000000e+02 molecules
    number density:    5.638523e-03 molec/A^3
    density:           4.119602e+02 kg/m^3

Total potential energy/kʙ       -7.950828e+04 [K]
-------------------------------------------------------------------------------
    external field VDW/kʙ        0.000000e+00 [K]
    external field Real/kʙ       0.000000e+00 [K]
    framework-molecule VDW/kʙ    0.000000e+00 [K]
    framework-molecule Real/kʙ   0.000000e+00 [K]
    molecule-molecule VDW/kʙ    -5.861377e+04 [K]
    molecule-molecule Real/kʙ   -1.567473e+04 [K]
    Van der Waals (Tail)/kʙ     -1.809148e+03 [K]
    Ewald Fourier/kʙ             1.112022e+04 [K]
    Ewald self/kʙ               -2.222923e+06 [K]
    Ewald exclusion/kʙ           2.208392e+06 [K]
    intra VDW/kʙ                 0.000000e+00 [K]
    intra Coulombic/kʙ           0.000000e+00 [K]
    polarization/kʙ              0.000000e+00 [K]
    dU/dlambda VDW/kʙ            0.000000e+00 [K]
    dU/dlambda Real/kʙ           0.000000e+00 [K]
    dU/dlambda Ewald/kʙ          0.000000e+00 [K]


Initialization: Current cycle: 400 out of 1000
===============================================================================

Box:      24.57808   0.00000   0.00000
           0.00000  24.57808   0.00000
           0.00000   0.00000  24.57808
Lengths:  24.57808  24.57808  24.57808
Angles:   90.00000  90.00000  90.00000
Rectangular boundary conditions

net charge:   0.00000000

component   0 (CO2) lambda:  0 occupancy:  1 (1.000000)
    net charge:   0.00000000 [e]

Amount of molecules per component :
-------------------------------------------------------------------------------
Component 0 (CO2)
    molecules:         1.000000e+02 molecules
    number density:    6.735288e-03 molec/A^3
    density:           4.920917e+02 kg/m^3

Total potential energy/kʙ       -8.988530e+04 [K]
-------------------------------------------------------------------------------
    external field VDW/kʙ        0.000000e+00 [K]
    external field Real/kʙ       0.000000e+00 [K]
    framework-molecule VDW/kʙ    0.000000e+00 [K]
    framework-molecule Real/kʙ   0.000000e+00 [K]
    molecule-molecule VDW/kʙ    -6.678746e+04 [K]
    molecule-molecule Real/kʙ   -1.717383e+04 [K]
    Van der Waals (Tail)/kʙ     -2.161050e+03 [K]
    Ewald Fourier/kʙ             1.076790e+04 [K]
    Ewald self/kʙ               -2.222923e+06 [K]
    Ewald exclusion/kʙ           2.208392e+06 [K]
    intra VDW/kʙ                 0.000000e+00 [K]
    intra Coulombic/kʙ           0.000000e+00 [K]
    polarization/kʙ              0.000000e+00 [K]
    dU/dlambda VDW/kʙ            0.000000e+00 [K]
    dU/dlambda Real/kʙ           0.000000e+00 [K]
    dU/dlambda Ewald/kʙ          0.000000e+00 [K]


Initialization: Current cycle: 500 out of 1000
===============================================================================

Box:      23.96971   0.00000   0.00000
           0.00000  23.96971   0.00000
           0.00000   0.00000  23.96971
Lengths:  23.96971  23.96971  23.96971
Angles:   90.00000  90.00000  90.00000
Rectangular boundary conditions

net charge:   0.00000000

component   0 (CO2) lambda:  0 occupancy:  1 (1.000000)
    net charge:   0.00000000 [e]

Amount of molecules per component :
-------------------------------------------------------------------------------
Component 0 (CO2)
    molecules:         1.000000e+02 molecules
    number density:    7.261256e-03 molec/A^3
    density:           5.305198e+02 kg/m^3

Total potential energy/kʙ       -8.547423e+04 [K]
-------------------------------------------------------------------------------
    external field VDW/kʙ        0.000000e+00 [K]
    external field Real/kʙ       0.000000e+00 [K]
    framework-molecule VDW/kʙ    0.000000e+00 [K]
    framework-molecule Real/kʙ   0.000000e+00 [K]
    molecule-molecule VDW/kʙ    -6.502164e+04 [K]
    molecule-molecule Real/kʙ   -1.485476e+04 [K]
    Van der Waals (Tail)/kʙ     -2.329810e+03 [K]
    Ewald Fourier/kʙ             1.126283e+04 [K]
    Ewald self/kʙ               -2.222923e+06 [K]
    Ewald exclusion/kʙ           2.208392e+06 [K]
    intra VDW/kʙ                 0.000000e+00 [K]
    intra Coulombic/kʙ           0.000000e+00 [K]
    polarization/kʙ              0.000000e+00 [K]
    dU/dlambda VDW/kʙ            0.000000e+00 [K]
    dU/dlambda Real/kʙ           0.000000e+00 [K]
    dU/dlambda Ewald/kʙ          0.000000e+00 [K]


Initialization: Current cycle: 600 out of 1000
===============================================================================

Box:      20.84234   0.00000   0.00000
           0.00000  20.84234   0.00000
           0.00000   0.00000  20.84234
Lengths:  20.84234  20.84234  20.84234
Angles:   90.00000  90.00000  90.00000
Rectangular boundary conditions

net charge:   0.00000000

component   0 (CO2) lambda:  0 occupancy:  1 (1.000000)
    net charge:   0.00000000 [e]

Amount of molecules per component :
-------------------------------------------------------------------------------
Component 0 (CO2)
    molecules:         1.000000e+02 molecules
    number density:    1.104487e-02 molec/A^3
    density:           8.069575e+02 kg/m^3

Total potential energy/kʙ       -1.100082e+05 [K]
-------------------------------------------------------------------------------
    external field VDW/kʙ        0.000000e+00 [K]
    external field Real/kʙ       0.000000e+00 [K]
    framework-molecule VDW/kʙ    0.000000e+00 [K]
    framework-molecule Real/kʙ   0.000000e+00 [K]
    molecule-molecule VDW/kʙ    -8.118197e+04 [K]
    molecule-molecule Real/kʙ   -1.962878e+04 [K]
    Van der Waals (Tail)/kʙ     -3.543802e+03 [K]
    Ewald Fourier/kʙ             8.877199e+03 [K]
    Ewald self/kʙ               -2.222923e+06 [K]
    Ewald exclusion/kʙ           2.208392e+06 [K]
    intra VDW/kʙ                 0.000000e+00 [K]
    intra Coulombic/kʙ           0.000000e+00 [K]
    polarization/kʙ              0.000000e+00 [K]
    dU/dlambda VDW/kʙ            0.000000e+00 [K]
    dU/dlambda Real/kʙ           0.000000e+00 [K]
    dU/dlambda Ewald/kʙ          0.000000e+00 [K]


Initialization: Current cycle: 700 out of 1000
===============================================================================

Box:      19.70547   0.00000   0.00000
           0.00000  19.70547   0.00000
           0.00000   0.00000  19.70547
Lengths:  19.70547  19.70547  19.70547
Angles:   90.00000  90.00000  90.00000
Rectangular boundary conditions

net charge:   0.00000000

component   0 (CO2) lambda:  0 occupancy:  1 (1.000000)
    net charge:   0.00000000 [e]

Amount of molecules per component :
-------------------------------------------------------------------------------
Component 0 (CO2)
    molecules:         1.000000e+02 molecules
    number density:    1.306892e-02 molec/A^3
    density:           9.548380e+02 kg/m^3

Total potential energy/kʙ       -1.372722e+05 [K]
-------------------------------------------------------------------------------
    external field VDW/kʙ        0.000000e+00 [K]
    external field Real/kʙ       0.000000e+00 [K]
    framework-molecule VDW/kʙ    0.000000e+00 [K]
    framework-molecule Real/kʙ   0.000000e+00 [K]
    molecule-molecule VDW/kʙ    -9.674035e+04 [K]
    molecule-molecule Real/kʙ   -2.954112e+04 [K]
    Van der Waals (Tail)/kʙ     -4.193229e+03 [K]
    Ewald Fourier/kʙ             7.733359e+03 [K]
    Ewald self/kʙ               -2.222923e+06 [K]
    Ewald exclusion/kʙ           2.208392e+06 [K]
    intra VDW/kʙ                 0.000000e+00 [K]
    intra Coulombic/kʙ           0.000000e+00 [K]
    polarization/kʙ              0.000000e+00 [K]
    dU/dlambda VDW/kʙ            0.000000e+00 [K]
    dU/dlambda Real/kʙ           0.000000e+00 [K]
    dU/dlambda Ewald/kʙ          0.000000e+00 [K]


Initialization: Current cycle: 800 out of 1000
===============================================================================

Box:      19.48862   0.00000   0.00000
           0.00000  19.48862   0.00000
           0.00000   0.00000  19.48862
Lengths:  19.48862  19.48862  19.48862
Angles:   90.00000  90.00000  90.00000
Rectangular boundary conditions

net charge:   0.00000000

component   0 (CO2) lambda:  0 occupancy:  1 (1.000000)
    net charge:   0.00000000 [e]

Amount of molecules per component :
-------------------------------------------------------------------------------
Component 0 (CO2)
    molecules:         1.000000e+02 molecules
    number density:    1.351004e-02 molec/A^3
    density:           9.870664e+02 kg/m^3

Total potential energy/kʙ       -1.370552e+05 [K]
-------------------------------------------------------------------------------
    external field VDW/kʙ        0.000000e+00 [K]
    external field Real/kʙ       0.000000e+00 [K]
    framework-molecule VDW/kʙ    0.000000e+00 [K]
    framework-molecule Real/kʙ   0.000000e+00 [K]
    molecule-molecule VDW/kʙ    -9.599311e+04 [K]
    molecule-molecule Real/kʙ   -2.907648e+04 [K]
    Van der Waals (Tail)/kʙ     -4.334761e+03 [K]
    Ewald Fourier/kʙ             6.880041e+03 [K]
    Ewald self/kʙ               -2.222923e+06 [K]
    Ewald exclusion/kʙ           2.208392e+06 [K]
    intra VDW/kʙ                 0.000000e+00 [K]
    intra Coulombic/kʙ           0.000000e+00 [K]
    polarization/kʙ              0.000000e+00 [K]
    dU/dlambda VDW/kʙ            0.000000e+00 [K]
    dU/dlambda Real/kʙ           0.000000e+00 [K]
    dU/dlambda Ewald/kʙ          0.000000e+00 [K]


Initialization: Current cycle: 900 out of 1000
===============================================================================

Box:      19.49289   0.00000   0.00000
           0.00000  19.49289   0.00000
           0.00000   0.00000  19.49289
Lengths:  19.49289  19.49289  19.49289
Angles:   90.00000  90.00000  90.00000
Rectangular boundary conditions

net charge:   0.00000000

component   0 (CO2) lambda:  0 occupancy:  1 (1.000000)
    net charge:   0.00000000 [e]

Amount of molecules per component :
-------------------------------------------------------------------------------
Component 0 (CO2)
    molecules:         1.000000e+02 molecules
    number density:    1.350117e-02 molec/A^3
    density:           9.864186e+02 kg/m^3

Total potential energy/kʙ       -1.373422e+05 [K]
-------------------------------------------------------------------------------
    external field VDW/kʙ        0.000000e+00 [K]
    external field Real/kʙ       0.000000e+00 [K]
    framework-molecule VDW/kʙ    0.000000e+00 [K]
    framework-molecule Real/kʙ   0.000000e+00 [K]
    molecule-molecule VDW/kʙ    -1.018586e+05 [K]
    molecule-molecule Real/kʙ   -2.510493e+04 [K]
    Van der Waals (Tail)/kʙ     -4.331917e+03 [K]
    Ewald Fourier/kʙ             8.484103e+03 [K]
    Ewald self/kʙ               -2.222923e+06 [K]
    Ewald exclusion/kʙ           2.208392e+06 [K]
    intra VDW/kʙ                 0.000000e+00 [K]
    intra Coulombic/kʙ           0.000000e+00 [K]
    polarization/kʙ              0.000000e+00 [K]
    dU/dlambda VDW/kʙ            0.000000e+00 [K]
    dU/dlambda Real/kʙ           0.000000e+00 [K]
    dU/dlambda Ewald/kʙ          0.000000e+00 [K]


Current cycle: 0 out of 5000
===============================================================================

Box:      19.22018   0.00000   0.00000  Average:  19.22018   0.00000   0.00000
           0.00000  19.22018   0.00000             0.00000  19.22018   0.00000
           0.00000   0.00000  19.22018             0.00000   0.00000  19.22018
Lengths:  19.22018  19.22018  19.22018  Average:  19.22018  19.22018  19.22018
Angles:   90.00000  90.00000  90.00000  Average:  90.00000  90.00000  90.00000
Rectangular boundary conditions

net charge:   0.00000000

component 0 (CO2) lambda:  0 occupancy:  1 (1.000000)
    net charge:   0.00000000 [e]

Amount of molecules per component :
-------------------------------------------------------------------------------
Component 0 (CO2)
    molecules:      1.000000e+02 molecules  (1.000000e+02 +/- 0.000000e+00)
    number density: 1.408405e-02 molec./A^3 (1.408405e-02 +/- 0.000000e+00)
    density:        1.029005e+03 kg/m^3     (1.029005e+03 +/- 0.000000e+00)

Average pressure tensor: 
-------------------------------------------------------------------------------
 4.8613e+02  0.0000e+00  0.0000e+00 +/- 0.0000e+00 0.0000e+00 0.0000e+00 [bar]
 0.0000e+00  4.8613e+02  0.0000e+00 +/- 0.0000e+00 0.0000e+00 0.0000e+00 [bar]
 0.0000e+00  0.0000e+00  4.8613e+02 +/- 0.0000e+00 0.0000e+00 0.0000e+00 [bar]
Ideal-gas pressure:   4.861288e+02 +/ 0.000000e+00 [bar]
Excess pressure:      0.000000e+00 +/ 0.000000e+00 [bar]
Pressure:             4.861288e+02 +/ 0.000000e+00 [bar]

Total potential energy/kʙ  -1.452039e+05 (-1.452039e+05 +/- 0.000000e+00) [K]
-------------------------------------------------------------------------------
ExternalField-molecule
    Van der Waals/kʙ        0.000000e+00 ( 0.000000e+00 +/- 0.000000e+00) [K]
Framework-molecule
    Van der Waals/kʙ        0.000000e+00 ( 0.000000e+00 +/- 0.000000e+00) [K]
    Van der Waals (Tail)/kʙ 0.000000e+00 ( 0.000000e+00 +/- 0.000000e+00) [K]
    Coulombic Real/kʙ       0.000000e+00 ( 0.000000e+00 +/- 0.000000e+00) [K]
    Coulombic Fourier/kʙ    0.000000e+00 ( 0.000000e+00 +/- 0.000000e+00) [K]
Molecule-molecule
    Van der Waals/kʙ       -1.043720e+05 (-1.043720e+05 +/- 0.000000e+00) [K]
    Van der Waals (Tail)/kʙ-4.518937e+03 (-4.518937e+03 +/- 0.000000e+00) [K]
    Coulombic Real/kʙ      -2.937497e+04 (-2.937497e+04 +/- 0.000000e+00) [K]
    Coulombic Fourier/kʙ   -6.937958e+03 (-6.937958e+03 +/- 0.000000e+00) [K]
    Molecule Intra/kʙ       0.000000e+00 ( 0.000000e+00 +/- 0.000000e+00) [K]

Current cycle: 100 out of 5000
===============================================================================

Box:      18.86681   0.00000   0.00000  Average:  19.01101   0.00000   0.00000
           0.00000  18.86681   0.00000             0.00000  19.01101   0.00000
           0.00000   0.00000  18.86681             0.00000   0.00000  19.01101
Lengths:  18.86681  18.86681  18.86681  Average:  19.01101  19.01101  19.01101
Angles:   90.00000  90.00000  90.00000  Average:  90.00000  90.00000  90.00000
Rectangular boundary conditions

net charge:   0.00000000

component 0 (CO2) lambda:  0 occupancy:  1 (1.000000)
    net charge:   0.00000000 [e]

Amount of molecules per component :
-------------------------------------------------------------------------------
Component 0 (CO2)
    molecules:      1.000000e+02 molecules  (1.000000e+02 +/- 0.000000e+00)
    number density: 1.489033e-02 molec./A^3 (1.455721e-02 +/- 0.000000e+00)
    density:        1.087913e+03 kg/m^3     (1.063575e+03 +/- 0.000000e+00)

Average pressure tensor: 
-------------------------------------------------------------------------------
 2.0922e+02 -1.9168e+02 -2.8352e+01 +/- 0.0000e+00 0.0000e+00 0.0000e+00 [bar]
-1.9168e+02  1.5854e+02  2.0895e+02 +/- 0.0000e+00 0.0000e+00 0.0000e+00 [bar]
-2.8352e+01  2.0895e+02  2.6100e+02 +/- 0.0000e+00 0.0000e+00 0.0000e+00 [bar]
Ideal-gas pressure:   5.024605e+02 +/ 0.000000e+00 [bar]
Excess pressure:     -2.928750e+02 +/ 0.000000e+00 [bar]
Pressure:             2.095856e+02 +/ 0.000000e+00 [bar]

Total potential energy/kʙ  -1.581082e+05 (-1.509621e+05 +/- 0.000000e+00) [K]
-------------------------------------------------------------------------------
ExternalField-molecule
    Van der Waals/kʙ        0.000000e+00 ( 0.000000e+00 +/- 0.000000e+00) [K]
Framework-molecule
    Van der Waals/kʙ        0.000000e+00 ( 0.000000e+00 +/- 0.000000e+00) [K]
    Van der Waals (Tail)/kʙ 0.000000e+00 ( 0.000000e+00 +/- 0.000000e+00) [K]
    Coulombic Real/kʙ       0.000000e+00 ( 0.000000e+00 +/- 0.000000e+00) [K]
    Coulombic Fourier/kʙ    0.000000e+00 ( 0.000000e+00 +/- 0.000000e+00) [K]
Molecule-molecule
    Van der Waals/kʙ       -1.145574e+05 (-1.094365e+05 +/- 0.000000e+00) [K]
    Van der Waals (Tail)/kʙ-4.777636e+03 (-4.680211e+03 +/- 0.000000e+00) [K]
    Coulombic Real/kʙ      -3.146658e+04 (-2.945116e+04 +/- 0.000000e+00) [K]
    Coulombic Fourier/kʙ   -7.306607e+03 (-7.394207e+03 +/- 0.000000e+00) [K]
    Molecule Intra/kʙ       0.000000e+00 ( 0.000000e+00 +/- 0.000000e+00) [K]

Current cycle: 200 out of 5000
===============================================================================

Box:      18.89273   0.00000   0.00000  Average:  18.91474   0.00000   0.00000
           0.00000  18.89273   0.00000             0.00000  18.91474   0.00000
           0.00000   0.00000  18.89273             0.00000   0.00000  18.91474
Lengths:  18.89273  18.89273  18.89273  Average:  18.91474  18.91474  18.91474
Angles:   90.00000  90.00000  90.00000  Average:  90.00000  90.00000  90.00000
Rectangular boundary conditions

net charge:   0.00000000

component 0 (CO2) lambda:  0 occupancy:  1 (1.000000)
    net charge:   0.00000000 [e]

Amount of molecules per component :
-------------------------------------------------------------------------------
Component 0 (CO2)
    molecules:      1.000000e+02 molecules  (1.000000e+02 +/- 0.000000e+00)
    number density: 1.482913e-02 molec./A^3 (1.478275e-02 +/- 0.000000e+00)
    density:        1.083441e+03 kg/m^3     (1.080053e+03 +/- 0.000000e+00)

Average pressure tensor: 
-------------------------------------------------------------------------------
 2.0797e+02 -1.5439e+01 -6.8623e+01 +/- 0.0000e+00 0.0000e+00 0.0000e+00 [bar]
-1.5439e+01  3.3570e+02  2.0146e+02 +/- 0.0000e+00 0.0000e+00 0.0000e+00 [bar]
-6.8623e+01  2.0146e+02  1.2629e+02 +/- 0.0000e+00 0.0000e+00 0.0000e+00 [bar]
Ideal-gas pressure:   5.102453e+02 +/ 0.000000e+00 [bar]
Excess pressure:     -2.869246e+02 +/ 0.000000e+00 [bar]
Pressure:             2.233207e+02 +/ 0.000000e+00 [bar]

Total potential energy/kʙ  -1.474153e+05 (-1.535218e+05 +/- 0.000000e+00) [K]
-------------------------------------------------------------------------------
ExternalField-molecule
    Van der Waals/kʙ        0.000000e+00 ( 0.000000e+00 +/- 0.000000e+00) [K]
Framework-molecule
    Van der Waals/kʙ        0.000000e+00 ( 0.000000e+00 +/- 0.000000e+00) [K]
    Van der Waals (Tail)/kʙ 0.000000e+00 ( 0.000000e+00 +/- 0.000000e+00) [K]
    Coulombic Real/kʙ       0.000000e+00 ( 0.000000e+00 +/- 0.000000e+00) [K]
    Coulombic Fourier/kʙ    0.000000e+00 ( 0.000000e+00 +/- 0.000000e+00) [K]
Molecule-molecule
    Van der Waals/kʙ       -1.087694e+05 (-1.106538e+05 +/- 0.000000e+00) [K]
    Van der Waals (Tail)/kʙ-4.757998e+03 (-4.745759e+03 +/- 0.000000e+00) [K]
    Coulombic Real/kʙ      -2.656798e+04 (-3.056384e+04 +/- 0.000000e+00) [K]
    Coulombic Fourier/kʙ   -7.319857e+03 (-7.558390e+03 +/- 0.000000e+00) [K]
    Molecule Intra/kʙ       0.000000e+00 ( 0.000000e+00 +/- 0.000000e+00) [K]

Current cycle: 300 out of 5000
===============================================================================

Box:      18.94051   0.00000   0.00000  Average:  18.91013   0.00000   0.00000
           0.00000  18.94051   0.00000             0.00000  18.91013   0.00000
           0.00000   0.00000  18.94051             0.00000   0.00000  18.91013
Lengths:  18.94051  18.94051  18.94051  Average:  18.91013  18.91013  18.91013
Angles:   90.00000  90.00000  90.00000  Average:  90.00000  90.00000  90.00000
Rectangular boundary conditions

net charge:   0.00000000

component 0 (CO2) lambda:  0 occupancy:  1 (1.000000)
    net charge:   0.00000000 [e]

Amount of molecules per component :
-------------------------------------------------------------------------------
Component 0 (CO2)
    molecules:      1.000000e+02 molecules  (1.000000e+02 +/- 0.000000e+00)
    number density: 1.471720e-02 molec./A^3 (1.479244e-02 +/- 0.000000e+00)
    density:        1.075264e+03 kg/m^3     (1.080761e+03 +/- 0.000000e+00)

Average pressure tensor: 
-------------------------------------------------------------------------------
 1.8949e+02 -9.5038e+01 -2.0089e+01 +/- 0.0000e+00 0.0000e+00 0.0000e+00 [bar]
-9.5038e+01  2.7877e+02  1.5018e+02 +/- 0.0000e+00 0.0000e+00 0.0000e+00 [bar]
-2.0089e+01  1.5018e+02  4.5221e+01 +/- 0.0000e+00 0.0000e+00 0.0000e+00 [bar]
Ideal-gas pressure:   5.105796e+02 +/ 0.000000e+00 [bar]
Excess pressure:     -3.394206e+02 +/ 0.000000e+00 [bar]
Pressure:             1.711591e+02 +/ 0.000000e+00 [bar]

Total potential energy/kʙ  -1.561436e+05 (-1.544702e+05 +/- 0.000000e+00) [K]
-------------------------------------------------------------------------------
ExternalField-molecule
    Van der Waals/kʙ        0.000000e+00 ( 0.000000e+00 +/- 0.000000e+00) [K]
Framework-molecule
    Van der Waals/kʙ        0.000000e+00 ( 0.000000e+00 +/- 0.000000e+00) [K]
    Van der Waals (Tail)/kʙ 0.000000e+00 ( 0.000000e+00 +/- 0.000000e+00) [K]
    Coulombic Real/kʙ       0.000000e+00 ( 0.000000e+00 +/- 0.000000e+00) [K]
    Coulombic Fourier/kʙ    0.000000e+00 ( 0.000000e+00 +/- 0.000000e+00) [K]
Molecule-molecule
    Van der Waals/kʙ       -1.059318e+05 (-1.110007e+05 +/- 0.000000e+00) [K]
    Van der Waals (Tail)/kʙ-4.722085e+03 (-4.748711e+03 +/- 0.000000e+00) [K]
    Coulombic Real/kʙ      -3.764036e+04 (-3.091262e+04 +/- 0.000000e+00) [K]
    Coulombic Fourier/kʙ   -7.849384e+03 (-7.808133e+03 +/- 0.000000e+00) [K]
    Molecule Intra/kʙ       0.000000e+00 ( 0.000000e+00 +/- 0.000000e+00) [K]

Current cycle: 400 out of 5000
===============================================================================

Box:      19.00691   0.00000   0.00000  Average:  18.92064   0.00000   0.00000
           0.00000  19.00691   0.00000             0.00000  18.92064   0.00000
           0.00000   0.00000  19.00691             0.00000   0.00000  18.92064
Lengths:  19.00691  19.00691  19.00691  Average:  18.92064  18.92064  18.92064
Angles:   90.00000  90.00000  90.00000  Average:  90.00000  90.00000  90.00000
Rectangular boundary conditions

net charge:   0.00000000

component 0 (CO2) lambda:  0 occupancy:  1 (1.000000)
    net charge:   0.00000000 [e]

Amount of molecules per component :
-------------------------------------------------------------------------------
Component 0 (CO2)
    molecules:      1.000000e+02 molecules  (1.000000e+02 +/- 0.000000e+00)
    number density: 1.456349e-02 molec./A^3 (1.476773e-02 +/- 0.000000e+00)
    density:        1.064033e+03 kg/m^3     (1.078955e+03 +/- 0.000000e+00)

Average pressure tensor: 
-------------------------------------------------------------------------------
 1.8061e+02 -1.0349e+02 -8.7853e+01 +/- 0.0000e+00 0.0000e+00 0.0000e+00 [bar]
-1.0349e+02  2.0697e+02  1.6372e+02 +/- 0.0000e+00 0.0000e+00 0.0000e+00 [bar]
-8.7853e+01  1.6372e+02  1.2891e+01 +/- 0.0000e+00 0.0000e+00 0.0000e+00 [bar]
Ideal-gas pressure:   5.097267e+02 +/ 0.000000e+00 [bar]
Excess pressure:     -3.762366e+02 +/ 0.000000e+00 [bar]
Pressure:             1.334900e+02 +/ 0.000000e+00 [bar]

Total potential energy/kʙ  -1.525102e+05 (-1.553402e+05 +/- 0.000000e+00) [K]
-------------------------------------------------------------------------------
ExternalField-molecule
    Van der Waals/kʙ        0.000000e+00 ( 0.000000e+00 +/- 0.000000e+00) [K]
Framework-molecule
    Van der Waals/kʙ        0.000000e+00 ( 0.000000e+00 +/- 0.000000e+00) [K]
    Van der Waals (Tail)/kʙ 0.000000e+00 ( 0.000000e+00 +/- 0.000000e+00) [K]
    Coulombic Real/kʙ       0.000000e+00 ( 0.000000e+00 +/- 0.000000e+00) [K]
    Coulombic Fourier/kʙ    0.000000e+00 ( 0.000000e+00 +/- 0.000000e+00) [K]
Molecule-molecule
    Van der Waals/kʙ       -1.036337e+05 (-1.106783e+05 +/- 0.000000e+00) [K]
    Van der Waals (Tail)/kʙ-4.672767e+03 (-4.738571e+03 +/- 0.000000e+00) [K]
    Coulombic Real/kʙ      -3.578304e+04 (-3.197168e+04 +/- 0.000000e+00) [K]
    Coulombic Fourier/kʙ   -8.420621e+03 (-7.951654e+03 +/- 0.000000e+00) [K]
    Molecule Intra/kʙ       0.000000e+00 ( 0.000000e+00 +/- 0.000000e+00) [K]

Current cycle: 500 out of 5000
===============================================================================

Box:      18.94295   0.00000   0.00000  Average:  18.92863   0.00000   0.00000
           0.00000  18.94295   0.00000             0.00000  18.92863   0.00000
           0.00000   0.00000  18.94295             0.00000   0.00000  18.92863
Lengths:  18.94295  18.94295  18.94295  Average:  18.92863  18.92863  18.92863
Angles:   90.00000  90.00000  90.00000  Average:  90.00000  90.00000  90.00000
Rectangular boundary conditions

net charge:   0.00000000

component 0 (CO2) lambda:  0 occupancy:  1 (1.000000)
    net charge:   0.00000000 [e]

Amount of molecules per component :
-------------------------------------------------------------------------------
Component 0 (CO2)
    molecules:      1.000000e+02 molecules  (1.000000e+02 +/- 0.000000e+00)
    number density: 1.471151e-02 molec./A^3 (1.474864e-02 +/- 0.000000e+00)
    density:        1.074848e+03 kg/m^3     (1.077561e+03 +/- 0.000000e+00)

Average pressure tensor: 
-------------------------------------------------------------------------------
 1.1934e+02 -1.2787e+02 -2.7452e+01 +/- 0.0000e+00 0.0000e+00 0.0000e+00 [bar]
-1.2787e+02  2.5141e+02  1.3188e+02 +/- 0.0000e+00 0.0000e+00 0.0000e+00 [bar]
-2.7452e+01  1.3188e+02 -1.8640e-01 +/- 0.0000e+00 0.0000e+00 0.0000e+00 [bar]
Ideal-gas pressure:   5.090679e+02 +/ 0.000000e+00 [bar]
Excess pressure:     -3.855485e+02 +/ 0.000000e+00 [bar]
Pressure:             1.235194e+02 +/ 0.000000e+00 [bar]

Total potential energy/kʙ  -1.556764e+05 (-1.553819e+05 +/- 0.000000e+00) [K]
-------------------------------------------------------------------------------
ExternalField-molecule
    Van der Waals/kʙ        0.000000e+00 ( 0.000000e+00 +/- 0.000000e+00) [K]
Framework-molecule
    Van der Waals/kʙ        0.000000e+00 ( 0.000000e+00 +/- 0.000000e+00) [K]
    Van der Waals (Tail)/kʙ 0.000000e+00 ( 0.000000e+00 +/- 0.000000e+00) [K]
    Coulombic Real/kʙ       0.000000e+00 ( 0.000000e+00 +/- 0.000000e+00) [K]
    Coulombic Fourier/kʙ    0.000000e+00 ( 0.000000e+00 +/- 0.000000e+00) [K]
Molecule-molecule
    Van der Waals/kʙ       -1.107546e+05 (-1.107128e+05 +/- 0.000000e+00) [K]
    Van der Waals (Tail)/kʙ-4.720259e+03 (-4.732452e+03 +/- 0.000000e+00) [K]
    Coulombic Real/kʙ      -3.274217e+04 (-3.200216e+04 +/- 0.000000e+00) [K]
    Coulombic Fourier/kʙ   -7.459324e+03 (-7.934512e+03 +/- 0.000000e+00) [K]
    Molecule Intra/kʙ       0.000000e+00 ( 0.000000e+00 +/- 0.000000e+00) [K]

Current cycle: 600 out of 5000
===============================================================================

Box:      18.71174   0.00000   0.00000  Average:  18.89874   0.00000   0.00000
           0.00000  18.71174   0.00000             0.00000  18.89874   0.00000
           0.00000   0.00000  18.71174             0.00000   0.00000  18.89874
Lengths:  18.71174  18.71174  18.71174  Average:  18.89874  18.89874  18.89874
Angles:   90.00000  90.00000  90.00000  Average:  90.00000  90.00000  90.00000
Rectangular boundary conditions

net charge:   0.00000000

component 0 (CO2) lambda:  0 occupancy:  1 (1.000000)
    net charge:   0.00000000 [e]

Amount of molecules per component :
-------------------------------------------------------------------------------
Component 0 (CO2)
    molecules:      1.000000e+02 molecules  (1.000000e+02 +/- 0.000000e+00)
    number density: 1.526361e-02 molec./A^3 (1.481972e-02 +/- 0.000000e+00)
    density:        1.115186e+03 kg/m^3     (1.082754e+03 +/- 0.000000e+00)

Average pressure tensor: 
-------------------------------------------------------------------------------
 7.2224e+01 -1.0275e+02 -9.9856e+00 +/- 0.0000e+00 0.0000e+00 0.0000e+00 [bar]
-1.0275e+02  2.8972e+02  1.1122e+02 +/- 0.0000e+00 0.0000e+00 0.0000e+00 [bar]
-9.9856e+00  1.1122e+02  1.5406e+01 +/- 0.0000e+00 0.0000e+00 0.0000e+00 [bar]
Ideal-gas pressure:   5.115214e+02 +/ 0.000000e+00 [bar]
Excess pressure:     -3.857395e+02 +/ 0.000000e+00 [bar]
Pressure:             1.257819e+02 +/ 0.000000e+00 [bar]

Total potential energy/kʙ  -1.607275e+05 (-1.565101e+05 +/- 0.000000e+00) [K]
-------------------------------------------------------------------------------
ExternalField-molecule
    Van der Waals/kʙ        0.000000e+00 ( 0.000000e+00 +/- 0.000000e+00) [K]
Framework-molecule
    Van der Waals/kʙ        0.000000e+00 ( 0.000000e+00 +/- 0.000000e+00) [K]
    Van der Waals (Tail)/kʙ 0.000000e+00 ( 0.000000e+00 +/- 0.000000e+00) [K]
    Coulombic Real/kʙ       0.000000e+00 ( 0.000000e+00 +/- 0.000000e+00) [K]
    Coulombic Fourier/kʙ    0.000000e+00 ( 0.000000e+00 +/- 0.000000e+00) [K]
Molecule-molecule
    Van der Waals/kʙ       -1.132387e+05 (-1.113787e+05 +/- 0.000000e+00) [K]
    Van der Waals (Tail)/kʙ-4.897405e+03 (-4.754791e+03 +/- 0.000000e+00) [K]
    Coulombic Real/kʙ      -3.487423e+04 (-3.239100e+04 +/- 0.000000e+00) [K]
    Coulombic Fourier/kʙ   -7.717142e+03 (-7.985610e+03 +/- 0.000000e+00) [K]
    Molecule Intra/kʙ       0.000000e+00 ( 0.000000e+00 +/- 0.000000e+00) [K]

Current cycle: 700 out of 5000
===============================================================================

Box:      19.16975   0.00000   0.00000  Average:  18.90305   0.00000   0.00000
           0.00000  19.16975   0.00000             0.00000  18.90305   0.00000
           0.00000   0.00000  19.16975             0.00000   0.00000  18.90305
Lengths:  19.16975  19.16975  19.16975  Average:  18.90305  18.90305  18.90305
Angles:   90.00000  90.00000  90.00000  Average:  90.00000  90.00000  90.00000
Rectangular boundary conditions

net charge:   0.00000000

component 0 (CO2) lambda:  0 occupancy:  1 (1.000000)
    net charge:   0.00000000 [e]

Amount of molecules per component :
-------------------------------------------------------------------------------
Component 0 (CO2)
    molecules:      1.000000e+02 molecules  (1.000000e+02 +/- 0.000000e+00)
    number density: 1.419549e-02 molec./A^3 (1.480942e-02 +/- 0.000000e+00)
    density:        1.037147e+03 kg/m^3     (1.082002e+03 +/- 0.000000e+00)

Average pressure tensor: 
-------------------------------------------------------------------------------
 1.1964e+02 -9.4411e+01  1.3205e+01 +/- 0.0000e+00 0.0000e+00 0.0000e+00 [bar]
-9.4411e+01  2.5456e+02  9.2438e+01 +/- 0.0000e+00 0.0000e+00 0.0000e+00 [bar]
 1.3205e+01  9.2438e+01  6.0336e+01 +/- 0.0000e+00 0.0000e+00 0.0000e+00 [bar]
Ideal-gas pressure:   5.111658e+02 +/ 0.000000e+00 [bar]
Excess pressure:     -3.663206e+02 +/ 0.000000e+00 [bar]
Pressure:             1.448452e+02 +/ 0.000000e+00 [bar]

Total potential energy/kʙ  -1.465833e+05 (-1.560534e+05 +/- 0.000000e+00) [K]
-------------------------------------------------------------------------------
ExternalField-molecule
    Van der Waals/kʙ        0.000000e+00 ( 0.000000e+00 +/- 0.000000e+00) [K]
Framework-molecule
    Van der Waals/kʙ        0.000000e+00 ( 0.000000e+00 +/- 0.000000e+00) [K]
    Van der Waals (Tail)/kʙ 0.000000e+00 ( 0.000000e+00 +/- 0.000000e+00) [K]
    Coulombic Real/kʙ       0.000000e+00 ( 0.000000e+00 +/- 0.000000e+00) [K]
    Coulombic Fourier/kʙ    0.000000e+00 ( 0.000000e+00 +/- 0.000000e+00) [K]
Molecule-molecule
    Van der Waals/kʙ       -1.091006e+05 (-1.111871e+05 +/- 0.000000e+00) [K]
    Van der Waals (Tail)/kʙ-4.554692e+03 (-4.749128e+03 +/- 0.000000e+00) [K]
    Coulombic Real/kʙ      -2.585775e+04 (-3.217333e+04 +/- 0.000000e+00) [K]
    Coulombic Fourier/kʙ   -7.070339e+03 (-7.943844e+03 +/- 0.000000e+00) [K]
    Molecule Intra/kʙ       0.000000e+00 ( 0.000000e+00 +/- 0.000000e+00) [K]

Current cycle: 800 out of 5000
===============================================================================

Box:      19.23343   0.00000   0.00000  Average:  18.93117   0.00000   0.00000
           0.00000  19.23343   0.00000             0.00000  18.93117   0.00000
           0.00000   0.00000  19.23343             0.00000   0.00000  18.93117
Lengths:  19.23343  19.23343  19.23343  Average:  18.93117  18.93117  18.93117
Angles:   90.00000  90.00000  90.00000  Average:  90.00000  90.00000  90.00000
Rectangular boundary conditions

net charge:   0.00000000

component 0 (CO2) lambda:  0 occupancy:  1 (1.000000)
    net charge:   0.00000000 [e]

Amount of molecules per component :
-------------------------------------------------------------------------------
Component 0 (CO2)
    molecules:      1.000000e+02 molecules  (1.000000e+02 +/- 0.000000e+00)
    number density: 1.405497e-02 molec./A^3 (1.474473e-02 +/- 0.000000e+00)
    density:        1.026880e+03 kg/m^3     (1.077276e+03 +/- 0.000000e+00)

Average pressure tensor: 
-------------------------------------------------------------------------------
 1.7736e+02 -9.7812e+01  9.4231e+00 +/- 0.0000e+00 0.0000e+00 0.0000e+00 [bar]
-9.7812e+01  2.3057e+02  9.9323e+01 +/- 0.0000e+00 0.0000e+00 0.0000e+00 [bar]
 9.4231e+00  9.9323e+01  9.4362e+01 +/- 0.0000e+00 0.0000e+00 0.0000e+00 [bar]
Ideal-gas pressure:   5.089330e+02 +/ 0.000000e+00 [bar]
Excess pressure:     -3.415037e+02 +/ 0.000000e+00 [bar]
Pressure:             1.674293e+02 +/ 0.000000e+00 [bar]

Total potential energy/kʙ  -1.430272e+05 (-1.545409e+05 +/- 0.000000e+00) [K]
-------------------------------------------------------------------------------
ExternalField-molecule
    Van der Waals/kʙ        0.000000e+00 ( 0.000000e+00 +/- 0.000000e+00) [K]
Framework-molecule
    Van der Waals/kʙ        0.000000e+00 ( 0.000000e+00 +/- 0.000000e+00) [K]
    Van der Waals (Tail)/kʙ 0.000000e+00 ( 0.000000e+00 +/- 0.000000e+00) [K]
    Coulombic Real/kʙ       0.000000e+00 ( 0.000000e+00 +/- 0.000000e+00) [K]
    Coulombic Fourier/kʙ    0.000000e+00 ( 0.000000e+00 +/- 0.000000e+00) [K]
Molecule-molecule
    Van der Waals/kʙ       -1.061037e+05 (-1.103730e+05 +/- 0.000000e+00) [K]
    Van der Waals (Tail)/kʙ-4.509607e+03 (-4.728020e+03 +/- 0.000000e+00) [K]
    Coulombic Real/kʙ      -2.628301e+04 (-3.158401e+04 +/- 0.000000e+00) [K]
    Coulombic Fourier/kʙ   -6.130885e+03 (-7.855889e+03 +/- 0.000000e+00) [K]
    Molecule Intra/kʙ       0.000000e+00 ( 0.000000e+00 +/- 0.000000e+00) [K]

Current cycle: 900 out of 5000
===============================================================================

Box:      19.27421   0.00000   0.00000  Average:  18.96444   0.00000   0.00000
           0.00000  19.27421   0.00000             0.00000  18.96444   0.00000
           0.00000   0.00000  19.27421             0.00000   0.00000  18.96444
Lengths:  19.27421  19.27421  19.27421  Average:  18.96444  18.96444  18.96444
Angles:   90.00000  90.00000  90.00000  Average:  90.00000  90.00000  90.00000
Rectangular boundary conditions

net charge:   0.00000000

component 0 (CO2) lambda:  0 occupancy:  1 (1.000000)
    net charge:   0.00000000 [e]

Amount of molecules per component :
-------------------------------------------------------------------------------
Component 0 (CO2)
    molecules:      1.000000e+02 molecules  (1.000000e+02 +/- 0.000000e+00)
    number density: 1.396594e-02 molec./A^3 (1.466898e-02 +/- 0.000000e+00)
    density:        1.020375e+03 kg/m^3     (1.071741e+03 +/- 0.000000e+00)

Average pressure tensor: 
-------------------------------------------------------------------------------
 1.7925e+02 -9.2346e+01  1.3382e+01 +/- 0.0000e+00 0.0000e+00 0.0000e+00 [bar]
-9.2346e+01  2.0409e+02  9.7767e+01 +/- 0.0000e+00 0.0000e+00 0.0000e+00 [bar]
 1.3382e+01  9.7767e+01  1.0641e+02 +/- 0.0000e+00 0.0000e+00 0.0000e+00 [bar]
Ideal-gas pressure:   5.063183e+02 +/ 0.000000e+00 [bar]
Excess pressure:     -3.430687e+02 +/ 0.000000e+00 [bar]
Pressure:             1.632496e+02 +/ 0.000000e+00 [bar]

Total potential energy/kʙ  -1.471847e+05 (-1.535693e+05 +/- 0.000000e+00) [K]
-------------------------------------------------------------------------------
ExternalField-molecule
    Van der Waals/kʙ        0.000000e+00 ( 0.000000e+00 +/- 0.000000e+00) [K]
Framework-molecule
    Van der Waals/kʙ        0.000000e+00 ( 0.000000e+00 +/- 0.000000e+00) [K]
    Van der Waals (Tail)/kʙ 0.000000e+00 ( 0.000000e+00 +/- 0.000000e+00) [K]
    Coulombic Real/kʙ       0.000000e+00 ( 0.000000e+00 +/- 0.000000e+00) [K]
    Coulombic Fourier/kʙ    0.000000e+00 ( 0.000000e+00 +/- 0.000000e+00) [K]
Molecule-molecule
    Van der Waals/kʙ       -1.004820e+05 (-1.096595e+05 +/- 0.000000e+00) [K]
    Van der Waals (Tail)/kʙ-4.481040e+03 (-4.707712e+03 +/- 0.000000e+00) [K]
    Coulombic Real/kʙ      -3.397879e+04 (-3.141911e+04 +/- 0.000000e+00) [K]
    Coulombic Fourier/kʙ   -8.242902e+03 (-7.783023e+03 +/- 0.000000e+00) [K]
    Molecule Intra/kʙ       0.000000e+00 ( 0.000000e+00 +/- 0.000000e+00) [K]

Current cycle: 1000 out of 5000
===============================================================================

Box:      19.22498   0.00000   0.00000  Average:  18.98841   0.00000   0.00000
           0.00000  19.22498   0.00000             0.00000  18.98841   0.00000
           0.00000   0.00000  19.22498             0.00000   0.00000  18.98841
Lengths:  19.22498  19.22498  19.22498  Average:  18.98841  18.98841  18.98841
Angles:   90.00000  90.00000  90.00000  Average:  90.00000  90.00000  90.00000
Rectangular boundary conditions

net charge:   0.00000000

component 0 (CO2) lambda:  0 occupancy:  1 (1.000000)
    net charge:   0.00000000 [e]

Amount of molecules per component :
-------------------------------------------------------------------------------
Component 0 (CO2)
    molecules:      1.000000e+02 molecules  (1.000000e+02 +/- 0.000000e+00)
    number density: 1.407351e-02 molec./A^3 (1.461415e-02 +/- 0.000000e+00)
    density:        1.028235e+03 kg/m^3     (1.067735e+03 +/- 0.000000e+00)

Average pressure tensor: 
-------------------------------------------------------------------------------
 1.4100e+02 -8.2381e+01  1.2886e+01 +/- 0.0000e+00 0.0000e+00 0.0000e+00 [bar]
-8.2381e+01  1.7019e+02  1.1066e+02 +/- 0.0000e+00 0.0000e+00 0.0000e+00 [bar]
 1.2886e+01  1.1066e+02  1.0551e+02 +/- 0.0000e+00 0.0000e+00 0.0000e+00 [bar]
Ideal-gas pressure:   5.044257e+02 +/ 0.000000e+00 [bar]
Excess pressure:     -3.655253e+02 +/ 0.000000e+00 [bar]
Pressure:             1.389004e+02 +/ 0.000000e+00 [bar]

Total potential energy/kʙ  -1.471218e+05 (-1.528187e+05 +/- 0.000000e+00) [K]
-------------------------------------------------------------------------------
ExternalField-molecule
    Van der Waals/kʙ        0.000000e+00 ( 0.000000e+00 +/- 0.000000e+00) [K]
Framework-molecule
    Van der Waals/kʙ        0.000000e+00 ( 0.000000e+00 +/- 0.000000e+00) [K]
    Van der Waals (Tail)/kʙ 0.000000e+00 ( 0.000000e+00 +/- 0.000000e+00) [K]
    Coulombic Real/kʙ       0.000000e+00 ( 0.000000e+00 +/- 0.000000e+00) [K]
    Coulombic Fourier/kʙ    0.000000e+00 ( 0.000000e+00 +/- 0.000000e+00) [K]
Molecule-molecule
    Van der Waals/kʙ       -1.057445e+05 (-1.092377e+05 +/- 0.000000e+00) [K]
    Van der Waals (Tail)/kʙ-4.515556e+03 (-4.689221e+03 +/- 0.000000e+00) [K]
    Coulombic Real/kʙ      -2.917825e+04 (-3.110724e+04 +/- 0.000000e+00) [K]
    Coulombic Fourier/kʙ   -7.683473e+03 (-7.784563e+03 +/- 0.000000e+00) [K]
    Molecule Intra/kʙ       0.000000e+00 ( 0.000000e+00 +/- 0.000000e+00) [K]

Current cycle: 1100 out of 5000
===============================================================================

Box:      19.47532   0.00000   0.00000  Average:  19.02010   0.00000   0.00000
           0.00000  19.47532   0.00000             0.00000  19.02010   0.00000
           0.00000   0.00000  19.47532             0.00000   0.00000  19.02010
Lengths:  19.47532  19.47532  19.47532  Average:  19.02010  19.02010  19.02010
Angles:   90.00000  90.00000  90.00000  Average:  90.00000  90.00000  90.00000
Rectangular boundary conditions

net charge:   0.00000000

component 0 (CO2) lambda:  0 occupancy:  1 (1.000000)
    net charge:   0.00000000 [e]

Amount of molecules per component :
-------------------------------------------------------------------------------
Component 0 (CO2)
    molecules:      1.000000e+02 molecules  (1.000000e+02 +/- 0.000000e+00)
    number density: 1.353774e-02 molec./A^3 (1.454311e-02 +/- 0.000000e+00)
    density:        9.890904e+02 kg/m^3     (1.062544e+03 +/- 0.000000e+00)

Average pressure tensor: 
-------------------------------------------------------------------------------
 1.1291e+02 -7.1975e+01  2.5598e+01 +/- 0.0000e+00 0.0000e+00 0.0000e+00 [bar]
-7.1975e+01  1.7376e+02  1.2411e+02 +/- 0.0000e+00 0.0000e+00 0.0000e+00 [bar]
 2.5598e+01  1.2411e+02  9.3170e+01 +/- 0.0000e+00 0.0000e+00 0.0000e+00 [bar]
Ideal-gas pressure:   5.019736e+02 +/ 0.000000e+00 [bar]
Excess pressure:     -3.753580e+02 +/ 0.000000e+00 [bar]
Pressure:             1.266156e+02 +/ 0.000000e+00 [bar]

Total potential energy/kʙ  -1.374929e+05 (-1.520519e+05 +/- 0.000000e+00) [K]
-------------------------------------------------------------------------------
ExternalField-molecule
    Van der Waals/kʙ        0.000000e+00 ( 0.000000e+00 +/- 0.000000e+00) [K]
Framework-molecule
    Van der Waals/kʙ        0.000000e+00 ( 0.000000e+00 +/- 0.000000e+00) [K]
    Van der Waals (Tail)/kʙ 0.000000e+00 ( 0.000000e+00 +/- 0.000000e+00) [K]
    Coulombic Real/kʙ       0.000000e+00 ( 0.000000e+00 +/- 0.000000e+00) [K]
    Coulombic Fourier/kʙ    0.000000e+00 ( 0.000000e+00 +/- 0.000000e+00) [K]
Molecule-molecule
    Van der Waals/kʙ       -9.855282e+04 (-1.086050e+05 +/- 0.000000e+00) [K]
    Van der Waals (Tail)/kʙ-4.343650e+03 (-4.665676e+03 +/- 0.000000e+00) [K]
    Coulombic Real/kʙ      -2.794886e+04 (-3.104117e+04 +/- 0.000000e+00) [K]
    Coulombic Fourier/kʙ   -6.647542e+03 (-7.740070e+03 +/- 0.000000e+00) [K]
    Molecule Intra/kʙ       0.000000e+00 ( 0.000000e+00 +/- 0.000000e+00) [K]

Current cycle: 1200 out of 5000
===============================================================================

Box:      19.38996   0.00000   0.00000  Average:  19.05788   0.00000   0.00000
           0.00000  19.38996   0.00000             0.00000  19.05788   0.00000
           0.00000   0.00000  19.38996             0.00000   0.00000  19.05788
Lengths:  19.38996  19.38996  19.38996  Average:  19.05788  19.05788  19.05788
Angles:   90.00000  90.00000  90.00000  Average:  90.00000  90.00000  90.00000
Rectangular boundary conditions

net charge:   0.00000000

component 0 (CO2) lambda:  0 occupancy:  1 (1.000000)
    net charge:   0.00000000 [e]

Amount of molecules per component :
-------------------------------------------------------------------------------
Component 0 (CO2)
    molecules:      1.000000e+02 molecules  (1.000000e+02 +/- 0.000000e+00)
    number density: 1.371731e-02 molec./A^3 (1.445975e-02 +/- 0.000000e+00)
    density:        1.002210e+03 kg/m^3     (1.056454e+03 +/- 0.000000e+00)

Average pressure tensor: 
-------------------------------------------------------------------------------
 9.6140e+01 -5.6598e+01  1.5434e+01 +/- 0.0000e+00 0.0000e+00 0.0000e+00 [bar]
-5.6598e+01  1.7684e+02  1.2797e+02 +/- 0.0000e+00 0.0000e+00 0.0000e+00 [bar]
 1.5434e+01  1.2797e+02  8.5661e+01 +/- 0.0000e+00 0.0000e+00 0.0000e+00 [bar]
Ideal-gas pressure:   4.990966e+02 +/ 0.000000e+00 [bar]
Excess pressure:     -3.795505e+02 +/ 0.000000e+00 [bar]
Pressure:             1.195462e+02 +/ 0.000000e+00 [bar]

Total potential energy/kʙ  -1.377634e+05 (-1.509929e+05 +/- 0.000000e+00) [K]
-------------------------------------------------------------------------------
ExternalField-molecule
    Van der Waals/kʙ        0.000000e+00 ( 0.000000e+00 +/- 0.000000e+00) [K]
Framework-molecule
    Van der Waals/kʙ        0.000000e+00 ( 0.000000e+00 +/- 0.000000e+00) [K]
    Van der Waals (Tail)/kʙ 0.000000e+00 ( 0.000000e+00 +/- 0.000000e+00) [K]
    Coulombic Real/kʙ       0.000000e+00 ( 0.000000e+00 +/- 0.000000e+00) [K]
    Coulombic Fourier/kʙ    0.000000e+00 ( 0.000000e+00 +/- 0.000000e+00) [K]
Molecule-molecule
    Van der Waals/kʙ       -1.001694e+05 (-1.080417e+05 +/- 0.000000e+00) [K]
    Van der Waals (Tail)/kʙ-4.401266e+03 (-4.639483e+03 +/- 0.000000e+00) [K]
    Coulombic Real/kʙ      -2.598961e+04 (-3.065311e+04 +/- 0.000000e+00) [K]
    Coulombic Fourier/kʙ   -7.203153e+03 (-7.658573e+03 +/- 0.000000e+00) [K]
    Molecule Intra/kʙ       0.000000e+00 ( 0.000000e+00 +/- 0.000000e+00) [K]

Current cycle: 1300 out of 5000
===============================================================================

Box:      18.95704   0.00000   0.00000  Average:  19.05759   0.00000   0.00000
           0.00000  18.95704   0.00000             0.00000  19.05759   0.00000
           0.00000   0.00000  18.95704             0.00000   0.00000  19.05759
Lengths:  18.95704  18.95704  18.95704  Average:  19.05759  19.05759  19.05759
Angles:   90.00000  90.00000  90.00000  Average:  90.00000  90.00000  90.00000
Rectangular boundary conditions

net charge:   0.00000000

component 0 (CO2) lambda:  0 occupancy:  1 (1.000000)
    net charge:   0.00000000 [e]

Amount of molecules per component :
-------------------------------------------------------------------------------
Component 0 (CO2)
    molecules:      1.000000e+02 molecules  (1.000000e+02 +/- 0.000000e+00)
    number density: 1.467872e-02 molec./A^3 (1.445976e-02 +/- 0.000000e+00)
    density:        1.072453e+03 kg/m^3     (1.056455e+03 +/- 0.000000e+00)

Average pressure tensor: 
-------------------------------------------------------------------------------
 1.2085e+02 -4.3287e+01  1.5323e+01 +/- 0.0000e+00 0.0000e+00 0.0000e+00 [bar]
-4.3287e+01  1.7015e+02  1.1789e+02 +/- 0.0000e+00 0.0000e+00 0.0000e+00 [bar]
 1.5323e+01  1.1789e+02  1.0645e+02 +/- 0.0000e+00 0.0000e+00 0.0000e+00 [bar]
Ideal-gas pressure:   4.990969e+02 +/ 0.000000e+00 [bar]
Excess pressure:     -3.666128e+02 +/ 0.000000e+00 [bar]
Pressure:             1.324841e+02 +/ 0.000000e+00 [bar]

Total potential energy/kʙ  -1.516642e+05 (-1.508049e+05 +/- 0.000000e+00) [K]
-------------------------------------------------------------------------------
ExternalField-molecule
    Van der Waals/kʙ        0.000000e+00 ( 0.000000e+00 +/- 0.000000e+00) [K]
Framework-molecule
    Van der Waals/kʙ        0.000000e+00 ( 0.000000e+00 +/- 0.000000e+00) [K]
    Van der Waals (Tail)/kʙ 0.000000e+00 ( 0.000000e+00 +/- 0.000000e+00) [K]
    Coulombic Real/kʙ       0.000000e+00 ( 0.000000e+00 +/- 0.000000e+00) [K]
    Coulombic Fourier/kʙ    0.000000e+00 ( 0.000000e+00 +/- 0.000000e+00) [K]
Molecule-molecule
    Van der Waals/kʙ       -1.082830e+05 (-1.080389e+05 +/- 0.000000e+00) [K]
    Van der Waals (Tail)/kʙ-4.709740e+03 (-4.640468e+03 +/- 0.000000e+00) [K]
    Coulombic Real/kʙ      -3.123782e+04 (-3.049727e+04 +/- 0.000000e+00) [K]
    Coulombic Fourier/kʙ   -7.433603e+03 (-7.628269e+03 +/- 0.000000e+00) [K]
    Molecule Intra/kʙ       0.000000e+00 ( 0.000000e+00 +/- 0.000000e+00) [K]

Current cycle: 1400 out of 5000
===============================================================================

Box:      18.96752   0.00000   0.00000  Average:  19.05522   0.00000   0.00000
           0.00000  18.96752   0.00000             0.00000  19.05522   0.00000
           0.00000   0.00000  18.96752             0.00000   0.00000  19.05522
Lengths:  18.96752  18.96752  18.96752  Average:  19.05522  19.05522  19.05522
Angles:   90.00000  90.00000  90.00000  Average:  90.00000  90.00000  90.00000
Rectangular boundary conditions

net charge:   0.00000000

component 0 (CO2) lambda:  0 occupancy:  1 (1.000000)
    net charge:   0.00000000 [e]

Amount of molecules per component :
-------------------------------------------------------------------------------
Component 0 (CO2)
    molecules:      1.000000e+02 molecules  (1.000000e+02 +/- 0.000000e+00)
    number density: 1.465441e-02 molec./A^3 (1.446442e-02 +/- 0.000000e+00)
    density:        1.070676e+03 kg/m^3     (1.056795e+03 +/- 0.000000e+00)

Average pressure tensor: 
-------------------------------------------------------------------------------
 1.3524e+02 -3.6735e+01  4.5438e+01 +/- 0.0000e+00 0.0000e+00 0.0000e+00 [bar]
-3.6735e+01  1.6816e+02  1.0184e+02 +/- 0.0000e+00 0.0000e+00 0.0000e+00 [bar]
 4.5438e+01  1.0184e+02  1.2708e+02 +/- 0.0000e+00 0.0000e+00 0.0000e+00 [bar]
Ideal-gas pressure:   4.992575e+02 +/ 0.000000e+00 [bar]
Excess pressure:     -3.557636e+02 +/ 0.000000e+00 [bar]
Pressure:             1.434939e+02 +/ 0.000000e+00 [bar]

Total potential energy/kʙ  -1.549185e+05 (-1.509129e+05 +/- 0.000000e+00) [K]
-------------------------------------------------------------------------------
ExternalField-molecule
    Van der Waals/kʙ        0.000000e+00 ( 0.000000e+00 +/- 0.000000e+00) [K]
Framework-molecule
    Van der Waals/kʙ        0.000000e+00 ( 0.000000e+00 +/- 0.000000e+00) [K]
    Van der Waals (Tail)/kʙ 0.000000e+00 ( 0.000000e+00 +/- 0.000000e+00) [K]
    Coulombic Real/kʙ       0.000000e+00 ( 0.000000e+00 +/- 0.000000e+00) [K]
    Coulombic Fourier/kʙ    0.000000e+00 ( 0.000000e+00 +/- 0.000000e+00) [K]
Molecule-molecule
    Van der Waals/kʙ       -1.091285e+05 (-1.080764e+05 +/- 0.000000e+00) [K]
    Van der Waals (Tail)/kʙ-4.701938e+03 (-4.642173e+03 +/- 0.000000e+00) [K]
    Coulombic Real/kʙ      -3.358697e+04 (-3.058551e+04 +/- 0.000000e+00) [K]
    Coulombic Fourier/kʙ   -7.501056e+03 (-7.608827e+03 +/- 0.000000e+00) [K]
    Molecule Intra/kʙ       0.000000e+00 ( 0.000000e+00 +/- 0.000000e+00) [K]

Current cycle: 1500 out of 5000
===============================================================================

Box:      18.91636   0.00000   0.00000  Average:  19.04690   0.00000   0.00000
           0.00000  18.91636   0.00000             0.00000  19.04690   0.00000
           0.00000   0.00000  18.91636             0.00000   0.00000  19.04690
Lengths:  18.91636  18.91636  18.91636  Average:  19.04690  19.04690  19.04690
Angles:   90.00000  90.00000  90.00000  Average:  90.00000  90.00000  90.00000
Rectangular boundary conditions

net charge:   0.00000000

component 0 (CO2) lambda:  0 occupancy:  1 (1.000000)
    net charge:   0.00000000 [e]

Amount of molecules per component :
-------------------------------------------------------------------------------
Component 0 (CO2)
    molecules:      1.000000e+02 molecules  (1.000000e+02 +/- 0.000000e+00)
    number density: 1.477362e-02 molec./A^3 (1.448296e-02 +/- 0.000000e+00)
    density:        1.079386e+03 kg/m^3     (1.058150e+03 +/- 0.000000e+00)

Average pressure tensor: 
-------------------------------------------------------------------------------
 1.4086e+02 -2.8680e+01  4.4350e+01 +/- 0.0000e+00 0.0000e+00 0.0000e+00 [bar]
-2.8680e+01  1.7852e+02  9.8113e+01 +/- 0.0000e+00 0.0000e+00 0.0000e+00 [bar]
 4.4350e+01  9.8113e+01  1.5576e+02 +/- 0.0000e+00 0.0000e+00 0.0000e+00 [bar]
Ideal-gas pressure:   4.998975e+02 +/ 0.000000e+00 [bar]
Excess pressure:     -3.415185e+02 +/ 0.000000e+00 [bar]
Pressure:             1.583789e+02 +/ 0.000000e+00 [bar]

Total potential energy/kʙ  -1.576181e+05 (-1.512073e+05 +/- 0.000000e+00) [K]
-------------------------------------------------------------------------------
ExternalField-molecule
    Van der Waals/kʙ        0.000000e+00 ( 0.000000e+00 +/- 0.000000e+00) [K]
Framework-molecule
    Van der Waals/kʙ        0.000000e+00 ( 0.000000e+00 +/- 0.000000e+00) [K]
    Van der Waals (Tail)/kʙ 0.000000e+00 ( 0.000000e+00 +/- 0.000000e+00) [K]
    Coulombic Real/kʙ       0.000000e+00 ( 0.000000e+00 +/- 0.000000e+00) [K]
    Coulombic Fourier/kʙ    0.000000e+00 ( 0.000000e+00 +/- 0.000000e+00) [K]
Molecule-molecule
    Van der Waals/kʙ       -1.107127e+05 (-1.081555e+05 +/- 0.000000e+00) [K]
    Van der Waals (Tail)/kʙ-4.740189e+03 (-4.648151e+03 +/- 0.000000e+00) [K]
    Coulombic Real/kʙ      -3.358149e+04 (-3.076433e+04 +/- 0.000000e+00) [K]
    Coulombic Fourier/kʙ   -8.583745e+03 (-7.639306e+03 +/- 0.000000e+00) [K]
    Molecule Intra/kʙ       0.000000e+00 ( 0.000000e+00 +/- 0.000000e+00) [K]

Current cycle: 1600 out of 5000
===============================================================================

Box:      19.25042   0.00000   0.00000  Average:  19.05664   0.00000   0.00000
           0.00000  19.25042   0.00000             0.00000  19.05664   0.00000
           0.00000   0.00000  19.25042             0.00000   0.00000  19.05664
Lengths:  19.25042  19.25042  19.25042  Average:  19.05664  19.05664  19.05664
Angles:   90.00000  90.00000  90.00000  Average:  90.00000  90.00000  90.00000
Rectangular boundary conditions

net charge:   0.00000000

component 0 (CO2) lambda:  0 occupancy:  1 (1.000000)
    net charge:   0.00000000 [e]

Amount of molecules per component :
-------------------------------------------------------------------------------
Component 0 (CO2)
    molecules:      1.000000e+02 molecules  (1.000000e+02 +/- 0.000000e+00)
    number density: 1.401778e-02 molec./A^3 (1.446058e-02 +/- 0.000000e+00)
    density:        1.024163e+03 kg/m^3     (1.056515e+03 +/- 0.000000e+00)

Average pressure tensor: 
-------------------------------------------------------------------------------
 1.4718e+02 -3.0250e+01  5.3616e+01 +/- 0.0000e+00 0.0000e+00 0.0000e+00 [bar]
-3.0250e+01  1.6379e+02  8.9923e+01 +/- 0.0000e+00 0.0000e+00 0.0000e+00 [bar]
 5.3616e+01  8.9923e+01  1.4783e+02 +/- 0.0000e+00 0.0000e+00 0.0000e+00 [bar]
Ideal-gas pressure:   4.991251e+02 +/ 0.000000e+00 [bar]
Excess pressure:     -3.461931e+02 +/ 0.000000e+00 [bar]
Pressure:             1.529320e+02 +/ 0.000000e+00 [bar]

Total potential energy/kʙ  -1.468392e+05 (-1.508938e+05 +/- 0.000000e+00) [K]
-------------------------------------------------------------------------------
ExternalField-molecule
    Van der Waals/kʙ        0.000000e+00 ( 0.000000e+00 +/- 0.000000e+00) [K]
Framework-molecule
    Van der Waals/kʙ        0.000000e+00 ( 0.000000e+00 +/- 0.000000e+00) [K]
    Van der Waals (Tail)/kʙ 0.000000e+00 ( 0.000000e+00 +/- 0.000000e+00) [K]
    Coulombic Real/kʙ       0.000000e+00 ( 0.000000e+00 +/- 0.000000e+00) [K]
    Coulombic Fourier/kʙ    0.000000e+00 ( 0.000000e+00 +/- 0.000000e+00) [K]
Molecule-molecule
    Van der Waals/kʙ       -1.081400e+05 (-1.080052e+05 +/- 0.000000e+00) [K]
    Van der Waals (Tail)/kʙ-4.497672e+03 (-4.641083e+03 +/- 0.000000e+00) [K]
    Coulombic Real/kʙ      -2.737680e+04 (-3.062824e+04 +/- 0.000000e+00) [K]
    Coulombic Fourier/kʙ   -6.824683e+03 (-7.619286e+03 +/- 0.000000e+00) [K]
    Molecule Intra/kʙ       0.000000e+00 ( 0.000000e+00 +/- 0.000000e+00) [K]

Current cycle: 1700 out of 5000
===============================================================================

Box:      19.42328   0.00000   0.00000  Average:  19.06548   0.00000   0.00000
           0.00000  19.42328   0.00000             0.00000  19.06548   0.00000
           0.00000   0.00000  19.42328             0.00000   0.00000  19.06548
Lengths:  19.42328  19.42328  19.42328  Average:  19.06548  19.06548  19.06548
Angles:   90.00000  90.00000  90.00000  Average:  90.00000  90.00000  90.00000
Rectangular boundary conditions

net charge:   0.00000000

component 0 (CO2) lambda:  0 occupancy:  1 (1.000000)
    net charge:   0.00000000 [e]

Amount of molecules per component :
-------------------------------------------------------------------------------
Component 0 (CO2)
    molecules:      1.000000e+02 molecules  (1.000000e+02 +/- 0.000000e+00)
    number density: 1.364684e-02 molec./A^3 (1.444043e-02 +/- 0.000000e+00)
    density:        9.970613e+02 kg/m^3     (1.055042e+03 +/- 0.000000e+00)

Average pressure tensor: 
-------------------------------------------------------------------------------
 1.3896e+02 -2.1356e+01  5.1423e+01 +/- 0.0000e+00 0.0000e+00 0.0000e+00 [bar]
-2.1356e+01  1.4560e+02  8.6291e+01 +/- 0.0000e+00 0.0000e+00 0.0000e+00 [bar]
 5.1423e+01  8.6291e+01  1.4608e+02 +/- 0.0000e+00 0.0000e+00 0.0000e+00 [bar]
Ideal-gas pressure:   4.984296e+02 +/ 0.000000e+00 [bar]
Excess pressure:     -3.548861e+02 +/ 0.000000e+00 [bar]
Pressure:             1.435435e+02 +/ 0.000000e+00 [bar]

Total potential energy/kʙ  -1.454743e+05 (-1.507168e+05 +/- 0.000000e+00) [K]
-------------------------------------------------------------------------------
ExternalField-molecule
    Van der Waals/kʙ        0.000000e+00 ( 0.000000e+00 +/- 0.000000e+00) [K]
Framework-molecule
    Van der Waals/kʙ        0.000000e+00 ( 0.000000e+00 +/- 0.000000e+00) [K]
    Van der Waals (Tail)/kʙ 0.000000e+00 ( 0.000000e+00 +/- 0.000000e+00) [K]
    Coulombic Real/kʙ       0.000000e+00 ( 0.000000e+00 +/- 0.000000e+00) [K]
    Coulombic Fourier/kʙ    0.000000e+00 ( 0.000000e+00 +/- 0.000000e+00) [K]
Molecule-molecule
    Van der Waals/kʙ       -1.033217e+05 (-1.078525e+05 +/- 0.000000e+00) [K]
    Van der Waals (Tail)/kʙ-4.378655e+03 (-4.633826e+03 +/- 0.000000e+00) [K]
    Coulombic Real/kʙ      -3.015787e+04 (-3.063634e+04 +/- 0.000000e+00) [K]
    Coulombic Fourier/kʙ   -7.616122e+03 (-7.594218e+03 +/- 0.000000e+00) [K]
    Molecule Intra/kʙ       0.000000e+00 ( 0.000000e+00 +/- 0.000000e+00) [K]

Current cycle: 1800 out of 5000
===============================================================================

Box:      19.32712   0.00000   0.00000  Average:  19.08024   0.00000   0.00000
           0.00000  19.32712   0.00000             0.00000  19.08024   0.00000
           0.00000   0.00000  19.32712             0.00000   0.00000  19.08024
Lengths:  19.32712  19.32712  19.32712  Average:  19.08024  19.08024  19.08024
Angles:   90.00000  90.00000  90.00000  Average:  90.00000  90.00000  90.00000
Rectangular boundary conditions

net charge:   0.00000000

component 0 (CO2) lambda:  0 occupancy:  1 (1.000000)
    net charge:   0.00000000 [e]

Amount of molecules per component :
-------------------------------------------------------------------------------
Component 0 (CO2)
    molecules:      1.000000e+02 molecules  (1.000000e+02 +/- 0.000000e+00)
    number density: 1.385155e-02 molec./A^3 (1.440740e-02 +/- 0.000000e+00)
    density:        1.012018e+03 kg/m^3     (1.052629e+03 +/- 0.000000e+00)

Average pressure tensor: 
-------------------------------------------------------------------------------
 1.3441e+02 -3.1091e+01  3.7070e+01 +/- 0.0000e+00 0.0000e+00 0.0000e+00 [bar]
-3.1091e+01  1.3890e+02  7.9486e+01 +/- 0.0000e+00 0.0000e+00 0.0000e+00 [bar]
 3.7070e+01  7.9486e+01  1.3612e+02 +/- 0.0000e+00 0.0000e+00 0.0000e+00 [bar]
Ideal-gas pressure:   4.972896e+02 +/ 0.000000e+00 [bar]
Excess pressure:     -3.608097e+02 +/ 0.000000e+00 [bar]
Pressure:             1.364799e+02 +/ 0.000000e+00 [bar]

Total potential energy/kʙ  -1.439542e+05 (-1.503460e+05 +/- 0.000000e+00) [K]
-------------------------------------------------------------------------------
ExternalField-molecule
    Van der Waals/kʙ        0.000000e+00 ( 0.000000e+00 +/- 0.000000e+00) [K]
Framework-molecule
    Van der Waals/kʙ        0.000000e+00 ( 0.000000e+00 +/- 0.000000e+00) [K]
    Van der Waals (Tail)/kʙ 0.000000e+00 ( 0.000000e+00 +/- 0.000000e+00) [K]
    Coulombic Real/kʙ       0.000000e+00 ( 0.000000e+00 +/- 0.000000e+00) [K]
    Coulombic Fourier/kʙ    0.000000e+00 ( 0.000000e+00 +/- 0.000000e+00) [K]
Molecule-molecule
    Van der Waals/kʙ       -1.028148e+05 (-1.075989e+05 +/- 0.000000e+00) [K]
    Van der Waals (Tail)/kʙ-4.444338e+03 (-4.624654e+03 +/- 0.000000e+00) [K]
    Coulombic Real/kʙ      -2.875075e+04 (-3.053311e+04 +/- 0.000000e+00) [K]
    Coulombic Fourier/kʙ   -7.944352e+03 (-7.589355e+03 +/- 0.000000e+00) [K]
    Molecule Intra/kʙ       0.000000e+00 ( 0.000000e+00 +/- 0.000000e+00) [K]

Current cycle: 1900 out of 5000
===============================================================================

Box:      19.28280   0.00000   0.00000  Average:  19.09088   0.00000   0.00000
           0.00000  19.28280   0.00000             0.00000  19.09088   0.00000
           0.00000   0.00000  19.28280             0.00000   0.00000  19.09088
Lengths:  19.28280  19.28280  19.28280  Average:  19.09088  19.09088  19.09088
Angles:   90.00000  90.00000  90.00000  Average:  90.00000  90.00000  90.00000
Rectangular boundary conditions

net charge:   0.00000000

component 0 (CO2) lambda:  0 occupancy:  1 (1.000000)
    net charge:   0.00000000 [e]

Amount of molecules per component :
-------------------------------------------------------------------------------
Component 0 (CO2)
    molecules:      1.000000e+02 molecules  (1.000000e+02 +/- 0.000000e+00)
    number density: 1.394728e-02 molec./A^3 (1.438337e-02 +/- 0.000000e+00)
    density:        1.019012e+03 kg/m^3     (1.050873e+03 +/- 0.000000e+00)

Average pressure tensor: 
-------------------------------------------------------------------------------
 1.3127e+02 -2.9329e+01  3.9130e+01 +/- 0.0000e+00 0.0000e+00 0.0000e+00 [bar]
-2.9329e+01  1.3838e+02  9.2612e+01 +/- 0.0000e+00 0.0000e+00 0.0000e+00 [bar]
 3.9130e+01  9.2612e+01  1.4219e+02 +/- 0.0000e+00 0.0000e+00 0.0000e+00 [bar]
Ideal-gas pressure:   4.964600e+02 +/ 0.000000e+00 [bar]
Excess pressure:     -3.591836e+02 +/ 0.000000e+00 [bar]
Pressure:             1.372765e+02 +/ 0.000000e+00 [bar]

Total potential energy/kʙ  -1.449550e+05 (-1.499294e+05 +/- 0.000000e+00) [K]
-------------------------------------------------------------------------------
ExternalField-molecule
    Van der Waals/kʙ        0.000000e+00 ( 0.000000e+00 +/- 0.000000e+00) [K]
Framework-molecule
    Van der Waals/kʙ        0.000000e+00 ( 0.000000e+00 +/- 0.000000e+00) [K]
    Van der Waals (Tail)/kʙ 0.000000e+00 ( 0.000000e+00 +/- 0.000000e+00) [K]
    Coulombic Real/kʙ       0.000000e+00 ( 0.000000e+00 +/- 0.000000e+00) [K]
    Coulombic Fourier/kʙ    0.000000e+00 ( 0.000000e+00 +/- 0.000000e+00) [K]
Molecule-molecule
    Van der Waals/kʙ       -1.049350e+05 (-1.074299e+05 +/- 0.000000e+00) [K]
    Van der Waals (Tail)/kʙ-4.475053e+03 (-4.617344e+03 +/- 0.000000e+00) [K]
    Coulombic Real/kʙ      -2.835855e+04 (-3.031912e+04 +/- 0.000000e+00) [K]
    Coulombic Fourier/kʙ   -7.186384e+03 (-7.563053e+03 +/- 0.000000e+00) [K]
    Molecule Intra/kʙ       0.000000e+00 ( 0.000000e+00 +/- 0.000000e+00) [K]

Current cycle: 2000 out of 5000
===============================================================================

Box:      19.23906   0.00000   0.00000  Average:  19.09272   0.00000   0.00000
           0.00000  19.23906   0.00000             0.00000  19.09272   0.00000
           0.00000   0.00000  19.23906             0.00000   0.00000  19.09272
Lengths:  19.23906  19.23906  19.23906  Average:  19.09272  19.09272  19.09272
Angles:   90.00000  90.00000  90.00000  Average:  90.00000  90.00000  90.00000
Rectangular boundary conditions

net charge:   0.00000000

component 0 (CO2) lambda:  0 occupancy:  1 (1.000000)
    net charge:   0.00000000 [e]

Amount of molecules per component :
-------------------------------------------------------------------------------
Component 0 (CO2)
    molecules:      1.000000e+02 molecules  (1.000000e+02 +/- 0.000000e+00)
    number density: 1.404263e-02 molec./A^3 (1.437878e-02 +/- 0.000000e+00)
    density:        1.025979e+03 kg/m^3     (1.050538e+03 +/- 0.000000e+00)

Average pressure tensor: 
-------------------------------------------------------------------------------
 1.3239e+02 -2.0633e+01  3.3065e+01 +/- 0.0000e+00 0.0000e+00 0.0000e+00 [bar]
-2.0633e+01  1.4728e+02  8.8271e+01 +/- 0.0000e+00 0.0000e+00 0.0000e+00 [bar]
 3.3065e+01  8.8271e+01  1.4233e+02 +/- 0.0000e+00 0.0000e+00 0.0000e+00 [bar]
Ideal-gas pressure:   4.963018e+02 +/ 0.000000e+00 [bar]
Excess pressure:     -3.556343e+02 +/ 0.000000e+00 [bar]
Pressure:             1.406675e+02 +/ 0.000000e+00 [bar]

Total potential energy/kʙ  -1.475997e+05 (-1.498896e+05 +/- 0.000000e+00) [K]
-------------------------------------------------------------------------------
ExternalField-molecule
    Van der Waals/kʙ        0.000000e+00 ( 0.000000e+00 +/- 0.000000e+00) [K]
Framework-molecule
    Van der Waals/kʙ        0.000000e+00 ( 0.000000e+00 +/- 0.000000e+00) [K]
    Van der Waals (Tail)/kʙ 0.000000e+00 ( 0.000000e+00 +/- 0.000000e+00) [K]
    Coulombic Real/kʙ       0.000000e+00 ( 0.000000e+00 +/- 0.000000e+00) [K]
    Coulombic Fourier/kʙ    0.000000e+00 ( 0.000000e+00 +/- 0.000000e+00) [K]
Molecule-molecule
    Van der Waals/kʙ       -1.055353e+05 (-1.074088e+05 +/- 0.000000e+00) [K]
    Van der Waals (Tail)/kʙ-4.505647e+03 (-4.616104e+03 +/- 0.000000e+00) [K]
    Coulombic Real/kʙ      -3.054980e+04 (-3.032130e+04 +/- 0.000000e+00) [K]
    Coulombic Fourier/kʙ   -7.009032e+03 (-7.543341e+03 +/- 0.000000e+00) [K]
    Molecule Intra/kʙ       0.000000e+00 ( 0.000000e+00 +/- 0.000000e+00) [K]

Current cycle: 2100 out of 5000
===============================================================================

Box:      19.15070   0.00000   0.00000  Average:  19.10256   0.00000   0.00000
           0.00000  19.15070   0.00000             0.00000  19.10256   0.00000
           0.00000   0.00000  19.15070             0.00000   0.00000  19.10256
Lengths:  19.15070  19.15070  19.15070  Average:  19.10256  19.10256  19.10256
Angles:   90.00000  90.00000  90.00000  Average:  90.00000  90.00000  90.00000
Rectangular boundary conditions

net charge:   0.00000000

component 0 (CO2) lambda:  0 occupancy:  1 (1.000000)
    net charge:   0.00000000 [e]

Amount of molecules per component :
-------------------------------------------------------------------------------
Component 0 (CO2)
    molecules:      1.000000e+02 molecules  (1.000000e+02 +/- 0.000000e+00)
    number density: 1.423791e-02 molec./A^3 (1.435661e-02 +/- 0.000000e+00)
    density:        1.040246e+03 kg/m^3     (1.048918e+03 +/- 0.000000e+00)

Average pressure tensor: 
-------------------------------------------------------------------------------
 1.3101e+02 -1.3073e+01  2.6985e+01 +/- 0.0000e+00 0.0000e+00 0.0000e+00 [bar]
-1.3073e+01  1.3567e+02  9.1769e+01 +/- 0.0000e+00 0.0000e+00 0.0000e+00 [bar]
 2.6985e+01  9.1769e+01  1.3813e+02 +/- 0.0000e+00 0.0000e+00 0.0000e+00 [bar]
Ideal-gas pressure:   4.955364e+02 +/ 0.000000e+00 [bar]
Excess pressure:     -3.605989e+02 +/ 0.000000e+00 [bar]
Pressure:             1.349376e+02 +/ 0.000000e+00 [bar]

Total potential energy/kʙ  -1.459274e+05 (-1.496613e+05 +/- 0.000000e+00) [K]
-------------------------------------------------------------------------------
ExternalField-molecule
    Van der Waals/kʙ        0.000000e+00 ( 0.000000e+00 +/- 0.000000e+00) [K]
Framework-molecule
    Van der Waals/kʙ        0.000000e+00 ( 0.000000e+00 +/- 0.000000e+00) [K]
    Van der Waals (Tail)/kʙ 0.000000e+00 ( 0.000000e+00 +/- 0.000000e+00) [K]
[...]
    Coulombic Fourier/kʙ    0.000000e+00 ( 0.000000e+00 +/- 0.000000e+00) [K]
Molecule-molecule
    Van der Waals/kʙ       -1.122941e+05 (-1.083735e+05 +/- 2.778237e+03) [K]
    Van der Waals (Tail)/kʙ-4.728648e+03 (-4.653136e+03 +/- 1.085406e+02) [K]
    Coulombic Real/kʙ      -3.584925e+04 (-3.099368e+04 +/- 1.465278e+03) [K]
    Coulombic Fourier/kʙ   -7.907861e+03 (-7.654372e+03 +/- 3.044921e+02) [K]
    Molecule Intra/kʙ       0.000000e+00 ( 0.000000e+00 +/- 0.000000e+00) [K]

Current cycle: 4700 out of 5000
===============================================================================

Box:      19.07006   0.00000   0.00000  Average:  19.04038   0.00000   0.00000
           0.00000  19.07006   0.00000             0.00000  19.04038   0.00000
           0.00000   0.00000  19.07006             0.00000   0.00000  19.04038
Lengths:  19.07006  19.07006  19.07006  Average:  19.04038  19.04038  19.04038
Angles:   90.00000  90.00000  90.00000  Average:  90.00000  90.00000  90.00000
Rectangular boundary conditions

net charge:   0.00000000

component 0 (CO2) lambda:  0 occupancy:  1 (1.000000)
    net charge:   0.00000000 [e]

Amount of molecules per component :
-------------------------------------------------------------------------------
Component 0 (CO2)
    molecules:      1.000000e+02 molecules  (1.000000e+02 +/- 0.000000e+00)
    number density: 1.441929e-02 molec./A^3 (1.449871e-02 +/- 3.399736e-04)
    density:        1.053498e+03 kg/m^3     (1.059300e+03 +/- 2.483906e+01)

Average pressure tensor: 
-------------------------------------------------------------------------------
 1.4733e+02 -3.6971e+01  6.7592e+00 +/- 9.5026e+01 9.5273e+01 5.6407e+01 [bar]
-3.6971e+01  1.1443e+02  3.2140e+01 +/- 9.5273e+01 1.1392e+02 7.7569e+01 [bar]
 6.7592e+00  3.2140e+01  1.1396e+02 +/- 5.6407e+01 7.7569e+01 5.6521e+01 [bar]
Ideal-gas pressure:   5.004411e+02 +/ 1.173462e+01 [bar]
Excess pressure:     -3.752012e+02 +/ 2.698504e+01 [bar]
Pressure:             1.252399e+02 +/ 2.308541e+01 [bar]

Total potential energy/kʙ  -1.506392e+05 (-1.517429e+05 +/- 4.589425e+03) [K]
-------------------------------------------------------------------------------
ExternalField-molecule
    Van der Waals/kʙ        0.000000e+00 ( 0.000000e+00 +/- 0.000000e+00) [K]
Framework-molecule
    Van der Waals/kʙ        0.000000e+00 ( 0.000000e+00 +/- 0.000000e+00) [K]
    Van der Waals (Tail)/kʙ 0.000000e+00 ( 0.000000e+00 +/- 0.000000e+00) [K]
    Coulombic Real/kʙ       0.000000e+00 ( 0.000000e+00 +/- 0.000000e+00) [K]
    Coulombic Fourier/kʙ    0.000000e+00 ( 0.000000e+00 +/- 0.000000e+00) [K]
Molecule-molecule
    Van der Waals/kʙ       -1.052347e+05 (-1.084268e+05 +/- 2.791407e+03) [K]
    Van der Waals (Tail)/kʙ-4.626500e+03 (-4.654179e+03 +/- 1.074514e+02) [K]
    Coulombic Real/kʙ      -3.257579e+04 (-3.101013e+04 +/- 1.431502e+03) [K]
    Coulombic Fourier/kʙ   -8.202198e+03 (-7.651804e+03 +/- 2.880283e+02) [K]
    Molecule Intra/kʙ       0.000000e+00 ( 0.000000e+00 +/- 0.000000e+00) [K]

Current cycle: 4800 out of 5000
===============================================================================

Box:      18.89892   0.00000   0.00000  Average:  19.04227   0.00000   0.00000
           0.00000  18.89892   0.00000             0.00000  19.04227   0.00000
           0.00000   0.00000  18.89892             0.00000   0.00000  19.04227
Lengths:  18.89892  18.89892  18.89892  Average:  19.04227  19.04227  19.04227
Angles:   90.00000  90.00000  90.00000  Average:  90.00000  90.00000  90.00000
Rectangular boundary conditions

net charge:   0.00000000

component 0 (CO2) lambda:  0 occupancy:  1 (1.000000)
    net charge:   0.00000000 [e]

Amount of molecules per component :
-------------------------------------------------------------------------------
Component 0 (CO2)
    molecules:      1.000000e+02 molecules  (1.000000e+02 +/- 0.000000e+00)
    number density: 1.481457e-02 molec./A^3 (1.449424e-02 +/- 3.276992e-04)
    density:        1.082378e+03 kg/m^3     (1.058974e+03 +/- 2.394226e+01)

Average pressure tensor: 
-------------------------------------------------------------------------------
 1.4589e+02 -3.1494e+01  7.1991e+00 +/- 8.4770e+01 9.6620e+01 5.6276e+01 [bar]
-3.1494e+01  1.1632e+02  3.1195e+01 +/- 9.6620e+01 9.8761e+01 7.7775e+01 [bar]
 7.1991e+00  3.1195e+01  1.1156e+02 +/- 5.6276e+01 7.7775e+01 5.7882e+01 [bar]
Ideal-gas pressure:   5.002870e+02 +/ 1.131095e+01 [bar]
Excess pressure:     -3.756974e+02 +/ 2.694117e+01 [bar]
Pressure:             1.245895e+02 +/ 2.356218e+01 [bar]

Total potential energy/kʙ  -1.530240e+05 (-1.516914e+05 +/- 4.379202e+03) [K]
-------------------------------------------------------------------------------
ExternalField-molecule
    Van der Waals/kʙ        0.000000e+00 ( 0.000000e+00 +/- 0.000000e+00) [K]
Framework-molecule
    Van der Waals/kʙ        0.000000e+00 ( 0.000000e+00 +/- 0.000000e+00) [K]
    Van der Waals (Tail)/kʙ 0.000000e+00 ( 0.000000e+00 +/- 0.000000e+00) [K]
    Coulombic Real/kʙ       0.000000e+00 ( 0.000000e+00 +/- 0.000000e+00) [K]
    Coulombic Fourier/kʙ    0.000000e+00 ( 0.000000e+00 +/- 0.000000e+00) [K]
Molecule-molecule
    Van der Waals/kʙ       -1.067468e+05 (-1.083909e+05 +/- 2.671727e+03) [K]
    Van der Waals (Tail)/kʙ-4.753327e+03 (-4.652822e+03 +/- 1.036283e+02) [K]
    Coulombic Real/kʙ      -3.388978e+04 (-3.100438e+04 +/- 1.367579e+03) [K]
    Coulombic Fourier/kʙ   -7.634029e+03 (-7.643320e+03 +/- 2.697372e+02) [K]
    Molecule Intra/kʙ       0.000000e+00 ( 0.000000e+00 +/- 0.000000e+00) [K]

Current cycle: 4900 out of 5000
===============================================================================

Box:      18.80170   0.00000   0.00000  Average:  19.04111   0.00000   0.00000
           0.00000  18.80170   0.00000             0.00000  19.04111   0.00000
           0.00000   0.00000  18.80170             0.00000   0.00000  19.04111
Lengths:  18.80170  18.80170  18.80170  Average:  19.04111  19.04111  19.04111
Angles:   90.00000  90.00000  90.00000  Average:  90.00000  90.00000  90.00000
Rectangular boundary conditions

net charge:   0.00000000

component 0 (CO2) lambda:  0 occupancy:  1 (1.000000)
    net charge:   0.00000000 [e]

Amount of molecules per component :
-------------------------------------------------------------------------------
Component 0 (CO2)
    molecules:      1.000000e+02 molecules  (1.000000e+02 +/- 0.000000e+00)
    number density: 1.504557e-02 molec./A^3 (1.449672e-02 +/- 3.264746e-04)
    density:        1.099255e+03 kg/m^3     (1.059155e+03 +/- 2.385280e+01)

Average pressure tensor: 
-------------------------------------------------------------------------------
 1.4582e+02 -2.9055e+01  7.7817e+00 +/- 8.0274e+01 9.7770e+01 5.6214e+01 [bar]
-2.9055e+01  1.1481e+02  2.9227e+01 +/- 9.7770e+01 9.5928e+01 7.8448e+01 [bar]
 7.7817e+00  2.9227e+01  1.1279e+02 +/- 5.6214e+01 7.8448e+01 5.6833e+01 [bar]
Ideal-gas pressure:   5.003725e+02 +/ 1.126868e+01 [bar]
Excess pressure:     -3.758980e+02 +/ 2.644269e+01 [bar]
Pressure:             1.244745e+02 +/ 2.319903e+01 [bar]

Total potential energy/kʙ  -1.561953e+05 (-1.517632e+05 +/- 4.393172e+03) [K]
-------------------------------------------------------------------------------
ExternalField-molecule
    Van der Waals/kʙ        0.000000e+00 ( 0.000000e+00 +/- 0.000000e+00) [K]
Framework-molecule
    Van der Waals/kʙ        0.000000e+00 ( 0.000000e+00 +/- 0.000000e+00) [K]
    Van der Waals (Tail)/kʙ 0.000000e+00 ( 0.000000e+00 +/- 0.000000e+00) [K]
    Coulombic Real/kʙ       0.000000e+00 ( 0.000000e+00 +/- 0.000000e+00) [K]
    Coulombic Fourier/kʙ    0.000000e+00 ( 0.000000e+00 +/- 0.000000e+00) [K]
Molecule-molecule
    Van der Waals/kʙ       -1.098773e+05 (-1.084099e+05 +/- 2.653527e+03) [K]
    Van der Waals (Tail)/kʙ-4.827445e+03 (-4.653734e+03 +/- 1.033579e+02) [K]
    Coulombic Real/kʙ      -3.364193e+04 (-3.104937e+04 +/- 1.404139e+03) [K]
    Coulombic Fourier/kʙ   -7.848653e+03 (-7.650188e+03 +/- 2.740829e+02) [K]
    Molecule Intra/kʙ       0.000000e+00 ( 0.000000e+00 +/- 0.000000e+00) [K]


Energy statistics             |  Energy [K]   | Recomputed [K]|  Drift [K]    |
===============================================================================
Total potential energy/kʙ     | -1.549266e+05 | -1.549266e+05 |  6.289760e-10 |
    external field VDW/kʙ     |  0.000000e+00 |  0.000000e+00 |  0.000000e+00 |
    external field Real/kʙ    |  0.000000e+00 |  0.000000e+00 |  0.000000e+00 |
    framework-molecule VDW/kʙ |  0.000000e+00 |  0.000000e+00 |  0.000000e+00 |
    framework-molecule Real/kʙ|  0.000000e+00 |  0.000000e+00 |  0.000000e+00 |
    molecule-molecule VDW/kʙ  | -1.112790e+05 | -1.112790e+05 |  8.575951e-10 |
    molecule-molecule Real/kʙ | -3.045751e+04 | -3.045751e+04 |  8.750971e-11 |
    Van der Waals (Tail)/kʙ   | -4.706046e+03 | -4.706046e+03 |  0.000000e+00 |
    Ewald Fourier/kʙ          |  6.046804e+03 |  6.046804e+03 | -3.609776e-11 |
    Ewald self/kʙ             | -2.222923e+06 | -2.222923e+06 |  0.000000e+00 |
    Ewald exclusion/kʙ        |  2.208392e+06 |  2.208392e+06 | -2.800311e-10 |
    intra VDW/kʙ              |  0.000000e+00 |  0.000000e+00 |  0.000000e+00 |
    intra Coulombic/kʙ        |  0.000000e+00 |  0.000000e+00 |  0.000000e+00 |
    polarization/kʙ           |  0.000000e+00 |  0.000000e+00 |  0.000000e+00 |
    dU/dlambda VDW/kʙ         |  0.000000e+00 |  0.000000e+00 |  0.000000e+00 |
    dU/dlambda Real/kʙ        |  0.000000e+00 |  0.000000e+00 |  0.000000e+00 |
    dU/dlambda Ewald/kʙ       |  0.000000e+00 |  0.000000e+00 |  0.000000e+00 |
-------------------------------------------------------------------------------


Monte-Carlo moves statistics
===============================================================================

    Volume change        all:                3304
    Volume change        total:              3304
    Volume change        constructed:        3304
    Volume change        accepted:           2194
    Volume change        fraction:       0.664044
    Volume change        max-change:     0.025000

Component 0 [CO2]
    Reinsertion (CBMC)   all:              165629
    Reinsertion (CBMC)   total:            165629
    Reinsertion (CBMC)   constructed:      148333
    Reinsertion (CBMC)   accepted:           2827
    Reinsertion (CBMC)   fraction:       0.017068
    Reinsertion (CBMC)   max-change:     0.000000

    Translation          all:              165523
    Translation          total:             55179      55168      55176
    Translation          constructed:       55179      55165      55176
    Translation          accepted:          27748      22164      26178
    Translation          fraction:       0.502872   0.401755   0.474445
    Translation          max-change:     0.666667   0.900000   0.708333

    Rotation             all:              165544
    Rotation             total:             55139      55212      55193
    Rotation             constructed:       55139      55192      55160
    Rotation             accepted:          31852      20776      20382
    Rotation             fraction:       0.577667   0.376295   0.369286
    Rotation             max-change:     0.545455   1.038961   1.076923



Production run counting of the MC moves summed over systems and components
===============================================================================

Volume change                          3304 (0.6608 [%])
Reinsertion (CBMC)                   165629 (33.1258 [%])
Translation                          165523 (33.1046 [%])
Rotation                             165544 (33.1088 [%])

Production count MC-steps:           500000 [-]
               All summed:           500000 [-]
               difference:                0 [-]


Production run CPU timings of the MC moves
===============================================================================

Component 0 CO2

Rotation                             22.517525 [s]
    Ewald                            12.567154 [s]
    ExternalField-Molecule            0.005946 [s]
    Framework-Molecule                0.005524 [s]
    Molecule-Molecule                 8.996020 [s]
    Overhead                          0.942881 [s]

Reinsertion (CBMC)                   70.961872 [s]
    Ewald                            11.274121 [s]
    NonEwald                         59.515462 [s]
    Overhead                          0.172289 [s]

Translation                          22.557127 [s]
    Ewald                            12.564570 [s]
    ExternalField-Molecule            0.005663 [s]
    Framework-Molecule                0.009073 [s]
    Molecule-Molecule                 9.021308 [s]
    Overhead                          0.956513 [s]



Volume change                          9.327136 [s]
    Ewald                              4.620214 [s]
    NonEwald                           4.474018 [s]
    Tail                               0.148270 [s]

Property sampling                     0.230211 [s]
Energy/pressure sampling:             3.405717 [s]


Production run CPU timings of the MC moves summed over systems and components
===============================================================================


Translation                          22.557127 [s]
    Ewald                            12.564570 [s]
    ExternalField-Molecule            0.005663 [s]
    Framework-Molecule                0.009073 [s]
    Molecule-Molecule                 9.021308 [s]
    Overhead                          0.956513 [s]

Rotation                             22.517525 [s]
    Ewald                            12.567154 [s]
    ExternalField-Molecule            0.005946 [s]
    Framework-Molecule                0.005524 [s]
    Molecule-Molecule                 8.996020 [s]
    Overhead                          0.942881 [s]

Volume change                         9.327136 [s]
    Ewald                             4.620214 [s]
    NonEwald                          4.474018 [s]
    Tail                              0.148270 [s]
    Overhead                          0.084634 [s]

Reinsertion (CBMC)                   70.961872 [s]
    Ewald                            11.274121 [s]
    NonEwald                         59.515462 [s]
    Overhead                          0.172289 [s]

Property sampling:                    0.230211 [s]
Energy/pressure sampling:             3.405717 [s]

Production simulation time:         129.376757 [s]
                All summed:         128.999588 [s]
                  Overhead:           0.377169 [s]


Initalization simulation time:       22.595483 [s]
Equilibration simulation time:        0.000000 [s]
Production simulation time:         129.376757 [s]
Total simulation time:              151.972240 [s]


Energy averages and statistics:
===============================================================================

Framework-molecule energy:
-------------------------------------------------------------------------------



Framework-molecule energy contributions per energy type:
-------------------------------------------------------------------------------



Inter-molecular energy:
-------------------------------------------------------------------------------

    Inter-molecular energy/kʙ 0-0 [CO2-CO2]:
    ---------------------------------------------------------------------------
        Block[  0] -1.528757e+05
        Block[  1] -1.469263e+05
        Block[  2] -1.551454e+05
        Block[  3] -1.494363e+05
        Block[  4] -1.549179e+05
        -----------------------------------------------------------------------
        Average  -1.518603e+05 +/-  4.449909e+03 [K]



Inter-molecular energy contributions per energy type:
-------------------------------------------------------------------------------

    Van der Waals energy/kʙ 0-0 [CO2-CO2]:
    ---------------------------------------------------------------------------
        Block[  0] -1.092727e+05
        Block[  1] -1.055637e+05
        Block[  2] -1.105597e+05
        Block[  3] -1.068455e+05
        Block[  4] -1.102547e+05
        -----------------------------------------------------------------------
        Average  -1.084993e+05 +/-  2.725407e+03 [K]

    VDW Tail-Correction energy/kʙ 0-0 [CO2-CO2]:
    ---------------------------------------------------------------------------
        Block[  0] -4.690957e+03
        Block[  1] -4.542355e+03
        Block[  2] -4.739716e+03
        Block[  3] -4.593148e+03
        Block[  4] -4.714497e+03
        -----------------------------------------------------------------------
        Average  -4.656135e+03 +/-  1.048242e+02 [K]

    Coulomb Real energy/kʙ 0-0 [CO2-CO2]:
    ---------------------------------------------------------------------------
        Block[  0] -3.112653e+04
        Block[  1] -2.951379e+04
        Block[  2] -3.203831e+04
        Block[  3] -3.044049e+04
        Block[  4] -3.212933e+04
        -----------------------------------------------------------------------
        Average  -3.104969e+04 +/-  1.371104e+03 [K]

    Coulomb Fourier energy/kʙ 0-0 [CO2-CO2]:
    ---------------------------------------------------------------------------
        Block[  0] -7.785574e+03
        Block[  1] -7.306452e+03
        Block[  2] -7.807615e+03
        Block[  3] -7.557123e+03
        Block[  4] -7.819337e+03
        -----------------------------------------------------------------------
        Average  -7.655220e+03 +/-  2.764962e+02 [K]


Total energy/kʙ
-------------------------------------------------------------------------------
    Block[  0] -1.528757e+05
    Block[  1] -1.469263e+05
    Block[  2] -1.551454e+05
    Block[  3] -1.494363e+05
    Block[  4] -1.549179e+05
    ---------------------------------------------------------------------------
    Average  -1.518603e+05 +/-  4.449909e+03 [K]

Pressure averages and statistics:
===============================================================================

Average pressure tensor: 
-------------------------------------------------------------------------------
 1.4477e+02 -2.7566e+01  9.3306e+00 +/- 7.5106e+01 9.8323e+01 5.6328e+01 [bar]
-2.7566e+01  1.1717e+02  3.0563e+01 +/- 9.8323e+01 8.5284e+01 7.7824e+01 [bar]
 9.3306e+00  3.0563e+01  1.1189e+02 +/- 5.6328e+01 7.7824e+01 5.7144e+01 [bar]

    Block[  0]  5.044443e+07
    Block[  1]  4.881708e+07
    Block[  2]  5.098404e+07
    Block[  3]  4.938965e+07
    Block[  4]  5.070072e+07
    ---------------------------------------------------------------------------
    Ideal gas pressure   5.006718e+07 +/-  6.898992e-02 [Pa]
                         5.006718e+02 +/-  1.145605e+01 [bar]


    Block[  0] -3.654706e+07
    Block[  1] -3.455944e+07
    Block[  2] -3.796740e+07
    Block[  3] -3.933295e+07
    Block[  4] -3.962382e+07
    ---------------------------------------------------------------------------
    Excess pressure  -3.760613e+07 +/-  2.603189e+06 [Pa]
                     -3.760613e+02 +/-  2.603189e+01 [bar]


    Block[  0]  1.389738e+07
    Block[  1]  1.425764e+07
    Block[  2]  1.301664e+07
    Block[  3]  1.005670e+07
    Block[  4]  1.107691e+07
    ---------------------------------------------------------------------------
    Pressure average   1.246105e+07 +/-  2.263437e+06 [Pa]
                       1.246105e+02 +/-  2.263437e+01 [bar]


Enthalpy of adsorption
===============================================================================

No fluctuating components present.


Densities
===============================================================================

Component 0 (CO2)
    Block[  0] 100
    Block[  1] 100
    Block[  2] 100
    Block[  3] 100
    Block[  4] 100
    -----------------------------------------------------------------------
    Density average   1.000000e+02 +/-  0.000000e+00 [molecules]
    Density average   1.450539e-02 +/-  3.319031e-04 [molec/A^3]
    Density average   1.059789e+03 +/-  2.424941e+01 [kg.m⁻³]

