Compiler and run-time data
===============================================================================
RASPA 3.0.4

Random seed: 1145796610

Compiled as a 64-bits application
Compiler: gcc Ubuntu Clang 18.1.3 (1ubuntu1)
Compile Date = Mar 15 2025, Compile Time = 19:39:45

2025-06-02 13:11:29.160921
Simulation started on Mon, Jun 02
The start time was 13:11:00

Hostname:    c062
OS type:     Linux on x86_64
OS release:  6.8.0-58-generic
OS version:  #60-Ubuntu SMP PREEMPT_DYNAMIC Fri Mar 14 18:29:48 UTC 2025


Mutual consistent basic set of units:
===============================================================================

Unit of temperature: 1 [K]
Unit of length:      1e-10 [m]
Unit of time:        1e-12 [s]
Unit of mass:        1.6605402e-27 [kg]
Unit of charge:      1.60217733e-19 [C/particle]


Boltzmann constant (internal units):          0.8314464919307584 [-]
represents conversion from energy (internal units) to temperature (in Kelvin)

Derived units and their conversion factors:
===============================================================================

Unit of energy:                           1.6605402000000002e-23 [J]
Unit of energy:                           10.000008872307538 [J.mol⁻¹]
Unit of velocity:                         100 [m.s⁻¹]
Unit of force:                            1.6605402000000002e-13 [N]
Unit of diffusion:                        1.0000000000000002e-08 [m².s⁻¹]
Unit of acceleration:                     1.0000000000000002e-08 [m².s⁻¹]
Unit of torque:                           1.6605402000000002e-23 [N.m]
Unit of pressure:                         16605402 [Pa]
Unit of volume:                           1e-30 [m³]
Unit of density:                          1660.5402 [kg.m⁻³]
Unit of dynamic viscosity:                1.6605401999999997e-05 [N.s.m⁻²]
Unit of enthalpy:                         1.6605402000000002e-23 [J]
Unit of polarizability:                   1.5458657349975198e-35 [-]
Unit of Coulomb potential:                167101.08000665612 [K]
Unit of dielectric constant:              1.5458657349975193e-05 [s².C².kg⁻¹.m⁻³]
Unit of dipole moment:                    1.60217733e-29 [C.m]
Unit of Debye:                            4.803206799099162 [C.m]
Unit of electric potential:               0.00010364272224473431 [V]
Unit of electric field:                   1036427.222447343 [V.m⁻¹]
Unit of isothermal compressibility:       6.02213665167516e-08 [Pa⁻¹]
Unit of heat capacity:                    10.000008872307538 [J.mol⁻¹.K⁻¹]
Unit of volumetric expansion coefficient: 1 [K⁻¹]


Internal conversion factors:
===============================================================================

Energy (internal units) to Kelvin:      1.202724284692786 [-]
Kelvin to energy (internal units):      0.8314457542157567 [-]


System definitions
===============================================================================

Temperature:          250 [K]
Beta:                 0.0048108928702210625 [-]
Pressure:             2e+07 [Pa]
Helium void fraction: 1 [-]

Box:      30.00000   0.00000   0.00000
           0.00000  30.00000   0.00000
           0.00000   0.00000  30.00000
Lengths:  30.00000  30.00000  30.00000
Angles:   90.00000  90.00000  90.00000
Rectangular boundary conditions



Property measurement settings
===============================================================================




Pseudo-atoms
===============================================================================

  0 - C_co2    framework-atom: false
  1 - O_co2    framework-atom: false

  0 - C_co2    mass: 12.00000, charge:  0.70000
  1 - O_co2    mass: 15.99940, charge: -0.35000

  0 - C_co2    polarizability:  0.00000
  1 - O_co2    polarizability:  0.00000

  0 - J. J. Potoff et al., AIChE J. 2001, 47, 1676–1682.
  1 - J. J. Potoff et al., AIChE J. 2001, 47, 1676–1682.

Force field status
===============================================================================

Cutoff Framework-Molecule VDW:  11.00000 [Å]
Cutoff Molecule-Molecule VDW:   11.00000 [Å]
Cutoff Coulomb:                 11.00000 [Å]

Overlap-criteria VDW:           1.000000e+05 [K]

C_co2    - C_co2    Lennard-Jones p₀/kʙ:  27.00000 [K], p₁:  2.80000 [Å]
                                  shift:   0.00000 [K], tailcorrections: true
C_co2    - O_co2    Lennard-Jones p₀/kʙ:  46.18441 [K], p₁:  2.92500 [Å]
                                  shift:   0.00000 [K], tailcorrections: true
O_co2    - O_co2    Lennard-Jones p₀/kʙ:  79.00000 [K], p₁:  3.05000 [Å]
                                  shift:   0.00000 [K], tailcorrections: true

Ewald precision: 1e-06
Ewald alpha: 0.2903408740940883
Ewald k-vectors: 9 9 9


Component definitions
===============================================================================

Component 0 [CO2]

    Type: Adsorbate

    Critical temperature:  304.1282 [K]
    Critical pressure:     7377300 [Pa]
    Acentric factor:       0.22394 [-]

    Mol-fraction:                 1 [-]
    Swappable:                   false

    Mass:                         43.9988 [-]
    Bulk fluid density:           0 [-]
    Compressibility:              0 [-]
    Excess molecules:             0 [-]

    Number Of Atoms:    3
    CBMC starting bead: 0
      0: O_co2  position  0.00000 -0.00000  1.16000, charge -0.35000
      1: C_co2  position  0.00000 -0.00000  0.00000, charge  0.70000
      2: O_co2  position  0.00000 -0.00000 -1.16000, charge -0.35000
    Diagonalized inertia-vector:      43.05758528 43.05758528 0.00000000
    Translational degrees of freedom: 3
    Rotational degrees of freedom:    2
    Shape of the molecule is: 'Linear'
    Net-charge:        0.00000000 [e]

    Move probabilities:
    Translation:                   0.331126 [-]
    Random translation:            0.000000 [-]
    Rotation:                      0.331126 [-]
    Random rotation:               0.000000 [-]
    Volume change:                 0.006623 [-]
    Reinsertion (CBMC):            0.331126 [-]
    Identity change (CBMC):        0.000000 [-]
    Swap:                          0.000000 [-]
    Swap (CBMC):                   0.000000 [-]
    Swap (CFCMC):                  0.000000 [-]
    Swap (CB/CFCMC):               0.000000 [-]
    Gibbs volume:                  0.000000 [-]
    Gibbs swap (CBMC):             0.000000 [-]
    Gibbs swap (CFCMC):            0.000000 [-]
    Widom:                         0.000000 [-]
    Widom (CFCMC):                 0.000000 [-]
    Widom (CB/CFCMC):              0.000000 [-]
    Parallel tempering:            0.000000 [-]
    Hybrid MC:                     0.000000 [-]

    number of blocking-pockets: 0

    number of bonds: 0





Number of pseudo-atoms
===============================================================================

Component   0 (CO2)
-------------------------------------------------------------------------------
    index   0 (C_co2): 250 atoms
    index   1 (O_co2): 500 atoms

Total number of pseudo-atoms:
-------------------------------------------------------------------------------
    index   0 (C_co2): 250 atoms
    index   1 (O_co2): 500 atoms




Energy status Recomputed from scratch
===============================================================================

Total potential energy/kʙ       -1.401057e+05 [K]
    external field VDW/kʙ        0.000000e+00 [K]
    external field Real/kʙ       0.000000e+00 [K]
    framework-molecule VDW/kʙ    0.000000e+00 [K]
    framework-molecule Real/kʙ   0.000000e+00 [K]
    molecule-molecule VDW/kʙ    -1.080488e+05 [K]
    molecule-molecule Real/kʙ   -2.354709e+04 [K]
    Van der Waals (Tail)/kʙ     -5.580763e+03 [K]
    Ewald Fourier/kʙ             1.976235e+04 [K]
    Ewald self/kʙ               -5.029674e+06 [K]
    Ewald exclusion/kʙ           5.006983e+06 [K]
    intra VDW/kʙ                 0.000000e+00 [K]
    intra Coulombic/kʙ           0.000000e+00 [K]
    polarization/kʙ              0.000000e+00 [K]
    dU/dlambda VDW/kʙ            0.000000e+00 [K]
    dU/dlambda Real/kʙ           0.000000e+00 [K]
    dU/dlambda Ewald/kʙ          0.000000e+00 [K]





Initialization: Current cycle: 0 out of 1000
===============================================================================

Box:      30.00000   0.00000   0.00000
           0.00000  30.00000   0.00000
           0.00000   0.00000  30.00000
Lengths:  30.00000  30.00000  30.00000
Angles:   90.00000  90.00000  90.00000
Rectangular boundary conditions

net charge:   0.00000000

component   0 (CO2) lambda:  0 occupancy:  1 (1.000000)
    net charge:   0.00000000 [e]

Amount of molecules per component :
-------------------------------------------------------------------------------
Component 0 (CO2)
    molecules:         2.500000e+02 molecules
    number density:    9.259259e-03 molec/A^3
    density:           6.764973e+02 kg/m^3

Total potential energy/kʙ       -1.686769e+05 [K]
-------------------------------------------------------------------------------
    external field VDW/kʙ        0.000000e+00 [K]
    external field Real/kʙ       0.000000e+00 [K]
    framework-molecule VDW/kʙ    0.000000e+00 [K]
    framework-molecule Real/kʙ   0.000000e+00 [K]
    molecule-molecule VDW/kʙ    -1.318667e+05 [K]
    molecule-molecule Real/kʙ   -2.757648e+04 [K]
    Van der Waals (Tail)/kʙ     -5.580763e+03 [K]
    Ewald Fourier/kʙ             1.903841e+04 [K]
    Ewald self/kʙ               -5.029674e+06 [K]
    Ewald exclusion/kʙ           5.006983e+06 [K]
    intra VDW/kʙ                 0.000000e+00 [K]
    intra Coulombic/kʙ           0.000000e+00 [K]
    polarization/kʙ              0.000000e+00 [K]
    dU/dlambda VDW/kʙ            0.000000e+00 [K]
    dU/dlambda Real/kʙ           0.000000e+00 [K]
    dU/dlambda Ewald/kʙ          0.000000e+00 [K]


Initialization: Current cycle: 100 out of 1000
===============================================================================

Box:      27.01038   0.00000   0.00000
           0.00000  27.01038   0.00000
           0.00000   0.00000  27.01038
Lengths:  27.01038  27.01038  27.01038
Angles:   90.00000  90.00000  90.00000
Rectangular boundary conditions

net charge:   0.00000000

component   0 (CO2) lambda:  0 occupancy:  1 (1.000000)
    net charge:   0.00000000 [e]

Amount of molecules per component :
-------------------------------------------------------------------------------
Component 0 (CO2)
    molecules:         2.500000e+02 molecules
    number density:    1.268668e-02 molec/A^3
    density:           9.269106e+02 kg/m^3

Total potential energy/kʙ       -3.270677e+05 [K]
-------------------------------------------------------------------------------
    external field VDW/kʙ        0.000000e+00 [K]
    external field Real/kʙ       0.000000e+00 [K]
    framework-molecule VDW/kʙ    0.000000e+00 [K]
    framework-molecule Real/kʙ   0.000000e+00 [K]
    molecule-molecule VDW/kʙ    -2.386372e+05 [K]
    molecule-molecule Real/kʙ   -6.816796e+04 [K]
    Van der Waals (Tail)/kʙ     -7.646546e+03 [K]
    Ewald Fourier/kʙ             1.007541e+04 [K]
    Ewald self/kʙ               -5.029674e+06 [K]
    Ewald exclusion/kʙ           5.006983e+06 [K]
    intra VDW/kʙ                 0.000000e+00 [K]
    intra Coulombic/kʙ           0.000000e+00 [K]
    polarization/kʙ              0.000000e+00 [K]
    dU/dlambda VDW/kʙ            0.000000e+00 [K]
    dU/dlambda Real/kʙ           0.000000e+00 [K]
    dU/dlambda Ewald/kʙ          0.000000e+00 [K]


Initialization: Current cycle: 200 out of 1000
===============================================================================

Box:      26.27405   0.00000   0.00000
           0.00000  26.27405   0.00000
           0.00000   0.00000  26.27405
Lengths:  26.27405  26.27405  26.27405
Angles:   90.00000  90.00000  90.00000
Rectangular boundary conditions

net charge:   0.00000000

component   0 (CO2) lambda:  0 occupancy:  1 (1.000000)
    net charge:   0.00000000 [e]

Amount of molecules per component :
-------------------------------------------------------------------------------
Component 0 (CO2)
    molecules:         2.500000e+02 molecules
    number density:    1.378348e-02 molec/A^3
    density:           1.007045e+03 kg/m^3

Total potential energy/kʙ       -3.606607e+05 [K]
-------------------------------------------------------------------------------
    external field VDW/kʙ        0.000000e+00 [K]
    external field Real/kʙ       0.000000e+00 [K]
    framework-molecule VDW/kʙ    0.000000e+00 [K]
    framework-molecule Real/kʙ   0.000000e+00 [K]
    molecule-molecule VDW/kʙ    -2.596150e+05 [K]
    molecule-molecule Real/kʙ   -8.017771e+04 [K]
    Van der Waals (Tail)/kʙ     -8.307614e+03 [K]
    Ewald Fourier/kʙ             1.013106e+04 [K]
    Ewald self/kʙ               -5.029674e+06 [K]
    Ewald exclusion/kʙ           5.006983e+06 [K]
    intra VDW/kʙ                 0.000000e+00 [K]
    intra Coulombic/kʙ           0.000000e+00 [K]
    polarization/kʙ              0.000000e+00 [K]
    dU/dlambda VDW/kʙ            0.000000e+00 [K]
    dU/dlambda Real/kʙ           0.000000e+00 [K]
    dU/dlambda Ewald/kʙ          0.000000e+00 [K]


Initialization: Current cycle: 300 out of 1000
===============================================================================

Box:      25.84151   0.00000   0.00000
           0.00000  25.84151   0.00000
           0.00000   0.00000  25.84151
Lengths:  25.84151  25.84151  25.84151
Angles:   90.00000  90.00000  90.00000
Rectangular boundary conditions

net charge:   0.00000000

component   0 (CO2) lambda:  0 occupancy:  1 (1.000000)
    net charge:   0.00000000 [e]

Amount of molecules per component :
-------------------------------------------------------------------------------
Component 0 (CO2)
    molecules:         2.500000e+02 molecules
    number density:    1.448726e-02 molec/A^3
    density:           1.058464e+03 kg/m^3

Total potential energy/kʙ       -3.802348e+05 [K]
-------------------------------------------------------------------------------
    external field VDW/kʙ        0.000000e+00 [K]
    external field Real/kʙ       0.000000e+00 [K]
    framework-molecule VDW/kʙ    0.000000e+00 [K]
    framework-molecule Real/kʙ   0.000000e+00 [K]
    molecule-molecule VDW/kʙ    -2.695698e+05 [K]
    molecule-molecule Real/kʙ   -8.881762e+04 [K]
    Van der Waals (Tail)/kʙ     -8.731795e+03 [K]
    Ewald Fourier/kʙ             9.575808e+03 [K]
    Ewald self/kʙ               -5.029674e+06 [K]
    Ewald exclusion/kʙ           5.006983e+06 [K]
    intra VDW/kʙ                 0.000000e+00 [K]
    intra Coulombic/kʙ           0.000000e+00 [K]
    polarization/kʙ              0.000000e+00 [K]
    dU/dlambda VDW/kʙ            0.000000e+00 [K]
    dU/dlambda Real/kʙ           0.000000e+00 [K]
    dU/dlambda Ewald/kʙ          0.000000e+00 [K]


Initialization: Current cycle: 400 out of 1000
===============================================================================

Box:      25.70890   0.00000   0.00000
           0.00000  25.70890   0.00000
           0.00000   0.00000  25.70890
Lengths:  25.70890  25.70890  25.70890
Angles:   90.00000  90.00000  90.00000
Rectangular boundary conditions

net charge:   0.00000000

component   0 (CO2) lambda:  0 occupancy:  1 (1.000000)
    net charge:   0.00000000 [e]

Amount of molecules per component :
-------------------------------------------------------------------------------
Component 0 (CO2)
    molecules:         2.500000e+02 molecules
    number density:    1.471260e-02 molec/A^3
    density:           1.074928e+03 kg/m^3

Total potential energy/kʙ       -3.830635e+05 [K]
-------------------------------------------------------------------------------
    external field VDW/kʙ        0.000000e+00 [K]
    external field Real/kʙ       0.000000e+00 [K]
    framework-molecule VDW/kʙ    0.000000e+00 [K]
    framework-molecule Real/kʙ   0.000000e+00 [K]
    molecule-molecule VDW/kʙ    -2.773239e+05 [K]
    molecule-molecule Real/kʙ   -8.497833e+04 [K]
    Van der Waals (Tail)/kʙ     -8.867615e+03 [K]
    Ewald Fourier/kʙ             1.079766e+04 [K]
    Ewald self/kʙ               -5.029674e+06 [K]
    Ewald exclusion/kʙ           5.006983e+06 [K]
    intra VDW/kʙ                 0.000000e+00 [K]
    intra Coulombic/kʙ           0.000000e+00 [K]
    polarization/kʙ              0.000000e+00 [K]
    dU/dlambda VDW/kʙ            0.000000e+00 [K]
    dU/dlambda Real/kʙ           0.000000e+00 [K]
    dU/dlambda Ewald/kʙ          0.000000e+00 [K]


Initialization: Current cycle: 500 out of 1000
===============================================================================

Box:      25.56083   0.00000   0.00000
           0.00000  25.56083   0.00000
           0.00000   0.00000  25.56083
Lengths:  25.56083  25.56083  25.56083
Angles:   90.00000  90.00000  90.00000
Rectangular boundary conditions

net charge:   0.00000000

component   0 (CO2) lambda:  0 occupancy:  1 (1.000000)
    net charge:   0.00000000 [e]

Amount of molecules per component :
-------------------------------------------------------------------------------
Component 0 (CO2)
    molecules:         2.500000e+02 molecules
    number density:    1.496977e-02 molec/A^3
    density:           1.093717e+03 kg/m^3

Total potential energy/kʙ       -4.036217e+05 [K]
-------------------------------------------------------------------------------
    external field VDW/kʙ        0.000000e+00 [K]
    external field Real/kʙ       0.000000e+00 [K]
    framework-molecule VDW/kʙ    0.000000e+00 [K]
    framework-molecule Real/kʙ   0.000000e+00 [K]
    molecule-molecule VDW/kʙ    -2.922258e+05 [K]
    molecule-molecule Real/kʙ   -8.900344e+04 [K]
    Van der Waals (Tail)/kʙ     -9.022617e+03 [K]
    Ewald Fourier/kʙ             9.321513e+03 [K]
    Ewald self/kʙ               -5.029674e+06 [K]
    Ewald exclusion/kʙ           5.006983e+06 [K]
    intra VDW/kʙ                 0.000000e+00 [K]
    intra Coulombic/kʙ           0.000000e+00 [K]
    polarization/kʙ              0.000000e+00 [K]
    dU/dlambda VDW/kʙ            0.000000e+00 [K]
    dU/dlambda Real/kʙ           0.000000e+00 [K]
    dU/dlambda Ewald/kʙ          0.000000e+00 [K]


Initialization: Current cycle: 600 out of 1000
===============================================================================

Box:      25.41572   0.00000   0.00000
           0.00000  25.41572   0.00000
           0.00000   0.00000  25.41572
Lengths:  25.41572  25.41572  25.41572
Angles:   90.00000  90.00000  90.00000
Rectangular boundary conditions

net charge:   0.00000000

component   0 (CO2) lambda:  0 occupancy:  1 (1.000000)
    net charge:   0.00000000 [e]

Amount of molecules per component :
-------------------------------------------------------------------------------
Component 0 (CO2)
    molecules:         2.500000e+02 molecules
    number density:    1.522765e-02 molec/A^3
    density:           1.112558e+03 kg/m^3

Total potential energy/kʙ       -3.985763e+05 [K]
-------------------------------------------------------------------------------
    external field VDW/kʙ        0.000000e+00 [K]
    external field Real/kʙ       0.000000e+00 [K]
    framework-molecule VDW/kʙ    0.000000e+00 [K]
    framework-molecule Real/kʙ   0.000000e+00 [K]
    molecule-molecule VDW/kʙ    -2.867346e+05 [K]
    molecule-molecule Real/kʙ   -8.899655e+04 [K]
    Van der Waals (Tail)/kʙ     -9.178043e+03 [K]
    Ewald Fourier/kʙ             9.024235e+03 [K]
    Ewald self/kʙ               -5.029674e+06 [K]
    Ewald exclusion/kʙ           5.006983e+06 [K]
    intra VDW/kʙ                 0.000000e+00 [K]
    intra Coulombic/kʙ           0.000000e+00 [K]
    polarization/kʙ              0.000000e+00 [K]
    dU/dlambda VDW/kʙ            0.000000e+00 [K]
    dU/dlambda Real/kʙ           0.000000e+00 [K]
    dU/dlambda Ewald/kʙ          0.000000e+00 [K]


Initialization: Current cycle: 700 out of 1000
===============================================================================

Box:      25.31448   0.00000   0.00000
           0.00000  25.31448   0.00000
           0.00000   0.00000  25.31448
Lengths:  25.31448  25.31448  25.31448
Angles:   90.00000  90.00000  90.00000
Rectangular boundary conditions

net charge:   0.00000000

component   0 (CO2) lambda:  0 occupancy:  1 (1.000000)
    net charge:   0.00000000 [e]

Amount of molecules per component :
-------------------------------------------------------------------------------
Component 0 (CO2)
    molecules:         2.500000e+02 molecules
    number density:    1.541108e-02 molec/A^3
    density:           1.125960e+03 kg/m^3

Total potential energy/kʙ       -4.127973e+05 [K]
-------------------------------------------------------------------------------
    external field VDW/kʙ        0.000000e+00 [K]
    external field Real/kʙ       0.000000e+00 [K]
    framework-molecule VDW/kʙ    0.000000e+00 [K]
    framework-molecule Real/kʙ   0.000000e+00 [K]
    molecule-molecule VDW/kʙ    -2.989459e+05 [K]
    molecule-molecule Real/kʙ   -9.159508e+04 [K]
    Van der Waals (Tail)/kʙ     -9.288603e+03 [K]
    Ewald Fourier/kʙ             9.723665e+03 [K]
    Ewald self/kʙ               -5.029674e+06 [K]
    Ewald exclusion/kʙ           5.006983e+06 [K]
    intra VDW/kʙ                 0.000000e+00 [K]
    intra Coulombic/kʙ           0.000000e+00 [K]
    polarization/kʙ              0.000000e+00 [K]
    dU/dlambda VDW/kʙ            0.000000e+00 [K]
    dU/dlambda Real/kʙ           0.000000e+00 [K]
    dU/dlambda Ewald/kʙ          0.000000e+00 [K]


Initialization: Current cycle: 800 out of 1000
===============================================================================

Box:      25.26913   0.00000   0.00000
           0.00000  25.26913   0.00000
           0.00000   0.00000  25.26913
Lengths:  25.26913  25.26913  25.26913
Angles:   90.00000  90.00000  90.00000
Rectangular boundary conditions

net charge:   0.00000000

component   0 (CO2) lambda:  0 occupancy:  1 (1.000000)
    net charge:   0.00000000 [e]

Amount of molecules per component :
-------------------------------------------------------------------------------
Component 0 (CO2)
    molecules:         2.500000e+02 molecules
    number density:    1.549419e-02 molec/A^3
    density:           1.132032e+03 kg/m^3

Total potential energy/kʙ       -4.093526e+05 [K]
-------------------------------------------------------------------------------
    external field VDW/kʙ        0.000000e+00 [K]
    external field Real/kʙ       0.000000e+00 [K]
    framework-molecule VDW/kʙ    0.000000e+00 [K]
    framework-molecule Real/kʙ   0.000000e+00 [K]
    molecule-molecule VDW/kʙ    -2.972135e+05 [K]
    molecule-molecule Real/kʙ   -8.957163e+04 [K]
    Van der Waals (Tail)/kʙ     -9.338697e+03 [K]
    Ewald Fourier/kʙ             9.462514e+03 [K]
    Ewald self/kʙ               -5.029674e+06 [K]
    Ewald exclusion/kʙ           5.006983e+06 [K]
    intra VDW/kʙ                 0.000000e+00 [K]
    intra Coulombic/kʙ           0.000000e+00 [K]
    polarization/kʙ              0.000000e+00 [K]
    dU/dlambda VDW/kʙ            0.000000e+00 [K]
    dU/dlambda Real/kʙ           0.000000e+00 [K]
    dU/dlambda Ewald/kʙ          0.000000e+00 [K]


Initialization: Current cycle: 900 out of 1000
===============================================================================

Box:      25.20476   0.00000   0.00000
           0.00000  25.20476   0.00000
           0.00000   0.00000  25.20476
Lengths:  25.20476  25.20476  25.20476
Angles:   90.00000  90.00000  90.00000
Rectangular boundary conditions

net charge:   0.00000000

component   0 (CO2) lambda:  0 occupancy:  1 (1.000000)
    net charge:   0.00000000 [e]

Amount of molecules per component :
-------------------------------------------------------------------------------
Component 0 (CO2)
    molecules:         2.500000e+02 molecules
    number density:    1.561321e-02 molec/A^3
    density:           1.140728e+03 kg/m^3

Total potential energy/kʙ       -4.123765e+05 [K]
-------------------------------------------------------------------------------
    external field VDW/kʙ        0.000000e+00 [K]
    external field Real/kʙ       0.000000e+00 [K]
    framework-molecule VDW/kʙ    0.000000e+00 [K]
    framework-molecule Real/kʙ   0.000000e+00 [K]
    molecule-molecule VDW/kʙ    -2.966722e+05 [K]
    molecule-molecule Real/kʙ   -9.301032e+04 [K]
    Van der Waals (Tail)/kʙ     -9.410429e+03 [K]
    Ewald Fourier/kʙ             9.407814e+03 [K]
    Ewald self/kʙ               -5.029674e+06 [K]
    Ewald exclusion/kʙ           5.006983e+06 [K]
    intra VDW/kʙ                 0.000000e+00 [K]
    intra Coulombic/kʙ           0.000000e+00 [K]
    polarization/kʙ              0.000000e+00 [K]
    dU/dlambda VDW/kʙ            0.000000e+00 [K]
    dU/dlambda Real/kʙ           0.000000e+00 [K]
    dU/dlambda Ewald/kʙ          0.000000e+00 [K]


Current cycle: 0 out of 5000
===============================================================================

Box:      25.32432   0.00000   0.00000  Average:  25.32432   0.00000   0.00000
           0.00000  25.32432   0.00000             0.00000  25.32432   0.00000
           0.00000   0.00000  25.32432             0.00000   0.00000  25.32432
Lengths:  25.32432  25.32432  25.32432  Average:  25.32432  25.32432  25.32432
Angles:   90.00000  90.00000  90.00000  Average:  90.00000  90.00000  90.00000
Rectangular boundary conditions

net charge:   0.00000000

component 0 (CO2) lambda:  0 occupancy:  1 (1.000000)
    net charge:   0.00000000 [e]

Amount of molecules per component :
-------------------------------------------------------------------------------
Component 0 (CO2)
    molecules:      2.500000e+02 molecules  (2.500000e+02 +/- 0.000000e+00)
    number density: 1.539312e-02 molec./A^3 (1.539312e-02 +/- 0.000000e+00)
    density:        1.124647e+03 kg/m^3     (1.124647e+03 +/- 0.000000e+00)

Average pressure tensor: 
-------------------------------------------------------------------------------
 5.3131e+02  0.0000e+00  0.0000e+00 +/- 0.0000e+00 0.0000e+00 0.0000e+00 [bar]
 0.0000e+00  5.3131e+02  0.0000e+00 +/- 0.0000e+00 0.0000e+00 0.0000e+00 [bar]
 0.0000e+00  0.0000e+00  5.3131e+02 +/- 0.0000e+00 0.0000e+00 0.0000e+00 [bar]
Ideal-gas pressure:   5.313128e+02 +/ 0.000000e+00 [bar]
Excess pressure:      0.000000e+00 +/ 0.000000e+00 [bar]
Pressure:             5.313128e+02 +/ 0.000000e+00 [bar]

Total potential energy/kʙ  -4.038015e+05 (-4.038015e+05 +/- 0.000000e+00) [K]
-------------------------------------------------------------------------------
ExternalField-molecule
    Van der Waals/kʙ        0.000000e+00 ( 0.000000e+00 +/- 0.000000e+00) [K]
Framework-molecule
    Van der Waals/kʙ        0.000000e+00 ( 0.000000e+00 +/- 0.000000e+00) [K]
    Van der Waals (Tail)/kʙ 0.000000e+00 ( 0.000000e+00 +/- 0.000000e+00) [K]
    Coulombic Real/kʙ       0.000000e+00 ( 0.000000e+00 +/- 0.000000e+00) [K]
    Coulombic Fourier/kʙ    0.000000e+00 ( 0.000000e+00 +/- 0.000000e+00) [K]
Molecule-molecule
    Van der Waals/kʙ       -2.840526e+05 (-2.840526e+05 +/- 0.000000e+00) [K]
    Van der Waals (Tail)/kʙ-9.277776e+03 (-9.277776e+03 +/- 0.000000e+00) [K]
    Coulombic Real/kʙ      -9.661505e+04 (-9.661505e+04 +/- 0.000000e+00) [K]
    Coulombic Fourier/kʙ   -1.385608e+04 (-1.385608e+04 +/- 0.000000e+00) [K]
    Molecule Intra/kʙ       0.000000e+00 ( 0.000000e+00 +/- 0.000000e+00) [K]

Current cycle: 100 out of 5000
===============================================================================

Box:      25.43578   0.00000   0.00000  Average:  25.33390   0.00000   0.00000
           0.00000  25.43578   0.00000             0.00000  25.33390   0.00000
           0.00000   0.00000  25.43578             0.00000   0.00000  25.33390
Lengths:  25.43578  25.43578  25.43578  Average:  25.33390  25.33390  25.33390
Angles:   90.00000  90.00000  90.00000  Average:  90.00000  90.00000  90.00000
Rectangular boundary conditions

net charge:   0.00000000

component 0 (CO2) lambda:  0 occupancy:  1 (1.000000)
    net charge:   0.00000000 [e]

Amount of molecules per component :
-------------------------------------------------------------------------------
Component 0 (CO2)
    molecules:      2.500000e+02 molecules  (2.500000e+02 +/- 0.000000e+00)
    number density: 1.519165e-02 molec./A^3 (1.537695e-02 +/- 0.000000e+00)
    density:        1.109928e+03 kg/m^3     (1.123467e+03 +/- 0.000000e+00)

Average pressure tensor: 
-------------------------------------------------------------------------------
 2.0752e+02 -3.2482e+01  4.8559e+01 +/- 0.0000e+00 0.0000e+00 0.0000e+00 [bar]
-3.2482e+01  7.4421e+01 -1.5145e+01 +/- 0.0000e+00 0.0000e+00 0.0000e+00 [bar]
 4.8559e+01 -1.5145e+01  3.5715e+02 +/- 0.0000e+00 0.0000e+00 0.0000e+00 [bar]
Ideal-gas pressure:   5.307549e+02 +/ 0.000000e+00 [bar]
Excess pressure:     -3.177245e+02 +/ 0.000000e+00 [bar]
Pressure:             2.130304e+02 +/ 0.000000e+00 [bar]

Total potential energy/kʙ  -3.995194e+05 (-4.083591e+05 +/- 0.000000e+00) [K]
-------------------------------------------------------------------------------
ExternalField-molecule
    Van der Waals/kʙ        0.000000e+00 ( 0.000000e+00 +/- 0.000000e+00) [K]
Framework-molecule
    Van der Waals/kʙ        0.000000e+00 ( 0.000000e+00 +/- 0.000000e+00) [K]
    Van der Waals (Tail)/kʙ 0.000000e+00 ( 0.000000e+00 +/- 0.000000e+00) [K]
    Coulombic Real/kʙ       0.000000e+00 ( 0.000000e+00 +/- 0.000000e+00) [K]
    Coulombic Fourier/kʙ    0.000000e+00 ( 0.000000e+00 +/- 0.000000e+00) [K]
Molecule-molecule
    Van der Waals/kʙ       -2.900547e+05 (-2.917312e+05 +/- 0.000000e+00) [K]
    Van der Waals (Tail)/kʙ-9.156346e+03 (-9.260714e+03 +/- 0.000000e+00) [K]
    Coulombic Real/kʙ      -8.737890e+04 (-9.382797e+04 +/- 0.000000e+00) [K]
    Coulombic Fourier/kʙ   -1.292944e+04 (-1.353917e+04 +/- 0.000000e+00) [K]
    Molecule Intra/kʙ       0.000000e+00 ( 0.000000e+00 +/- 0.000000e+00) [K]

Current cycle: 200 out of 5000
===============================================================================

Box:      25.35919   0.00000   0.00000  Average:  25.39618   0.00000   0.00000
           0.00000  25.35919   0.00000             0.00000  25.39618   0.00000
           0.00000   0.00000  25.35919             0.00000   0.00000  25.39618
Lengths:  25.35919  25.35919  25.35919  Average:  25.39618  25.39618  25.39618
Angles:   90.00000  90.00000  90.00000  Average:  90.00000  90.00000  90.00000
Rectangular boundary conditions

net charge:   0.00000000

component 0 (CO2) lambda:  0 occupancy:  1 (1.000000)
    net charge:   0.00000000 [e]

Amount of molecules per component :
-------------------------------------------------------------------------------
Component 0 (CO2)
    molecules:      2.500000e+02 molecules  (2.500000e+02 +/- 0.000000e+00)
    number density: 1.532971e-02 molec./A^3 (1.526497e-02 +/- 0.000000e+00)
    density:        1.120015e+03 kg/m^3     (1.115285e+03 +/- 0.000000e+00)

Average pressure tensor: 
-------------------------------------------------------------------------------
 3.2257e+02  4.1383e+01 -6.8063e+01 +/- 0.0000e+00 0.0000e+00 0.0000e+00 [bar]
 4.1383e+01  8.5173e+01  3.8777e+01 +/- 0.0000e+00 0.0000e+00 0.0000e+00 [bar]
-6.8063e+01  3.8777e+01  2.5807e+02 +/- 0.0000e+00 0.0000e+00 0.0000e+00 [bar]
Ideal-gas pressure:   5.268895e+02 +/ 0.000000e+00 [bar]
Excess pressure:     -3.049497e+02 +/ 0.000000e+00 [bar]
Pressure:             2.219398e+02 +/ 0.000000e+00 [bar]

Total potential energy/kʙ  -4.019885e+05 (-4.050799e+05 +/- 0.000000e+00) [K]
-------------------------------------------------------------------------------
ExternalField-molecule
    Van der Waals/kʙ        0.000000e+00 ( 0.000000e+00 +/- 0.000000e+00) [K]
Framework-molecule
    Van der Waals/kʙ        0.000000e+00 ( 0.000000e+00 +/- 0.000000e+00) [K]
    Van der Waals (Tail)/kʙ 0.000000e+00 ( 0.000000e+00 +/- 0.000000e+00) [K]
    Coulombic Real/kʙ       0.000000e+00 ( 0.000000e+00 +/- 0.000000e+00) [K]
    Coulombic Fourier/kʙ    0.000000e+00 ( 0.000000e+00 +/- 0.000000e+00) [K]
Molecule-molecule
    Van der Waals/kʙ       -2.883443e+05 (-2.901358e+05 +/- 0.000000e+00) [K]
    Van der Waals (Tail)/kʙ-9.239559e+03 (-9.212617e+03 +/- 0.000000e+00) [K]
    Coulombic Real/kʙ      -9.051962e+04 (-9.217875e+04 +/- 0.000000e+00) [K]
    Coulombic Fourier/kʙ   -1.388502e+04 (-1.355275e+04 +/- 0.000000e+00) [K]
    Molecule Intra/kʙ       0.000000e+00 ( 0.000000e+00 +/- 0.000000e+00) [K]

Current cycle: 300 out of 5000
===============================================================================

Box:      25.38913   0.00000   0.00000  Average:  25.38066   0.00000   0.00000
           0.00000  25.38913   0.00000             0.00000  25.38066   0.00000
           0.00000   0.00000  25.38913             0.00000   0.00000  25.38066
Lengths:  25.38913  25.38913  25.38913  Average:  25.38066  25.38066  25.38066
Angles:   90.00000  90.00000  90.00000  Average:  90.00000  90.00000  90.00000
Rectangular boundary conditions

net charge:   0.00000000

component 0 (CO2) lambda:  0 occupancy:  1 (1.000000)
    net charge:   0.00000000 [e]

Amount of molecules per component :
-------------------------------------------------------------------------------
Component 0 (CO2)
    molecules:      2.500000e+02 molecules  (2.500000e+02 +/- 0.000000e+00)
    number density: 1.527555e-02 molec./A^3 (1.529261e-02 +/- 0.000000e+00)
    density:        1.116058e+03 kg/m^3     (1.117304e+03 +/- 0.000000e+00)

Average pressure tensor: 
-------------------------------------------------------------------------------
 2.5256e+02  8.5408e+01 -9.9425e+01 +/- 0.0000e+00 0.0000e+00 0.0000e+00 [bar]
 8.5408e+01  5.8217e+01 -2.1946e+01 +/- 0.0000e+00 0.0000e+00 0.0000e+00 [bar]
-9.9425e+01 -2.1946e+01  3.1064e+02 +/- 0.0000e+00 0.0000e+00 0.0000e+00 [bar]
Ideal-gas pressure:   5.278437e+02 +/ 0.000000e+00 [bar]
Excess pressure:     -3.207038e+02 +/ 0.000000e+00 [bar]
Pressure:             2.071399e+02 +/ 0.000000e+00 [bar]

Total potential energy/kʙ  -4.092421e+05 (-4.062754e+05 +/- 0.000000e+00) [K]
-------------------------------------------------------------------------------
ExternalField-molecule
    Van der Waals/kʙ        0.000000e+00 ( 0.000000e+00 +/- 0.000000e+00) [K]
Framework-molecule
    Van der Waals/kʙ        0.000000e+00 ( 0.000000e+00 +/- 0.000000e+00) [K]
    Van der Waals (Tail)/kʙ 0.000000e+00 ( 0.000000e+00 +/- 0.000000e+00) [K]
    Coulombic Real/kʙ       0.000000e+00 ( 0.000000e+00 +/- 0.000000e+00) [K]
    Coulombic Fourier/kʙ    0.000000e+00 ( 0.000000e+00 +/- 0.000000e+00) [K]
Molecule-molecule
    Van der Waals/kʙ       -2.904046e+05 (-2.910280e+05 +/- 0.000000e+00) [K]
    Van der Waals (Tail)/kʙ-9.206914e+03 (-9.222405e+03 +/- 0.000000e+00) [K]
    Coulombic Real/kʙ      -9.611509e+04 (-9.242934e+04 +/- 0.000000e+00) [K]
    Coulombic Fourier/kʙ   -1.351558e+04 (-1.359572e+04 +/- 0.000000e+00) [K]
    Molecule Intra/kʙ       0.000000e+00 ( 0.000000e+00 +/- 0.000000e+00) [K]

Current cycle: 400 out of 5000
===============================================================================

Box:      25.32453   0.00000   0.00000  Average:  25.38528   0.00000   0.00000
           0.00000  25.32453   0.00000             0.00000  25.38528   0.00000
           0.00000   0.00000  25.32453             0.00000   0.00000  25.38528
Lengths:  25.32453  25.32453  25.32453  Average:  25.38528  25.38528  25.38528
Angles:   90.00000  90.00000  90.00000  Average:  90.00000  90.00000  90.00000
Rectangular boundary conditions

net charge:   0.00000000

component 0 (CO2) lambda:  0 occupancy:  1 (1.000000)
    net charge:   0.00000000 [e]

Amount of molecules per component :
-------------------------------------------------------------------------------
Component 0 (CO2)
    molecules:      2.500000e+02 molecules  (2.500000e+02 +/- 0.000000e+00)
    number density: 1.539274e-02 molec./A^3 (1.528410e-02 +/- 0.000000e+00)
    density:        1.124620e+03 kg/m^3     (1.116683e+03 +/- 0.000000e+00)

Average pressure tensor: 
-------------------------------------------------------------------------------
 2.4436e+02  1.1243e+02 -8.5520e+01 +/- 0.0000e+00 0.0000e+00 0.0000e+00 [bar]
 1.1243e+02  5.4915e+01 -6.1112e+01 +/- 0.0000e+00 0.0000e+00 0.0000e+00 [bar]
-8.5520e+01 -6.1112e+01  3.0192e+02 +/- 0.0000e+00 0.0000e+00 0.0000e+00 [bar]
Ideal-gas pressure:   5.275500e+02 +/ 0.000000e+00 [bar]
Excess pressure:     -3.271536e+02 +/ 0.000000e+00 [bar]
Pressure:             2.003965e+02 +/ 0.000000e+00 [bar]

Total potential energy/kʙ  -4.028637e+05 (-4.060294e+05 +/- 0.000000e+00) [K]
-------------------------------------------------------------------------------
ExternalField-molecule
    Van der Waals/kʙ        0.000000e+00 ( 0.000000e+00 +/- 0.000000e+00) [K]
Framework-molecule
    Van der Waals/kʙ        0.000000e+00 ( 0.000000e+00 +/- 0.000000e+00) [K]
    Van der Waals (Tail)/kʙ 0.000000e+00 ( 0.000000e+00 +/- 0.000000e+00) [K]
    Coulombic Real/kʙ       0.000000e+00 ( 0.000000e+00 +/- 0.000000e+00) [K]
    Coulombic Fourier/kʙ    0.000000e+00 ( 0.000000e+00 +/- 0.000000e+00) [K]
Molecule-molecule
    Van der Waals/kʙ       -2.931034e+05 (-2.910133e+05 +/- 0.000000e+00) [K]
    Van der Waals (Tail)/kʙ-9.277549e+03 (-9.216893e+03 +/- 0.000000e+00) [K]
    Coulombic Real/kʙ      -8.727625e+04 (-9.221394e+04 +/- 0.000000e+00) [K]
    Coulombic Fourier/kʙ   -1.320649e+04 (-1.358526e+04 +/- 0.000000e+00) [K]
    Molecule Intra/kʙ       0.000000e+00 ( 0.000000e+00 +/- 0.000000e+00) [K]

Current cycle: 500 out of 5000
===============================================================================

Box:      25.33957   0.00000   0.00000  Average:  25.38270   0.00000   0.00000
           0.00000  25.33957   0.00000             0.00000  25.38270   0.00000
           0.00000   0.00000  25.33957             0.00000   0.00000  25.38270
Lengths:  25.33957  25.33957  25.33957  Average:  25.38270  25.38270  25.38270
Angles:   90.00000  90.00000  90.00000  Average:  90.00000  90.00000  90.00000
Rectangular boundary conditions

net charge:   0.00000000

component 0 (CO2) lambda:  0 occupancy:  1 (1.000000)
    net charge:   0.00000000 [e]

Amount of molecules per component :
-------------------------------------------------------------------------------
Component 0 (CO2)
    molecules:      2.500000e+02 molecules  (2.500000e+02 +/- 0.000000e+00)
    number density: 1.536534e-02 molec./A^3 (1.528877e-02 +/- 0.000000e+00)
    density:        1.122618e+03 kg/m^3     (1.117024e+03 +/- 0.000000e+00)

Average pressure tensor: 
-------------------------------------------------------------------------------
 2.2628e+02  8.7825e+01 -9.9029e+01 +/- 0.0000e+00 0.0000e+00 0.0000e+00 [bar]
 8.7825e+01  8.5365e+01 -5.3959e+01 +/- 0.0000e+00 0.0000e+00 0.0000e+00 [bar]
-9.9029e+01 -5.3959e+01  2.7729e+02 +/- 0.0000e+00 0.0000e+00 0.0000e+00 [bar]
Ideal-gas pressure:   5.277112e+02 +/ 0.000000e+00 [bar]
Excess pressure:     -3.313967e+02 +/ 0.000000e+00 [bar]
Pressure:             1.963145e+02 +/ 0.000000e+00 [bar]

Total potential energy/kʙ  -4.110318e+05 (-4.056839e+05 +/- 0.000000e+00) [K]
-------------------------------------------------------------------------------
ExternalField-molecule
    Van der Waals/kʙ        0.000000e+00 ( 0.000000e+00 +/- 0.000000e+00) [K]
Framework-molecule
    Van der Waals/kʙ        0.000000e+00 ( 0.000000e+00 +/- 0.000000e+00) [K]
    Van der Waals (Tail)/kʙ 0.000000e+00 ( 0.000000e+00 +/- 0.000000e+00) [K]
    Coulombic Real/kʙ       0.000000e+00 ( 0.000000e+00 +/- 0.000000e+00) [K]
    Coulombic Fourier/kʙ    0.000000e+00 ( 0.000000e+00 +/- 0.000000e+00) [K]
Molecule-molecule
    Van der Waals/kʙ       -2.939490e+05 (-2.912163e+05 +/- 0.000000e+00) [K]
    Van der Waals (Tail)/kʙ-9.261035e+03 (-9.218306e+03 +/- 0.000000e+00) [K]
    Coulombic Real/kʙ      -9.474429e+04 (-9.175107e+04 +/- 0.000000e+00) [K]
    Coulombic Fourier/kʙ   -1.307747e+04 (-1.349825e+04 +/- 0.000000e+00) [K]
    Molecule Intra/kʙ       0.000000e+00 ( 0.000000e+00 +/- 0.000000e+00) [K]

Current cycle: 600 out of 5000
===============================================================================

Box:      25.27123   0.00000   0.00000  Average:  25.38337   0.00000   0.00000
           0.00000  25.27123   0.00000             0.00000  25.38337   0.00000
           0.00000   0.00000  25.27123             0.00000   0.00000  25.38337
Lengths:  25.27123  25.27123  25.27123  Average:  25.38337  25.38337  25.38337
Angles:   90.00000  90.00000  90.00000  Average:  90.00000  90.00000  90.00000
Rectangular boundary conditions

net charge:   0.00000000

component 0 (CO2) lambda:  0 occupancy:  1 (1.000000)
    net charge:   0.00000000 [e]

Amount of molecules per component :
-------------------------------------------------------------------------------
Component 0 (CO2)
    molecules:      2.500000e+02 molecules  (2.500000e+02 +/- 0.000000e+00)
    number density: 1.549034e-02 molec./A^3 (1.528747e-02 +/- 0.000000e+00)
    density:        1.131751e+03 kg/m^3     (1.116929e+03 +/- 0.000000e+00)

Average pressure tensor: 
-------------------------------------------------------------------------------
 2.2134e+02  5.0916e+01 -9.1092e+01 +/- 0.0000e+00 0.0000e+00 0.0000e+00 [bar]
 5.0916e+01  8.4485e+01 -2.0750e+01 +/- 0.0000e+00 0.0000e+00 0.0000e+00 [bar]
-9.1092e+01 -2.0750e+01  2.9706e+02 +/- 0.0000e+00 0.0000e+00 0.0000e+00 [bar]
Ideal-gas pressure:   5.276663e+02 +/ 0.000000e+00 [bar]
Excess pressure:     -3.267057e+02 +/ 0.000000e+00 [bar]
Pressure:             2.009607e+02 +/ 0.000000e+00 [bar]

Total potential energy/kʙ  -4.109564e+05 (-4.055738e+05 +/- 0.000000e+00) [K]
-------------------------------------------------------------------------------
ExternalField-molecule
    Van der Waals/kʙ        0.000000e+00 ( 0.000000e+00 +/- 0.000000e+00) [K]
Framework-molecule
    Van der Waals/kʙ        0.000000e+00 ( 0.000000e+00 +/- 0.000000e+00) [K]
    Van der Waals (Tail)/kʙ 0.000000e+00 ( 0.000000e+00 +/- 0.000000e+00) [K]
    Coulombic Real/kʙ       0.000000e+00 ( 0.000000e+00 +/- 0.000000e+00) [K]
    Coulombic Fourier/kʙ    0.000000e+00 ( 0.000000e+00 +/- 0.000000e+00) [K]
Molecule-molecule
    Van der Waals/kʙ       -2.924340e+05 (-2.909759e+05 +/- 0.000000e+00) [K]
    Van der Waals (Tail)/kʙ-9.336375e+03 (-9.222476e+03 +/- 0.000000e+00) [K]
    Coulombic Real/kʙ      -9.589650e+04 (-9.193017e+04 +/- 0.000000e+00) [K]
    Coulombic Fourier/kʙ   -1.328953e+04 (-1.344526e+04 +/- 0.000000e+00) [K]
    Molecule Intra/kʙ       0.000000e+00 ( 0.000000e+00 +/- 0.000000e+00) [K]

Current cycle: 700 out of 5000
===============================================================================

Box:      25.07205   0.00000   0.00000  Average:  25.35360   0.00000   0.00000
           0.00000  25.07205   0.00000             0.00000  25.35360   0.00000
           0.00000   0.00000  25.07205             0.00000   0.00000  25.35360
Lengths:  25.07205  25.07205  25.07205  Average:  25.35360  25.35360  25.35360
Angles:   90.00000  90.00000  90.00000  Average:  90.00000  90.00000  90.00000
Rectangular boundary conditions

net charge:   0.00000000

component 0 (CO2) lambda:  0 occupancy:  1 (1.000000)
    net charge:   0.00000000 [e]

Amount of molecules per component :
-------------------------------------------------------------------------------
Component 0 (CO2)
    molecules:      2.500000e+02 molecules  (2.500000e+02 +/- 0.000000e+00)
    number density: 1.586246e-02 molec./A^3 (1.534207e-02 +/- 0.000000e+00)
    density:        1.158939e+03 kg/m^3     (1.120918e+03 +/- 0.000000e+00)

Average pressure tensor: 
-------------------------------------------------------------------------------
 2.1690e+02  5.1287e+01 -1.0948e+02 +/- 0.0000e+00 0.0000e+00 0.0000e+00 [bar]
 5.1287e+01  9.8810e+01 -1.4602e+01 +/- 0.0000e+00 0.0000e+00 0.0000e+00 [bar]
-1.0948e+02 -1.4602e+01  3.0402e+02 +/- 0.0000e+00 0.0000e+00 0.0000e+00 [bar]
Ideal-gas pressure:   5.295510e+02 +/ 0.000000e+00 [bar]
Excess pressure:     -3.229742e+02 +/ 0.000000e+00 [bar]
Pressure:             2.065768e+02 +/ 0.000000e+00 [bar]

Total potential energy/kʙ  -4.191932e+05 (-4.071959e+05 +/- 0.000000e+00) [K]
-------------------------------------------------------------------------------
ExternalField-molecule
    Van der Waals/kʙ        0.000000e+00 ( 0.000000e+00 +/- 0.000000e+00) [K]
Framework-molecule
    Van der Waals/kʙ        0.000000e+00 ( 0.000000e+00 +/- 0.000000e+00) [K]
    Van der Waals (Tail)/kʙ 0.000000e+00 ( 0.000000e+00 +/- 0.000000e+00) [K]
    Coulombic Real/kʙ       0.000000e+00 ( 0.000000e+00 +/- 0.000000e+00) [K]
    Coulombic Fourier/kʙ    0.000000e+00 ( 0.000000e+00 +/- 0.000000e+00) [K]
Molecule-molecule
    Van der Waals/kʙ       -3.035723e+05 (-2.921698e+05 +/- 0.000000e+00) [K]
    Van der Waals (Tail)/kʙ-9.560662e+03 (-9.255104e+03 +/- 0.000000e+00) [K]
    Coulombic Real/kʙ      -9.253777e+04 (-9.235201e+04 +/- 0.000000e+00) [K]
    Coulombic Fourier/kʙ   -1.352251e+04 (-1.341897e+04 +/- 0.000000e+00) [K]
    Molecule Intra/kʙ       0.000000e+00 ( 0.000000e+00 +/- 0.000000e+00) [K]

Current cycle: 800 out of 5000
===============================================================================

Box:      25.41503   0.00000   0.00000  Average:  25.34071   0.00000   0.00000
           0.00000  25.41503   0.00000             0.00000  25.34071   0.00000
           0.00000   0.00000  25.41503             0.00000   0.00000  25.34071
Lengths:  25.41503  25.41503  25.41503  Average:  25.34071  25.34071  25.34071
Angles:   90.00000  90.00000  90.00000  Average:  90.00000  90.00000  90.00000
Rectangular boundary conditions

net charge:   0.00000000

component 0 (CO2) lambda:  0 occupancy:  1 (1.000000)
    net charge:   0.00000000 [e]

Amount of molecules per component :
-------------------------------------------------------------------------------
Component 0 (CO2)
    molecules:      2.500000e+02 molecules  (2.500000e+02 +/- 0.000000e+00)
    number density: 1.522888e-02 molec./A^3 (1.536552e-02 +/- 0.000000e+00)
    density:        1.112648e+03 kg/m^3     (1.122632e+03 +/- 0.000000e+00)

Average pressure tensor: 
-------------------------------------------------------------------------------
 2.2096e+02  5.9681e+01 -1.1426e+02 +/- 0.0000e+00 0.0000e+00 0.0000e+00 [bar]
 5.9681e+01  1.2343e+02  3.3822e+00 +/- 0.0000e+00 0.0000e+00 0.0000e+00 [bar]
-1.1426e+02  3.3822e+00  2.9827e+02 +/- 0.0000e+00 0.0000e+00 0.0000e+00 [bar]
Ideal-gas pressure:   5.303604e+02 +/ 0.000000e+00 [bar]
Excess pressure:     -3.161434e+02 +/ 0.000000e+00 [bar]
Pressure:             2.142170e+02 +/ 0.000000e+00 [bar]

Total potential energy/kʙ  -4.108619e+05 (-4.078637e+05 +/- 0.000000e+00) [K]
-------------------------------------------------------------------------------
ExternalField-molecule
    Van der Waals/kʙ        0.000000e+00 ( 0.000000e+00 +/- 0.000000e+00) [K]
Framework-molecule
    Van der Waals/kʙ        0.000000e+00 ( 0.000000e+00 +/- 0.000000e+00) [K]
    Van der Waals (Tail)/kʙ 0.000000e+00 ( 0.000000e+00 +/- 0.000000e+00) [K]
    Coulombic Real/kʙ       0.000000e+00 ( 0.000000e+00 +/- 0.000000e+00) [K]
    Coulombic Fourier/kʙ    0.000000e+00 ( 0.000000e+00 +/- 0.000000e+00) [K]
Molecule-molecule
    Van der Waals/kʙ       -2.924674e+05 (-2.924913e+05 +/- 0.000000e+00) [K]
    Van der Waals (Tail)/kʙ-9.178785e+03 (-9.267353e+03 +/- 0.000000e+00) [K]
    Coulombic Real/kʙ      -9.512486e+04 (-9.265415e+04 +/- 0.000000e+00) [K]
    Coulombic Fourier/kʙ   -1.409089e+04 (-1.345087e+04 +/- 0.000000e+00) [K]
    Molecule Intra/kʙ       0.000000e+00 ( 0.000000e+00 +/- 0.000000e+00) [K]

Current cycle: 900 out of 5000
===============================================================================

Box:      25.45468   0.00000   0.00000  Average:  25.35691   0.00000   0.00000
           0.00000  25.45468   0.00000             0.00000  25.35691   0.00000
           0.00000   0.00000  25.45468             0.00000   0.00000  25.35691
Lengths:  25.45468  25.45468  25.45468  Average:  25.35691  25.35691  25.35691
Angles:   90.00000  90.00000  90.00000  Average:  90.00000  90.00000  90.00000
Rectangular boundary conditions

net charge:   0.00000000

component 0 (CO2) lambda:  0 occupancy:  1 (1.000000)
    net charge:   0.00000000 [e]

Amount of molecules per component :
-------------------------------------------------------------------------------
Component 0 (CO2)
    molecules:      2.500000e+02 molecules  (2.500000e+02 +/- 0.000000e+00)
    number density: 1.515784e-02 molec./A^3 (1.533641e-02 +/- 0.000000e+00)
    density:        1.107458e+03 kg/m^3     (1.120504e+03 +/- 0.000000e+00)

Average pressure tensor: 
-------------------------------------------------------------------------------
 2.0103e+02  7.2614e+01 -1.0465e+02 +/- 0.0000e+00 0.0000e+00 0.0000e+00 [bar]
 7.2614e+01  1.0575e+02  1.4734e+01 +/- 0.0000e+00 0.0000e+00 0.0000e+00 [bar]
-1.0465e+02  1.4734e+01  2.5299e+02 +/- 0.0000e+00 0.0000e+00 0.0000e+00 [bar]
Ideal-gas pressure:   5.293554e+02 +/ 0.000000e+00 [bar]
Excess pressure:     -3.427665e+02 +/ 0.000000e+00 [bar]
Pressure:             1.865889e+02 +/ 0.000000e+00 [bar]

Total potential energy/kʙ  -3.973071e+05 (-4.072104e+05 +/- 0.000000e+00) [K]
-------------------------------------------------------------------------------
ExternalField-molecule
    Van der Waals/kʙ        0.000000e+00 ( 0.000000e+00 +/- 0.000000e+00) [K]
Framework-molecule
    Van der Waals/kʙ        0.000000e+00 ( 0.000000e+00 +/- 0.000000e+00) [K]
    Van der Waals (Tail)/kʙ 0.000000e+00 ( 0.000000e+00 +/- 0.000000e+00) [K]
    Coulombic Real/kʙ       0.000000e+00 ( 0.000000e+00 +/- 0.000000e+00) [K]
    Coulombic Fourier/kʙ    0.000000e+00 ( 0.000000e+00 +/- 0.000000e+00) [K]
Molecule-molecule
    Van der Waals/kʙ       -2.813602e+05 (-2.919006e+05 +/- 0.000000e+00) [K]
    Van der Waals (Tail)/kʙ-9.135968e+03 (-9.247727e+03 +/- 0.000000e+00) [K]
    Coulombic Real/kʙ      -9.385471e+04 (-9.263075e+04 +/- 0.000000e+00) [K]
    Coulombic Fourier/kʙ   -1.295627e+04 (-1.343136e+04 +/- 0.000000e+00) [K]
    Molecule Intra/kʙ       0.000000e+00 ( 0.000000e+00 +/- 0.000000e+00) [K]

Current cycle: 1000 out of 5000
===============================================================================

Box:      25.42911   0.00000   0.00000  Average:  25.36571   0.00000   0.00000
           0.00000  25.42911   0.00000             0.00000  25.36571   0.00000
           0.00000   0.00000  25.42911             0.00000   0.00000  25.36571
Lengths:  25.42911  25.42911  25.42911  Average:  25.36571  25.36571  25.36571
Angles:   90.00000  90.00000  90.00000  Average:  90.00000  90.00000  90.00000
Rectangular boundary conditions

net charge:   0.00000000

component 0 (CO2) lambda:  0 occupancy:  1 (1.000000)
    net charge:   0.00000000 [e]

Amount of molecules per component :
-------------------------------------------------------------------------------
Component 0 (CO2)
    molecules:      2.500000e+02 molecules  (2.500000e+02 +/- 0.000000e+00)
    number density: 1.520361e-02 molec./A^3 (1.532043e-02 +/- 0.000000e+00)
    density:        1.110802e+03 kg/m^3     (1.119337e+03 +/- 0.000000e+00)

Average pressure tensor: 
-------------------------------------------------------------------------------
 1.8837e+02  5.7091e+01 -9.6931e+01 +/- 0.0000e+00 0.0000e+00 0.0000e+00 [bar]
 5.7091e+01  1.2955e+02  4.3122e+01 +/- 0.0000e+00 0.0000e+00 0.0000e+00 [bar]
-9.6931e+01  4.3122e+01  2.5862e+02 +/- 0.0000e+00 0.0000e+00 0.0000e+00 [bar]
Ideal-gas pressure:   5.288039e+02 +/ 0.000000e+00 [bar]
Excess pressure:     -3.366246e+02 +/ 0.000000e+00 [bar]
Pressure:             1.921794e+02 +/ 0.000000e+00 [bar]

Total potential energy/kʙ  -4.112130e+05 (-4.068809e+05 +/- 0.000000e+00) [K]
-------------------------------------------------------------------------------
ExternalField-molecule
    Van der Waals/kʙ        0.000000e+00 ( 0.000000e+00 +/- 0.000000e+00) [K]
Framework-molecule
    Van der Waals/kʙ        0.000000e+00 ( 0.000000e+00 +/- 0.000000e+00) [K]
    Van der Waals (Tail)/kʙ 0.000000e+00 ( 0.000000e+00 +/- 0.000000e+00) [K]
    Coulombic Real/kʙ       0.000000e+00 ( 0.000000e+00 +/- 0.000000e+00) [K]
    Coulombic Fourier/kʙ    0.000000e+00 ( 0.000000e+00 +/- 0.000000e+00) [K]
Molecule-molecule
    Van der Waals/kʙ       -2.950832e+05 (-2.914430e+05 +/- 0.000000e+00) [K]
    Van der Waals (Tail)/kʙ-9.163556e+03 (-9.237493e+03 +/- 0.000000e+00) [K]
    Coulombic Real/kʙ      -9.352420e+04 (-9.279011e+04 +/- 0.000000e+00) [K]
    Coulombic Fourier/kʙ   -1.344208e+04 (-1.341025e+04 +/- 0.000000e+00) [K]
    Molecule Intra/kʙ       0.000000e+00 ( 0.000000e+00 +/- 0.000000e+00) [K]

Current cycle: 1100 out of 5000
===============================================================================

Box:      25.35128   0.00000   0.00000  Average:  25.36863   0.00000   0.00000
           0.00000  25.35128   0.00000             0.00000  25.36863   0.00000
           0.00000   0.00000  25.35128             0.00000   0.00000  25.36863
Lengths:  25.35128  25.35128  25.35128  Average:  25.36863  25.36863  25.36863
Angles:   90.00000  90.00000  90.00000  Average:  90.00000  90.00000  90.00000
Rectangular boundary conditions

net charge:   0.00000000

component 0 (CO2) lambda:  0 occupancy:  1 (1.000000)
    net charge:   0.00000000 [e]

Amount of molecules per component :
-------------------------------------------------------------------------------
Component 0 (CO2)
    molecules:      2.500000e+02 molecules  (2.500000e+02 +/- 0.000000e+00)
    number density: 1.534406e-02 molec./A^3 (1.531500e-02 +/- 0.000000e+00)
    density:        1.121063e+03 kg/m^3     (1.118940e+03 +/- 0.000000e+00)

Average pressure tensor: 
-------------------------------------------------------------------------------
 1.7256e+02  4.8251e+01 -8.8550e+01 +/- 0.0000e+00 0.0000e+00 0.0000e+00 [bar]
 4.8251e+01  1.3492e+02  4.6053e+01 +/- 0.0000e+00 0.0000e+00 0.0000e+00 [bar]
-8.8550e+01  4.6053e+01  2.3960e+02 +/- 0.0000e+00 0.0000e+00 0.0000e+00 [bar]
Ideal-gas pressure:   5.286165e+02 +/ 0.000000e+00 [bar]
Excess pressure:     -3.462541e+02 +/ 0.000000e+00 [bar]
Pressure:             1.823624e+02 +/ 0.000000e+00 [bar]

Total potential energy/kʙ  -4.071899e+05 (-4.066077e+05 +/- 0.000000e+00) [K]
-------------------------------------------------------------------------------
ExternalField-molecule
    Van der Waals/kʙ        0.000000e+00 ( 0.000000e+00 +/- 0.000000e+00) [K]
Framework-molecule
    Van der Waals/kʙ        0.000000e+00 ( 0.000000e+00 +/- 0.000000e+00) [K]
    Van der Waals (Tail)/kʙ 0.000000e+00 ( 0.000000e+00 +/- 0.000000e+00) [K]
    Coulombic Real/kʙ       0.000000e+00 ( 0.000000e+00 +/- 0.000000e+00) [K]
    Coulombic Fourier/kʙ    0.000000e+00 ( 0.000000e+00 +/- 0.000000e+00) [K]
Molecule-molecule
    Van der Waals/kʙ       -2.905603e+05 (-2.913332e+05 +/- 0.000000e+00) [K]
    Van der Waals (Tail)/kʙ-9.248209e+03 (-9.232061e+03 +/- 0.000000e+00) [K]
    Coulombic Real/kʙ      -9.348248e+04 (-9.259876e+04 +/- 0.000000e+00) [K]
    Coulombic Fourier/kʙ   -1.389887e+04 (-1.344364e+04 +/- 0.000000e+00) [K]
    Molecule Intra/kʙ       0.000000e+00 ( 0.000000e+00 +/- 0.000000e+00) [K]

Current cycle: 1200 out of 5000
===============================================================================

Box:      25.57498   0.00000   0.00000  Average:  25.37290   0.00000   0.00000
           0.00000  25.57498   0.00000             0.00000  25.37290   0.00000
           0.00000   0.00000  25.57498             0.00000   0.00000  25.37290
Lengths:  25.57498  25.57498  25.57498  Average:  25.37290  25.37290  25.37290
Angles:   90.00000  90.00000  90.00000  Average:  90.00000  90.00000  90.00000
Rectangular boundary conditions

net charge:   0.00000000

component 0 (CO2) lambda:  0 occupancy:  1 (1.000000)
    net charge:   0.00000000 [e]

Amount of molecules per component :
-------------------------------------------------------------------------------
Component 0 (CO2)
    molecules:      2.500000e+02 molecules  (2.500000e+02 +/- 0.000000e+00)
    number density: 1.494493e-02 molec./A^3 (1.530721e-02 +/- 0.000000e+00)
    density:        1.091902e+03 kg/m^3     (1.118371e+03 +/- 0.000000e+00)

Average pressure tensor: 
-------------------------------------------------------------------------------
 1.6353e+02  5.1587e+01 -7.2164e+01 +/- 0.0000e+00 0.0000e+00 0.0000e+00 [bar]
 5.1587e+01  1.4624e+02  3.5877e+01 +/- 0.0000e+00 0.0000e+00 0.0000e+00 [bar]
-7.2164e+01  3.5877e+01  2.5000e+02 +/- 0.0000e+00 0.0000e+00 0.0000e+00 [bar]
Ideal-gas pressure:   5.283477e+02 +/ 0.000000e+00 [bar]
Excess pressure:     -3.417565e+02 +/ 0.000000e+00 [bar]
Pressure:             1.865912e+02 +/ 0.000000e+00 [bar]

Total potential energy/kʙ  -3.836849e+05 (-4.059095e+05 +/- 0.000000e+00) [K]
-------------------------------------------------------------------------------
ExternalField-molecule
    Van der Waals/kʙ        0.000000e+00 ( 0.000000e+00 +/- 0.000000e+00) [K]
Framework-molecule
    Van der Waals/kʙ        0.000000e+00 ( 0.000000e+00 +/- 0.000000e+00) [K]
    Van der Waals (Tail)/kʙ 0.000000e+00 ( 0.000000e+00 +/- 0.000000e+00) [K]
    Coulombic Real/kʙ       0.000000e+00 ( 0.000000e+00 +/- 0.000000e+00) [K]
    Coulombic Fourier/kʙ    0.000000e+00 ( 0.000000e+00 +/- 0.000000e+00) [K]
Molecule-molecule
    Van der Waals/kʙ       -2.837991e+05 (-2.910533e+05 +/- 0.000000e+00) [K]
    Van der Waals (Tail)/kʙ-9.007646e+03 (-9.226253e+03 +/- 0.000000e+00) [K]
    Coulombic Real/kʙ      -7.825346e+04 (-9.223865e+04 +/- 0.000000e+00) [K]
    Coulombic Fourier/kʙ   -1.262462e+04 (-1.339128e+04 +/- 0.000000e+00) [K]
    Molecule Intra/kʙ       0.000000e+00 ( 0.000000e+00 +/- 0.000000e+00) [K]

Current cycle: 1300 out of 5000
===============================================================================

Box:      25.53358   0.00000   0.00000  Average:  25.38894   0.00000   0.00000
           0.00000  25.53358   0.00000             0.00000  25.38894   0.00000
           0.00000   0.00000  25.53358             0.00000   0.00000  25.38894
Lengths:  25.53358  25.53358  25.53358  Average:  25.38894  25.38894  25.38894
Angles:   90.00000  90.00000  90.00000  Average:  90.00000  90.00000  90.00000
Rectangular boundary conditions

net charge:   0.00000000

component 0 (CO2) lambda:  0 occupancy:  1 (1.000000)
    net charge:   0.00000000 [e]

Amount of molecules per component :
-------------------------------------------------------------------------------
Component 0 (CO2)
    molecules:      2.500000e+02 molecules  (2.500000e+02 +/- 0.000000e+00)
    number density: 1.501775e-02 molec./A^3 (1.527859e-02 +/- 0.000000e+00)
    density:        1.097223e+03 kg/m^3     (1.116280e+03 +/- 0.000000e+00)

Average pressure tensor: 
-------------------------------------------------------------------------------
 1.6172e+02  5.1067e+01 -6.1955e+01 +/- 0.0000e+00 0.0000e+00 0.0000e+00 [bar]
 5.1067e+01  1.4918e+02  2.2098e+01 +/- 0.0000e+00 0.0000e+00 0.0000e+00 [bar]
-6.1955e+01  2.2098e+01  2.4338e+02 +/- 0.0000e+00 0.0000e+00 0.0000e+00 [bar]
Ideal-gas pressure:   5.273597e+02 +/ 0.000000e+00 [bar]
Excess pressure:     -3.425998e+02 +/ 0.000000e+00 [bar]
Pressure:             1.847600e+02 +/ 0.000000e+00 [bar]

Total potential energy/kʙ  -4.001992e+05 (-4.050814e+05 +/- 0.000000e+00) [K]
-------------------------------------------------------------------------------
ExternalField-molecule
    Van der Waals/kʙ        0.000000e+00 ( 0.000000e+00 +/- 0.000000e+00) [K]
Framework-molecule
    Van der Waals/kʙ        0.000000e+00 ( 0.000000e+00 +/- 0.000000e+00) [K]
    Van der Waals (Tail)/kʙ 0.000000e+00 ( 0.000000e+00 +/- 0.000000e+00) [K]
    Coulombic Real/kʙ       0.000000e+00 ( 0.000000e+00 +/- 0.000000e+00) [K]
    Coulombic Fourier/kʙ    0.000000e+00 ( 0.000000e+00 +/- 0.000000e+00) [K]
Molecule-molecule
    Van der Waals/kʙ       -2.831081e+05 (-2.904225e+05 +/- 0.000000e+00) [K]
    Van der Waals (Tail)/kʙ-9.051535e+03 (-9.209489e+03 +/- 0.000000e+00) [K]
    Coulombic Real/kʙ      -9.411883e+04 (-9.203783e+04 +/- 0.000000e+00) [K]
    Coulombic Fourier/kʙ   -1.392072e+04 (-1.341167e+04 +/- 0.000000e+00) [K]
    Molecule Intra/kʙ       0.000000e+00 ( 0.000000e+00 +/- 0.000000e+00) [K]

Current cycle: 1400 out of 5000
===============================================================================

Box:      25.52758   0.00000   0.00000  Average:  25.40782   0.00000   0.00000
           0.00000  25.52758   0.00000             0.00000  25.40782   0.00000
           0.00000   0.00000  25.52758             0.00000   0.00000  25.40782
Lengths:  25.52758  25.52758  25.52758  Average:  25.40782  25.40782  25.40782
Angles:   90.00000  90.00000  90.00000  Average:  90.00000  90.00000  90.00000
Rectangular boundary conditions

net charge:   0.00000000

component 0 (CO2) lambda:  0 occupancy:  1 (1.000000)
    net charge:   0.00000000 [e]

Amount of molecules per component :
-------------------------------------------------------------------------------
Component 0 (CO2)
    molecules:      2.500000e+02 molecules  (2.500000e+02 +/- 0.000000e+00)
    number density: 1.502834e-02 molec./A^3 (1.524510e-02 +/- 0.000000e+00)
    density:        1.097996e+03 kg/m^3     (1.113833e+03 +/- 0.000000e+00)

Average pressure tensor: 
-------------------------------------------------------------------------------
 1.6487e+02  5.6221e+01 -5.4336e+01 +/- 0.0000e+00 0.0000e+00 0.0000e+00 [bar]
 5.6221e+01  1.5085e+02  2.4517e+01 +/- 0.0000e+00 0.0000e+00 0.0000e+00 [bar]
-5.4336e+01  2.4517e+01  2.2925e+02 +/- 0.0000e+00 0.0000e+00 0.0000e+00 [bar]
Ideal-gas pressure:   5.262038e+02 +/ 0.000000e+00 [bar]
Excess pressure:     -3.445447e+02 +/ 0.000000e+00 [bar]
Pressure:             1.816591e+02 +/ 0.000000e+00 [bar]

Total potential energy/kʙ  -3.954857e+05 (-4.039128e+05 +/- 0.000000e+00) [K]
-------------------------------------------------------------------------------
ExternalField-molecule
    Van der Waals/kʙ        0.000000e+00 ( 0.000000e+00 +/- 0.000000e+00) [K]
Framework-molecule
    Van der Waals/kʙ        0.000000e+00 ( 0.000000e+00 +/- 0.000000e+00) [K]
    Van der Waals (Tail)/kʙ 0.000000e+00 ( 0.000000e+00 +/- 0.000000e+00) [K]
    Coulombic Real/kʙ       0.000000e+00 ( 0.000000e+00 +/- 0.000000e+00) [K]
    Coulombic Fourier/kʙ    0.000000e+00 ( 0.000000e+00 +/- 0.000000e+00) [K]
Molecule-molecule
    Van der Waals/kʙ       -2.862444e+05 (-2.895589e+05 +/- 0.000000e+00) [K]
    Van der Waals (Tail)/kʙ-9.057918e+03 (-9.189453e+03 +/- 0.000000e+00) [K]
    Coulombic Real/kʙ      -8.709155e+04 (-9.175151e+04 +/- 0.000000e+00) [K]
    Coulombic Fourier/kʙ   -1.309188e+04 (-1.341296e+04 +/- 0.000000e+00) [K]
    Molecule Intra/kʙ       0.000000e+00 ( 0.000000e+00 +/- 0.000000e+00) [K]

Current cycle: 1500 out of 5000
===============================================================================

Box:      25.60576   0.00000   0.00000  Average:  25.42514   0.00000   0.00000
           0.00000  25.60576   0.00000             0.00000  25.42514   0.00000
           0.00000   0.00000  25.60576             0.00000   0.00000  25.42514
Lengths:  25.60576  25.60576  25.60576  Average:  25.42514  25.42514  25.42514
Angles:   90.00000  90.00000  90.00000  Average:  90.00000  90.00000  90.00000
Rectangular boundary conditions

net charge:   0.00000000

component 0 (CO2) lambda:  0 occupancy:  1 (1.000000)
    net charge:   0.00000000 [e]

Amount of molecules per component :
-------------------------------------------------------------------------------
Component 0 (CO2)
    molecules:      2.500000e+02 molecules  (2.500000e+02 +/- 0.000000e+00)
    number density: 1.489111e-02 molec./A^3 (1.521445e-02 +/- 0.000000e+00)
    density:        1.087970e+03 kg/m^3     (1.111594e+03 +/- 0.000000e+00)

Average pressure tensor: 
-------------------------------------------------------------------------------
 1.7260e+02  4.9078e+01 -4.7919e+01 +/- 0.0000e+00 0.0000e+00 0.0000e+00 [bar]
 4.9078e+01  1.4068e+02  2.4474e+01 +/- 0.0000e+00 0.0000e+00 0.0000e+00 [bar]
-4.7919e+01  2.4474e+01  2.2675e+02 +/- 0.0000e+00 0.0000e+00 0.0000e+00 [bar]
Ideal-gas pressure:   5.251458e+02 +/ 0.000000e+00 [bar]
Excess pressure:     -3.451389e+02 +/ 0.000000e+00 [bar]
Pressure:             1.800069e+02 +/ 0.000000e+00 [bar]

Total potential energy/kʙ  -3.860166e+05 (-4.027287e+05 +/- 0.000000e+00) [K]
-------------------------------------------------------------------------------
ExternalField-molecule
    Van der Waals/kʙ        0.000000e+00 ( 0.000000e+00 +/- 0.000000e+00) [K]
Framework-molecule
    Van der Waals/kʙ        0.000000e+00 ( 0.000000e+00 +/- 0.000000e+00) [K]
    Van der Waals (Tail)/kʙ 0.000000e+00 ( 0.000000e+00 +/- 0.000000e+00) [K]
    Coulombic Real/kʙ       0.000000e+00 ( 0.000000e+00 +/- 0.000000e+00) [K]
    Coulombic Fourier/kʙ    0.000000e+00 ( 0.000000e+00 +/- 0.000000e+00) [K]
Molecule-molecule
    Van der Waals/kʙ       -2.781815e+05 (-2.889268e+05 +/- 0.000000e+00) [K]
    Van der Waals (Tail)/kʙ-8.975208e+03 (-9.170888e+03 +/- 0.000000e+00) [K]
    Coulombic Real/kʙ      -8.533124e+04 (-9.124349e+04 +/- 0.000000e+00) [K]
    Coulombic Fourier/kʙ   -1.352866e+04 (-1.338752e+04 +/- 0.000000e+00) [K]
    Molecule Intra/kʙ       0.000000e+00 ( 0.000000e+00 +/- 0.000000e+00) [K]

Current cycle: 1600 out of 5000
===============================================================================

Box:      25.41901   0.00000   0.00000  Average:  25.43196   0.00000   0.00000
           0.00000  25.41901   0.00000             0.00000  25.43196   0.00000
           0.00000   0.00000  25.41901             0.00000   0.00000  25.43196
Lengths:  25.41901  25.41901  25.41901  Average:  25.43196  25.43196  25.43196
Angles:   90.00000  90.00000  90.00000  Average:  90.00000  90.00000  90.00000
Rectangular boundary conditions

net charge:   0.00000000

component 0 (CO2) lambda:  0 occupancy:  1 (1.000000)
    net charge:   0.00000000 [e]

Amount of molecules per component :
-------------------------------------------------------------------------------
Component 0 (CO2)
    molecules:      2.500000e+02 molecules  (2.500000e+02 +/- 0.000000e+00)
    number density: 1.522174e-02 molec./A^3 (1.520219e-02 +/- 0.000000e+00)
    density:        1.112126e+03 kg/m^3     (1.110698e+03 +/- 0.000000e+00)

Average pressure tensor: 
-------------------------------------------------------------------------------
 1.7278e+02  3.5648e+01 -5.4459e+01 +/- 0.0000e+00 0.0000e+00 0.0000e+00 [bar]
 3.5648e+01  1.3750e+02  2.7593e+01 +/- 0.0000e+00 0.0000e+00 0.0000e+00 [bar]
-5.4459e+01  2.7593e+01  2.3197e+02 +/- 0.0000e+00 0.0000e+00 0.0000e+00 [bar]
Ideal-gas pressure:   5.247228e+02 +/ 0.000000e+00 [bar]
Excess pressure:     -3.439738e+02 +/ 0.000000e+00 [bar]
Pressure:             1.807490e+02 +/ 0.000000e+00 [bar]

Total potential energy/kʙ  -3.962027e+05 (-4.022545e+05 +/- 0.000000e+00) [K]
-------------------------------------------------------------------------------
ExternalField-molecule
    Van der Waals/kʙ        0.000000e+00 ( 0.000000e+00 +/- 0.000000e+00) [K]
Framework-molecule
    Van der Waals/kʙ        0.000000e+00 ( 0.000000e+00 +/- 0.000000e+00) [K]
    Van der Waals (Tail)/kʙ 0.000000e+00 ( 0.000000e+00 +/- 0.000000e+00) [K]
    Coulombic Real/kʙ       0.000000e+00 ( 0.000000e+00 +/- 0.000000e+00) [K]
    Coulombic Fourier/kʙ    0.000000e+00 ( 0.000000e+00 +/- 0.000000e+00) [K]
Molecule-molecule
    Van der Waals/kʙ       -2.881770e+05 (-2.887942e+05 +/- 0.000000e+00) [K]
    Van der Waals (Tail)/kʙ-9.174484e+03 (-9.164327e+03 +/- 0.000000e+00) [K]
    Coulombic Real/kʙ      -8.496310e+04 (-9.090061e+04 +/- 0.000000e+00) [K]
    Coulombic Fourier/kʙ   -1.388809e+04 (-1.339540e+04 +/- 0.000000e+00) [K]
    Molecule Intra/kʙ       0.000000e+00 ( 0.000000e+00 +/- 0.000000e+00) [K]

Current cycle: 1700 out of 5000
===============================================================================

Box:      25.66135   0.00000   0.00000  Average:  25.43734   0.00000   0.00000
           0.00000  25.66135   0.00000             0.00000  25.43734   0.00000
           0.00000   0.00000  25.66135             0.00000   0.00000  25.43734
Lengths:  25.66135  25.66135  25.66135  Average:  25.43734  25.43734  25.43734
Angles:   90.00000  90.00000  90.00000  Average:  90.00000  90.00000  90.00000
Rectangular boundary conditions

net charge:   0.00000000

component 0 (CO2) lambda:  0 occupancy:  1 (1.000000)
    net charge:   0.00000000 [e]

Amount of molecules per component :
-------------------------------------------------------------------------------
Component 0 (CO2)
    molecules:      2.500000e+02 molecules  (2.500000e+02 +/- 0.000000e+00)
    number density: 1.479454e-02 molec./A^3 (1.519253e-02 +/- 0.000000e+00)
    density:        1.080914e+03 kg/m^3     (1.109992e+03 +/- 0.000000e+00)

Average pressure tensor: 
-------------------------------------------------------------------------------
 1.7814e+02  3.1901e+01 -5.3969e+01 +/- 0.0000e+00 0.0000e+00 0.0000e+00 [bar]
 3.1901e+01  1.3007e+02  2.5028e+01 +/- 0.0000e+00 0.0000e+00 0.0000e+00 [bar]
-5.3969e+01  2.5028e+01  2.2837e+02 +/- 0.0000e+00 0.0000e+00 0.0000e+00 [bar]
Ideal-gas pressure:   5.243894e+02 +/ 0.000000e+00 [bar]
Excess pressure:     -3.455274e+02 +/ 0.000000e+00 [bar]
Pressure:             1.788620e+02 +/ 0.000000e+00 [bar]

Total potential energy/kʙ  -3.912372e+05 (-4.020340e+05 +/- 0.000000e+00) [K]
-------------------------------------------------------------------------------
ExternalField-molecule
    Van der Waals/kʙ        0.000000e+00 ( 0.000000e+00 +/- 0.000000e+00) [K]
Framework-molecule
    Van der Waals/kʙ        0.000000e+00 ( 0.000000e+00 +/- 0.000000e+00) [K]
    Van der Waals (Tail)/kʙ 0.000000e+00 ( 0.000000e+00 +/- 0.000000e+00) [K]
    Coulombic Real/kʙ       0.000000e+00 ( 0.000000e+00 +/- 0.000000e+00) [K]
    Coulombic Fourier/kʙ    0.000000e+00 ( 0.000000e+00 +/- 0.000000e+00) [K]
Molecule-molecule
    Van der Waals/kʙ       -2.757032e+05 (-2.885673e+05 +/- 0.000000e+00) [K]
    Van der Waals (Tail)/kʙ-8.916999e+03 (-9.157891e+03 +/- 0.000000e+00) [K]
    Coulombic Real/kʙ      -9.270104e+04 (-9.093581e+04 +/- 0.000000e+00) [K]
    Coulombic Fourier/kʙ   -1.391598e+04 (-1.337301e+04 +/- 0.000000e+00) [K]
    Molecule Intra/kʙ       0.000000e+00 ( 0.000000e+00 +/- 0.000000e+00) [K]

Current cycle: 1800 out of 5000
===============================================================================

Box:      25.42051   0.00000   0.00000  Average:  25.44013   0.00000   0.00000
           0.00000  25.42051   0.00000             0.00000  25.44013   0.00000
           0.00000   0.00000  25.42051             0.00000   0.00000  25.44013
Lengths:  25.42051  25.42051  25.42051  Average:  25.44013  25.44013  25.44013
Angles:   90.00000  90.00000  90.00000  Average:  90.00000  90.00000  90.00000
Rectangular boundary conditions

net charge:   0.00000000

component 0 (CO2) lambda:  0 occupancy:  1 (1.000000)
    net charge:   0.00000000 [e]

Amount of molecules per component :
-------------------------------------------------------------------------------
Component 0 (CO2)
    molecules:      2.500000e+02 molecules  (2.500000e+02 +/- 0.000000e+00)
    number density: 1.521905e-02 molec./A^3 (1.518745e-02 +/- 0.000000e+00)
    density:        1.111930e+03 kg/m^3     (1.109621e+03 +/- 0.000000e+00)

Average pressure tensor: 
-------------------------------------------------------------------------------
 1.7936e+02  2.9418e+01 -4.5003e+01 +/- 0.0000e+00 0.0000e+00 0.0000e+00 [bar]
 2.9418e+01  1.4227e+02  2.2728e+01 +/- 0.0000e+00 0.0000e+00 0.0000e+00 [bar]
-4.5003e+01  2.2728e+01  2.2929e+02 +/- 0.0000e+00 0.0000e+00 0.0000e+00 [bar]
Ideal-gas pressure:   5.242139e+02 +/ 0.000000e+00 [bar]
Excess pressure:     -3.405744e+02 +/ 0.000000e+00 [bar]
Pressure:             1.836395e+02 +/ 0.000000e+00 [bar]

Total potential energy/kʙ  -4.037310e+05 (-4.017464e+05 +/- 0.000000e+00) [K]
-------------------------------------------------------------------------------
ExternalField-molecule
    Van der Waals/kʙ        0.000000e+00 ( 0.000000e+00 +/- 0.000000e+00) [K]
Framework-molecule
    Van der Waals/kʙ        0.000000e+00 ( 0.000000e+00 +/- 0.000000e+00) [K]
    Van der Waals (Tail)/kʙ 0.000000e+00 ( 0.000000e+00 +/- 0.000000e+00) [K]
    Coulombic Real/kʙ       0.000000e+00 ( 0.000000e+00 +/- 0.000000e+00) [K]
    Coulombic Fourier/kʙ    0.000000e+00 ( 0.000000e+00 +/- 0.000000e+00) [K]
Molecule-molecule
    Van der Waals/kʙ       -2.933866e+05 (-2.884073e+05 +/- 0.000000e+00) [K]
    Van der Waals (Tail)/kʙ-9.172860e+03 (-9.153471e+03 +/- 0.000000e+00) [K]
    Coulombic Real/kʙ      -9.001479e+04 (-9.085325e+04 +/- 0.000000e+00) [K]
    Coulombic Fourier/kʙ   -1.115675e+04 (-1.333235e+04 +/- 0.000000e+00) [K]
    Molecule Intra/kʙ       0.000000e+00 ( 0.000000e+00 +/- 0.000000e+00) [K]

Current cycle: 1900 out of 5000
===============================================================================

Box:      25.33996   0.00000   0.00000  Average:  25.43753   0.00000   0.00000
           0.00000  25.33996   0.00000             0.00000  25.43753   0.00000
           0.00000   0.00000  25.33996             0.00000   0.00000  25.43753
Lengths:  25.33996  25.33996  25.33996  Average:  25.43753  25.43753  25.43753
Angles:   90.00000  90.00000  90.00000  Average:  90.00000  90.00000  90.00000
Rectangular boundary conditions

net charge:   0.00000000

component 0 (CO2) lambda:  0 occupancy:  1 (1.000000)
    net charge:   0.00000000 [e]

Amount of molecules per component :
-------------------------------------------------------------------------------
Component 0 (CO2)
    molecules:      2.500000e+02 molecules  (2.500000e+02 +/- 0.000000e+00)
    number density: 1.536464e-02 molec./A^3 (1.519198e-02 +/- 0.000000e+00)
    density:        1.122567e+03 kg/m^3     (1.109952e+03 +/- 0.000000e+00)

Average pressure tensor: 
-------------------------------------------------------------------------------
 1.8370e+02  3.3570e+01 -4.4159e+01 +/- 0.0000e+00 0.0000e+00 0.0000e+00 [bar]
 3.3570e+01  1.5435e+02  1.9318e+01 +/- 0.0000e+00 0.0000e+00 0.0000e+00 [bar]
-4.4159e+01  1.9318e+01  2.2692e+02 +/- 0.0000e+00 0.0000e+00 0.0000e+00 [bar]
Ideal-gas pressure:   5.243704e+02 +/ 0.000000e+00 [bar]
Excess pressure:     -3.360470e+02 +/ 0.000000e+00 [bar]
Pressure:             1.883234e+02 +/ 0.000000e+00 [bar]

Total potential energy/kʙ  -4.013261e+05 (-4.016365e+05 +/- 0.000000e+00) [K]
-------------------------------------------------------------------------------
ExternalField-molecule
    Van der Waals/kʙ        0.000000e+00 ( 0.000000e+00 +/- 0.000000e+00) [K]
Framework-molecule
    Van der Waals/kʙ        0.000000e+00 ( 0.000000e+00 +/- 0.000000e+00) [K]
    Van der Waals (Tail)/kʙ 0.000000e+00 ( 0.000000e+00 +/- 0.000000e+00) [K]
    Coulombic Real/kʙ       0.000000e+00 ( 0.000000e+00 +/- 0.000000e+00) [K]
    Coulombic Fourier/kʙ    0.000000e+00 ( 0.000000e+00 +/- 0.000000e+00) [K]
Molecule-molecule
    Van der Waals/kʙ       -2.898455e+05 (-2.884033e+05 +/- 0.000000e+00) [K]
    Van der Waals (Tail)/kʙ-9.260614e+03 (-9.156117e+03 +/- 0.000000e+00) [K]
    Coulombic Real/kʙ      -8.880621e+04 (-9.077830e+04 +/- 0.000000e+00) [K]
    Coulombic Fourier/kʙ   -1.341376e+04 (-1.329875e+04 +/- 0.000000e+00) [K]
    Molecule Intra/kʙ       0.000000e+00 ( 0.000000e+00 +/- 0.000000e+00) [K]

Current cycle: 2000 out of 5000
===============================================================================

Box:      25.31238   0.00000   0.00000  Average:  25.43146   0.00000   0.00000
           0.00000  25.31238   0.00000             0.00000  25.43146   0.00000
           0.00000   0.00000  25.31238             0.00000   0.00000  25.43146
Lengths:  25.31238  25.31238  25.31238  Average:  25.43146  25.43146  25.43146
Angles:   90.00000  90.00000  90.00000  Average:  90.00000  90.00000  90.00000
Rectangular boundary conditions

net charge:   0.00000000

component 0 (CO2) lambda:  0 occupancy:  1 (1.000000)
    net charge:   0.00000000 [e]

Amount of molecules per component :
-------------------------------------------------------------------------------
Component 0 (CO2)
    molecules:      2.500000e+02 molecules  (2.500000e+02 +/- 0.000000e+00)
    number density: 1.541491e-02 molec./A^3 (1.520290e-02 +/- 0.000000e+00)
    density:        1.126240e+03 kg/m^3     (1.110750e+03 +/- 0.000000e+00)

Average pressure tensor: 
-------------------------------------------------------------------------------
 1.9888e+02  2.7557e+01 -3.2085e+01 +/- 0.0000e+00 0.0000e+00 0.0000e+00 [bar]
 2.7557e+01  1.5275e+02  1.5873e+01 +/- 0.0000e+00 0.0000e+00 0.0000e+00 [bar]
-3.2085e+01  1.5873e+01  2.2266e+02 +/- 0.0000e+00 0.0000e+00 0.0000e+00 [bar]
Ideal-gas pressure:   5.247472e+02 +/ 0.000000e+00 [bar]
Excess pressure:     -3.333170e+02 +/ 0.000000e+00 [bar]
Pressure:             1.914303e+02 +/ 0.000000e+00 [bar]

Total potential energy/kʙ  -4.078546e+05 (-4.017500e+05 +/- 0.000000e+00) [K]
-------------------------------------------------------------------------------
ExternalField-molecule
    Van der Waals/kʙ        0.000000e+00 ( 0.000000e+00 +/- 0.000000e+00) [K]
Framework-molecule
    Van der Waals/kʙ        0.000000e+00 ( 0.000000e+00 +/- 0.000000e+00) [K]
    Van der Waals (Tail)/kʙ 0.000000e+00 ( 0.000000e+00 +/- 0.000000e+00) [K]
    Coulombic Real/kʙ       0.000000e+00 ( 0.000000e+00 +/- 0.000000e+00) [K]
    Coulombic Fourier/kʙ    0.000000e+00 ( 0.000000e+00 +/- 0.000000e+00) [K]
Molecule-molecule
    Van der Waals/kʙ       -2.952052e+05 (-2.886421e+05 +/- 0.000000e+00) [K]
    Van der Waals (Tail)/kʙ-9.290914e+03 (-9.163320e+03 +/- 0.000000e+00) [K]
    Coulombic Real/kʙ      -9.030543e+04 (-9.066757e+04 +/- 0.000000e+00) [K]
    Coulombic Fourier/kʙ   -1.305303e+04 (-1.327706e+04 +/- 0.000000e+00) [K]
    Molecule Intra/kʙ       0.000000e+00 ( 0.000000e+00 +/- 0.000000e+00) [K]

Current cycle: 2100 out of 5000
===============================================================================

Box:      25.34456   0.00000   0.00000  Average:  25.42444   0.00000   0.00000
           0.00000  25.34456   0.00000             0.00000  25.42444   0.00000
           0.00000   0.00000  25.34456             0.00000   0.00000  25.42444
Lengths:  25.34456  25.34456  25.34456  Average:  25.42444  25.42444  25.42444
Angles:   90.00000  90.00000  90.00000  Average:  90.00000  90.00000  90.00000
Rectangular boundary conditions

net charge:   0.00000000

component 0 (CO2) lambda:  0 occupancy:  1 (1.000000)
    net charge:   0.00000000 [e]

Amount of molecules per component :
-------------------------------------------------------------------------------
Component 0 (CO2)
    molecules:      2.500000e+02 molecules  (2.500000e+02 +/- 0.000000e+00)
    number density: 1.535627e-02 molec./A^3 (1.521559e-02 +/- 0.000000e+00)
    density:        1.121955e+03 kg/m^3     (1.111677e+03 +/- 0.000000e+00)

Average pressure tensor: 
-------------------------------------------------------------------------------
 1.9723e+02  2.4276e+01 -3.3663e+01 +/- 0.0000e+00 0.0000e+00 0.0000e+00 [bar]
 2.4276e+01  1.5461e+02 -3.5331e+00 +/- 0.0000e+00 0.0000e+00 0.0000e+00 [bar]
-3.3663e+01 -3.5331e+00  2.2416e+02 +/- 0.0000e+00 0.0000e+00 0.0000e+00 [bar]
Ideal-gas pressure:   5.251852e+02 +/ 0.000000e+00 [bar]
Excess pressure:     -3.331879e+02 +/ 0.000000e+00 [bar]
Pressure:             1.919973e+02 +/ 0.000000e+00 [bar]

Total potential energy/kʙ  -4.019658e+05 (-4.020428e+05 +/- 0.000000e+00) [K]
-------------------------------------------------------------------------------
ExternalField-molecule
    Van der Waals/kʙ        0.000000e+00 ( 0.000000e+00 +/- 0.000000e+00) [K]
Framework-molecule
    Van der Waals/kʙ        0.000000e+00 ( 0.000000e+00 +/- 0.000000e+00) [K]
    Van der Waals (Tail)/kʙ 0.000000e+00 ( 0.000000e+00 +/- 0.000000e+00) [K]
[...]
    Coulombic Fourier/kʙ    0.000000e+00 ( 0.000000e+00 +/- 0.000000e+00) [K]
Molecule-molecule
    Van der Waals/kʙ       -2.804174e+05 (-2.877707e+05 +/- 3.329968e+03) [K]
    Van der Waals (Tail)/kʙ-9.059951e+03 (-9.135400e+03 +/- 9.029631e+01) [K]
    Coulombic Real/kʙ      -9.277581e+04 (-9.029151e+04 +/- 2.016944e+03) [K]
    Coulombic Fourier/kʙ   -1.263745e+04 (-1.325283e+04 +/- 1.290613e+02) [K]
    Molecule Intra/kʙ       0.000000e+00 ( 0.000000e+00 +/- 0.000000e+00) [K]

Current cycle: 4700 out of 5000
===============================================================================

Box:      25.54576   0.00000   0.00000  Average:  25.45994   0.00000   0.00000
           0.00000  25.54576   0.00000             0.00000  25.45994   0.00000
           0.00000   0.00000  25.54576             0.00000   0.00000  25.45994
Lengths:  25.54576  25.54576  25.54576  Average:  25.45994  25.45994  25.45994
Angles:   90.00000  90.00000  90.00000  Average:  90.00000  90.00000  90.00000
Rectangular boundary conditions

net charge:   0.00000000

component 0 (CO2) lambda:  0 occupancy:  1 (1.000000)
    net charge:   0.00000000 [e]

Amount of molecules per component :
-------------------------------------------------------------------------------
Component 0 (CO2)
    molecules:      2.500000e+02 molecules  (2.500000e+02 +/- 3.944933e-14)
    number density: 1.499628e-02 molec./A^3 (1.515152e-02 +/- 1.538672e-04)
    density:        1.095654e+03 kg/m^3     (1.106996e+03 +/- 1.124180e+01)

Average pressure tensor: 
-------------------------------------------------------------------------------
 2.0850e+02  5.3514e+00  1.6280e+00 +/- 1.6425e+01 8.2209e+01 8.7498e+01 [bar]
 5.3514e+00  1.9057e+02 -1.0251e+00 +/- 8.2209e+01 7.4464e+01 3.2338e+01 [bar]
 1.6280e+00 -1.0251e+00  1.8775e+02 +/- 8.7498e+01 3.2338e+01 7.8625e+01 [bar]
Ideal-gas pressure:   5.229739e+02 +/ 5.310921e+00 [bar]
Excess pressure:     -3.273682e+02 +/ 3.740740e+01 [bar]
Pressure:             1.956057e+02 +/ 3.547774e+01 [bar]

Total potential energy/kʙ  -3.908877e+05 (-4.003081e+05 +/- 5.448981e+03) [K]
-------------------------------------------------------------------------------
ExternalField-molecule
    Van der Waals/kʙ        0.000000e+00 ( 0.000000e+00 +/- 0.000000e+00) [K]
Framework-molecule
    Van der Waals/kʙ        0.000000e+00 ( 0.000000e+00 +/- 0.000000e+00) [K]
    Van der Waals (Tail)/kʙ 0.000000e+00 ( 0.000000e+00 +/- 0.000000e+00) [K]
    Coulombic Real/kʙ       0.000000e+00 ( 0.000000e+00 +/- 0.000000e+00) [K]
    Coulombic Fourier/kʙ    0.000000e+00 ( 0.000000e+00 +/- 0.000000e+00) [K]
Molecule-molecule
    Van der Waals/kʙ       -2.886626e+05 (-2.876899e+05 +/- 3.370456e+03) [K]
    Van der Waals (Tail)/kʙ-9.038595e+03 (-9.132314e+03 +/- 9.324773e+01) [K]
    Coulombic Real/kʙ      -8.087564e+04 (-9.024324e+04 +/- 2.027095e+03) [K]
    Coulombic Fourier/kʙ   -1.231089e+04 (-1.324272e+04 +/- 1.423093e+02) [K]
    Molecule Intra/kʙ       0.000000e+00 ( 0.000000e+00 +/- 0.000000e+00) [K]

Current cycle: 4800 out of 5000
===============================================================================

Box:      25.44007   0.00000   0.00000  Average:  25.45925   0.00000   0.00000
           0.00000  25.44007   0.00000             0.00000  25.45925   0.00000
           0.00000   0.00000  25.44007             0.00000   0.00000  25.45925
Lengths:  25.44007  25.44007  25.44007  Average:  25.45925  25.45925  25.45925
Angles:   90.00000  90.00000  90.00000  Average:  90.00000  90.00000  90.00000
Rectangular boundary conditions

net charge:   0.00000000

component 0 (CO2) lambda:  0 occupancy:  1 (1.000000)
    net charge:   0.00000000 [e]

Amount of molecules per component :
-------------------------------------------------------------------------------
Component 0 (CO2)
    molecules:      2.500000e+02 molecules  (2.500000e+02 +/- 0.000000e+00)
    number density: 1.518396e-02 molec./A^3 (1.515273e-02 +/- 1.446914e-04)
    density:        1.109366e+03 kg/m^3     (1.107084e+03 +/- 1.057140e+01)

Average pressure tensor: 
-------------------------------------------------------------------------------
 2.1225e+02  5.0694e+00 -2.7566e-01 +/- 1.8805e+01 8.1761e+01 8.8598e+01 [bar]
 5.0694e+00  1.9212e+02  4.5106e-01 +/- 8.1761e+01 7.2881e+01 3.1000e+01 [bar]
-2.7566e-01  4.5106e-01  1.8315e+02 +/- 8.8598e+01 3.1000e+01 7.5226e+01 [bar]
Ideal-gas pressure:   5.230155e+02 +/ 4.994206e+00 [bar]
Excess pressure:     -3.271757e+02 +/ 3.506985e+01 [bar]
Pressure:             1.958399e+02 +/ 3.368704e+01 [bar]

Total potential energy/kʙ  -3.906286e+05 (-4.002181e+05 +/- 5.474392e+03) [K]
-------------------------------------------------------------------------------
ExternalField-molecule
    Van der Waals/kʙ        0.000000e+00 ( 0.000000e+00 +/- 0.000000e+00) [K]
Framework-molecule
    Van der Waals/kʙ        0.000000e+00 ( 0.000000e+00 +/- 0.000000e+00) [K]
    Van der Waals (Tail)/kʙ 0.000000e+00 ( 0.000000e+00 +/- 0.000000e+00) [K]
    Coulombic Real/kʙ       0.000000e+00 ( 0.000000e+00 +/- 0.000000e+00) [K]
    Coulombic Fourier/kʙ    0.000000e+00 ( 0.000000e+00 +/- 0.000000e+00) [K]
Molecule-molecule
    Van der Waals/kʙ       -2.746774e+05 (-2.876849e+05 +/- 3.275306e+03) [K]
    Van der Waals (Tail)/kʙ-9.151711e+03 (-9.132953e+03 +/- 8.914351e+01) [K]
    Coulombic Real/kʙ      -9.323605e+04 (-9.016936e+04 +/- 2.061393e+03) [K]
    Coulombic Fourier/kʙ   -1.356351e+04 (-1.323085e+04 +/- 1.604530e+02) [K]
    Molecule Intra/kʙ       0.000000e+00 ( 0.000000e+00 +/- 0.000000e+00) [K]

Current cycle: 4900 out of 5000
===============================================================================

Box:      25.77923   0.00000   0.00000  Average:  25.45998   0.00000   0.00000
           0.00000  25.77923   0.00000             0.00000  25.45998   0.00000
           0.00000   0.00000  25.77923             0.00000   0.00000  25.45998
Lengths:  25.77923  25.77923  25.77923  Average:  25.45998  25.45998  25.45998
Angles:   90.00000  90.00000  90.00000  Average:  90.00000  90.00000  90.00000
Rectangular boundary conditions

net charge:   0.00000000

component 0 (CO2) lambda:  0 occupancy:  1 (1.000000)
    net charge:   0.00000000 [e]

Amount of molecules per component :
-------------------------------------------------------------------------------
Component 0 (CO2)
    molecules:      2.500000e+02 molecules  (2.500000e+02 +/- 0.000000e+00)
    number density: 1.459252e-02 molec./A^3 (1.515139e-02 +/- 1.424440e-04)
    density:        1.066154e+03 kg/m^3     (1.106987e+03 +/- 1.040721e+01)

Average pressure tensor: 
-------------------------------------------------------------------------------
 2.1157e+02  5.0489e+00 -2.3037e+00 +/- 1.7458e+01 8.1254e+01 8.9764e+01 [bar]
 5.0489e+00  1.9174e+02 -3.9100e+00 +/- 8.1254e+01 6.7061e+01 3.5033e+01 [bar]
-2.3037e+00 -3.9100e+00  1.7903e+02 +/- 8.9764e+01 3.5033e+01 7.5381e+01 [bar]
Ideal-gas pressure:   5.229693e+02 +/ 4.916636e+00 [bar]
Excess pressure:     -3.288546e+02 +/ 2.907343e+01 [bar]
Pressure:             1.941148e+02 +/ 2.828884e+01 [bar]

Total potential energy/kʙ  -3.893795e+05 (-4.001639e+05 +/- 5.456299e+03) [K]
-------------------------------------------------------------------------------
ExternalField-molecule
    Van der Waals/kʙ        0.000000e+00 ( 0.000000e+00 +/- 0.000000e+00) [K]
Framework-molecule
    Van der Waals/kʙ        0.000000e+00 ( 0.000000e+00 +/- 0.000000e+00) [K]
    Van der Waals (Tail)/kʙ 0.000000e+00 ( 0.000000e+00 +/- 0.000000e+00) [K]
    Coulombic Real/kʙ       0.000000e+00 ( 0.000000e+00 +/- 0.000000e+00) [K]
    Coulombic Fourier/kʙ    0.000000e+00 ( 0.000000e+00 +/- 0.000000e+00) [K]
Molecule-molecule
    Van der Waals/kʙ       -2.837416e+05 (-2.876841e+05 +/- 3.201996e+03) [K]
    Van der Waals (Tail)/kʙ-8.795238e+03 (-9.131313e+03 +/- 8.952906e+01) [K]
    Coulombic Real/kʙ      -8.415007e+04 (-9.012614e+04 +/- 2.081790e+03) [K]
    Coulombic Fourier/kʙ   -1.269256e+04 (-1.322229e+04 +/- 1.711758e+02) [K]
    Molecule Intra/kʙ       0.000000e+00 ( 0.000000e+00 +/- 0.000000e+00) [K]


Energy statistics             |  Energy [K]   | Recomputed [K]|  Drift [K]    |
===============================================================================
Total potential energy/kʙ     | -3.961743e+05 | -3.961743e+05 |  2.631855e-09 |
    external field VDW/kʙ     |  0.000000e+00 |  0.000000e+00 |  0.000000e+00 |
    external field Real/kʙ    |  0.000000e+00 |  0.000000e+00 |  0.000000e+00 |
    framework-molecule VDW/kʙ |  0.000000e+00 |  0.000000e+00 |  0.000000e+00 |
    framework-molecule Real/kʙ|  0.000000e+00 |  0.000000e+00 |  0.000000e+00 |
    molecule-molecule VDW/kʙ  | -2.790013e+05 | -2.790013e+05 |  2.310256e-09 |
    molecule-molecule Real/kʙ | -9.430429e+04 | -9.430429e+04 |  2.800311e-10 |
    Van der Waals (Tail)/kʙ   | -9.003583e+03 | -9.003583e+03 |  0.000000e+00 |
    Ewald Fourier/kʙ          |  8.826214e+03 |  8.826214e+03 |  4.156711e-11 |
    Ewald self/kʙ             | -5.029674e+06 | -5.029674e+06 |  0.000000e+00 |
    Ewald exclusion/kʙ        |  5.006983e+06 |  5.006983e+06 |  0.000000e+00 |
    intra VDW/kʙ              |  0.000000e+00 |  0.000000e+00 |  0.000000e+00 |
    intra Coulombic/kʙ        |  0.000000e+00 |  0.000000e+00 |  0.000000e+00 |
    polarization/kʙ           |  0.000000e+00 |  0.000000e+00 |  0.000000e+00 |
    dU/dlambda VDW/kʙ         |  0.000000e+00 |  0.000000e+00 |  0.000000e+00 |
    dU/dlambda Real/kʙ        |  0.000000e+00 |  0.000000e+00 |  0.000000e+00 |
    dU/dlambda Ewald/kʙ       |  0.000000e+00 |  0.000000e+00 |  0.000000e+00 |
-------------------------------------------------------------------------------


Monte-Carlo moves statistics
===============================================================================

    Volume change        all:                8099
    Volume change        total:              8099
    Volume change        constructed:        8099
    Volume change        accepted:           3934
    Volume change        fraction:       0.485739
    Volume change        max-change:     0.025000

Component 0 [CO2]
    Reinsertion (CBMC)   all:              414229
    Reinsertion (CBMC)   total:            414229
    Reinsertion (CBMC)   constructed:      349877
    Reinsertion (CBMC)   accepted:           2939
    Reinsertion (CBMC)   fraction:       0.007095
    Reinsertion (CBMC)   max-change:     0.000000

    Translation          all:              413701
    Translation          total:            137778     137968     137955
    Translation          constructed:      137778     137968     137953
    Translation          accepted:          62853      66065      54461
    Translation          fraction:       0.456190   0.478843   0.394774
    Translation          max-change:     0.717241   0.677083   0.872321

    Rotation             all:              413971
    Rotation             total:            138460     137672     137839
    Rotation             constructed:      138459     137672     137805
    Rotation             accepted:          61069      63656      51963
    Rotation             fraction:       0.441059   0.462374   0.376983
    Rotation             max-change:     0.788530   0.750000   1.000000



Production run counting of the MC moves summed over systems and components
===============================================================================

Volume change                          8099 (0.6479 [%])
Reinsertion (CBMC)                   414229 (33.1383 [%])
Translation                          413701 (33.0961 [%])
Rotation                             413971 (33.1177 [%])

Production count MC-steps:          1250000 [-]
               All summed:          1250000 [-]
               difference:                0 [-]


Production run CPU timings of the MC moves
===============================================================================

Component 0 CO2

Rotation                             61.016034 [s]
    Ewald                            23.270762 [s]
    ExternalField-Molecule            0.015572 [s]
    Framework-Molecule                0.012613 [s]
    Molecule-Molecule                35.944571 [s]
    Overhead                          1.772516 [s]

Reinsertion (CBMC)                  250.259743 [s]
    Ewald                            19.798625 [s]
    NonEwald                        230.082937 [s]
    Overhead                          0.378181 [s]

Translation                          61.038164 [s]
    Ewald                            23.259185 [s]
    ExternalField-Molecule            0.016884 [s]
    Framework-Molecule                0.020166 [s]
    Molecule-Molecule                35.930044 [s]
    Overhead                          1.811885 [s]



Volume change                         70.407231 [s]
    Ewald                             22.878789 [s]
    NonEwald                          44.087914 [s]
    Tail                               3.119218 [s]

Property sampling                     0.313967 [s]
Energy/pressure sampling:             8.499603 [s]


Production run CPU timings of the MC moves summed over systems and components
===============================================================================


Translation                          61.038164 [s]
    Ewald                            23.259185 [s]
    ExternalField-Molecule            0.016884 [s]
    Framework-Molecule                0.020166 [s]
    Molecule-Molecule                35.930044 [s]
    Overhead                          1.811885 [s]

Rotation                             61.016034 [s]
    Ewald                            23.270762 [s]
    ExternalField-Molecule            0.015572 [s]
    Framework-Molecule                0.012613 [s]
    Molecule-Molecule                35.944571 [s]
    Overhead                          1.772516 [s]

Volume change                        70.407231 [s]
    Ewald                            22.878789 [s]
    NonEwald                         44.087914 [s]
    Tail                              3.119218 [s]
    Overhead                          0.321310 [s]

Reinsertion (CBMC)                  250.259743 [s]
    Ewald                            19.798625 [s]
    NonEwald                        230.082937 [s]
    Overhead                          0.378181 [s]

Property sampling:                    0.313967 [s]
Energy/pressure sampling:             8.499603 [s]

Production simulation time:         452.498837 [s]
                All summed:         451.534742 [s]
                  Overhead:           0.964095 [s]


Initalization simulation time:       87.607299 [s]
Equilibration simulation time:        0.000000 [s]
Production simulation time:         452.498837 [s]
Total simulation time:              540.106136 [s]


Energy averages and statistics:
===============================================================================

Framework-molecule energy:
-------------------------------------------------------------------------------



Framework-molecule energy contributions per energy type:
-------------------------------------------------------------------------------



Inter-molecular energy:
-------------------------------------------------------------------------------

    Inter-molecular energy/kʙ 0-0 [CO2-CO2]:
    ---------------------------------------------------------------------------
        Block[  0] -4.068376e+05
        Block[  1] -3.966015e+05
        Block[  2] -4.022787e+05
        Block[  3] -3.978366e+05
        Block[  4] -3.964251e+05
        -----------------------------------------------------------------------
        Average  -3.999959e+05 +/-  5.585032e+03 [K]



Inter-molecular energy contributions per energy type:
-------------------------------------------------------------------------------

    Van der Waals energy/kʙ 0-0 [CO2-CO2]:
    ---------------------------------------------------------------------------
        Block[  0] -2.914066e+05
        Block[  1] -2.858119e+05
        Block[  2] -2.892462e+05
        Block[  3] -2.862628e+05
        Block[  4] -2.849686e+05
        -----------------------------------------------------------------------
        Average  -2.875392e+05 +/-  3.348026e+03 [K]

    VDW Tail-Correction energy/kʙ 0-0 [CO2-CO2]:
    ---------------------------------------------------------------------------
        Block[  0] -9.238232e+03
        Block[  1] -9.087131e+03
        Block[  2] -9.169071e+03
        Block[  3] -9.090912e+03
        Block[  4] -9.052350e+03
        -----------------------------------------------------------------------
        Average  -9.127539e+03 +/-  9.332833e+01 [K]

    Coulomb Real energy/kʙ 0-0 [CO2-CO2]:
    ---------------------------------------------------------------------------
        Block[  0] -9.278277e+04
        Block[  1] -8.855600e+04
        Block[  2] -9.065968e+04
        Block[  3] -8.919517e+04
        Block[  4] -8.933703e+04
        -----------------------------------------------------------------------
        Average  -9.010613e+04 +/-  2.086168e+03 [K]

    Coulomb Fourier energy/kʙ 0-0 [CO2-CO2]:
    ---------------------------------------------------------------------------
        Block[  0] -1.340994e+04
        Block[  1] -1.314642e+04
        Block[  2] -1.320382e+04
        Block[  3] -1.328777e+04
        Block[  4] -1.306719e+04
        -----------------------------------------------------------------------
        Average  -1.322303e+04 +/-  1.638167e+02 [K]


Total energy/kʙ
-------------------------------------------------------------------------------
    Block[  0] -4.068376e+05
    Block[  1] -3.966015e+05
    Block[  2] -4.022787e+05
    Block[  3] -3.978366e+05
    Block[  4] -3.964251e+05
    ---------------------------------------------------------------------------
    Average  -3.999959e+05 +/-  5.585032e+03 [K]

Pressure averages and statistics:
===============================================================================

Average pressure tensor: 
-------------------------------------------------------------------------------
 2.0719e+02  2.8830e+00 -1.1854e+00 +/- 1.7190e+01 8.2433e+01 8.7755e+01 [bar]
 2.8830e+00  1.8563e+02 -5.4355e+00 +/- 8.2433e+01 5.1066e+01 3.6494e+01 [bar]
-1.1854e+00 -5.4355e+00  1.8187e+02 +/- 8.7755e+01 3.6494e+01 7.5026e+01 [bar]

    Block[  0]  5.288080e+07
    Block[  1]  5.206792e+07
    Block[  2]  5.248807e+07
    Block[  3]  5.211712e+07
    Block[  4]  5.181683e+07
    ---------------------------------------------------------------------------
    Ideal gas pressure   5.227415e+07 +/-  3.105385e-02 [Pa]
                         5.227415e+02 +/-  5.156617e+00 [bar]


    Block[  0] -3.372399e+07
    Block[  1] -3.292656e+07
    Block[  2] -3.157117e+07
    Block[  3] -3.607372e+07
    Block[  4] -3.129322e+07
    ---------------------------------------------------------------------------
    Excess pressure  -3.311773e+07 +/-  2.393054e+06 [Pa]
                     -3.311773e+02 +/-  2.393054e+01 [bar]


    Block[  0]  1.915681e+07
    Block[  1]  1.914136e+07
    Block[  2]  2.091690e+07
    Block[  3]  1.604341e+07
    Block[  4]  2.052362e+07
    ---------------------------------------------------------------------------
    Pressure average   1.915642e+07 +/-  2.376652e+06 [Pa]
                       1.915642e+02 +/-  2.376652e+01 [bar]


Enthalpy of adsorption
===============================================================================

No fluctuating components present.


Densities
===============================================================================

Component 0 (CO2)
    Block[  0] 250
    Block[  1] 250
    Block[  2] 250
    Block[  3] 250
    Block[  4] 250
    -----------------------------------------------------------------------
    Density average   2.500000e+02 +/-  0.000000e+00 [molecules]
    Density average   1.514479e-02 +/-  1.493967e-04 [molec/A^3]
    Density average   1.106504e+03 +/-  1.091518e+01 [kg.m⁻³]

