Compiler and run-time data
===============================================================================
RASPA 3.0.4

Random seed: 130583156

Compiled as a 64-bits application
Compiler: gcc Clang 18.1.8
Compile Date = Mar 15 2025, Compile Time = 19:38:51

2025-06-03 14:38:47.346436
Simulation started on Tue, Jun 03
The start time was 14:38:00

Hostname:    1NNMVV3
OS type:     Linux on x86_64
OS release:  5.15.167.4-microsoft-standard-WSL2
OS version:  #1 SMP Tue Nov 5 00:21:55 UTC 2024


Mutual consistent basic set of units:
===============================================================================

Unit of temperature: 1 [K]
Unit of length:      1e-10 [m]
Unit of time:        1e-12 [s]
Unit of mass:        1.6605402e-27 [kg]
Unit of charge:      1.60217733e-19 [C/particle]


Boltzmann constant (internal units):          0.8314464919307584 [-]
represents conversion from energy (internal units) to temperature (in Kelvin)

Derived units and their conversion factors:
===============================================================================

Unit of energy:                           1.6605402000000002e-23 [J]
Unit of energy:                           10.000008872307538 [J.mol⁻¹]
Unit of velocity:                         100 [m.s⁻¹]
Unit of force:                            1.6605402000000002e-13 [N]
Unit of diffusion:                        1.0000000000000002e-08 [m².s⁻¹]
Unit of acceleration:                     1.0000000000000002e-08 [m².s⁻¹]
Unit of torque:                           1.6605402000000002e-23 [N.m]
Unit of pressure:                         16605402 [Pa]
Unit of volume:                           1e-30 [m³]
Unit of density:                          1660.5402 [kg.m⁻³]
Unit of dynamic viscosity:                1.6605401999999997e-05 [N.s.m⁻²]
Unit of enthalpy:                         1.6605402000000002e-23 [J]
Unit of polarizability:                   1.5458657349975198e-35 [-]
Unit of Coulomb potential:                167101.08000665612 [K]
Unit of dielectric constant:              1.5458657349975193e-05 [s².C².kg⁻¹.m⁻³]
Unit of dipole moment:                    1.60217733e-29 [C.m]
Unit of Debye:                            4.803206799099162 [C.m]
Unit of electric potential:               0.00010364272224473431 [V]
Unit of electric field:                   1036427.222447343 [V.m⁻¹]
Unit of isothermal compressibility:       6.02213665167516e-08 [Pa⁻¹]
Unit of heat capacity:                    10.000008872307538 [J.mol⁻¹.K⁻¹]
Unit of volumetric expansion coefficient: 1 [K⁻¹]


Internal conversion factors:
===============================================================================

Energy (internal units) to Kelvin:      1.202724284692786 [-]
Kelvin to energy (internal units):      0.8314457542157567 [-]


System definitions
===============================================================================

Temperature:          250 [K]
Beta:                 0.0048108928702210625 [-]
Pressure:             2e+07 [Pa]
Helium void fraction: 1 [-]

Box:      30.00000   0.00000   0.00000
           0.00000  30.00000   0.00000
           0.00000   0.00000  30.00000
Lengths:  30.00000  30.00000  30.00000
Angles:   90.00000  90.00000  90.00000
Rectangular boundary conditions



Property measurement settings
===============================================================================




Pseudo-atoms
===============================================================================

  0 - C_co2    framework-atom: false
  1 - O_co2    framework-atom: false

  0 - C_co2    mass: 12.00000, charge:  0.70000
  1 - O_co2    mass: 15.99940, charge: -0.35000

  0 - C_co2    polarizability:  0.00000
  1 - O_co2    polarizability:  0.00000

  0 - J. J. Potoff et al., AIChE J. 2001, 47, 1676–1682.
  1 - J. J. Potoff et al., AIChE J. 2001, 47, 1676–1682.

Force field status
===============================================================================

Cutoff Framework-Molecule VDW:  11.00000 [Å]
Cutoff Molecule-Molecule VDW:   11.00000 [Å]
Cutoff Coulomb:                 11.00000 [Å]

Overlap-criteria VDW:           1.000000e+05 [K]

C_co2    - C_co2    Lennard-Jones p₀/kʙ:  27.00000 [K], p₁:  2.80000 [Å]
                                  shift:   0.00000 [K], tailcorrections: true
C_co2    - O_co2    Lennard-Jones p₀/kʙ:  46.18441 [K], p₁:  2.92500 [Å]
                                  shift:   0.00000 [K], tailcorrections: true
O_co2    - O_co2    Lennard-Jones p₀/kʙ:  79.00000 [K], p₁:  3.05000 [Å]
                                  shift:   0.00000 [K], tailcorrections: true

Ewald precision: 1e-06
Ewald alpha: 0.2903408740940883
Ewald k-vectors: 9 9 9


Component definitions
===============================================================================

Component 0 [CO2]

    Type: Adsorbate

    Critical temperature:  304.1282 [K]
    Critical pressure:     7377300 [Pa]
    Acentric factor:       0.22394 [-]

    Mol-fraction:                 1 [-]
    Swappable:                   false

    Mass:                         43.9988 [-]
    Bulk fluid density:           0 [-]
    Compressibility:              0 [-]
    Excess molecules:             0 [-]

    Number Of Atoms:    3
    CBMC starting bead: 0
      0: O_co2  position  0.00000 -0.00000  1.16000, charge -0.35000
      1: C_co2  position  0.00000 -0.00000  0.00000, charge  0.70000
      2: O_co2  position  0.00000 -0.00000 -1.16000, charge -0.35000
    Diagonalized inertia-vector:      43.05758528 43.05758528 0.00000000
    Translational degrees of freedom: 3
    Rotational degrees of freedom:    2
    Shape of the molecule is: 'Linear'
    Net-charge:        0.00000000 [e]

    Move probabilities:
    Translation:                   0.331126 [-]
    Random translation:            0.000000 [-]
    Rotation:                      0.331126 [-]
    Random rotation:               0.000000 [-]
    Volume change:                 0.006623 [-]
    Reinsertion (CBMC):            0.331126 [-]
    Identity change (CBMC):        0.000000 [-]
    Swap:                          0.000000 [-]
    Swap (CBMC):                   0.000000 [-]
    Swap (CFCMC):                  0.000000 [-]
    Swap (CB/CFCMC):               0.000000 [-]
    Gibbs volume:                  0.000000 [-]
    Gibbs swap (CBMC):             0.000000 [-]
    Gibbs swap (CFCMC):            0.000000 [-]
    Widom:                         0.000000 [-]
    Widom (CFCMC):                 0.000000 [-]
    Widom (CB/CFCMC):              0.000000 [-]
    Parallel tempering:            0.000000 [-]
    Hybrid MC:                     0.000000 [-]

    number of blocking-pockets: 0

    number of bonds: 0





Number of pseudo-atoms
===============================================================================

Component   0 (CO2)
-------------------------------------------------------------------------------
    index   0 (C_co2): 250 atoms
    index   1 (O_co2): 500 atoms

Total number of pseudo-atoms:
-------------------------------------------------------------------------------
    index   0 (C_co2): 250 atoms
    index   1 (O_co2): 500 atoms




Energy status Recomputed from scratch
===============================================================================

Total potential energy/kʙ       -1.401057e+05 [K]
    external field VDW/kʙ        0.000000e+00 [K]
    external field Real/kʙ       0.000000e+00 [K]
    framework-molecule VDW/kʙ    0.000000e+00 [K]
    framework-molecule Real/kʙ   0.000000e+00 [K]
    molecule-molecule VDW/kʙ    -1.080488e+05 [K]
    molecule-molecule Real/kʙ   -2.354709e+04 [K]
    Van der Waals (Tail)/kʙ     -5.580763e+03 [K]
    Ewald Fourier/kʙ             1.976235e+04 [K]
    Ewald self/kʙ               -5.029674e+06 [K]
    Ewald exclusion/kʙ           5.006983e+06 [K]
    intra VDW/kʙ                 0.000000e+00 [K]
    intra Coulombic/kʙ           0.000000e+00 [K]
    polarization/kʙ              0.000000e+00 [K]
    dU/dlambda VDW/kʙ            0.000000e+00 [K]
    dU/dlambda Real/kʙ           0.000000e+00 [K]
    dU/dlambda Ewald/kʙ          0.000000e+00 [K]





Initialization: Current cycle: 0 out of 1000
===============================================================================

Box:      30.99473   0.00000   0.00000
           0.00000  30.99473   0.00000
           0.00000   0.00000  30.99473
Lengths:  30.99473  30.99473  30.99473
Angles:   90.00000  90.00000  90.00000
Rectangular boundary conditions

net charge:   0.00000000

component   0 (CO2) lambda:  0 occupancy:  1 (1.000000)
    net charge:   0.00000000 [e]

Amount of molecules per component :
-------------------------------------------------------------------------------
Component 0 (CO2)
    molecules:         2.500000e+02 molecules
    number density:    8.396077e-03 molec/A^3
    density:           6.134317e+02 kg/m^3

Total potential energy/kʙ       -1.646507e+05 [K]
-------------------------------------------------------------------------------
    external field VDW/kʙ        0.000000e+00 [K]
    external field Real/kʙ       0.000000e+00 [K]
    framework-molecule VDW/kʙ    0.000000e+00 [K]
    framework-molecule Real/kʙ   0.000000e+00 [K]
    molecule-molecule VDW/kʙ    -1.306243e+05 [K]
    molecule-molecule Real/kʙ   -2.493436e+04 [K]
    Van der Waals (Tail)/kʙ     -5.060503e+03 [K]
    Ewald Fourier/kʙ             1.865979e+04 [K]
    Ewald self/kʙ               -5.029674e+06 [K]
    Ewald exclusion/kʙ           5.006983e+06 [K]
    intra VDW/kʙ                 0.000000e+00 [K]
    intra Coulombic/kʙ           0.000000e+00 [K]
    polarization/kʙ              0.000000e+00 [K]
    dU/dlambda VDW/kʙ            0.000000e+00 [K]
    dU/dlambda Real/kʙ           0.000000e+00 [K]
    dU/dlambda Ewald/kʙ          0.000000e+00 [K]


Initialization: Current cycle: 100 out of 1000
===============================================================================

Box:      28.44062   0.00000   0.00000
           0.00000  28.44062   0.00000
           0.00000   0.00000  28.44062
Lengths:  28.44062  28.44062  28.44062
Angles:   90.00000  90.00000  90.00000
Rectangular boundary conditions

net charge:   0.00000000

component   0 (CO2) lambda:  0 occupancy:  1 (1.000000)
    net charge:   0.00000000 [e]

Amount of molecules per component :
-------------------------------------------------------------------------------
Component 0 (CO2)
    molecules:         2.500000e+02 molecules
    number density:    1.086733e-02 molec/A^3
    density:           7.939854e+02 kg/m^3

Total potential energy/kʙ       -3.063509e+05 [K]
-------------------------------------------------------------------------------
    external field VDW/kʙ        0.000000e+00 [K]
    external field Real/kʙ       0.000000e+00 [K]
    framework-molecule VDW/kʙ    0.000000e+00 [K]
    framework-molecule Real/kʙ   0.000000e+00 [K]
    molecule-molecule VDW/kʙ    -2.189628e+05 [K]
    molecule-molecule Real/kʙ   -7.086216e+04 [K]
    Van der Waals (Tail)/kʙ     -6.549980e+03 [K]
    Ewald Fourier/kʙ             1.271541e+04 [K]
    Ewald self/kʙ               -5.029674e+06 [K]
    Ewald exclusion/kʙ           5.006983e+06 [K]
    intra VDW/kʙ                 0.000000e+00 [K]
    intra Coulombic/kʙ           0.000000e+00 [K]
    polarization/kʙ              0.000000e+00 [K]
    dU/dlambda VDW/kʙ            0.000000e+00 [K]
    dU/dlambda Real/kʙ           0.000000e+00 [K]
    dU/dlambda Ewald/kʙ          0.000000e+00 [K]


Initialization: Current cycle: 200 out of 1000
===============================================================================

Box:      27.04363   0.00000   0.00000
           0.00000  27.04363   0.00000
           0.00000   0.00000  27.04363
Lengths:  27.04363  27.04363  27.04363
Angles:   90.00000  90.00000  90.00000
Rectangular boundary conditions

net charge:   0.00000000

component   0 (CO2) lambda:  0 occupancy:  1 (1.000000)
    net charge:   0.00000000 [e]

Amount of molecules per component :
-------------------------------------------------------------------------------
Component 0 (CO2)
    molecules:         2.500000e+02 molecules
    number density:    1.263995e-02 molec/A^3
    density:           9.234961e+02 kg/m^3

Total potential energy/kʙ       -3.336500e+05 [K]
-------------------------------------------------------------------------------
    external field VDW/kʙ        0.000000e+00 [K]
    external field Real/kʙ       0.000000e+00 [K]
    framework-molecule VDW/kʙ    0.000000e+00 [K]
    framework-molecule Real/kʙ   0.000000e+00 [K]
    molecule-molecule VDW/kʙ    -2.373565e+05 [K]
    molecule-molecule Real/kʙ   -7.670652e+04 [K]
    Van der Waals (Tail)/kʙ     -7.618378e+03 [K]
    Ewald Fourier/kʙ             1.072278e+04 [K]
    Ewald self/kʙ               -5.029674e+06 [K]
    Ewald exclusion/kʙ           5.006983e+06 [K]
    intra VDW/kʙ                 0.000000e+00 [K]
    intra Coulombic/kʙ           0.000000e+00 [K]
    polarization/kʙ              0.000000e+00 [K]
    dU/dlambda VDW/kʙ            0.000000e+00 [K]
    dU/dlambda Real/kʙ           0.000000e+00 [K]
    dU/dlambda Ewald/kʙ          0.000000e+00 [K]


Initialization: Current cycle: 300 out of 1000
===============================================================================

Box:      26.29004   0.00000   0.00000
           0.00000  26.29004   0.00000
           0.00000   0.00000  26.29004
Lengths:  26.29004  26.29004  26.29004
Angles:   90.00000  90.00000  90.00000
Rectangular boundary conditions

net charge:   0.00000000

component   0 (CO2) lambda:  0 occupancy:  1 (1.000000)
    net charge:   0.00000000 [e]

Amount of molecules per component :
-------------------------------------------------------------------------------
Component 0 (CO2)
    molecules:         2.500000e+02 molecules
    number density:    1.375834e-02 molec/A^3
    density:           1.005208e+03 kg/m^3

Total potential energy/kʙ       -3.548783e+05 [K]
-------------------------------------------------------------------------------
    external field VDW/kʙ        0.000000e+00 [K]
    external field Real/kʙ       0.000000e+00 [K]
    framework-molecule VDW/kʙ    0.000000e+00 [K]
    framework-molecule Real/kʙ   0.000000e+00 [K]
    molecule-molecule VDW/kʙ    -2.609437e+05 [K]
    molecule-molecule Real/kʙ   -7.484719e+04 [K]
    Van der Waals (Tail)/kʙ     -8.292460e+03 [K]
    Ewald Fourier/kʙ             1.189644e+04 [K]
    Ewald self/kʙ               -5.029674e+06 [K]
    Ewald exclusion/kʙ           5.006983e+06 [K]
    intra VDW/kʙ                 0.000000e+00 [K]
    intra Coulombic/kʙ           0.000000e+00 [K]
    polarization/kʙ              0.000000e+00 [K]
    dU/dlambda VDW/kʙ            0.000000e+00 [K]
    dU/dlambda Real/kʙ           0.000000e+00 [K]
    dU/dlambda Ewald/kʙ          0.000000e+00 [K]


Initialization: Current cycle: 400 out of 1000
===============================================================================

Box:      25.99480   0.00000   0.00000
           0.00000  25.99480   0.00000
           0.00000   0.00000  25.99480
Lengths:  25.99480  25.99480  25.99480
Angles:   90.00000  90.00000  90.00000
Rectangular boundary conditions

net charge:   0.00000000

component   0 (CO2) lambda:  0 occupancy:  1 (1.000000)
    net charge:   0.00000000 [e]

Amount of molecules per component :
-------------------------------------------------------------------------------
Component 0 (CO2)
    molecules:         2.500000e+02 molecules
    number density:    1.423247e-02 molec/A^3
    density:           1.039849e+03 kg/m^3

Total potential energy/kʙ       -3.767787e+05 [K]
-------------------------------------------------------------------------------
    external field VDW/kʙ        0.000000e+00 [K]
    external field Real/kʙ       0.000000e+00 [K]
    framework-molecule VDW/kʙ    0.000000e+00 [K]
    framework-molecule Real/kʙ   0.000000e+00 [K]
    molecule-molecule VDW/kʙ    -2.666015e+05 [K]
    molecule-molecule Real/kʙ   -8.887099e+04 [K]
    Van der Waals (Tail)/kʙ     -8.578231e+03 [K]
    Ewald Fourier/kʙ             9.963370e+03 [K]
    Ewald self/kʙ               -5.029674e+06 [K]
    Ewald exclusion/kʙ           5.006983e+06 [K]
    intra VDW/kʙ                 0.000000e+00 [K]
    intra Coulombic/kʙ           0.000000e+00 [K]
    polarization/kʙ              0.000000e+00 [K]
    dU/dlambda VDW/kʙ            0.000000e+00 [K]
    dU/dlambda Real/kʙ           0.000000e+00 [K]
    dU/dlambda Ewald/kʙ          0.000000e+00 [K]


Initialization: Current cycle: 500 out of 1000
===============================================================================

Box:      25.84055   0.00000   0.00000
           0.00000  25.84055   0.00000
           0.00000   0.00000  25.84055
Lengths:  25.84055  25.84055  25.84055
Angles:   90.00000  90.00000  90.00000
Rectangular boundary conditions

net charge:   0.00000000

component   0 (CO2) lambda:  0 occupancy:  1 (1.000000)
    net charge:   0.00000000 [e]

Amount of molecules per component :
-------------------------------------------------------------------------------
Component 0 (CO2)
    molecules:         2.500000e+02 molecules
    number density:    1.448888e-02 molec/A^3
    density:           1.058582e+03 kg/m^3

Total potential energy/kʙ       -3.886896e+05 [K]
-------------------------------------------------------------------------------
    external field VDW/kʙ        0.000000e+00 [K]
    external field Real/kʙ       0.000000e+00 [K]
    framework-molecule VDW/kʙ    0.000000e+00 [K]
    framework-molecule Real/kʙ   0.000000e+00 [K]
    molecule-molecule VDW/kʙ    -2.812000e+05 [K]
    molecule-molecule Real/kʙ   -8.654080e+04 [K]
    Van der Waals (Tail)/kʙ     -8.732771e+03 [K]
    Ewald Fourier/kʙ             1.047535e+04 [K]
    Ewald self/kʙ               -5.029674e+06 [K]
    Ewald exclusion/kʙ           5.006983e+06 [K]
    intra VDW/kʙ                 0.000000e+00 [K]
    intra Coulombic/kʙ           0.000000e+00 [K]
    polarization/kʙ              0.000000e+00 [K]
    dU/dlambda VDW/kʙ            0.000000e+00 [K]
    dU/dlambda Real/kʙ           0.000000e+00 [K]
    dU/dlambda Ewald/kʙ          0.000000e+00 [K]


Initialization: Current cycle: 600 out of 1000
===============================================================================

Box:      25.67432   0.00000   0.00000
           0.00000  25.67432   0.00000
           0.00000   0.00000  25.67432
Lengths:  25.67432  25.67432  25.67432
Angles:   90.00000  90.00000  90.00000
Rectangular boundary conditions

net charge:   0.00000000

component   0 (CO2) lambda:  0 occupancy:  1 (1.000000)
    net charge:   0.00000000 [e]

Amount of molecules per component :
-------------------------------------------------------------------------------
Component 0 (CO2)
    molecules:         2.500000e+02 molecules
    number density:    1.477213e-02 molec/A^3
    density:           1.079277e+03 kg/m^3

Total potential energy/kʙ       -3.914446e+05 [K]
-------------------------------------------------------------------------------
    external field VDW/kʙ        0.000000e+00 [K]
    external field Real/kʙ       0.000000e+00 [K]
    framework-molecule VDW/kʙ    0.000000e+00 [K]
    framework-molecule Real/kʙ   0.000000e+00 [K]
    molecule-molecule VDW/kʙ    -2.810748e+05 [K]
    molecule-molecule Real/kʙ   -8.952710e+04 [K]
    Van der Waals (Tail)/kʙ     -8.903492e+03 [K]
    Ewald Fourier/kʙ             1.075210e+04 [K]
    Ewald self/kʙ               -5.029674e+06 [K]
    Ewald exclusion/kʙ           5.006983e+06 [K]
    intra VDW/kʙ                 0.000000e+00 [K]
    intra Coulombic/kʙ           0.000000e+00 [K]
    polarization/kʙ              0.000000e+00 [K]
    dU/dlambda VDW/kʙ            0.000000e+00 [K]
    dU/dlambda Real/kʙ           0.000000e+00 [K]
    dU/dlambda Ewald/kʙ          0.000000e+00 [K]


Initialization: Current cycle: 700 out of 1000
===============================================================================

Box:      25.24494   0.00000   0.00000
           0.00000  25.24494   0.00000
           0.00000   0.00000  25.24494
Lengths:  25.24494  25.24494  25.24494
Angles:   90.00000  90.00000  90.00000
Rectangular boundary conditions

net charge:   0.00000000

component   0 (CO2) lambda:  0 occupancy:  1 (1.000000)
    net charge:   0.00000000 [e]

Amount of molecules per component :
-------------------------------------------------------------------------------
Component 0 (CO2)
    molecules:         2.500000e+02 molecules
    number density:    1.553878e-02 molec/A^3
    density:           1.135290e+03 kg/m^3

Total potential energy/kʙ       -4.057158e+05 [K]
-------------------------------------------------------------------------------
    external field VDW/kʙ        0.000000e+00 [K]
    external field Real/kʙ       0.000000e+00 [K]
    framework-molecule VDW/kʙ    0.000000e+00 [K]
    framework-molecule Real/kʙ   0.000000e+00 [K]
    molecule-molecule VDW/kʙ    -2.906550e+05 [K]
    molecule-molecule Real/kʙ   -9.317340e+04 [K]
    Van der Waals (Tail)/kʙ     -9.365570e+03 [K]
    Ewald Fourier/kʙ             1.016962e+04 [K]
    Ewald self/kʙ               -5.029674e+06 [K]
    Ewald exclusion/kʙ           5.006983e+06 [K]
    intra VDW/kʙ                 0.000000e+00 [K]
    intra Coulombic/kʙ           0.000000e+00 [K]
    polarization/kʙ              0.000000e+00 [K]
    dU/dlambda VDW/kʙ            0.000000e+00 [K]
    dU/dlambda Real/kʙ           0.000000e+00 [K]
    dU/dlambda Ewald/kʙ          0.000000e+00 [K]


Initialization: Current cycle: 800 out of 1000
===============================================================================

Box:      25.32383   0.00000   0.00000
           0.00000  25.32383   0.00000
           0.00000   0.00000  25.32383
Lengths:  25.32383  25.32383  25.32383
Angles:   90.00000  90.00000  90.00000
Rectangular boundary conditions

net charge:   0.00000000

component   0 (CO2) lambda:  0 occupancy:  1 (1.000000)
    net charge:   0.00000000 [e]

Amount of molecules per component :
-------------------------------------------------------------------------------
Component 0 (CO2)
    molecules:         2.500000e+02 molecules
    number density:    1.539402e-02 molec/A^3
    density:           1.124713e+03 kg/m^3

Total potential energy/kʙ       -4.044537e+05 [K]
-------------------------------------------------------------------------------
    external field VDW/kʙ        0.000000e+00 [K]
    external field Real/kʙ       0.000000e+00 [K]
    framework-molecule VDW/kʙ    0.000000e+00 [K]
    framework-molecule Real/kʙ   0.000000e+00 [K]
    molecule-molecule VDW/kʙ    -2.918237e+05 [K]
    molecule-molecule Real/kʙ   -9.031787e+04 [K]
    Van der Waals (Tail)/kʙ     -9.278320e+03 [K]
    Ewald Fourier/kʙ             9.657598e+03 [K]
    Ewald self/kʙ               -5.029674e+06 [K]
    Ewald exclusion/kʙ           5.006983e+06 [K]
    intra VDW/kʙ                 0.000000e+00 [K]
    intra Coulombic/kʙ           0.000000e+00 [K]
    polarization/kʙ              0.000000e+00 [K]
    dU/dlambda VDW/kʙ            0.000000e+00 [K]
    dU/dlambda Real/kʙ           0.000000e+00 [K]
    dU/dlambda Ewald/kʙ          0.000000e+00 [K]


Initialization: Current cycle: 900 out of 1000
===============================================================================

Box:      25.41464   0.00000   0.00000
           0.00000  25.41464   0.00000
           0.00000   0.00000  25.41464
Lengths:  25.41464  25.41464  25.41464
Angles:   90.00000  90.00000  90.00000
Rectangular boundary conditions

net charge:   0.00000000

component   0 (CO2) lambda:  0 occupancy:  1 (1.000000)
    net charge:   0.00000000 [e]

Amount of molecules per component :
-------------------------------------------------------------------------------
Component 0 (CO2)
    molecules:         2.500000e+02 molecules
    number density:    1.522959e-02 molec/A^3
    density:           1.112700e+03 kg/m^3

Total potential energy/kʙ       -4.075394e+05 [K]
-------------------------------------------------------------------------------
    external field VDW/kʙ        0.000000e+00 [K]
    external field Real/kʙ       0.000000e+00 [K]
    framework-molecule VDW/kʙ    0.000000e+00 [K]
    framework-molecule Real/kʙ   0.000000e+00 [K]
    molecule-molecule VDW/kʙ    -2.902236e+05 [K]
    molecule-molecule Real/kʙ   -9.437267e+04 [K]
    Van der Waals (Tail)/kʙ     -9.179216e+03 [K]
    Ewald Fourier/kʙ             8.927414e+03 [K]
    Ewald self/kʙ               -5.029674e+06 [K]
    Ewald exclusion/kʙ           5.006983e+06 [K]
    intra VDW/kʙ                 0.000000e+00 [K]
    intra Coulombic/kʙ           0.000000e+00 [K]
    polarization/kʙ              0.000000e+00 [K]
    dU/dlambda VDW/kʙ            0.000000e+00 [K]
    dU/dlambda Real/kʙ           0.000000e+00 [K]
    dU/dlambda Ewald/kʙ          0.000000e+00 [K]


Current cycle: 0 out of 5000
===============================================================================

Box:      25.65911   0.00000   0.00000  Average:  25.65911   0.00000   0.00000
           0.00000  25.65911   0.00000             0.00000  25.65911   0.00000
           0.00000   0.00000  25.65911             0.00000   0.00000  25.65911
Lengths:  25.65911  25.65911  25.65911  Average:  25.65911  25.65911  25.65911
Angles:   90.00000  90.00000  90.00000  Average:  90.00000  90.00000  90.00000
Rectangular boundary conditions

net charge:   0.00000000

component 0 (CO2) lambda:  0 occupancy:  1 (1.000000)
    net charge:   0.00000000 [e]

Amount of molecules per component :
-------------------------------------------------------------------------------
Component 0 (CO2)
    molecules:      2.500000e+02 molecules  (2.500000e+02 +/- 0.000000e+00)
    number density: 1.479841e-02 molec./A^3 (1.479841e-02 +/- 0.000000e+00)
    density:        1.081197e+03 kg/m^3     (1.081197e+03 +/- 0.000000e+00)

Average pressure tensor: 
-------------------------------------------------------------------------------
 5.1079e+02  0.0000e+00  0.0000e+00 +/- 0.0000e+00 0.0000e+00 0.0000e+00 [bar]
 0.0000e+00  5.1079e+02  0.0000e+00 +/- 0.0000e+00 0.0000e+00 0.0000e+00 [bar]
 0.0000e+00  0.0000e+00  5.1079e+02 +/- 0.0000e+00 0.0000e+00 0.0000e+00 [bar]
Ideal-gas pressure:   5.107857e+02 +/ 0.000000e+00 [bar]
Excess pressure:      0.000000e+00 +/ 0.000000e+00 [bar]
Pressure:             5.107857e+02 +/ 0.000000e+00 [bar]

Total potential energy/kʙ  -3.986757e+05 (-3.986757e+05 +/- 0.000000e+00) [K]
-------------------------------------------------------------------------------
ExternalField-molecule
    Van der Waals/kʙ        0.000000e+00 ( 0.000000e+00 +/- 0.000000e+00) [K]
Framework-molecule
    Van der Waals/kʙ        0.000000e+00 ( 0.000000e+00 +/- 0.000000e+00) [K]
    Van der Waals (Tail)/kʙ 0.000000e+00 ( 0.000000e+00 +/- 0.000000e+00) [K]
    Coulombic Real/kʙ       0.000000e+00 ( 0.000000e+00 +/- 0.000000e+00) [K]
    Coulombic Fourier/kʙ    0.000000e+00 ( 0.000000e+00 +/- 0.000000e+00) [K]
Molecule-molecule
    Van der Waals/kʙ       -2.860181e+05 (-2.860181e+05 +/- 0.000000e+00) [K]
    Van der Waals (Tail)/kʙ-8.919331e+03 (-8.919331e+03 +/- 0.000000e+00) [K]
    Coulombic Real/kʙ      -9.110411e+04 (-9.110411e+04 +/- 0.000000e+00) [K]
    Coulombic Fourier/kʙ   -1.263410e+04 (-1.263410e+04 +/- 0.000000e+00) [K]
    Molecule Intra/kʙ       0.000000e+00 ( 0.000000e+00 +/- 0.000000e+00) [K]

Current cycle: 100 out of 5000
===============================================================================

Box:      25.60975   0.00000   0.00000  Average:  25.54135   0.00000   0.00000
           0.00000  25.60975   0.00000             0.00000  25.54135   0.00000
           0.00000   0.00000  25.60975             0.00000   0.00000  25.54135
Lengths:  25.60975  25.60975  25.60975  Average:  25.54135  25.54135  25.54135
Angles:   90.00000  90.00000  90.00000  Average:  90.00000  90.00000  90.00000
Rectangular boundary conditions

net charge:   0.00000000

component 0 (CO2) lambda:  0 occupancy:  1 (1.000000)
    net charge:   0.00000000 [e]

Amount of molecules per component :
-------------------------------------------------------------------------------
Component 0 (CO2)
    molecules:      2.500000e+02 molecules  (2.500000e+02 +/- 0.000000e+00)
    number density: 1.488415e-02 molec./A^3 (1.500510e-02 +/- 0.000000e+00)
    density:        1.087462e+03 kg/m^3     (1.096298e+03 +/- 0.000000e+00)

Average pressure tensor: 
-------------------------------------------------------------------------------
 3.0577e+02 -8.7479e+01  1.6822e+02 +/- 0.0000e+00 0.0000e+00 0.0000e+00 [bar]
-8.7479e+01  2.3943e+02 -9.4529e+01 +/- 0.0000e+00 0.0000e+00 0.0000e+00 [bar]
 1.6822e+02 -9.4529e+01  2.6487e+02 +/- 0.0000e+00 0.0000e+00 0.0000e+00 [bar]
Ideal-gas pressure:   5.179198e+02 +/ 0.000000e+00 [bar]
Excess pressure:     -2.478966e+02 +/ 0.000000e+00 [bar]
Pressure:             2.700231e+02 +/ 0.000000e+00 [bar]

Total potential energy/kʙ  -3.874758e+05 (-3.944282e+05 +/- 0.000000e+00) [K]
-------------------------------------------------------------------------------
ExternalField-molecule
    Van der Waals/kʙ        0.000000e+00 ( 0.000000e+00 +/- 0.000000e+00) [K]
Framework-molecule
    Van der Waals/kʙ        0.000000e+00 ( 0.000000e+00 +/- 0.000000e+00) [K]
    Van der Waals (Tail)/kʙ 0.000000e+00 ( 0.000000e+00 +/- 0.000000e+00) [K]
    Coulombic Real/kʙ       0.000000e+00 ( 0.000000e+00 +/- 0.000000e+00) [K]
    Coulombic Fourier/kʙ    0.000000e+00 ( 0.000000e+00 +/- 0.000000e+00) [K]
Molecule-molecule
    Van der Waals/kʙ       -2.845898e+05 (-2.834463e+05 +/- 0.000000e+00) [K]
    Van der Waals (Tail)/kʙ-8.971011e+03 (-9.052130e+03 +/- 0.000000e+00) [K]
    Coulombic Real/kʙ      -8.153968e+04 (-8.902186e+04 +/- 0.000000e+00) [K]
    Coulombic Fourier/kʙ   -1.237534e+04 (-1.290789e+04 +/- 0.000000e+00) [K]
    Molecule Intra/kʙ       0.000000e+00 ( 0.000000e+00 +/- 0.000000e+00) [K]

Current cycle: 200 out of 5000
===============================================================================

Box:      25.72657   0.00000   0.00000  Average:  25.56766   0.00000   0.00000
           0.00000  25.72657   0.00000             0.00000  25.56766   0.00000
           0.00000   0.00000  25.72657             0.00000   0.00000  25.56766
Lengths:  25.72657  25.72657  25.72657  Average:  25.56766  25.56766  25.56766
Angles:   90.00000  90.00000  90.00000  Average:  90.00000  90.00000  90.00000
Rectangular boundary conditions

net charge:   0.00000000

component 0 (CO2) lambda:  0 occupancy:  1 (1.000000)
    net charge:   0.00000000 [e]

Amount of molecules per component :
-------------------------------------------------------------------------------
Component 0 (CO2)
    molecules:      2.500000e+02 molecules  (2.500000e+02 +/- 0.000000e+00)
    number density: 1.468231e-02 molec./A^3 (1.495885e-02 +/- 0.000000e+00)
    density:        1.072715e+03 kg/m^3     (1.092919e+03 +/- 0.000000e+00)

Average pressure tensor: 
-------------------------------------------------------------------------------
 3.2089e+02 -9.0846e+00  1.2519e+02 +/- 0.0000e+00 0.0000e+00 0.0000e+00 [bar]
-9.0846e+00  3.6739e+02 -1.0966e+02 +/- 0.0000e+00 0.0000e+00 0.0000e+00 [bar]
 1.2519e+02 -1.0966e+02  1.9183e+02 +/- 0.0000e+00 0.0000e+00 0.0000e+00 [bar]
Ideal-gas pressure:   5.163235e+02 +/ 0.000000e+00 [bar]
Excess pressure:     -2.229540e+02 +/ 0.000000e+00 [bar]
Pressure:             2.933695e+02 +/ 0.000000e+00 [bar]

Total potential energy/kʙ  -3.838669e+05 (-3.923065e+05 +/- 0.000000e+00) [K]
-------------------------------------------------------------------------------
ExternalField-molecule
    Van der Waals/kʙ        0.000000e+00 ( 0.000000e+00 +/- 0.000000e+00) [K]
Framework-molecule
    Van der Waals/kʙ        0.000000e+00 ( 0.000000e+00 +/- 0.000000e+00) [K]
    Van der Waals (Tail)/kʙ 0.000000e+00 ( 0.000000e+00 +/- 0.000000e+00) [K]
    Coulombic Real/kʙ       0.000000e+00 ( 0.000000e+00 +/- 0.000000e+00) [K]
    Coulombic Fourier/kʙ    0.000000e+00 ( 0.000000e+00 +/- 0.000000e+00) [K]
Molecule-molecule
    Van der Waals/kʙ       -2.776952e+05 (-2.821377e+05 +/- 0.000000e+00) [K]
    Van der Waals (Tail)/kʙ-8.849358e+03 (-9.031911e+03 +/- 0.000000e+00) [K]
    Coulombic Real/kʙ      -8.426193e+04 (-8.821456e+04 +/- 0.000000e+00) [K]
    Coulombic Fourier/kʙ   -1.306043e+04 (-1.292239e+04 +/- 0.000000e+00) [K]
    Molecule Intra/kʙ       0.000000e+00 ( 0.000000e+00 +/- 0.000000e+00) [K]

Current cycle: 300 out of 5000
===============================================================================

Box:      25.42315   0.00000   0.00000  Average:  25.53406   0.00000   0.00000
           0.00000  25.42315   0.00000             0.00000  25.53406   0.00000
           0.00000   0.00000  25.42315             0.00000   0.00000  25.53406
Lengths:  25.42315  25.42315  25.42315  Average:  25.53406  25.53406  25.53406
Angles:   90.00000  90.00000  90.00000  Average:  90.00000  90.00000  90.00000
Rectangular boundary conditions

net charge:   0.00000000

component 0 (CO2) lambda:  0 occupancy:  1 (1.000000)
    net charge:   0.00000000 [e]

Amount of molecules per component :
-------------------------------------------------------------------------------
Component 0 (CO2)
    molecules:      2.500000e+02 molecules  (2.500000e+02 +/- 0.000000e+00)
    number density: 1.521429e-02 molec./A^3 (1.501863e-02 +/- 0.000000e+00)
    density:        1.111582e+03 kg/m^3     (1.097287e+03 +/- 0.000000e+00)

Average pressure tensor: 
-------------------------------------------------------------------------------
 2.9700e+02  3.4552e+01  7.4020e+01 +/- 0.0000e+00 0.0000e+00 0.0000e+00 [bar]
 3.4552e+01  2.0395e+02 -7.7971e+01 +/- 0.0000e+00 0.0000e+00 0.0000e+00 [bar]
 7.4020e+01 -7.7971e+01  2.3942e+02 +/- 0.0000e+00 0.0000e+00 0.0000e+00 [bar]
Ideal-gas pressure:   5.183869e+02 +/ 0.000000e+00 [bar]
Excess pressure:     -2.715978e+02 +/ 0.000000e+00 [bar]
Pressure:             2.467891e+02 +/ 0.000000e+00 [bar]

Total potential energy/kʙ  -3.912131e+05 (-3.931269e+05 +/- 0.000000e+00) [K]
-------------------------------------------------------------------------------
ExternalField-molecule
    Van der Waals/kʙ        0.000000e+00 ( 0.000000e+00 +/- 0.000000e+00) [K]
Framework-molecule
    Van der Waals/kʙ        0.000000e+00 ( 0.000000e+00 +/- 0.000000e+00) [K]
    Van der Waals (Tail)/kʙ 0.000000e+00 ( 0.000000e+00 +/- 0.000000e+00) [K]
    Coulombic Real/kʙ       0.000000e+00 ( 0.000000e+00 +/- 0.000000e+00) [K]
    Coulombic Fourier/kʙ    0.000000e+00 ( 0.000000e+00 +/- 0.000000e+00) [K]
Molecule-molecule
    Van der Waals/kʙ       -2.887201e+05 (-2.839796e+05 +/- 0.000000e+00) [K]
    Van der Waals (Tail)/kʙ-9.169995e+03 (-9.064993e+03 +/- 0.000000e+00) [K]
    Coulombic Real/kʙ      -8.092438e+04 (-8.713682e+04 +/- 0.000000e+00) [K]
    Coulombic Fourier/kʙ   -1.239862e+04 (-1.294557e+04 +/- 0.000000e+00) [K]
    Molecule Intra/kʙ       0.000000e+00 ( 0.000000e+00 +/- 0.000000e+00) [K]

Current cycle: 400 out of 5000
===============================================================================

Box:      25.72879   0.00000   0.00000  Average:  25.53355   0.00000   0.00000
           0.00000  25.72879   0.00000             0.00000  25.53355   0.00000
           0.00000   0.00000  25.72879             0.00000   0.00000  25.53355
Lengths:  25.72879  25.72879  25.72879  Average:  25.53355  25.53355  25.53355
Angles:   90.00000  90.00000  90.00000  Average:  90.00000  90.00000  90.00000
Rectangular boundary conditions

net charge:   0.00000000

component 0 (CO2) lambda:  0 occupancy:  1 (1.000000)
    net charge:   0.00000000 [e]

Amount of molecules per component :
-------------------------------------------------------------------------------
Component 0 (CO2)
    molecules:      2.500000e+02 molecules  (2.500000e+02 +/- 0.000000e+00)
    number density: 1.467851e-02 molec./A^3 (1.501940e-02 +/- 0.000000e+00)
    density:        1.072437e+03 kg/m^3     (1.097343e+03 +/- 0.000000e+00)

Average pressure tensor: 
-------------------------------------------------------------------------------
 2.8991e+02  3.9383e+01  2.6486e+01 +/- 0.0000e+00 0.0000e+00 0.0000e+00 [bar]
 3.9383e+01  2.0293e+02 -6.3960e+01 +/- 0.0000e+00 0.0000e+00 0.0000e+00 [bar]
 2.6486e+01 -6.3960e+01  2.5129e+02 +/- 0.0000e+00 0.0000e+00 0.0000e+00 [bar]
Ideal-gas pressure:   5.184136e+02 +/ 0.000000e+00 [bar]
Excess pressure:     -2.703687e+02 +/ 0.000000e+00 [bar]
Pressure:             2.480449e+02 +/ 0.000000e+00 [bar]

Total potential energy/kʙ  -3.832145e+05 (-3.930232e+05 +/- 0.000000e+00) [K]
-------------------------------------------------------------------------------
ExternalField-molecule
    Van der Waals/kʙ        0.000000e+00 ( 0.000000e+00 +/- 0.000000e+00) [K]
Framework-molecule
    Van der Waals/kʙ        0.000000e+00 ( 0.000000e+00 +/- 0.000000e+00) [K]
    Van der Waals (Tail)/kʙ 0.000000e+00 ( 0.000000e+00 +/- 0.000000e+00) [K]
    Coulombic Real/kʙ       0.000000e+00 ( 0.000000e+00 +/- 0.000000e+00) [K]
    Coulombic Fourier/kʙ    0.000000e+00 ( 0.000000e+00 +/- 0.000000e+00) [K]
Molecule-molecule
    Van der Waals/kʙ       -2.752049e+05 (-2.843528e+05 +/- 0.000000e+00) [K]
    Van der Waals (Tail)/kʙ-8.847064e+03 (-9.057810e+03 +/- 0.000000e+00) [K]
    Coulombic Real/kʙ      -8.648259e+04 (-8.678198e+04 +/- 0.000000e+00) [K]
    Coulombic Fourier/kʙ   -1.267991e+04 (-1.283058e+04 +/- 0.000000e+00) [K]
    Molecule Intra/kʙ       0.000000e+00 ( 0.000000e+00 +/- 0.000000e+00) [K]

Current cycle: 500 out of 5000
===============================================================================

Box:      25.58211   0.00000   0.00000  Average:  25.55777   0.00000   0.00000
           0.00000  25.58211   0.00000             0.00000  25.55777   0.00000
           0.00000   0.00000  25.58211             0.00000   0.00000  25.55777
Lengths:  25.58211  25.58211  25.58211  Average:  25.55777  25.55777  25.55777
Angles:   90.00000  90.00000  90.00000  Average:  90.00000  90.00000  90.00000
Rectangular boundary conditions

net charge:   0.00000000

component 0 (CO2) lambda:  0 occupancy:  1 (1.000000)
    net charge:   0.00000000 [e]

Amount of molecules per component :
-------------------------------------------------------------------------------
Component 0 (CO2)
    molecules:      2.500000e+02 molecules  (2.500000e+02 +/- 0.000000e+00)
    number density: 1.493245e-02 molec./A^3 (1.497695e-02 +/- 0.000000e+00)
    density:        1.090990e+03 kg/m^3     (1.094242e+03 +/- 0.000000e+00)

Average pressure tensor: 
-------------------------------------------------------------------------------
 3.2792e+02  1.2384e+01 -1.4155e+01 +/- 0.0000e+00 0.0000e+00 0.0000e+00 [bar]
 1.2384e+01  2.3144e+02 -5.5111e+01 +/- 0.0000e+00 0.0000e+00 0.0000e+00 [bar]
-1.4155e+01 -5.5111e+01  1.8740e+02 +/- 0.0000e+00 0.0000e+00 0.0000e+00 [bar]
Ideal-gas pressure:   5.169484e+02 +/ 0.000000e+00 [bar]
Excess pressure:     -2.680300e+02 +/ 0.000000e+00 [bar]
Pressure:             2.489185e+02 +/ 0.000000e+00 [bar]

Total potential energy/kʙ  -3.900061e+05 (-3.923697e+05 +/- 0.000000e+00) [K]
-------------------------------------------------------------------------------
ExternalField-molecule
    Van der Waals/kʙ        0.000000e+00 ( 0.000000e+00 +/- 0.000000e+00) [K]
Framework-molecule
    Van der Waals/kʙ        0.000000e+00 ( 0.000000e+00 +/- 0.000000e+00) [K]
    Van der Waals (Tail)/kʙ 0.000000e+00 ( 0.000000e+00 +/- 0.000000e+00) [K]
    Coulombic Real/kʙ       0.000000e+00 ( 0.000000e+00 +/- 0.000000e+00) [K]
    Coulombic Fourier/kʙ    0.000000e+00 ( 0.000000e+00 +/- 0.000000e+00) [K]
Molecule-molecule
    Van der Waals/kʙ       -2.815834e+05 (-2.829752e+05 +/- 0.000000e+00) [K]
    Van der Waals (Tail)/kʙ-9.000121e+03 (-9.029418e+03 +/- 0.000000e+00) [K]
    Coulombic Real/kʙ      -8.572672e+04 (-8.741943e+04 +/- 0.000000e+00) [K]
    Coulombic Fourier/kʙ   -1.369580e+04 (-1.294565e+04 +/- 0.000000e+00) [K]
    Molecule Intra/kʙ       0.000000e+00 ( 0.000000e+00 +/- 0.000000e+00) [K]

Current cycle: 600 out of 5000
===============================================================================

Box:      25.49080   0.00000   0.00000  Average:  25.55762   0.00000   0.00000
           0.00000  25.49080   0.00000             0.00000  25.55762   0.00000
           0.00000   0.00000  25.49080             0.00000   0.00000  25.55762
Lengths:  25.49080  25.49080  25.49080  Average:  25.55762  25.55762  25.55762
Angles:   90.00000  90.00000  90.00000  Average:  90.00000  90.00000  90.00000
Rectangular boundary conditions

net charge:   0.00000000

component 0 (CO2) lambda:  0 occupancy:  1 (1.000000)
    net charge:   0.00000000 [e]

Amount of molecules per component :
-------------------------------------------------------------------------------
Component 0 (CO2)
    molecules:      2.500000e+02 molecules  (2.500000e+02 +/- 0.000000e+00)
    number density: 1.509348e-02 molec./A^3 (1.497712e-02 +/- 0.000000e+00)
    density:        1.102755e+03 kg/m^3     (1.094254e+03 +/- 0.000000e+00)

Average pressure tensor: 
-------------------------------------------------------------------------------
 3.3170e+02  3.2527e+01 -3.0475e+01 +/- 0.0000e+00 0.0000e+00 0.0000e+00 [bar]
 3.2527e+01  2.5944e+02 -5.6292e+01 +/- 0.0000e+00 0.0000e+00 0.0000e+00 [bar]
-3.0475e+01 -5.6292e+01  2.2461e+02 +/- 0.0000e+00 0.0000e+00 0.0000e+00 [bar]
Ideal-gas pressure:   5.169541e+02 +/ 0.000000e+00 [bar]
Excess pressure:     -2.450383e+02 +/ 0.000000e+00 [bar]
Pressure:             2.719159e+02 +/ 0.000000e+00 [bar]

Total potential energy/kʙ  -3.977887e+05 (-3.928513e+05 +/- 0.000000e+00) [K]
-------------------------------------------------------------------------------
ExternalField-molecule
    Van der Waals/kʙ        0.000000e+00 ( 0.000000e+00 +/- 0.000000e+00) [K]
Framework-molecule
    Van der Waals/kʙ        0.000000e+00 ( 0.000000e+00 +/- 0.000000e+00) [K]
    Van der Waals (Tail)/kʙ 0.000000e+00 ( 0.000000e+00 +/- 0.000000e+00) [K]
    Coulombic Real/kʙ       0.000000e+00 ( 0.000000e+00 +/- 0.000000e+00) [K]
    Coulombic Fourier/kʙ    0.000000e+00 ( 0.000000e+00 +/- 0.000000e+00) [K]
Molecule-molecule
    Van der Waals/kʙ       -2.868328e+05 (-2.829979e+05 +/- 0.000000e+00) [K]
    Van der Waals (Tail)/kʙ-9.097178e+03 (-9.039014e+03 +/- 0.000000e+00) [K]
    Coulombic Real/kʙ      -8.815737e+04 (-8.786695e+04 +/- 0.000000e+00) [K]
    Coulombic Fourier/kʙ   -1.370135e+04 (-1.294739e+04 +/- 0.000000e+00) [K]
    Molecule Intra/kʙ       0.000000e+00 ( 0.000000e+00 +/- 0.000000e+00) [K]

Current cycle: 700 out of 5000
===============================================================================

Box:      25.37794   0.00000   0.00000  Average:  25.56592   0.00000   0.00000
           0.00000  25.37794   0.00000             0.00000  25.56592   0.00000
           0.00000   0.00000  25.37794             0.00000   0.00000  25.56592
Lengths:  25.37794  25.37794  25.37794  Average:  25.56592  25.56592  25.56592
Angles:   90.00000  90.00000  90.00000  Average:  90.00000  90.00000  90.00000
Rectangular boundary conditions

net charge:   0.00000000

component 0 (CO2) lambda:  0 occupancy:  1 (1.000000)
    net charge:   0.00000000 [e]

Amount of molecules per component :
-------------------------------------------------------------------------------
Component 0 (CO2)
    molecules:      2.500000e+02 molecules  (2.500000e+02 +/- 0.000000e+00)
    number density: 1.529576e-02 molec./A^3 (1.496253e-02 +/- 0.000000e+00)
    density:        1.117534e+03 kg/m^3     (1.093188e+03 +/- 0.000000e+00)

Average pressure tensor: 
-------------------------------------------------------------------------------
 3.1065e+02  2.5740e+00 -2.2884e+01 +/- 0.0000e+00 0.0000e+00 0.0000e+00 [bar]
 2.5740e+00  2.2025e+02 -5.7509e+01 +/- 0.0000e+00 0.0000e+00 0.0000e+00 [bar]
-2.2884e+01 -5.7509e+01  2.6122e+02 +/- 0.0000e+00 0.0000e+00 0.0000e+00 [bar]
Ideal-gas pressure:   5.164506e+02 +/ 0.000000e+00 [bar]
Excess pressure:     -2.524107e+02 +/ 0.000000e+00 [bar]
Pressure:             2.640399e+02 +/ 0.000000e+00 [bar]

Total potential energy/kʙ  -3.998927e+05 (-3.926879e+05 +/- 0.000000e+00) [K]
-------------------------------------------------------------------------------
ExternalField-molecule
    Van der Waals/kʙ        0.000000e+00 ( 0.000000e+00 +/- 0.000000e+00) [K]
Framework-molecule
    Van der Waals/kʙ        0.000000e+00 ( 0.000000e+00 +/- 0.000000e+00) [K]
    Van der Waals (Tail)/kʙ 0.000000e+00 ( 0.000000e+00 +/- 0.000000e+00) [K]
    Coulombic Real/kʙ       0.000000e+00 ( 0.000000e+00 +/- 0.000000e+00) [K]
    Coulombic Fourier/kʙ    0.000000e+00 ( 0.000000e+00 +/- 0.000000e+00) [K]
Molecule-molecule
    Van der Waals/kʙ       -2.884415e+05 (-2.828722e+05 +/- 0.000000e+00) [K]
    Van der Waals (Tail)/kʙ-9.219095e+03 (-9.032298e+03 +/- 0.000000e+00) [K]
    Coulombic Real/kʙ      -8.966092e+04 (-8.780141e+04 +/- 0.000000e+00) [K]
    Coulombic Fourier/kʙ   -1.257124e+04 (-1.298200e+04 +/- 0.000000e+00) [K]
    Molecule Intra/kʙ       0.000000e+00 ( 0.000000e+00 +/- 0.000000e+00) [K]

Current cycle: 800 out of 5000
===============================================================================

Box:      25.46311   0.00000   0.00000  Average:  25.54772   0.00000   0.00000
           0.00000  25.46311   0.00000             0.00000  25.54772   0.00000
           0.00000   0.00000  25.46311             0.00000   0.00000  25.54772
Lengths:  25.46311  25.46311  25.46311  Average:  25.54772  25.54772  25.54772
Angles:   90.00000  90.00000  90.00000  Average:  90.00000  90.00000  90.00000
Rectangular boundary conditions

net charge:   0.00000000

component 0 (CO2) lambda:  0 occupancy:  1 (1.000000)
    net charge:   0.00000000 [e]

Amount of molecules per component :
-------------------------------------------------------------------------------
Component 0 (CO2)
    molecules:      2.500000e+02 molecules  (2.500000e+02 +/- 0.000000e+00)
    number density: 1.514277e-02 molec./A^3 (1.499481e-02 +/- 0.000000e+00)
    density:        1.106357e+03 kg/m^3     (1.095546e+03 +/- 0.000000e+00)

Average pressure tensor: 
-------------------------------------------------------------------------------
 3.3741e+02 -1.9408e+01 -7.2797e+00 +/- 0.0000e+00 0.0000e+00 0.0000e+00 [bar]
-1.9408e+01  2.1753e+02 -7.4144e+01 +/- 0.0000e+00 0.0000e+00 0.0000e+00 [bar]
-7.2797e+00 -7.4144e+01  2.8611e+02 +/- 0.0000e+00 0.0000e+00 0.0000e+00 [bar]
Ideal-gas pressure:   5.175646e+02 +/ 0.000000e+00 [bar]
Excess pressure:     -2.372159e+02 +/ 0.000000e+00 [bar]
Pressure:             2.803486e+02 +/ 0.000000e+00 [bar]

Total potential energy/kʙ  -3.989607e+05 (-3.935150e+05 +/- 0.000000e+00) [K]
-------------------------------------------------------------------------------
ExternalField-molecule
    Van der Waals/kʙ        0.000000e+00 ( 0.000000e+00 +/- 0.000000e+00) [K]
Framework-molecule
    Van der Waals/kʙ        0.000000e+00 ( 0.000000e+00 +/- 0.000000e+00) [K]
    Van der Waals (Tail)/kʙ 0.000000e+00 ( 0.000000e+00 +/- 0.000000e+00) [K]
    Coulombic Real/kʙ       0.000000e+00 ( 0.000000e+00 +/- 0.000000e+00) [K]
    Coulombic Fourier/kʙ    0.000000e+00 ( 0.000000e+00 +/- 0.000000e+00) [K]
Molecule-molecule
    Van der Waals/kʙ       -2.909440e+05 (-2.838014e+05 +/- 0.000000e+00) [K]
    Van der Waals (Tail)/kʙ-9.126889e+03 (-9.051629e+03 +/- 0.000000e+00) [K]
    Coulombic Real/kʙ      -8.557194e+04 (-8.764586e+04 +/- 0.000000e+00) [K]
    Coulombic Fourier/kʙ   -1.331780e+04 (-1.301617e+04 +/- 0.000000e+00) [K]
    Molecule Intra/kʙ       0.000000e+00 ( 0.000000e+00 +/- 0.000000e+00) [K]

Current cycle: 900 out of 5000
===============================================================================

Box:      25.32606   0.00000   0.00000  Average:  25.53523   0.00000   0.00000
           0.00000  25.32606   0.00000             0.00000  25.53523   0.00000
           0.00000   0.00000  25.32606             0.00000   0.00000  25.53523
Lengths:  25.32606  25.32606  25.32606  Average:  25.53523  25.53523  25.53523
Angles:   90.00000  90.00000  90.00000  Average:  90.00000  90.00000  90.00000
Rectangular boundary conditions

net charge:   0.00000000

component 0 (CO2) lambda:  0 occupancy:  1 (1.000000)
    net charge:   0.00000000 [e]

Amount of molecules per component :
-------------------------------------------------------------------------------
Component 0 (CO2)
    molecules:      2.500000e+02 molecules  (2.500000e+02 +/- 0.000000e+00)
    number density: 1.538994e-02 molec./A^3 (1.501693e-02 +/- 0.000000e+00)
    density:        1.124416e+03 kg/m^3     (1.097163e+03 +/- 0.000000e+00)

Average pressure tensor: 
-------------------------------------------------------------------------------
 3.1514e+02 -2.3318e+01 -5.4963e+00 +/- 0.0000e+00 0.0000e+00 0.0000e+00 [bar]
-2.3318e+01  1.9406e+02 -4.5111e+01 +/- 0.0000e+00 0.0000e+00 0.0000e+00 [bar]
-5.4963e+00 -4.5111e+01  2.9443e+02 +/- 0.0000e+00 0.0000e+00 0.0000e+00 [bar]
Ideal-gas pressure:   5.183282e+02 +/ 0.000000e+00 [bar]
Excess pressure:     -2.504526e+02 +/ 0.000000e+00 [bar]
Pressure:             2.678757e+02 +/ 0.000000e+00 [bar]

Total potential energy/kʙ  -4.036476e+05 (-3.944128e+05 +/- 0.000000e+00) [K]
-------------------------------------------------------------------------------
ExternalField-molecule
    Van der Waals/kʙ        0.000000e+00 ( 0.000000e+00 +/- 0.000000e+00) [K]
Framework-molecule
    Van der Waals/kʙ        0.000000e+00 ( 0.000000e+00 +/- 0.000000e+00) [K]
    Van der Waals (Tail)/kʙ 0.000000e+00 ( 0.000000e+00 +/- 0.000000e+00) [K]
    Coulombic Real/kʙ       0.000000e+00 ( 0.000000e+00 +/- 0.000000e+00) [K]
    Coulombic Fourier/kʙ    0.000000e+00 ( 0.000000e+00 +/- 0.000000e+00) [K]
Molecule-molecule
    Van der Waals/kʙ       -2.898458e+05 (-2.845011e+05 +/- 0.000000e+00) [K]
    Van der Waals (Tail)/kʙ-9.275864e+03 (-9.064257e+03 +/- 0.000000e+00) [K]
    Coulombic Real/kʙ      -9.121383e+04 (-8.781726e+04 +/- 0.000000e+00) [K]
    Coulombic Fourier/kʙ   -1.331206e+04 (-1.303019e+04 +/- 0.000000e+00) [K]
    Molecule Intra/kʙ       0.000000e+00 ( 0.000000e+00 +/- 0.000000e+00) [K]

Current cycle: 1000 out of 5000
===============================================================================

Box:      25.33095   0.00000   0.00000  Average:  25.52005   0.00000   0.00000
           0.00000  25.33095   0.00000             0.00000  25.52005   0.00000
           0.00000   0.00000  25.33095             0.00000   0.00000  25.52005
Lengths:  25.33095  25.33095  25.33095  Average:  25.52005  25.52005  25.52005
Angles:   90.00000  90.00000  90.00000  Average:  90.00000  90.00000  90.00000
Rectangular boundary conditions

net charge:   0.00000000

component 0 (CO2) lambda:  0 occupancy:  1 (1.000000)
    net charge:   0.00000000 [e]

Amount of molecules per component :
-------------------------------------------------------------------------------
Component 0 (CO2)
    molecules:      2.500000e+02 molecules  (2.500000e+02 +/- 0.000000e+00)
    number density: 1.538103e-02 molec./A^3 (1.504392e-02 +/- 0.000000e+00)
    density:        1.123765e+03 kg/m^3     (1.099134e+03 +/- 0.000000e+00)

Average pressure tensor: 
-------------------------------------------------------------------------------
 2.9967e+02 -2.5599e+01  9.9710e+00 +/- 0.0000e+00 0.0000e+00 0.0000e+00 [bar]
-2.5599e+01  1.8798e+02 -2.7216e+00 +/- 0.0000e+00 0.0000e+00 0.0000e+00 [bar]
 9.9710e+00 -2.7216e+00  2.8095e+02 +/- 0.0000e+00 0.0000e+00 0.0000e+00 [bar]
Ideal-gas pressure:   5.192598e+02 +/ 0.000000e+00 [bar]
Excess pressure:     -2.630606e+02 +/ 0.000000e+00 [bar]
Pressure:             2.561992e+02 +/ 0.000000e+00 [bar]

Total potential energy/kʙ  -4.131929e+05 (-3.955514e+05 +/- 0.000000e+00) [K]
-------------------------------------------------------------------------------
ExternalField-molecule
    Van der Waals/kʙ        0.000000e+00 ( 0.000000e+00 +/- 0.000000e+00) [K]
Framework-molecule
    Van der Waals/kʙ        0.000000e+00 ( 0.000000e+00 +/- 0.000000e+00) [K]
    Van der Waals (Tail)/kʙ 0.000000e+00 ( 0.000000e+00 +/- 0.000000e+00) [K]
    Coulombic Real/kʙ       0.000000e+00 ( 0.000000e+00 +/- 0.000000e+00) [K]
    Coulombic Fourier/kʙ    0.000000e+00 ( 0.000000e+00 +/- 0.000000e+00) [K]
Molecule-molecule
    Van der Waals/kʙ       -2.940235e+05 (-2.851199e+05 +/- 0.000000e+00) [K]
    Van der Waals (Tail)/kʙ-9.270493e+03 (-9.076377e+03 +/- 0.000000e+00) [K]
    Coulombic Real/kʙ      -9.592598e+04 (-8.830499e+04 +/- 0.000000e+00) [K]
    Coulombic Fourier/kʙ   -1.397286e+04 (-1.305007e+04 +/- 0.000000e+00) [K]
    Molecule Intra/kʙ       0.000000e+00 ( 0.000000e+00 +/- 0.000000e+00) [K]

Current cycle: 1100 out of 5000
===============================================================================

Box:      25.41086   0.00000   0.00000  Average:  25.49400   0.00000   0.00000
           0.00000  25.41086   0.00000             0.00000  25.49400   0.00000
           0.00000   0.00000  25.41086             0.00000   0.00000  25.49400
Lengths:  25.41086  25.41086  25.41086  Average:  25.49400  25.49400  25.49400
Angles:   90.00000  90.00000  90.00000  Average:  90.00000  90.00000  90.00000
Rectangular boundary conditions

net charge:   0.00000000

component 0 (CO2) lambda:  0 occupancy:  1 (1.000000)
    net charge:   0.00000000 [e]

Amount of molecules per component :
-------------------------------------------------------------------------------
Component 0 (CO2)
    molecules:      2.500000e+02 molecules  (2.500000e+02 +/- 0.000000e+00)
    number density: 1.523638e-02 molec./A^3 (1.509106e-02 +/- 0.000000e+00)
    density:        1.113196e+03 kg/m^3     (1.102579e+03 +/- 0.000000e+00)

Average pressure tensor: 
-------------------------------------------------------------------------------
 2.9069e+02 -1.2772e+01  4.7570e+00 +/- 0.0000e+00 0.0000e+00 0.0000e+00 [bar]
-1.2772e+01  2.0401e+02  1.7862e+01 +/- 0.0000e+00 0.0000e+00 0.0000e+00 [bar]
 4.7570e+00  1.7862e+01  2.7367e+02 +/- 0.0000e+00 0.0000e+00 0.0000e+00 [bar]
Ideal-gas pressure:   5.208870e+02 +/ 0.000000e+00 [bar]
Excess pressure:     -2.647636e+02 +/ 0.000000e+00 [bar]
Pressure:             2.561235e+02 +/ 0.000000e+00 [bar]

Total potential energy/kʙ  -4.039798e+05 (-3.973337e+05 +/- 0.000000e+00) [K]
-------------------------------------------------------------------------------
ExternalField-molecule
    Van der Waals/kʙ        0.000000e+00 ( 0.000000e+00 +/- 0.000000e+00) [K]
Framework-molecule
    Van der Waals/kʙ        0.000000e+00 ( 0.000000e+00 +/- 0.000000e+00) [K]
    Van der Waals (Tail)/kʙ 0.000000e+00 ( 0.000000e+00 +/- 0.000000e+00) [K]
    Coulombic Real/kʙ       0.000000e+00 ( 0.000000e+00 +/- 0.000000e+00) [K]
    Coulombic Fourier/kʙ    0.000000e+00 ( 0.000000e+00 +/- 0.000000e+00) [K]
Molecule-molecule
    Van der Waals/kʙ       -2.886784e+05 (-2.861042e+05 +/- 0.000000e+00) [K]
    Van der Waals (Tail)/kʙ-9.183309e+03 (-9.104441e+03 +/- 0.000000e+00) [K]
    Coulombic Real/kʙ      -9.267949e+04 (-8.903203e+04 +/- 0.000000e+00) [K]
    Coulombic Fourier/kʙ   -1.343857e+04 (-1.309308e+04 +/- 0.000000e+00) [K]
    Molecule Intra/kʙ       0.000000e+00 ( 0.000000e+00 +/- 0.000000e+00) [K]

Current cycle: 1200 out of 5000
===============================================================================

Box:      25.71870   0.00000   0.00000  Average:  25.49869   0.00000   0.00000
           0.00000  25.71870   0.00000             0.00000  25.49869   0.00000
           0.00000   0.00000  25.71870             0.00000   0.00000  25.49869
Lengths:  25.71870  25.71870  25.71870  Average:  25.49869  25.49869  25.49869
Angles:   90.00000  90.00000  90.00000  Average:  90.00000  90.00000  90.00000
Rectangular boundary conditions

net charge:   0.00000000

component 0 (CO2) lambda:  0 occupancy:  1 (1.000000)
    net charge:   0.00000000 [e]

Amount of molecules per component :
-------------------------------------------------------------------------------
Component 0 (CO2)
    molecules:      2.500000e+02 molecules  (2.500000e+02 +/- 0.000000e+00)
    number density: 1.469579e-02 molec./A^3 (1.508260e-02 +/- 0.000000e+00)
    density:        1.073700e+03 kg/m^3     (1.101961e+03 +/- 0.000000e+00)

Average pressure tensor: 
-------------------------------------------------------------------------------
 2.6453e+02 -1.3521e+01  1.2448e+01 +/- 0.0000e+00 0.0000e+00 0.0000e+00 [bar]
-1.3521e+01  2.0291e+02  2.5236e+01 +/- 0.0000e+00 0.0000e+00 0.0000e+00 [bar]
 1.2448e+01  2.5236e+01  2.6829e+02 +/- 0.0000e+00 0.0000e+00 0.0000e+00 [bar]
Ideal-gas pressure:   5.205949e+02 +/ 0.000000e+00 [bar]
Excess pressure:     -2.753521e+02 +/ 0.000000e+00 [bar]
Pressure:             2.452428e+02 +/ 0.000000e+00 [bar]

Total potential energy/kʙ  -3.941585e+05 (-3.976725e+05 +/- 0.000000e+00) [K]
-------------------------------------------------------------------------------
ExternalField-molecule
    Van der Waals/kʙ        0.000000e+00 ( 0.000000e+00 +/- 0.000000e+00) [K]
Framework-molecule
    Van der Waals/kʙ        0.000000e+00 ( 0.000000e+00 +/- 0.000000e+00) [K]
    Van der Waals (Tail)/kʙ 0.000000e+00 ( 0.000000e+00 +/- 0.000000e+00) [K]
    Coulombic Real/kʙ       0.000000e+00 ( 0.000000e+00 +/- 0.000000e+00) [K]
    Coulombic Fourier/kʙ    0.000000e+00 ( 0.000000e+00 +/- 0.000000e+00) [K]
Molecule-molecule
    Van der Waals/kʙ       -2.800105e+05 (-2.859603e+05 +/- 0.000000e+00) [K]
    Van der Waals (Tail)/kʙ-8.857484e+03 (-9.095756e+03 +/- 0.000000e+00) [K]
    Coulombic Real/kʙ      -9.301333e+04 (-8.949409e+04 +/- 0.000000e+00) [K]
    Coulombic Fourier/kʙ   -1.227720e+04 (-1.312226e+04 +/- 0.000000e+00) [K]
    Molecule Intra/kʙ       0.000000e+00 ( 0.000000e+00 +/- 0.000000e+00) [K]

Current cycle: 1300 out of 5000
===============================================================================

Box:      25.64137   0.00000   0.00000  Average:  25.49846   0.00000   0.00000
           0.00000  25.64137   0.00000             0.00000  25.49846   0.00000
           0.00000   0.00000  25.64137             0.00000   0.00000  25.49846
Lengths:  25.64137  25.64137  25.64137  Average:  25.49846  25.49846  25.49846
Angles:   90.00000  90.00000  90.00000  Average:  90.00000  90.00000  90.00000
Rectangular boundary conditions

net charge:   0.00000000

component 0 (CO2) lambda:  0 occupancy:  1 (1.000000)
    net charge:   0.00000000 [e]

Amount of molecules per component :
-------------------------------------------------------------------------------
Component 0 (CO2)
    molecules:      2.500000e+02 molecules  (2.500000e+02 +/- 0.000000e+00)
    number density: 1.482916e-02 molec./A^3 (1.508286e-02 +/- 0.000000e+00)
    density:        1.083444e+03 kg/m^3     (1.101979e+03 +/- 0.000000e+00)

Average pressure tensor: 
-------------------------------------------------------------------------------
 2.4834e+02 -5.9905e+00  1.2720e+01 +/- 0.0000e+00 0.0000e+00 0.0000e+00 [bar]
-5.9905e+00  2.2156e+02  4.9652e+01 +/- 0.0000e+00 0.0000e+00 0.0000e+00 [bar]
 1.2720e+01  4.9652e+01  2.5547e+02 +/- 0.0000e+00 0.0000e+00 0.0000e+00 [bar]
Ideal-gas pressure:   5.206037e+02 +/ 0.000000e+00 [bar]
Excess pressure:     -2.788126e+02 +/ 0.000000e+00 [bar]
Pressure:             2.417912e+02 +/ 0.000000e+00 [bar]

Total potential energy/kʙ  -4.015774e+05 (-3.979292e+05 +/- 0.000000e+00) [K]
-------------------------------------------------------------------------------
ExternalField-molecule
    Van der Waals/kʙ        0.000000e+00 ( 0.000000e+00 +/- 0.000000e+00) [K]
Framework-molecule
    Van der Waals/kʙ        0.000000e+00 ( 0.000000e+00 +/- 0.000000e+00) [K]
    Van der Waals (Tail)/kʙ 0.000000e+00 ( 0.000000e+00 +/- 0.000000e+00) [K]
    Coulombic Real/kʙ       0.000000e+00 ( 0.000000e+00 +/- 0.000000e+00) [K]
    Coulombic Fourier/kʙ    0.000000e+00 ( 0.000000e+00 +/- 0.000000e+00) [K]
Molecule-molecule
    Van der Waals/kʙ       -2.913935e+05 (-2.860999e+05 +/- 0.000000e+00) [K]
    Van der Waals (Tail)/kʙ-8.937865e+03 (-9.095528e+03 +/- 0.000000e+00) [K]
    Coulombic Real/kʙ      -8.806460e+04 (-8.964971e+04 +/- 0.000000e+00) [K]
    Coulombic Fourier/kʙ   -1.318136e+04 (-1.308413e+04 +/- 0.000000e+00) [K]
    Molecule Intra/kʙ       0.000000e+00 ( 0.000000e+00 +/- 0.000000e+00) [K]

Current cycle: 1400 out of 5000
===============================================================================

Box:      25.08706   0.00000   0.00000  Average:  25.48559   0.00000   0.00000
           0.00000  25.08706   0.00000             0.00000  25.48559   0.00000
           0.00000   0.00000  25.08706             0.00000   0.00000  25.48559
Lengths:  25.08706  25.08706  25.08706  Average:  25.48559  25.48559  25.48559
Angles:   90.00000  90.00000  90.00000  Average:  90.00000  90.00000  90.00000
Rectangular boundary conditions

net charge:   0.00000000

component 0 (CO2) lambda:  0 occupancy:  1 (1.000000)
    net charge:   0.00000000 [e]

Amount of molecules per component :
-------------------------------------------------------------------------------
Component 0 (CO2)
    molecules:      2.500000e+02 molecules  (2.500000e+02 +/- 0.000000e+00)
    number density: 1.583399e-02 molec./A^3 (1.510596e-02 +/- 0.000000e+00)
    density:        1.156859e+03 kg/m^3     (1.103667e+03 +/- 0.000000e+00)

Average pressure tensor: 
-------------------------------------------------------------------------------
 2.2344e+02  6.8054e+00  1.6745e+01 +/- 0.0000e+00 0.0000e+00 0.0000e+00 [bar]
 6.8054e+00  2.0666e+02  4.2097e+01 +/- 0.0000e+00 0.0000e+00 0.0000e+00 [bar]
 1.6745e+01  4.2097e+01  2.2552e+02 +/- 0.0000e+00 0.0000e+00 0.0000e+00 [bar]
Ideal-gas pressure:   5.214013e+02 +/ 0.000000e+00 [bar]
Excess pressure:     -3.028621e+02 +/ 0.000000e+00 [bar]
Pressure:             2.185392e+02 +/ 0.000000e+00 [bar]

Total potential energy/kʙ  -4.228004e+05 (-3.987368e+05 +/- 0.000000e+00) [K]
-------------------------------------------------------------------------------
ExternalField-molecule
    Van der Waals/kʙ        0.000000e+00 ( 0.000000e+00 +/- 0.000000e+00) [K]
Framework-molecule
    Van der Waals/kʙ        0.000000e+00 ( 0.000000e+00 +/- 0.000000e+00) [K]
    Van der Waals (Tail)/kʙ 0.000000e+00 ( 0.000000e+00 +/- 0.000000e+00) [K]
    Coulombic Real/kʙ       0.000000e+00 ( 0.000000e+00 +/- 0.000000e+00) [K]
    Coulombic Fourier/kʙ    0.000000e+00 ( 0.000000e+00 +/- 0.000000e+00) [K]
Molecule-molecule
    Van der Waals/kʙ       -3.041917e+05 (-2.868813e+05 +/- 0.000000e+00) [K]
    Van der Waals (Tail)/kʙ-9.543502e+03 (-9.107215e+03 +/- 0.000000e+00) [K]
    Coulombic Real/kʙ      -9.553189e+04 (-8.966456e+04 +/- 0.000000e+00) [K]
    Coulombic Fourier/kʙ   -1.353325e+04 (-1.308378e+04 +/- 0.000000e+00) [K]
    Molecule Intra/kʙ       0.000000e+00 ( 0.000000e+00 +/- 0.000000e+00) [K]

Current cycle: 1500 out of 5000
===============================================================================

Box:      25.48087   0.00000   0.00000  Average:  25.47009   0.00000   0.00000
           0.00000  25.48087   0.00000             0.00000  25.47009   0.00000
           0.00000   0.00000  25.48087             0.00000   0.00000  25.47009
Lengths:  25.48087  25.48087  25.48087  Average:  25.47009  25.47009  25.47009
Angles:   90.00000  90.00000  90.00000  Average:  90.00000  90.00000  90.00000
Rectangular boundary conditions

net charge:   0.00000000

component 0 (CO2) lambda:  0 occupancy:  1 (1.000000)
    net charge:   0.00000000 [e]

Amount of molecules per component :
-------------------------------------------------------------------------------
Component 0 (CO2)
    molecules:      2.500000e+02 molecules  (2.500000e+02 +/- 0.000000e+00)
    number density: 1.511114e-02 molec./A^3 (1.513395e-02 +/- 0.000000e+00)
    density:        1.104045e+03 kg/m^3     (1.105712e+03 +/- 0.000000e+00)

Average pressure tensor: 
-------------------------------------------------------------------------------
 2.1481e+02  1.4631e+01  2.6149e+01 +/- 0.0000e+00 0.0000e+00 0.0000e+00 [bar]
 1.4631e+01  2.0847e+02  3.5713e+01 +/- 0.0000e+00 0.0000e+00 0.0000e+00 [bar]
 2.6149e+01  3.5713e+01  2.2839e+02 +/- 0.0000e+00 0.0000e+00 0.0000e+00 [bar]
Ideal-gas pressure:   5.223672e+02 +/ 0.000000e+00 [bar]
Excess pressure:     -3.051468e+02 +/ 0.000000e+00 [bar]
Pressure:             2.172204e+02 +/ 0.000000e+00 [bar]

Total potential energy/kʙ  -4.047490e+05 (-3.995355e+05 +/- 0.000000e+00) [K]
-------------------------------------------------------------------------------
ExternalField-molecule
    Van der Waals/kʙ        0.000000e+00 ( 0.000000e+00 +/- 0.000000e+00) [K]
Framework-molecule
    Van der Waals/kʙ        0.000000e+00 ( 0.000000e+00 +/- 0.000000e+00) [K]
    Van der Waals (Tail)/kʙ 0.000000e+00 ( 0.000000e+00 +/- 0.000000e+00) [K]
    Coulombic Real/kʙ       0.000000e+00 ( 0.000000e+00 +/- 0.000000e+00) [K]
    Coulombic Fourier/kʙ    0.000000e+00 ( 0.000000e+00 +/- 0.000000e+00) [K]
Molecule-molecule
    Van der Waals/kʙ       -2.902204e+05 (-2.874259e+05 +/- 0.000000e+00) [K]
    Van der Waals (Tail)/kʙ-9.107819e+03 (-9.120042e+03 +/- 0.000000e+00) [K]
    Coulombic Real/kʙ      -9.157320e+04 (-8.987863e+04 +/- 0.000000e+00) [K]
    Coulombic Fourier/kʙ   -1.384754e+04 (-1.311101e+04 +/- 0.000000e+00) [K]
    Molecule Intra/kʙ       0.000000e+00 ( 0.000000e+00 +/- 0.000000e+00) [K]

Current cycle: 1600 out of 5000
===============================================================================

Box:      25.32733   0.00000   0.00000  Average:  25.46586   0.00000   0.00000
           0.00000  25.32733   0.00000             0.00000  25.46586   0.00000
           0.00000   0.00000  25.32733             0.00000   0.00000  25.46586
Lengths:  25.32733  25.32733  25.32733  Average:  25.46586  25.46586  25.46586
Angles:   90.00000  90.00000  90.00000  Average:  90.00000  90.00000  90.00000
Rectangular boundary conditions

net charge:   0.00000000

component 0 (CO2) lambda:  0 occupancy:  1 (1.000000)
    net charge:   0.00000000 [e]

Amount of molecules per component :
-------------------------------------------------------------------------------
Component 0 (CO2)
    molecules:      2.500000e+02 molecules  (2.500000e+02 +/- 0.000000e+00)
    number density: 1.538763e-02 molec./A^3 (1.514134e-02 +/- 0.000000e+00)
    density:        1.124247e+03 kg/m^3     (1.106252e+03 +/- 0.000000e+00)

Average pressure tensor: 
-------------------------------------------------------------------------------
 2.1485e+02  2.1724e+01  1.8021e+01 +/- 0.0000e+00 0.0000e+00 0.0000e+00 [bar]
 2.1724e+01  2.0624e+02  3.2064e+01 +/- 0.0000e+00 0.0000e+00 0.0000e+00 [bar]
 1.8021e+01  3.2064e+01  2.2250e+02 +/- 0.0000e+00 0.0000e+00 0.0000e+00 [bar]
Ideal-gas pressure:   5.226224e+02 +/ 0.000000e+00 [bar]
Excess pressure:     -3.080937e+02 +/ 0.000000e+00 [bar]
Pressure:             2.145286e+02 +/ 0.000000e+00 [bar]

Total potential energy/kʙ  -4.055998e+05 (-3.999436e+05 +/- 0.000000e+00) [K]
-------------------------------------------------------------------------------
ExternalField-molecule
    Van der Waals/kʙ        0.000000e+00 ( 0.000000e+00 +/- 0.000000e+00) [K]
Framework-molecule
    Van der Waals/kʙ        0.000000e+00 ( 0.000000e+00 +/- 0.000000e+00) [K]
    Van der Waals (Tail)/kʙ 0.000000e+00 ( 0.000000e+00 +/- 0.000000e+00) [K]
    Coulombic Real/kʙ       0.000000e+00 ( 0.000000e+00 +/- 0.000000e+00) [K]
    Coulombic Fourier/kʙ    0.000000e+00 ( 0.000000e+00 +/- 0.000000e+00) [K]
Molecule-molecule
    Van der Waals/kʙ       -2.887152e+05 (-2.874856e+05 +/- 0.000000e+00) [K]
    Van der Waals (Tail)/kʙ-9.274469e+03 (-9.124966e+03 +/- 0.000000e+00) [K]
    Coulombic Real/kʙ      -9.437980e+04 (-9.022029e+04 +/- 0.000000e+00) [K]
    Coulombic Fourier/kʙ   -1.323034e+04 (-1.311279e+04 +/- 0.000000e+00) [K]
    Molecule Intra/kʙ       0.000000e+00 ( 0.000000e+00 +/- 0.000000e+00) [K]

Current cycle: 1700 out of 5000
===============================================================================

Box:      25.58144   0.00000   0.00000  Average:  25.46726   0.00000   0.00000
           0.00000  25.58144   0.00000             0.00000  25.46726   0.00000
           0.00000   0.00000  25.58144             0.00000   0.00000  25.46726
Lengths:  25.58144  25.58144  25.58144  Average:  25.46726  25.46726  25.46726
Angles:   90.00000  90.00000  90.00000  Average:  90.00000  90.00000  90.00000
Rectangular boundary conditions

net charge:   0.00000000

component 0 (CO2) lambda:  0 occupancy:  1 (1.000000)
    net charge:   0.00000000 [e]

Amount of molecules per component :
-------------------------------------------------------------------------------
Component 0 (CO2)
    molecules:      2.500000e+02 molecules  (2.500000e+02 +/- 0.000000e+00)
    number density: 1.493363e-02 molec./A^3 (1.513873e-02 +/- 0.000000e+00)
    density:        1.091076e+03 kg/m^3     (1.106062e+03 +/- 0.000000e+00)

Average pressure tensor: 
-------------------------------------------------------------------------------
 2.2252e+02  3.0091e+01  1.8390e+01 +/- 0.0000e+00 0.0000e+00 0.0000e+00 [bar]
 3.0091e+01  2.0842e+02  3.3096e+01 +/- 0.0000e+00 0.0000e+00 0.0000e+00 [bar]
 1.8390e+01  3.3096e+01  2.0563e+02 +/- 0.0000e+00 0.0000e+00 0.0000e+00 [bar]
Ideal-gas pressure:   5.225325e+02 +/ 0.000000e+00 [bar]
Excess pressure:     -3.103422e+02 +/ 0.000000e+00 [bar]
Pressure:             2.121903e+02 +/ 0.000000e+00 [bar]

Total potential energy/kʙ  -3.939589e+05 (-3.997454e+05 +/- 0.000000e+00) [K]
-------------------------------------------------------------------------------
ExternalField-molecule
    Van der Waals/kʙ        0.000000e+00 ( 0.000000e+00 +/- 0.000000e+00) [K]
Framework-molecule
    Van der Waals/kʙ        0.000000e+00 ( 0.000000e+00 +/- 0.000000e+00) [K]
    Van der Waals (Tail)/kʙ 0.000000e+00 ( 0.000000e+00 +/- 0.000000e+00) [K]
    Coulombic Real/kʙ       0.000000e+00 ( 0.000000e+00 +/- 0.000000e+00) [K]
    Coulombic Fourier/kʙ    0.000000e+00 ( 0.000000e+00 +/- 0.000000e+00) [K]
Molecule-molecule
    Van der Waals/kʙ       -2.805678e+05 (-2.872746e+05 +/- 0.000000e+00) [K]
    Van der Waals (Tail)/kʙ-9.000830e+03 (-9.121959e+03 +/- 0.000000e+00) [K]
    Coulombic Real/kʙ      -9.136145e+04 (-9.025073e+04 +/- 0.000000e+00) [K]
    Coulombic Fourier/kʙ   -1.302889e+04 (-1.309818e+04 +/- 0.000000e+00) [K]
    Molecule Intra/kʙ       0.000000e+00 ( 0.000000e+00 +/- 0.000000e+00) [K]

Current cycle: 1800 out of 5000
===============================================================================

Box:      25.72647   0.00000   0.00000  Average:  25.46659   0.00000   0.00000
           0.00000  25.72647   0.00000             0.00000  25.46659   0.00000
           0.00000   0.00000  25.72647             0.00000   0.00000  25.46659
Lengths:  25.72647  25.72647  25.72647  Average:  25.46659  25.46659  25.46659
Angles:   90.00000  90.00000  90.00000  Average:  90.00000  90.00000  90.00000
Rectangular boundary conditions

net charge:   0.00000000

component 0 (CO2) lambda:  0 occupancy:  1 (1.000000)
    net charge:   0.00000000 [e]

Amount of molecules per component :
-------------------------------------------------------------------------------
Component 0 (CO2)
    molecules:      2.500000e+02 molecules  (2.500000e+02 +/- 0.000000e+00)
    number density: 1.468248e-02 molec./A^3 (1.513990e-02 +/- 0.000000e+00)
    density:        1.072727e+03 kg/m^3     (1.106147e+03 +/- 0.000000e+00)

Average pressure tensor: 
-------------------------------------------------------------------------------
 2.2931e+02  4.0333e+01  2.0088e+01 +/- 0.0000e+00 0.0000e+00 0.0000e+00 [bar]
 4.0333e+01  2.0197e+02  3.7915e+01 +/- 0.0000e+00 0.0000e+00 0.0000e+00 [bar]
 2.0088e+01  3.7915e+01  2.0340e+02 +/- 0.0000e+00 0.0000e+00 0.0000e+00 [bar]
Ideal-gas pressure:   5.225728e+02 +/ 0.000000e+00 [bar]
Excess pressure:     -3.110116e+02 +/ 0.000000e+00 [bar]
Pressure:             2.115612e+02 +/ 0.000000e+00 [bar]

Total potential energy/kʙ  -3.857569e+05 (-3.998578e+05 +/- 0.000000e+00) [K]
-------------------------------------------------------------------------------
ExternalField-molecule
    Van der Waals/kʙ        0.000000e+00 ( 0.000000e+00 +/- 0.000000e+00) [K]
Framework-molecule
    Van der Waals/kʙ        0.000000e+00 ( 0.000000e+00 +/- 0.000000e+00) [K]
    Van der Waals (Tail)/kʙ 0.000000e+00 ( 0.000000e+00 +/- 0.000000e+00) [K]
    Coulombic Real/kʙ       0.000000e+00 ( 0.000000e+00 +/- 0.000000e+00) [K]
    Coulombic Fourier/kʙ    0.000000e+00 ( 0.000000e+00 +/- 0.000000e+00) [K]
Molecule-molecule
    Van der Waals/kʙ       -2.800112e+05 (-2.873145e+05 +/- 0.000000e+00) [K]
    Van der Waals (Tail)/kʙ-8.849462e+03 (-9.121396e+03 +/- 0.000000e+00) [K]
    Coulombic Real/kʙ      -8.443632e+04 (-9.033810e+04 +/- 0.000000e+00) [K]
    Coulombic Fourier/kʙ   -1.245984e+04 (-1.308381e+04 +/- 0.000000e+00) [K]
    Molecule Intra/kʙ       0.000000e+00 ( 0.000000e+00 +/- 0.000000e+00) [K]

Current cycle: 1900 out of 5000
===============================================================================

Box:      25.70314   0.00000   0.00000  Average:  25.47463   0.00000   0.00000
           0.00000  25.70314   0.00000             0.00000  25.47463   0.00000
           0.00000   0.00000  25.70314             0.00000   0.00000  25.47463
Lengths:  25.70314  25.70314  25.70314  Average:  25.47463  25.47463  25.47463
Angles:   90.00000  90.00000  90.00000  Average:  90.00000  90.00000  90.00000
Rectangular boundary conditions

net charge:   0.00000000

component 0 (CO2) lambda:  0 occupancy:  1 (1.000000)
    net charge:   0.00000000 [e]

Amount of molecules per component :
-------------------------------------------------------------------------------
Component 0 (CO2)
    molecules:      2.500000e+02 molecules  (2.500000e+02 +/- 0.000000e+00)
    number density: 1.472250e-02 molec./A^3 (1.512562e-02 +/- 0.000000e+00)
    density:        1.075651e+03 kg/m^3     (1.105104e+03 +/- 0.000000e+00)

Average pressure tensor: 
-------------------------------------------------------------------------------
 2.1715e+02  3.9919e+01  2.7261e+01 +/- 0.0000e+00 0.0000e+00 0.0000e+00 [bar]
 3.9919e+01  1.9643e+02  4.7645e+01 +/- 0.0000e+00 0.0000e+00 0.0000e+00 [bar]
 2.7261e+01  4.7645e+01  2.0354e+02 +/- 0.0000e+00 0.0000e+00 0.0000e+00 [bar]
Ideal-gas pressure:   5.220800e+02 +/ 0.000000e+00 [bar]
Excess pressure:     -3.163719e+02 +/ 0.000000e+00 [bar]
Pressure:             2.057081e+02 +/ 0.000000e+00 [bar]

Total potential energy/kʙ  -3.881907e+05 (-3.995147e+05 +/- 0.000000e+00) [K]
-------------------------------------------------------------------------------
ExternalField-molecule
    Van der Waals/kʙ        0.000000e+00 ( 0.000000e+00 +/- 0.000000e+00) [K]
Framework-molecule
    Van der Waals/kʙ        0.000000e+00 ( 0.000000e+00 +/- 0.000000e+00) [K]
    Van der Waals (Tail)/kʙ 0.000000e+00 ( 0.000000e+00 +/- 0.000000e+00) [K]
    Coulombic Real/kʙ       0.000000e+00 ( 0.000000e+00 +/- 0.000000e+00) [K]
    Coulombic Fourier/kʙ    0.000000e+00 ( 0.000000e+00 +/- 0.000000e+00) [K]
Molecule-molecule
    Van der Waals/kʙ       -2.829139e+05 (-2.870878e+05 +/- 0.000000e+00) [K]
    Van der Waals (Tail)/kʙ-8.873580e+03 (-9.113241e+03 +/- 0.000000e+00) [K]
    Coulombic Real/kʙ      -8.397011e+04 (-9.024112e+04 +/- 0.000000e+00) [K]
    Coulombic Fourier/kʙ   -1.243309e+04 (-1.307253e+04 +/- 0.000000e+00) [K]
    Molecule Intra/kʙ       0.000000e+00 ( 0.000000e+00 +/- 0.000000e+00) [K]

Current cycle: 2000 out of 5000
===============================================================================

Box:      25.31286   0.00000   0.00000  Average:  25.46955   0.00000   0.00000
           0.00000  25.31286   0.00000             0.00000  25.46955   0.00000
           0.00000   0.00000  25.31286             0.00000   0.00000  25.46955
Lengths:  25.31286  25.31286  25.31286  Average:  25.46955  25.46955  25.46955
Angles:   90.00000  90.00000  90.00000  Average:  90.00000  90.00000  90.00000
Rectangular boundary conditions

net charge:   0.00000000

component 0 (CO2) lambda:  0 occupancy:  1 (1.000000)
    net charge:   0.00000000 [e]

Amount of molecules per component :
-------------------------------------------------------------------------------
Component 0 (CO2)
    molecules:      2.500000e+02 molecules  (2.500000e+02 +/- 0.000000e+00)
    number density: 1.541403e-02 molec./A^3 (1.513472e-02 +/- 0.000000e+00)
    density:        1.126175e+03 kg/m^3     (1.105769e+03 +/- 0.000000e+00)

Average pressure tensor: 
-------------------------------------------------------------------------------
 2.1335e+02  3.6224e+01  2.6684e+01 +/- 0.0000e+00 0.0000e+00 0.0000e+00 [bar]
 3.6224e+01  1.8894e+02  4.5869e+01 +/- 0.0000e+00 0.0000e+00 0.0000e+00 [bar]
 2.6684e+01  4.5869e+01  2.0483e+02 +/- 0.0000e+00 0.0000e+00 0.0000e+00 [bar]
Ideal-gas pressure:   5.223939e+02 +/ 0.000000e+00 [bar]
Excess pressure:     -3.200235e+02 +/ 0.000000e+00 [bar]
Pressure:             2.023704e+02 +/ 0.000000e+00 [bar]

Total potential energy/kʙ  -4.069683e+05 (-3.998354e+05 +/- 0.000000e+00) [K]
-------------------------------------------------------------------------------
ExternalField-molecule
    Van der Waals/kʙ        0.000000e+00 ( 0.000000e+00 +/- 0.000000e+00) [K]
Framework-molecule
    Van der Waals/kʙ        0.000000e+00 ( 0.000000e+00 +/- 0.000000e+00) [K]
    Van der Waals (Tail)/kʙ 0.000000e+00 ( 0.000000e+00 +/- 0.000000e+00) [K]
    Coulombic Real/kʙ       0.000000e+00 ( 0.000000e+00 +/- 0.000000e+00) [K]
    Coulombic Fourier/kʙ    0.000000e+00 ( 0.000000e+00 +/- 0.000000e+00) [K]
Molecule-molecule
    Van der Waals/kʙ       -2.898529e+05 (-2.872779e+05 +/- 0.000000e+00) [K]
    Van der Waals (Tail)/kʙ-9.290381e+03 (-9.118775e+03 +/- 0.000000e+00) [K]
    Coulombic Real/kʙ      -9.484474e+04 (-9.035847e+04 +/- 0.000000e+00) [K]
    Coulombic Fourier/kʙ   -1.298027e+04 (-1.308023e+04 +/- 0.000000e+00) [K]
    Molecule Intra/kʙ       0.000000e+00 ( 0.000000e+00 +/- 0.000000e+00) [K]

Current cycle: 2100 out of 5000
===============================================================================

Box:      25.37907   0.00000   0.00000  Average:  25.46128   0.00000   0.00000
           0.00000  25.37907   0.00000             0.00000  25.46128   0.00000
           0.00000   0.00000  25.37907             0.00000   0.00000  25.46128
Lengths:  25.37907  25.37907  25.37907  Average:  25.46128  25.46128  25.46128
Angles:   90.00000  90.00000  90.00000  Average:  90.00000  90.00000  90.00000
Rectangular boundary conditions

net charge:   0.00000000

component 0 (CO2) lambda:  0 occupancy:  1 (1.000000)
    net charge:   0.00000000 [e]

Amount of molecules per component :
-------------------------------------------------------------------------------
Component 0 (CO2)
    molecules:      2.500000e+02 molecules  (2.500000e+02 +/- 0.000000e+00)
    number density: 1.529371e-02 molec./A^3 (1.514955e-02 +/- 0.000000e+00)
    density:        1.117385e+03 kg/m^3     (1.106852e+03 +/- 0.000000e+00)

Average pressure tensor: 
-------------------------------------------------------------------------------
 2.2596e+02  2.1585e+01  1.7193e+01 +/- 0.0000e+00 0.0000e+00 0.0000e+00 [bar]
 2.1585e+01  1.8489e+02  4.4671e+01 +/- 0.0000e+00 0.0000e+00 0.0000e+00 [bar]
 1.7193e+01  4.4671e+01  2.0656e+02 +/- 0.0000e+00 0.0000e+00 0.0000e+00 [bar]
Ideal-gas pressure:   5.229058e+02 +/ 0.000000e+00 [bar]
Excess pressure:     -3.171018e+02 +/ 0.000000e+00 [bar]
Pressure:             2.058040e+02 +/ 0.000000e+00 [bar]

Total potential energy/kʙ  -4.024566e+05 (-4.003180e+05 +/- 0.000000e+00) [K]
-------------------------------------------------------------------------------
ExternalField-molecule
    Van der Waals/kʙ        0.000000e+00 ( 0.000000e+00 +/- 0.000000e+00) [K]
Framework-molecule
    Van der Waals/kʙ        0.000000e+00 ( 0.000000e+00 +/- 0.000000e+00) [K]
    Van der Waals (Tail)/kʙ 0.000000e+00 ( 0.000000e+00 +/- 0.000000e+00) [K]
[...]
    Coulombic Fourier/kʙ    0.000000e+00 ( 0.000000e+00 +/- 0.000000e+00) [K]
Molecule-molecule
    Van der Waals/kʙ       -2.899369e+05 (-2.864727e+05 +/- 4.042639e+03) [K]
    Van der Waals (Tail)/kʙ-9.106470e+03 (-9.100198e+03 +/- 1.415640e+02) [K]
    Coulombic Real/kʙ      -8.409809e+04 (-8.965644e+04 +/- 3.939568e+03) [K]
    Coulombic Fourier/kʙ   -1.246531e+04 (-1.310244e+04 +/- 5.593538e+02) [K]
    Molecule Intra/kʙ       0.000000e+00 ( 0.000000e+00 +/- 0.000000e+00) [K]

Current cycle: 4700 out of 5000
===============================================================================

Box:      25.40168   0.00000   0.00000  Average:  25.49264   0.00000   0.00000
           0.00000  25.40168   0.00000             0.00000  25.49264   0.00000
           0.00000   0.00000  25.40168             0.00000   0.00000  25.49264
Lengths:  25.40168  25.40168  25.40168  Average:  25.49264  25.49264  25.49264
Angles:   90.00000  90.00000  90.00000  Average:  90.00000  90.00000  90.00000
Rectangular boundary conditions

net charge:   0.00000000

component 0 (CO2) lambda:  0 occupancy:  1 (1.000000)
    net charge:   0.00000000 [e]

Amount of molecules per component :
-------------------------------------------------------------------------------
Component 0 (CO2)
    molecules:      2.500000e+02 molecules  (2.500000e+02 +/- 3.944933e-14)
    number density: 1.525292e-02 molec./A^3 (1.509466e-02 +/- 2.254785e-04)
    density:        1.114404e+03 kg/m^3     (1.102842e+03 +/- 1.647384e+01)

Average pressure tensor: 
-------------------------------------------------------------------------------
 2.0432e+02  5.8817e+00  7.4598e+00 +/- 1.1995e+02 8.4065e+01 6.0137e+01 [bar]
 5.8817e+00  1.9786e+02 -1.6889e+01 +/- 8.4065e+01 3.6608e+01 8.8822e+01 [bar]
 7.4598e+00 -1.6889e+01  2.0254e+02 +/- 6.0137e+01 8.8822e+01 9.6982e+01 [bar]
Ideal-gas pressure:   5.210112e+02 +/ 7.782672e+00 [bar]
Excess pressure:     -3.194367e+02 +/ 5.785171e+01 [bar]
Pressure:             2.015744e+02 +/ 5.899262e+01 [bar]

Total potential energy/kʙ  -4.060272e+05 (-3.982759e+05 +/- 8.104826e+03) [K]
-------------------------------------------------------------------------------
ExternalField-molecule
    Van der Waals/kʙ        0.000000e+00 ( 0.000000e+00 +/- 0.000000e+00) [K]
Framework-molecule
    Van der Waals/kʙ        0.000000e+00 ( 0.000000e+00 +/- 0.000000e+00) [K]
    Van der Waals (Tail)/kʙ 0.000000e+00 ( 0.000000e+00 +/- 0.000000e+00) [K]
    Coulombic Real/kʙ       0.000000e+00 ( 0.000000e+00 +/- 0.000000e+00) [K]
    Coulombic Fourier/kʙ    0.000000e+00 ( 0.000000e+00 +/- 0.000000e+00) [K]
Molecule-molecule
    Van der Waals/kʙ       -2.884135e+05 (-2.864426e+05 +/- 3.886052e+03) [K]
    Van der Waals (Tail)/kʙ-9.193274e+03 (-9.098558e+03 +/- 1.366244e+02) [K]
    Coulombic Real/kʙ      -9.497341e+04 (-8.962404e+04 +/- 3.727983e+03) [K]
    Coulombic Fourier/kʙ   -1.344705e+04 (-1.311074e+04 +/- 4.771374e+02) [K]
    Molecule Intra/kʙ       0.000000e+00 ( 0.000000e+00 +/- 0.000000e+00) [K]

Current cycle: 4800 out of 5000
===============================================================================

Box:      25.54204   0.00000   0.00000  Average:  25.49449   0.00000   0.00000
           0.00000  25.54204   0.00000             0.00000  25.49449   0.00000
           0.00000   0.00000  25.54204             0.00000   0.00000  25.49449
Lengths:  25.54204  25.54204  25.54204  Average:  25.49449  25.49449  25.49449
Angles:   90.00000  90.00000  90.00000  Average:  90.00000  90.00000  90.00000
Rectangular boundary conditions

net charge:   0.00000000

component 0 (CO2) lambda:  0 occupancy:  1 (1.000000)
    net charge:   0.00000000 [e]

Amount of molecules per component :
-------------------------------------------------------------------------------
Component 0 (CO2)
    molecules:      2.500000e+02 molecules  (2.500000e+02 +/- 0.000000e+00)
    number density: 1.500284e-02 molec./A^3 (1.509134e-02 +/- 2.213258e-04)
    density:        1.096133e+03 kg/m^3     (1.102599e+03 +/- 1.617044e+01)

Average pressure tensor: 
-------------------------------------------------------------------------------
 2.0416e+02  1.3185e+00  5.8293e-01 +/- 1.1390e+02 7.9016e+01 7.3400e+01 [bar]
 1.3185e+00  1.9749e+02 -1.8668e+01 +/- 7.9016e+01 3.1467e+01 8.9668e+01 [bar]
 5.8293e-01 -1.8668e+01  2.0223e+02 +/- 7.3400e+01 8.9668e+01 9.6818e+01 [bar]
Ideal-gas pressure:   5.208967e+02 +/ 7.639340e+00 [bar]
Excess pressure:     -3.196058e+02 +/ 5.781048e+01 [bar]
Pressure:             2.012910e+02 +/ 5.887832e+01 [bar]

Total potential energy/kʙ  -3.853492e+05 (-3.981088e+05 +/- 8.048496e+03) [K]
-------------------------------------------------------------------------------
ExternalField-molecule
    Van der Waals/kʙ        0.000000e+00 ( 0.000000e+00 +/- 0.000000e+00) [K]
Framework-molecule
    Van der Waals/kʙ        0.000000e+00 ( 0.000000e+00 +/- 0.000000e+00) [K]
    Van der Waals (Tail)/kʙ 0.000000e+00 ( 0.000000e+00 +/- 0.000000e+00) [K]
    Coulombic Real/kʙ       0.000000e+00 ( 0.000000e+00 +/- 0.000000e+00) [K]
    Coulombic Fourier/kʙ    0.000000e+00 ( 0.000000e+00 +/- 0.000000e+00) [K]
Molecule-molecule
    Van der Waals/kʙ       -2.771314e+05 (-2.863374e+05 +/- 3.935478e+03) [K]
    Van der Waals (Tail)/kʙ-9.042544e+03 (-9.096849e+03 +/- 1.334028e+02) [K]
    Coulombic Real/kʙ      -8.701984e+04 (-8.956659e+04 +/- 3.641244e+03) [K]
    Coulombic Fourier/kʙ   -1.215547e+04 (-1.310792e+04 +/- 4.482909e+02) [K]
    Molecule Intra/kʙ       0.000000e+00 ( 0.000000e+00 +/- 0.000000e+00) [K]

Current cycle: 4900 out of 5000
===============================================================================

Box:      25.45765   0.00000   0.00000  Average:  25.49554   0.00000   0.00000
           0.00000  25.45765   0.00000             0.00000  25.49554   0.00000
           0.00000   0.00000  25.45765             0.00000   0.00000  25.49554
Lengths:  25.45765  25.45765  25.45765  Average:  25.49554  25.49554  25.49554
Angles:   90.00000  90.00000  90.00000  Average:  90.00000  90.00000  90.00000
Rectangular boundary conditions

net charge:   0.00000000

component 0 (CO2) lambda:  0 occupancy:  1 (1.000000)
    net charge:   0.00000000 [e]

Amount of molecules per component :
-------------------------------------------------------------------------------
Component 0 (CO2)
    molecules:      2.500000e+02 molecules  (2.500000e+02 +/- 0.000000e+00)
    number density: 1.515252e-02 molec./A^3 (1.508942e-02 +/- 2.157734e-04)
    density:        1.107069e+03 kg/m^3     (1.102459e+03 +/- 1.576478e+01)

Average pressure tensor: 
-------------------------------------------------------------------------------
 2.0824e+02  2.0790e+00 -3.0028e+00 +/- 1.0190e+02 7.9199e+01 7.7697e+01 [bar]
 2.0790e+00  1.9211e+02 -1.9848e+01 +/- 7.9199e+01 1.3104e+01 8.9701e+01 [bar]
-3.0028e+00 -1.9848e+01  2.0385e+02 +/- 7.7697e+01 8.9701e+01 9.7210e+01 [bar]
Ideal-gas pressure:   5.208304e+02 +/ 7.447692e+00 [bar]
Excess pressure:     -3.194320e+02 +/ 5.766001e+01 [bar]
Pressure:             2.013984e+02 +/ 5.856517e+01 [bar]

Total potential energy/kʙ  -4.003021e+05 (-3.980241e+05 +/- 7.850332e+03) [K]
-------------------------------------------------------------------------------
ExternalField-molecule
    Van der Waals/kʙ        0.000000e+00 ( 0.000000e+00 +/- 0.000000e+00) [K]
Framework-molecule
    Van der Waals/kʙ        0.000000e+00 ( 0.000000e+00 +/- 0.000000e+00) [K]
    Van der Waals (Tail)/kʙ 0.000000e+00 ( 0.000000e+00 +/- 0.000000e+00) [K]
    Coulombic Real/kʙ       0.000000e+00 ( 0.000000e+00 +/- 0.000000e+00) [K]
    Coulombic Fourier/kʙ    0.000000e+00 ( 0.000000e+00 +/- 0.000000e+00) [K]
Molecule-molecule
    Van der Waals/kʙ       -2.873333e+05 (-2.862952e+05 +/- 3.862010e+03) [K]
    Van der Waals (Tail)/kʙ-9.132765e+03 (-9.095913e+03 +/- 1.296370e+02) [K]
    Coulombic Real/kʙ      -9.064015e+04 (-8.952645e+04 +/- 3.544522e+03) [K]
    Coulombic Fourier/kʙ   -1.319589e+04 (-1.310651e+04 +/- 4.236884e+02) [K]
    Molecule Intra/kʙ       0.000000e+00 ( 0.000000e+00 +/- 0.000000e+00) [K]


Energy statistics             |  Energy [K]   | Recomputed [K]|  Drift [K]    |
===============================================================================
Total potential energy/kʙ     | -4.022628e+05 | -4.022628e+05 | -3.358185e-10 |
    external field VDW/kʙ     |  0.000000e+00 |  0.000000e+00 |  0.000000e+00 |
    external field Real/kʙ    |  0.000000e+00 |  0.000000e+00 |  0.000000e+00 |
    framework-molecule VDW/kʙ |  0.000000e+00 |  0.000000e+00 |  0.000000e+00 |
    framework-molecule Real/kʙ|  0.000000e+00 |  0.000000e+00 |  0.000000e+00 |
    molecule-molecule VDW/kʙ  | -2.858671e+05 | -2.858671e+05 |  2.800311e-10 |
    molecule-molecule Real/kʙ | -9.353321e+04 | -9.353321e+04 | -6.300699e-10 |
    Van der Waals (Tail)/kʙ   | -9.130871e+03 | -9.130871e+03 |  0.000000e+00 |
    Ewald Fourier/kʙ          |  8.959773e+03 |  8.959773e+03 |  1.422033e-11 |
    Ewald self/kʙ             | -5.029674e+06 | -5.029674e+06 |  0.000000e+00 |
    Ewald exclusion/kʙ        |  5.006983e+06 |  5.006983e+06 |  0.000000e+00 |
    intra VDW/kʙ              |  0.000000e+00 |  0.000000e+00 |  0.000000e+00 |
    intra Coulombic/kʙ        |  0.000000e+00 |  0.000000e+00 |  0.000000e+00 |
    polarization/kʙ           |  0.000000e+00 |  0.000000e+00 |  0.000000e+00 |
    dU/dlambda VDW/kʙ         |  0.000000e+00 |  0.000000e+00 |  0.000000e+00 |
    dU/dlambda Real/kʙ        |  0.000000e+00 |  0.000000e+00 |  0.000000e+00 |
    dU/dlambda Ewald/kʙ       |  0.000000e+00 |  0.000000e+00 |  0.000000e+00 |
-------------------------------------------------------------------------------


Monte-Carlo moves statistics
===============================================================================

    Volume change        all:                8258
    Volume change        total:              8258
    Volume change        constructed:        8258
    Volume change        accepted:           2150
    Volume change        fraction:       0.260354
    Volume change        max-change:     0.050000

Component 0 [CO2]
    Reinsertion (CBMC)   all:              413802
    Reinsertion (CBMC)   total:            413802
    Reinsertion (CBMC)   constructed:      351145
    Reinsertion (CBMC)   accepted:           3221
    Reinsertion (CBMC)   fraction:       0.007784
    Reinsertion (CBMC)   max-change:     0.000000

    Translation          all:              412680
    Translation          total:            137488     137417     137775
    Translation          constructed:      137488     137417     137775
    Translation          accepted:          72018      88128      81335
    Translation          fraction:       0.523813   0.641318   0.590347
    Translation          max-change:     0.590909   0.409091   0.479303

    Rotation             all:              415260
    Rotation             total:            138397     138091     138772
    Rotation             constructed:      138397     138091     138772
    Rotation             accepted:          66166      72911      68393
    Rotation             fraction:       0.478088   0.527992   0.492844
    Rotation             max-change:     0.703704   0.607143   0.669951



Production run counting of the MC moves summed over systems and components
===============================================================================

Volume change                          8258 (0.6606 [%])
Reinsertion (CBMC)                   413802 (33.1042 [%])
Translation                          412680 (33.0144 [%])
Rotation                             415260 (33.2208 [%])

Production count MC-steps:          1250000 [-]
               All summed:          1250000 [-]
               difference:                0 [-]


Production run CPU timings of the MC moves
===============================================================================

Component 0 CO2

Rotation                             39.598339 [s]
    Ewald                            13.020052 [s]
    ExternalField-Molecule            0.013364 [s]
    Framework-Molecule                0.018329 [s]
    Molecule-Molecule                25.595074 [s]
    Overhead                          0.951520 [s]

Reinsertion (CBMC)                  180.279585 [s]
    Ewald                            11.244582 [s]
    NonEwald                        168.770712 [s]
    Overhead                          0.264291 [s]

Translation                          39.532513 [s]
    Ewald                            12.975764 [s]
    ExternalField-Molecule            0.013205 [s]
    Framework-Molecule                0.022079 [s]
    Molecule-Molecule                25.492291 [s]
    Overhead                          1.029174 [s]



Volume change                         51.079486 [s]
    Ewald                             13.379752 [s]
    NonEwald                          35.677854 [s]
    Tail                               1.758631 [s]

Property sampling                     0.667265 [s]
Energy/pressure sampling:             5.518456 [s]


Production run CPU timings of the MC moves summed over systems and components
===============================================================================


Translation                          39.532513 [s]
    Ewald                            12.975764 [s]
    ExternalField-Molecule            0.013205 [s]
    Framework-Molecule                0.022079 [s]
    Molecule-Molecule                25.492291 [s]
    Overhead                          1.029174 [s]

Rotation                             39.598339 [s]
    Ewald                            13.020052 [s]
    ExternalField-Molecule            0.013364 [s]
    Framework-Molecule                0.018329 [s]
    Molecule-Molecule                25.595074 [s]
    Overhead                          0.951520 [s]

Volume change                        51.079486 [s]
    Ewald                            13.379752 [s]
    NonEwald                         35.677854 [s]
    Tail                              1.758631 [s]
    Overhead                          0.263249 [s]

Reinsertion (CBMC)                  180.279585 [s]
    Ewald                            11.244582 [s]
    NonEwald                        168.770712 [s]
    Overhead                          0.264291 [s]

Property sampling:                    0.667265 [s]
Energy/pressure sampling:             5.518456 [s]

Production simulation time:         317.280661 [s]
                All summed:         316.675644 [s]
                  Overhead:           0.605017 [s]


Initalization simulation time:       53.652350 [s]
Equilibration simulation time:        0.000000 [s]
Production simulation time:         317.280661 [s]
Total simulation time:              370.933011 [s]


Energy averages and statistics:
===============================================================================

Framework-molecule energy:
-------------------------------------------------------------------------------



Framework-molecule energy contributions per energy type:
-------------------------------------------------------------------------------



Inter-molecular energy:
-------------------------------------------------------------------------------

    Inter-molecular energy/kʙ 0-0 [CO2-CO2]:
    ---------------------------------------------------------------------------
        Block[  0] -3.953749e+05
        Block[  1] -4.042245e+05
        Block[  2] -4.045637e+05
        Block[  3] -3.951977e+05
        Block[  4] -3.909720e+05
        -----------------------------------------------------------------------
        Average  -3.980666e+05 +/-  7.498796e+03 [K]



Inter-molecular energy contributions per energy type:
-------------------------------------------------------------------------------

    Van der Waals energy/kʙ 0-0 [CO2-CO2]:
    ---------------------------------------------------------------------------
        Block[  0] -2.850309e+05
        Block[  1] -2.894992e+05
        Block[  2] -2.895118e+05
        Block[  3] -2.844162e+05
        Block[  4] -2.828804e+05
        -----------------------------------------------------------------------
        Average  -2.862677e+05 +/-  3.796039e+03 [K]

    VDW Tail-Correction energy/kʙ 0-0 [CO2-CO2]:
    ---------------------------------------------------------------------------
        Block[  0] -9.074435e+03
        Block[  1] -9.161398e+03
        Block[  2] -9.233024e+03
        Block[  3] -9.027854e+03
        Block[  4] -8.985779e+03
        -----------------------------------------------------------------------
        Average  -9.096498e+03 +/-  1.246246e+02 [K]

    Coulomb Real energy/kʙ 0-0 [CO2-CO2]:
    ---------------------------------------------------------------------------
        Block[  0] -8.822878e+04
        Block[  1] -9.244330e+04
        Block[  2] -9.225077e+04
        Block[  3] -8.860537e+04
        Block[  4] -8.640849e+04
        -----------------------------------------------------------------------
        Average  -8.958734e+04 +/-  3.294296e+03 [K]

    Coulomb Fourier energy/kʙ 0-0 [CO2-CO2]:
    ---------------------------------------------------------------------------
        Block[  0] -1.304084e+04
        Block[  1] -1.312062e+04
        Block[  2] -1.356808e+04
        Block[  3] -1.314837e+04
        Block[  4] -1.269737e+04
        -----------------------------------------------------------------------
        Average  -1.311506e+04 +/-  3.858273e+02 [K]


Total energy/kʙ
-------------------------------------------------------------------------------
    Block[  0] -3.953749e+05
    Block[  1] -4.042245e+05
    Block[  2] -4.045637e+05
    Block[  3] -3.951977e+05
    Block[  4] -3.909720e+05
    ---------------------------------------------------------------------------
    Average  -3.980666e+05 +/-  7.498796e+03 [K]

Pressure averages and statistics:
===============================================================================

Average pressure tensor: 
-------------------------------------------------------------------------------
 2.0682e+02  2.4094e+00 -8.2295e+00 +/- 1.0153e+02 7.9163e+01 8.5429e+01 [bar]
 2.4094e+00  1.9164e+02 -1.8270e+01 +/- 7.9163e+01 1.1138e+01 8.6928e+01 [bar]
-8.2295e+00 -1.8270e+01  2.0585e+02 +/- 8.5429e+01 8.6928e+01 9.7851e+01 [bar]

    Block[  0]  5.192482e+07
    Block[  1]  5.255300e+07
    Block[  2]  5.280925e+07
    Block[  3]  5.168936e+07
    Block[  4]  5.145501e+07
    ---------------------------------------------------------------------------
    Ideal gas pressure   5.208629e+07 +/-  4.299051e-02 [Pa]
                         5.208629e+02 +/-  7.138747e+00 [bar]


    Block[  0] -2.626962e+07
    Block[  1] -3.775805e+07
    Block[  2] -2.837564e+07
    Block[  3] -3.452898e+07
    Block[  4] -3.278042e+07
    ---------------------------------------------------------------------------
    Excess pressure  -3.194254e+07 +/-  5.760343e+06 [Pa]
                     -3.194254e+02 +/-  5.760343e+01 [bar]


    Block[  0]  2.565520e+07
    Block[  1]  1.479494e+07
    Block[  2]  2.443361e+07
    Block[  3]  1.716039e+07
    Block[  4]  1.867459e+07
    ---------------------------------------------------------------------------
    Pressure average   2.014375e+07 +/-  5.837778e+06 [Pa]
                       2.014375e+02 +/-  5.837778e+01 [bar]


Enthalpy of adsorption
===============================================================================

No fluctuating components present.


Densities
===============================================================================

Component 0 (CO2)
    Block[  0] 250
    Block[  1] 250
    Block[  2] 250
    Block[  3] 250
    Block[  4] 250
    -----------------------------------------------------------------------
    Density average   2.500000e+02 +/-  0.000000e+00 [molecules]
    Density average   1.509036e-02 +/-  2.068227e-04 [molec/A^3]
    Density average   1.102528e+03 +/-  1.511082e+01 [kg.m⁻³]

