Compiler and run-time data
===============================================================================
RASPA 3.0.4

Random seed: 1024834655

Compiled as a 64-bits application
Compiler: gcc Ubuntu Clang 18.1.3 (1ubuntu1)
Compile Date = Mar 15 2025, Compile Time = 19:39:45

2025-06-02 13:48:15.166976
Simulation started on Mon, Jun 02
The start time was 13:48:00

Hostname:    c061
OS type:     Linux on x86_64
OS release:  6.8.0-58-generic
OS version:  #60-Ubuntu SMP PREEMPT_DYNAMIC Fri Mar 14 18:29:48 UTC 2025


Mutual consistent basic set of units:
===============================================================================

Unit of temperature: 1 [K]
Unit of length:      1e-10 [m]
Unit of time:        1e-12 [s]
Unit of mass:        1.6605402e-27 [kg]
Unit of charge:      1.60217733e-19 [C/particle]


Boltzmann constant (internal units):          0.8314464919307584 [-]
represents conversion from energy (internal units) to temperature (in Kelvin)

Derived units and their conversion factors:
===============================================================================

Unit of energy:                           1.6605402000000002e-23 [J]
Unit of energy:                           10.000008872307538 [J.mol⁻¹]
Unit of velocity:                         100 [m.s⁻¹]
Unit of force:                            1.6605402000000002e-13 [N]
Unit of diffusion:                        1.0000000000000002e-08 [m².s⁻¹]
Unit of acceleration:                     1.0000000000000002e-08 [m².s⁻¹]
Unit of torque:                           1.6605402000000002e-23 [N.m]
Unit of pressure:                         16605402 [Pa]
Unit of volume:                           1e-30 [m³]
Unit of density:                          1660.5402 [kg.m⁻³]
Unit of dynamic viscosity:                1.6605401999999997e-05 [N.s.m⁻²]
Unit of enthalpy:                         1.6605402000000002e-23 [J]
Unit of polarizability:                   1.5458657349975198e-35 [-]
Unit of Coulomb potential:                167101.08000665612 [K]
Unit of dielectric constant:              1.5458657349975193e-05 [s².C².kg⁻¹.m⁻³]
Unit of dipole moment:                    1.60217733e-29 [C.m]
Unit of Debye:                            4.803206799099162 [C.m]
Unit of electric potential:               0.00010364272224473431 [V]
Unit of electric field:                   1036427.222447343 [V.m⁻¹]
Unit of isothermal compressibility:       6.02213665167516e-08 [Pa⁻¹]
Unit of heat capacity:                    10.000008872307538 [J.mol⁻¹.K⁻¹]
Unit of volumetric expansion coefficient: 1 [K⁻¹]


Internal conversion factors:
===============================================================================

Energy (internal units) to Kelvin:      1.202724284692786 [-]
Kelvin to energy (internal units):      0.8314457542157567 [-]


System definitions
===============================================================================

Temperature:          250 [K]
Beta:                 0.0048108928702210625 [-]
Pressure:             1.2e+07 [Pa]
Helium void fraction: 1 [-]

Box:      30.00000   0.00000   0.00000
           0.00000  30.00000   0.00000
           0.00000   0.00000  30.00000
Lengths:  30.00000  30.00000  30.00000
Angles:   90.00000  90.00000  90.00000
Rectangular boundary conditions



Property measurement settings
===============================================================================




Pseudo-atoms
===============================================================================

  0 - C_co2    framework-atom: false
  1 - O_co2    framework-atom: false

  0 - C_co2    mass: 12.00000, charge:  0.70000
  1 - O_co2    mass: 15.99940, charge: -0.35000

  0 - C_co2    polarizability:  0.00000
  1 - O_co2    polarizability:  0.00000

  0 - J. J. Potoff et al., AIChE J. 2001, 47, 1676–1682.
  1 - J. J. Potoff et al., AIChE J. 2001, 47, 1676–1682.

Force field status
===============================================================================

Cutoff Framework-Molecule VDW:  10.00000 [Å]
Cutoff Molecule-Molecule VDW:   10.00000 [Å]
Cutoff Coulomb:                 10.00000 [Å]

Overlap-criteria VDW:           1.000000e+05 [K]

C_co2    - C_co2    Lennard-Jones p₀/kʙ:  27.00000 [K], p₁:  2.80000 [Å]
                                  shift:   0.00000 [K], tailcorrections: true
C_co2    - O_co2    Lennard-Jones p₀/kʙ:  46.18441 [K], p₁:  2.92500 [Å]
                                  shift:   0.00000 [K], tailcorrections: true
O_co2    - O_co2    Lennard-Jones p₀/kʙ:  79.00000 [K], p₁:  3.05000 [Å]
                                  shift:   0.00000 [K], tailcorrections: true

Ewald precision: 1e-06
Ewald alpha: 0.32079885109097883
Ewald k-vectors: 10 10 10


Component definitions
===============================================================================

Component 0 [CO2]

    Type: Adsorbate

    Critical temperature:  304.1282 [K]
    Critical pressure:     7377300 [Pa]
    Acentric factor:       0.22394 [-]

    Mol-fraction:                 1 [-]
    Swappable:                   false

    Mass:                         43.9988 [-]
    Bulk fluid density:           0 [-]
    Compressibility:              0 [-]
    Excess molecules:             0 [-]

    Number Of Atoms:    3
    CBMC starting bead: 0
      0: O_co2  position  0.00000 -0.00000  1.16000, charge -0.35000
      1: C_co2  position  0.00000 -0.00000  0.00000, charge  0.70000
      2: O_co2  position  0.00000 -0.00000 -1.16000, charge -0.35000
    Diagonalized inertia-vector:      43.05758528 43.05758528 0.00000000
    Translational degrees of freedom: 3
    Rotational degrees of freedom:    2
    Shape of the molecule is: 'Linear'
    Net-charge:        0.00000000 [e]

    Move probabilities:
    Translation:                   0.331126 [-]
    Random translation:            0.000000 [-]
    Rotation:                      0.331126 [-]
    Random rotation:               0.000000 [-]
    Volume change:                 0.006623 [-]
    Reinsertion (CBMC):            0.331126 [-]
    Identity change (CBMC):        0.000000 [-]
    Swap:                          0.000000 [-]
    Swap (CBMC):                   0.000000 [-]
    Swap (CFCMC):                  0.000000 [-]
    Swap (CB/CFCMC):               0.000000 [-]
    Gibbs volume:                  0.000000 [-]
    Gibbs swap (CBMC):             0.000000 [-]
    Gibbs swap (CFCMC):            0.000000 [-]
    Widom:                         0.000000 [-]
    Widom (CFCMC):                 0.000000 [-]
    Widom (CB/CFCMC):              0.000000 [-]
    Parallel tempering:            0.000000 [-]
    Hybrid MC:                     0.000000 [-]

    number of blocking-pockets: 0

    number of bonds: 0





Number of pseudo-atoms
===============================================================================

Component   0 (CO2)
-------------------------------------------------------------------------------
    index   0 (C_co2): 250 atoms
    index   1 (O_co2): 500 atoms

Total number of pseudo-atoms:
-------------------------------------------------------------------------------
    index   0 (C_co2): 250 atoms
    index   1 (O_co2): 500 atoms




Energy status Recomputed from scratch
===============================================================================

Total potential energy/kʙ       -5.911953e+04 [K]
    external field VDW/kʙ        0.000000e+00 [K]
    external field Real/kʙ       0.000000e+00 [K]
    framework-molecule VDW/kʙ    0.000000e+00 [K]
    framework-molecule Real/kʙ   0.000000e+00 [K]
    molecule-molecule VDW/kʙ    -2.933397e+04 [K]
    molecule-molecule Real/kʙ   -1.727783e+04 [K]
    Van der Waals (Tail)/kʙ     -7.427197e+03 [K]
    Ewald Fourier/kʙ             3.124661e+04 [K]
    Ewald self/kʙ               -5.557308e+06 [K]
    Ewald exclusion/kʙ           5.520981e+06 [K]
    intra VDW/kʙ                 0.000000e+00 [K]
    intra Coulombic/kʙ           0.000000e+00 [K]
    polarization/kʙ              0.000000e+00 [K]
    dU/dlambda VDW/kʙ            0.000000e+00 [K]
    dU/dlambda Real/kʙ           0.000000e+00 [K]
    dU/dlambda Ewald/kʙ          0.000000e+00 [K]





Initialization: Current cycle: 0 out of 1000
===============================================================================

Box:      30.44457   0.00000   0.00000
           0.00000  30.44457   0.00000
           0.00000   0.00000  30.44457
Lengths:  30.44457  30.44457  30.44457
Angles:   90.00000  90.00000  90.00000
Rectangular boundary conditions

net charge:   0.00000000

component   0 (CO2) lambda:  0 occupancy:  1 (1.000000)
    net charge:   0.00000000 [e]

Amount of molecules per component :
-------------------------------------------------------------------------------
Component 0 (CO2)
    molecules:         2.500000e+02 molecules
    number density:    8.859524e-03 molec/A^3
    density:           6.472920e+02 kg/m^3

Total potential energy/kʙ       -1.827074e+05 [K]
-------------------------------------------------------------------------------
    external field VDW/kʙ        0.000000e+00 [K]
    external field Real/kʙ       0.000000e+00 [K]
    framework-molecule VDW/kʙ    0.000000e+00 [K]
    framework-molecule Real/kʙ   0.000000e+00 [K]
    molecule-molecule VDW/kʙ    -1.483425e+05 [K]
    molecule-molecule Real/kʙ   -2.040067e+04 [K]
    Van der Waals (Tail)/kʙ     -7.106554e+03 [K]
    Ewald Fourier/kʙ             2.946949e+04 [K]
    Ewald self/kʙ               -5.557308e+06 [K]
    Ewald exclusion/kʙ           5.520981e+06 [K]
    intra VDW/kʙ                 0.000000e+00 [K]
    intra Coulombic/kʙ           0.000000e+00 [K]
    polarization/kʙ              0.000000e+00 [K]
    dU/dlambda VDW/kʙ            0.000000e+00 [K]
    dU/dlambda Real/kʙ           0.000000e+00 [K]
    dU/dlambda Ewald/kʙ          0.000000e+00 [K]


Initialization: Current cycle: 100 out of 1000
===============================================================================

Box:      28.41287   0.00000   0.00000
           0.00000  28.41287   0.00000
           0.00000   0.00000  28.41287
Lengths:  28.41287  28.41287  28.41287
Angles:   90.00000  90.00000  90.00000
Rectangular boundary conditions

net charge:   0.00000000

component   0 (CO2) lambda:  0 occupancy:  1 (1.000000)
    net charge:   0.00000000 [e]

Amount of molecules per component :
-------------------------------------------------------------------------------
Component 0 (CO2)
    molecules:         2.500000e+02 molecules
    number density:    1.089920e-02 molec/A^3
    density:           7.963144e+02 kg/m^3

Total potential energy/kʙ       -2.885647e+05 [K]
-------------------------------------------------------------------------------
    external field VDW/kʙ        0.000000e+00 [K]
    external field Real/kʙ       0.000000e+00 [K]
    framework-molecule VDW/kʙ    0.000000e+00 [K]
    framework-molecule Real/kʙ   0.000000e+00 [K]
    molecule-molecule VDW/kʙ    -2.071428e+05 [K]
    molecule-molecule Real/kʙ   -5.880697e+04 [K]
    Van der Waals (Tail)/kʙ     -8.742657e+03 [K]
    Ewald Fourier/kʙ             2.245484e+04 [K]
    Ewald self/kʙ               -5.557308e+06 [K]
    Ewald exclusion/kʙ           5.520981e+06 [K]
    intra VDW/kʙ                 0.000000e+00 [K]
    intra Coulombic/kʙ           0.000000e+00 [K]
    polarization/kʙ              0.000000e+00 [K]
    dU/dlambda VDW/kʙ            0.000000e+00 [K]
    dU/dlambda Real/kʙ           0.000000e+00 [K]
    dU/dlambda Ewald/kʙ          0.000000e+00 [K]


Initialization: Current cycle: 200 out of 1000
===============================================================================

Box:      27.70303   0.00000   0.00000
           0.00000  27.70303   0.00000
           0.00000   0.00000  27.70303
Lengths:  27.70303  27.70303  27.70303
Angles:   90.00000  90.00000  90.00000
Rectangular boundary conditions

net charge:   0.00000000

component   0 (CO2) lambda:  0 occupancy:  1 (1.000000)
    net charge:   0.00000000 [e]

Amount of molecules per component :
-------------------------------------------------------------------------------
Component 0 (CO2)
    molecules:         2.500000e+02 molecules
    number density:    1.175867e-02 molec/A^3
    density:           8.591083e+02 kg/m^3

Total potential energy/kʙ       -3.207295e+05 [K]
-------------------------------------------------------------------------------
    external field VDW/kʙ        0.000000e+00 [K]
    external field Real/kʙ       0.000000e+00 [K]
    framework-molecule VDW/kʙ    0.000000e+00 [K]
    framework-molecule Real/kʙ   0.000000e+00 [K]
    molecule-molecule VDW/kʙ    -2.290752e+05 [K]
    molecule-molecule Real/kʙ   -6.564253e+04 [K]
    Van der Waals (Tail)/kʙ     -9.432065e+03 [K]
    Ewald Fourier/kʙ             1.974751e+04 [K]
    Ewald self/kʙ               -5.557308e+06 [K]
    Ewald exclusion/kʙ           5.520981e+06 [K]
    intra VDW/kʙ                 0.000000e+00 [K]
    intra Coulombic/kʙ           0.000000e+00 [K]
    polarization/kʙ              0.000000e+00 [K]
    dU/dlambda VDW/kʙ            0.000000e+00 [K]
    dU/dlambda Real/kʙ           0.000000e+00 [K]
    dU/dlambda Ewald/kʙ          0.000000e+00 [K]


Initialization: Current cycle: 300 out of 1000
===============================================================================

Box:      27.08024   0.00000   0.00000
           0.00000  27.08024   0.00000
           0.00000   0.00000  27.08024
Lengths:  27.08024  27.08024  27.08024
Angles:   90.00000  90.00000  90.00000
Rectangular boundary conditions

net charge:   0.00000000

component   0 (CO2) lambda:  0 occupancy:  1 (1.000000)
    net charge:   0.00000000 [e]

Amount of molecules per component :
-------------------------------------------------------------------------------
Component 0 (CO2)
    molecules:         2.500000e+02 molecules
    number density:    1.258874e-02 molec/A^3
    density:           9.197550e+02 kg/m^3

Total potential energy/kʙ       -3.312008e+05 [K]
-------------------------------------------------------------------------------
    external field VDW/kʙ        0.000000e+00 [K]
    external field Real/kʙ       0.000000e+00 [K]
    framework-molecule VDW/kʙ    0.000000e+00 [K]
    framework-molecule Real/kʙ   0.000000e+00 [K]
    molecule-molecule VDW/kʙ    -2.339471e+05 [K]
    molecule-molecule Real/kʙ   -6.977910e+04 [K]
    Van der Waals (Tail)/kʙ     -1.009790e+04 [K]
    Ewald Fourier/kʙ             1.895042e+04 [K]
    Ewald self/kʙ               -5.557308e+06 [K]
    Ewald exclusion/kʙ           5.520981e+06 [K]
    intra VDW/kʙ                 0.000000e+00 [K]
    intra Coulombic/kʙ           0.000000e+00 [K]
    polarization/kʙ              0.000000e+00 [K]
    dU/dlambda VDW/kʙ            0.000000e+00 [K]
    dU/dlambda Real/kʙ           0.000000e+00 [K]
    dU/dlambda Ewald/kʙ          0.000000e+00 [K]


Initialization: Current cycle: 400 out of 1000
===============================================================================

Box:      26.31590   0.00000   0.00000
           0.00000  26.31590   0.00000
           0.00000   0.00000  26.31590
Lengths:  26.31590  26.31590  26.31590
Angles:   90.00000  90.00000  90.00000
Rectangular boundary conditions

net charge:   0.00000000

component   0 (CO2) lambda:  0 occupancy:  1 (1.000000)
    net charge:   0.00000000 [e]

Amount of molecules per component :
-------------------------------------------------------------------------------
Component 0 (CO2)
    molecules:         2.500000e+02 molecules
    number density:    1.371782e-02 molec/A^3
    density:           1.002248e+03 kg/m^3

Total potential energy/kʙ       -3.636099e+05 [K]
-------------------------------------------------------------------------------
    external field VDW/kʙ        0.000000e+00 [K]
    external field Real/kʙ       0.000000e+00 [K]
    framework-molecule VDW/kʙ    0.000000e+00 [K]
    framework-molecule Real/kʙ   0.000000e+00 [K]
    molecule-molecule VDW/kʙ    -2.592936e+05 [K]
    molecule-molecule Real/kʙ   -7.396976e+04 [K]
    Van der Waals (Tail)/kʙ     -1.100358e+04 [K]
    Ewald Fourier/kʙ             1.698415e+04 [K]
    Ewald self/kʙ               -5.557308e+06 [K]
    Ewald exclusion/kʙ           5.520981e+06 [K]
    intra VDW/kʙ                 0.000000e+00 [K]
    intra Coulombic/kʙ           0.000000e+00 [K]
    polarization/kʙ              0.000000e+00 [K]
    dU/dlambda VDW/kʙ            0.000000e+00 [K]
    dU/dlambda Real/kʙ           0.000000e+00 [K]
    dU/dlambda Ewald/kʙ          0.000000e+00 [K]


Initialization: Current cycle: 500 out of 1000
===============================================================================

Box:      26.19246   0.00000   0.00000
           0.00000  26.19246   0.00000
           0.00000   0.00000  26.19246
Lengths:  26.19246  26.19246  26.19246
Angles:   90.00000  90.00000  90.00000
Rectangular boundary conditions

net charge:   0.00000000

component   0 (CO2) lambda:  0 occupancy:  1 (1.000000)
    net charge:   0.00000000 [e]

Amount of molecules per component :
-------------------------------------------------------------------------------
Component 0 (CO2)
    molecules:         2.500000e+02 molecules
    number density:    1.391269e-02 molec/A^3
    density:           1.016485e+03 kg/m^3

Total potential energy/kʙ       -3.598707e+05 [K]
-------------------------------------------------------------------------------
    external field VDW/kʙ        0.000000e+00 [K]
    external field Real/kʙ       0.000000e+00 [K]
    framework-molecule VDW/kʙ    0.000000e+00 [K]
    framework-molecule Real/kʙ   0.000000e+00 [K]
    molecule-molecule VDW/kʙ    -2.520230e+05 [K]
    molecule-molecule Real/kʙ   -7.800924e+04 [K]
    Van der Waals (Tail)/kʙ     -1.115989e+04 [K]
    Ewald Fourier/kʙ             1.764856e+04 [K]
    Ewald self/kʙ               -5.557308e+06 [K]
    Ewald exclusion/kʙ           5.520981e+06 [K]
    intra VDW/kʙ                 0.000000e+00 [K]
    intra Coulombic/kʙ           0.000000e+00 [K]
    polarization/kʙ              0.000000e+00 [K]
    dU/dlambda VDW/kʙ            0.000000e+00 [K]
    dU/dlambda Real/kʙ           0.000000e+00 [K]
    dU/dlambda Ewald/kʙ          0.000000e+00 [K]


Initialization: Current cycle: 600 out of 1000
===============================================================================

Box:      25.93591   0.00000   0.00000
           0.00000  25.93591   0.00000
           0.00000   0.00000  25.93591
Lengths:  25.93591  25.93591  25.93591
Angles:   90.00000  90.00000  90.00000
Rectangular boundary conditions

net charge:   0.00000000

component   0 (CO2) lambda:  0 occupancy:  1 (1.000000)
    net charge:   0.00000000 [e]

Amount of molecules per component :
-------------------------------------------------------------------------------
Component 0 (CO2)
    molecules:         2.500000e+02 molecules
    number density:    1.432965e-02 molec/A^3
    density:           1.046949e+03 kg/m^3

Total potential energy/kʙ       -3.784538e+05 [K]
-------------------------------------------------------------------------------
    external field VDW/kʙ        0.000000e+00 [K]
    external field Real/kʙ       0.000000e+00 [K]
    framework-molecule VDW/kʙ    0.000000e+00 [K]
    framework-molecule Real/kʙ   0.000000e+00 [K]
    molecule-molecule VDW/kʙ    -2.704317e+05 [K]
    molecule-molecule Real/kʙ   -7.736347e+04 [K]
    Van der Waals (Tail)/kʙ     -1.149435e+04 [K]
    Ewald Fourier/kʙ             1.716281e+04 [K]
    Ewald self/kʙ               -5.557308e+06 [K]
    Ewald exclusion/kʙ           5.520981e+06 [K]
    intra VDW/kʙ                 0.000000e+00 [K]
    intra Coulombic/kʙ           0.000000e+00 [K]
    polarization/kʙ              0.000000e+00 [K]
    dU/dlambda VDW/kʙ            0.000000e+00 [K]
    dU/dlambda Real/kʙ           0.000000e+00 [K]
    dU/dlambda Ewald/kʙ          0.000000e+00 [K]


Initialization: Current cycle: 700 out of 1000
===============================================================================

Box:      25.84970   0.00000   0.00000
           0.00000  25.84970   0.00000
           0.00000   0.00000  25.84970
Lengths:  25.84970  25.84970  25.84970
Angles:   90.00000  90.00000  90.00000
Rectangular boundary conditions

net charge:   0.00000000

component   0 (CO2) lambda:  0 occupancy:  1 (1.000000)
    net charge:   0.00000000 [e]

Amount of molecules per component :
-------------------------------------------------------------------------------
Component 0 (CO2)
    molecules:         2.500000e+02 molecules
    number density:    1.447349e-02 molec/A^3
    density:           1.057458e+03 kg/m^3

Total potential energy/kʙ       -3.799189e+05 [K]
-------------------------------------------------------------------------------
    external field VDW/kʙ        0.000000e+00 [K]
    external field Real/kʙ       0.000000e+00 [K]
    framework-molecule VDW/kʙ    0.000000e+00 [K]
    framework-molecule Real/kʙ   0.000000e+00 [K]
    molecule-molecule VDW/kʙ    -2.691994e+05 [K]
    molecule-molecule Real/kʙ   -7.996472e+04 [K]
    Van der Waals (Tail)/kʙ     -1.160973e+04 [K]
    Ewald Fourier/kʙ             1.718213e+04 [K]
    Ewald self/kʙ               -5.557308e+06 [K]
    Ewald exclusion/kʙ           5.520981e+06 [K]
    intra VDW/kʙ                 0.000000e+00 [K]
    intra Coulombic/kʙ           0.000000e+00 [K]
    polarization/kʙ              0.000000e+00 [K]
    dU/dlambda VDW/kʙ            0.000000e+00 [K]
    dU/dlambda Real/kʙ           0.000000e+00 [K]
    dU/dlambda Ewald/kʙ          0.000000e+00 [K]


Initialization: Current cycle: 800 out of 1000
===============================================================================

Box:      25.79560   0.00000   0.00000
           0.00000  25.79560   0.00000
           0.00000   0.00000  25.79560
Lengths:  25.79560  25.79560  25.79560
Angles:   90.00000  90.00000  90.00000
Rectangular boundary conditions

net charge:   0.00000000

component   0 (CO2) lambda:  0 occupancy:  1 (1.000000)
    net charge:   0.00000000 [e]

Amount of molecules per component :
-------------------------------------------------------------------------------
Component 0 (CO2)
    molecules:         2.500000e+02 molecules
    number density:    1.456475e-02 molec/A^3
    density:           1.064125e+03 kg/m^3

Total potential energy/kʙ       -3.847794e+05 [K]
-------------------------------------------------------------------------------
    external field VDW/kʙ        0.000000e+00 [K]
    external field Real/kʙ       0.000000e+00 [K]
    framework-molecule VDW/kʙ    0.000000e+00 [K]
    framework-molecule Real/kʙ   0.000000e+00 [K]
    molecule-molecule VDW/kʙ    -2.730337e+05 [K]
    molecule-molecule Real/kʙ   -8.060719e+04 [K]
    Van der Waals (Tail)/kʙ     -1.168293e+04 [K]
    Ewald Fourier/kʙ             1.687160e+04 [K]
    Ewald self/kʙ               -5.557308e+06 [K]
    Ewald exclusion/kʙ           5.520981e+06 [K]
    intra VDW/kʙ                 0.000000e+00 [K]
    intra Coulombic/kʙ           0.000000e+00 [K]
    polarization/kʙ              0.000000e+00 [K]
    dU/dlambda VDW/kʙ            0.000000e+00 [K]
    dU/dlambda Real/kʙ           0.000000e+00 [K]
    dU/dlambda Ewald/kʙ          0.000000e+00 [K]


Initialization: Current cycle: 900 out of 1000
===============================================================================

Box:      25.61084   0.00000   0.00000
           0.00000  25.61084   0.00000
           0.00000   0.00000  25.61084
Lengths:  25.61084  25.61084  25.61084
Angles:   90.00000  90.00000  90.00000
Rectangular boundary conditions

net charge:   0.00000000

component   0 (CO2) lambda:  0 occupancy:  1 (1.000000)
    net charge:   0.00000000 [e]

Amount of molecules per component :
-------------------------------------------------------------------------------
Component 0 (CO2)
    molecules:         2.500000e+02 molecules
    number density:    1.488225e-02 molec/A^3
    density:           1.087323e+03 kg/m^3

Total potential energy/kʙ       -3.958933e+05 [K]
-------------------------------------------------------------------------------
    external field VDW/kʙ        0.000000e+00 [K]
    external field Real/kʙ       0.000000e+00 [K]
    framework-molecule VDW/kʙ    0.000000e+00 [K]
    framework-molecule Real/kʙ   0.000000e+00 [K]
    molecule-molecule VDW/kʙ    -2.841270e+05 [K]
    molecule-molecule Real/kʙ   -7.978087e+04 [K]
    Van der Waals (Tail)/kʙ     -1.193761e+04 [K]
    Ewald Fourier/kʙ             1.627930e+04 [K]
    Ewald self/kʙ               -5.557308e+06 [K]
    Ewald exclusion/kʙ           5.520981e+06 [K]
    intra VDW/kʙ                 0.000000e+00 [K]
    intra Coulombic/kʙ           0.000000e+00 [K]
    polarization/kʙ              0.000000e+00 [K]
    dU/dlambda VDW/kʙ            0.000000e+00 [K]
    dU/dlambda Real/kʙ           0.000000e+00 [K]
    dU/dlambda Ewald/kʙ          0.000000e+00 [K]


Current cycle: 0 out of 5000
===============================================================================

Box:      25.69086   0.00000   0.00000  Average:  25.69086   0.00000   0.00000
           0.00000  25.69086   0.00000             0.00000  25.69086   0.00000
           0.00000   0.00000  25.69086             0.00000   0.00000  25.69086
Lengths:  25.69086  25.69086  25.69086  Average:  25.69086  25.69086  25.69086
Angles:   90.00000  90.00000  90.00000  Average:  90.00000  90.00000  90.00000
Rectangular boundary conditions

net charge:   0.00000000

component 0 (CO2) lambda:  0 occupancy:  1 (1.000000)
    net charge:   0.00000000 [e]

Amount of molecules per component :
-------------------------------------------------------------------------------
Component 0 (CO2)
    molecules:      2.500000e+02 molecules  (2.500000e+02 +/- 0.000000e+00)
    number density: 1.474362e-02 molec./A^3 (1.474362e-02 +/- 0.000000e+00)
    density:        1.077194e+03 kg/m^3     (1.077194e+03 +/- 0.000000e+00)

Average pressure tensor: 
-------------------------------------------------------------------------------
 5.0889e+02  0.0000e+00  0.0000e+00 +/- 0.0000e+00 0.0000e+00 0.0000e+00 [bar]
 0.0000e+00  5.0889e+02  0.0000e+00 +/- 0.0000e+00 0.0000e+00 0.0000e+00 [bar]
 0.0000e+00  0.0000e+00  5.0889e+02 +/- 0.0000e+00 0.0000e+00 0.0000e+00 [bar]
Ideal-gas pressure:   5.088947e+02 +/ 0.000000e+00 [bar]
Excess pressure:      0.000000e+00 +/ 0.000000e+00 [bar]
Pressure:             5.088947e+02 +/ 0.000000e+00 [bar]

Total potential energy/kʙ  -3.848507e+05 (-3.848507e+05 +/- 0.000000e+00) [K]
-------------------------------------------------------------------------------
ExternalField-molecule
    Van der Waals/kʙ        0.000000e+00 ( 0.000000e+00 +/- 0.000000e+00) [K]
Framework-molecule
    Van der Waals/kʙ        0.000000e+00 ( 0.000000e+00 +/- 0.000000e+00) [K]
    Van der Waals (Tail)/kʙ 0.000000e+00 ( 0.000000e+00 +/- 0.000000e+00) [K]
    Coulombic Real/kʙ       0.000000e+00 ( 0.000000e+00 +/- 0.000000e+00) [K]
    Coulombic Fourier/kʙ    0.000000e+00 ( 0.000000e+00 +/- 0.000000e+00) [K]
Molecule-molecule
    Van der Waals/kʙ       -2.739518e+05 (-2.739518e+05 +/- 0.000000e+00) [K]
    Van der Waals (Tail)/kʙ-1.182641e+04 (-1.182641e+04 +/- 0.000000e+00) [K]
    Coulombic Real/kʙ      -8.123577e+04 (-8.123577e+04 +/- 0.000000e+00) [K]
    Coulombic Fourier/kʙ   -1.783668e+04 (-1.783668e+04 +/- 0.000000e+00) [K]
    Molecule Intra/kʙ       0.000000e+00 ( 0.000000e+00 +/- 0.000000e+00) [K]

Current cycle: 100 out of 5000
===============================================================================

Box:      25.75783   0.00000   0.00000  Average:  25.63204   0.00000   0.00000
           0.00000  25.75783   0.00000             0.00000  25.63204   0.00000
           0.00000   0.00000  25.75783             0.00000   0.00000  25.63204
Lengths:  25.75783  25.75783  25.75783  Average:  25.63204  25.63204  25.63204
Angles:   90.00000  90.00000  90.00000  Average:  90.00000  90.00000  90.00000
Rectangular boundary conditions

net charge:   0.00000000

component 0 (CO2) lambda:  0 occupancy:  1 (1.000000)
    net charge:   0.00000000 [e]

Amount of molecules per component :
-------------------------------------------------------------------------------
Component 0 (CO2)
    molecules:      2.500000e+02 molecules  (2.500000e+02 +/- 0.000000e+00)
    number density: 1.462891e-02 molec./A^3 (1.484604e-02 +/- 0.000000e+00)
    density:        1.068813e+03 kg/m^3     (1.084677e+03 +/- 0.000000e+00)

Average pressure tensor: 
-------------------------------------------------------------------------------
 1.2536e+02  4.0840e+01 -1.4185e+02 +/- 0.0000e+00 0.0000e+00 0.0000e+00 [bar]
 4.0840e+01 -1.1306e+01  1.2176e+01 +/- 0.0000e+00 0.0000e+00 0.0000e+00 [bar]
-1.4185e+02  1.2176e+01  2.4793e+02 +/- 0.0000e+00 0.0000e+00 0.0000e+00 [bar]
Ideal-gas pressure:   5.124298e+02 +/ 0.000000e+00 [bar]
Excess pressure:     -3.917697e+02 +/ 0.000000e+00 [bar]
Pressure:             1.206602e+02 +/ 0.000000e+00 [bar]

Total potential energy/kʙ  -3.947199e+05 (-3.893073e+05 +/- 0.000000e+00) [K]
-------------------------------------------------------------------------------
ExternalField-molecule
    Van der Waals/kʙ        0.000000e+00 ( 0.000000e+00 +/- 0.000000e+00) [K]
Framework-molecule
    Van der Waals/kʙ        0.000000e+00 ( 0.000000e+00 +/- 0.000000e+00) [K]
    Van der Waals (Tail)/kʙ 0.000000e+00 ( 0.000000e+00 +/- 0.000000e+00) [K]
    Coulombic Real/kʙ       0.000000e+00 ( 0.000000e+00 +/- 0.000000e+00) [K]
    Coulombic Fourier/kʙ    0.000000e+00 ( 0.000000e+00 +/- 0.000000e+00) [K]
Molecule-molecule
    Van der Waals/kʙ       -2.848331e+05 (-2.801010e+05 +/- 0.000000e+00) [K]
    Van der Waals (Tail)/kʙ-1.173439e+04 (-1.187842e+04 +/- 0.000000e+00) [K]
    Coulombic Real/kʙ      -7.845198e+04 (-7.842211e+04 +/- 0.000000e+00) [K]
    Coulombic Fourier/kʙ   -1.970051e+04 (-1.890574e+04 +/- 0.000000e+00) [K]
    Molecule Intra/kʙ       0.000000e+00 ( 0.000000e+00 +/- 0.000000e+00) [K]

Current cycle: 200 out of 5000
===============================================================================

Box:      25.93921   0.00000   0.00000  Average:  25.76679   0.00000   0.00000
           0.00000  25.93921   0.00000             0.00000  25.76679   0.00000
           0.00000   0.00000  25.93921             0.00000   0.00000  25.76679
Lengths:  25.93921  25.93921  25.93921  Average:  25.76679  25.76679  25.76679
Angles:   90.00000  90.00000  90.00000  Average:  90.00000  90.00000  90.00000
Rectangular boundary conditions

net charge:   0.00000000

component 0 (CO2) lambda:  0 occupancy:  1 (1.000000)
    net charge:   0.00000000 [e]

Amount of molecules per component :
-------------------------------------------------------------------------------
Component 0 (CO2)
    molecules:      2.500000e+02 molecules  (2.500000e+02 +/- 0.000000e+00)
    number density: 1.432418e-02 molec./A^3 (1.461751e-02 +/- 0.000000e+00)
    density:        1.046549e+03 kg/m^3     (1.067980e+03 +/- 0.000000e+00)

Average pressure tensor: 
-------------------------------------------------------------------------------
 4.4583e+01  4.7394e+01  2.5324e+00 +/- 0.0000e+00 0.0000e+00 0.0000e+00 [bar]
 4.7394e+01  6.6045e+00  7.3889e+01 +/- 0.0000e+00 0.0000e+00 0.0000e+00 [bar]
 2.5324e+00  7.3889e+01  1.7090e+02 +/- 0.0000e+00 0.0000e+00 0.0000e+00 [bar]
Ideal-gas pressure:   5.045418e+02 +/ 0.000000e+00 [bar]
Excess pressure:     -4.305131e+02 +/ 0.000000e+00 [bar]
Pressure:             7.402867e+01 +/ 0.000000e+00 [bar]

Total potential energy/kʙ  -3.693231e+05 (-3.817974e+05 +/- 0.000000e+00) [K]
-------------------------------------------------------------------------------
ExternalField-molecule
    Van der Waals/kʙ        0.000000e+00 ( 0.000000e+00 +/- 0.000000e+00) [K]
Framework-molecule
    Van der Waals/kʙ        0.000000e+00 ( 0.000000e+00 +/- 0.000000e+00) [K]
    Van der Waals (Tail)/kʙ 0.000000e+00 ( 0.000000e+00 +/- 0.000000e+00) [K]
    Coulombic Real/kʙ       0.000000e+00 ( 0.000000e+00 +/- 0.000000e+00) [K]
    Coulombic Fourier/kʙ    0.000000e+00 ( 0.000000e+00 +/- 0.000000e+00) [K]
Molecule-molecule
    Van der Waals/kʙ       -2.669173e+05 (-2.748128e+05 +/- 0.000000e+00) [K]
    Van der Waals (Tail)/kʙ-1.148996e+04 (-1.171072e+04 +/- 0.000000e+00) [K]
    Coulombic Real/kʙ      -7.277678e+04 (-7.625161e+04 +/- 0.000000e+00) [K]
    Coulombic Fourier/kʙ   -1.813908e+04 (-1.902227e+04 +/- 0.000000e+00) [K]
    Molecule Intra/kʙ       0.000000e+00 ( 0.000000e+00 +/- 0.000000e+00) [K]

Current cycle: 300 out of 5000
===============================================================================

Box:      26.03964   0.00000   0.00000  Average:  25.79812   0.00000   0.00000
           0.00000  26.03964   0.00000             0.00000  25.79812   0.00000
           0.00000   0.00000  26.03964             0.00000   0.00000  25.79812
Lengths:  26.03964  26.03964  26.03964  Average:  25.79812  25.79812  25.79812
Angles:   90.00000  90.00000  90.00000  Average:  90.00000  90.00000  90.00000
Rectangular boundary conditions

net charge:   0.00000000

component 0 (CO2) lambda:  0 occupancy:  1 (1.000000)
    net charge:   0.00000000 [e]

Amount of molecules per component :
-------------------------------------------------------------------------------
Component 0 (CO2)
    molecules:      2.500000e+02 molecules  (2.500000e+02 +/- 0.000000e+00)
    number density: 1.415908e-02 molec./A^3 (1.456374e-02 +/- 0.000000e+00)
    density:        1.034487e+03 kg/m^3     (1.064052e+03 +/- 0.000000e+00)

Average pressure tensor: 
-------------------------------------------------------------------------------
 1.1898e+02  2.9324e+01 -1.3299e+01 +/- 0.0000e+00 0.0000e+00 0.0000e+00 [bar]
 2.9324e+01  1.6652e+02  2.6059e+01 +/- 0.0000e+00 0.0000e+00 0.0000e+00 [bar]
-1.3299e+01  2.6059e+01  7.9334e+01 +/- 0.0000e+00 0.0000e+00 0.0000e+00 [bar]
Ideal-gas pressure:   5.026859e+02 +/ 0.000000e+00 [bar]
Excess pressure:     -3.810752e+02 +/ 0.000000e+00 [bar]
Pressure:             1.216107e+02 +/ 0.000000e+00 [bar]

Total potential energy/kʙ  -3.760042e+05 (-3.807647e+05 +/- 0.000000e+00) [K]
-------------------------------------------------------------------------------
ExternalField-molecule
    Van der Waals/kʙ        0.000000e+00 ( 0.000000e+00 +/- 0.000000e+00) [K]
Framework-molecule
    Van der Waals/kʙ        0.000000e+00 ( 0.000000e+00 +/- 0.000000e+00) [K]
    Van der Waals (Tail)/kʙ 0.000000e+00 ( 0.000000e+00 +/- 0.000000e+00) [K]
    Coulombic Real/kʙ       0.000000e+00 ( 0.000000e+00 +/- 0.000000e+00) [K]
    Coulombic Fourier/kʙ    0.000000e+00 ( 0.000000e+00 +/- 0.000000e+00) [K]
Molecule-molecule
    Van der Waals/kʙ       -2.705168e+05 (-2.734861e+05 +/- 0.000000e+00) [K]
    Van der Waals (Tail)/kʙ-1.135753e+04 (-1.167139e+04 +/- 0.000000e+00) [K]
    Coulombic Real/kʙ      -7.634611e+04 (-7.662256e+04 +/- 0.000000e+00) [K]
    Coulombic Fourier/kʙ   -1.778377e+04 (-1.898465e+04 +/- 0.000000e+00) [K]
    Molecule Intra/kʙ       0.000000e+00 ( 0.000000e+00 +/- 0.000000e+00) [K]

Current cycle: 400 out of 5000
===============================================================================

Box:      25.95184   0.00000   0.00000  Average:  25.80930   0.00000   0.00000
           0.00000  25.95184   0.00000             0.00000  25.80930   0.00000
           0.00000   0.00000  25.95184             0.00000   0.00000  25.80930
Lengths:  25.95184  25.95184  25.95184  Average:  25.80930  25.80930  25.80930
Angles:   90.00000  90.00000  90.00000  Average:  90.00000  90.00000  90.00000
Rectangular boundary conditions

net charge:   0.00000000

component 0 (CO2) lambda:  0 occupancy:  1 (1.000000)
    net charge:   0.00000000 [e]

Amount of molecules per component :
-------------------------------------------------------------------------------
Component 0 (CO2)
    molecules:      2.500000e+02 molecules  (2.500000e+02 +/- 0.000000e+00)
    number density: 1.430328e-02 molec./A^3 (1.454456e-02 +/- 0.000000e+00)
    density:        1.045022e+03 kg/m^3     (1.062650e+03 +/- 0.000000e+00)

Average pressure tensor: 
-------------------------------------------------------------------------------
 1.4697e+02  8.1007e+00 -2.8314e+01 +/- 0.0000e+00 0.0000e+00 0.0000e+00 [bar]
 8.1007e+00  1.3408e+02  6.2024e+01 +/- 0.0000e+00 0.0000e+00 0.0000e+00 [bar]
-2.8314e+01  6.2024e+01  8.6212e+01 +/- 0.0000e+00 0.0000e+00 0.0000e+00 [bar]
Ideal-gas pressure:   5.020237e+02 +/ 0.000000e+00 [bar]
Excess pressure:     -3.796037e+02 +/ 0.000000e+00 [bar]
Pressure:             1.224201e+02 +/ 0.000000e+00 [bar]

Total potential energy/kʙ  -3.736534e+05 (-3.804892e+05 +/- 0.000000e+00) [K]
-------------------------------------------------------------------------------
ExternalField-molecule
    Van der Waals/kʙ        0.000000e+00 ( 0.000000e+00 +/- 0.000000e+00) [K]
Framework-molecule
    Van der Waals/kʙ        0.000000e+00 ( 0.000000e+00 +/- 0.000000e+00) [K]
    Van der Waals (Tail)/kʙ 0.000000e+00 ( 0.000000e+00 +/- 0.000000e+00) [K]
    Coulombic Real/kʙ       0.000000e+00 ( 0.000000e+00 +/- 0.000000e+00) [K]
    Coulombic Fourier/kʙ    0.000000e+00 ( 0.000000e+00 +/- 0.000000e+00) [K]
Molecule-molecule
    Van der Waals/kʙ       -2.691174e+05 (-2.730343e+05 +/- 0.000000e+00) [K]
    Van der Waals (Tail)/kʙ-1.147319e+04 (-1.166508e+04 +/- 0.000000e+00) [K]
    Coulombic Real/kʙ      -7.342349e+04 (-7.671225e+04 +/- 0.000000e+00) [K]
    Coulombic Fourier/kʙ   -1.963928e+04 (-1.907759e+04 +/- 0.000000e+00) [K]
    Molecule Intra/kʙ       0.000000e+00 ( 0.000000e+00 +/- 0.000000e+00) [K]

Current cycle: 500 out of 5000
===============================================================================

Box:      26.04768   0.00000   0.00000  Average:  25.82741   0.00000   0.00000
           0.00000  26.04768   0.00000             0.00000  25.82741   0.00000
           0.00000   0.00000  26.04768             0.00000   0.00000  25.82741
Lengths:  26.04768  26.04768  26.04768  Average:  25.82741  25.82741  25.82741
Angles:   90.00000  90.00000  90.00000  Average:  90.00000  90.00000  90.00000
Rectangular boundary conditions

net charge:   0.00000000

component 0 (CO2) lambda:  0 occupancy:  1 (1.000000)
    net charge:   0.00000000 [e]

Amount of molecules per component :
-------------------------------------------------------------------------------
Component 0 (CO2)
    molecules:      2.500000e+02 molecules  (2.500000e+02 +/- 0.000000e+00)
    number density: 1.414598e-02 molec./A^3 (1.451379e-02 +/- 0.000000e+00)
    density:        1.033529e+03 kg/m^3     (1.060403e+03 +/- 0.000000e+00)

Average pressure tensor: 
-------------------------------------------------------------------------------
 1.1690e+02 -1.3884e+01 -3.1022e+01 +/- 0.0000e+00 0.0000e+00 0.0000e+00 [bar]
-1.3884e+01  9.3727e+01  3.4420e+01 +/- 0.0000e+00 0.0000e+00 0.0000e+00 [bar]
-3.1022e+01  3.4420e+01  1.0172e+02 +/- 0.0000e+00 0.0000e+00 0.0000e+00 [bar]
Ideal-gas pressure:   5.009618e+02 +/ 0.000000e+00 [bar]
Excess pressure:     -3.968458e+02 +/ 0.000000e+00 [bar]
Pressure:             1.041160e+02 +/ 0.000000e+00 [bar]

Total potential energy/kʙ  -3.715708e+05 (-3.798173e+05 +/- 0.000000e+00) [K]
-------------------------------------------------------------------------------
ExternalField-molecule
    Van der Waals/kʙ        0.000000e+00 ( 0.000000e+00 +/- 0.000000e+00) [K]
Framework-molecule
    Van der Waals/kʙ        0.000000e+00 ( 0.000000e+00 +/- 0.000000e+00) [K]
    Van der Waals (Tail)/kʙ 0.000000e+00 ( 0.000000e+00 +/- 0.000000e+00) [K]
    Coulombic Real/kʙ       0.000000e+00 ( 0.000000e+00 +/- 0.000000e+00) [K]
    Coulombic Fourier/kʙ    0.000000e+00 ( 0.000000e+00 +/- 0.000000e+00) [K]
Molecule-molecule
    Van der Waals/kʙ       -2.591791e+05 (-2.719415e+05 +/- 0.000000e+00) [K]
    Van der Waals (Tail)/kʙ-1.134702e+04 (-1.164206e+04 +/- 0.000000e+00) [K]
    Coulombic Real/kʙ      -8.074704e+04 (-7.706412e+04 +/- 0.000000e+00) [K]
    Coulombic Fourier/kʙ   -2.029759e+04 (-1.916964e+04 +/- 0.000000e+00) [K]
    Molecule Intra/kʙ       0.000000e+00 ( 0.000000e+00 +/- 0.000000e+00) [K]

Current cycle: 600 out of 5000
===============================================================================

Box:      25.81246   0.00000   0.00000  Average:  25.86096   0.00000   0.00000
           0.00000  25.81246   0.00000             0.00000  25.86096   0.00000
           0.00000   0.00000  25.81246             0.00000   0.00000  25.86096
Lengths:  25.81246  25.81246  25.81246  Average:  25.86096  25.86096  25.86096
Angles:   90.00000  90.00000  90.00000  Average:  90.00000  90.00000  90.00000
Rectangular boundary conditions

net charge:   0.00000000

component 0 (CO2) lambda:  0 occupancy:  1 (1.000000)
    net charge:   0.00000000 [e]

Amount of molecules per component :
-------------------------------------------------------------------------------
Component 0 (CO2)
    molecules:      2.500000e+02 molecules  (2.500000e+02 +/- 0.000000e+00)
    number density: 1.453623e-02 molec./A^3 (1.445848e-02 +/- 0.000000e+00)
    density:        1.062042e+03 kg/m^3     (1.056361e+03 +/- 0.000000e+00)

Average pressure tensor: 
-------------------------------------------------------------------------------
 1.1579e+02 -5.6647e+00 -8.3938e+00 +/- 0.0000e+00 0.0000e+00 0.0000e+00 [bar]
-5.6647e+00  7.9154e+01  2.0559e+01 +/- 0.0000e+00 0.0000e+00 0.0000e+00 [bar]
-8.3938e+00  2.0559e+01  8.9667e+01 +/- 0.0000e+00 0.0000e+00 0.0000e+00 [bar]
Ideal-gas pressure:   4.990527e+02 +/ 0.000000e+00 [bar]
Excess pressure:     -4.041820e+02 +/ 0.000000e+00 [bar]
Pressure:             9.487070e+01 +/ 0.000000e+00 [bar]

Total potential energy/kʙ  -3.807298e+05 (-3.790812e+05 +/- 0.000000e+00) [K]
-------------------------------------------------------------------------------
ExternalField-molecule
    Van der Waals/kʙ        0.000000e+00 ( 0.000000e+00 +/- 0.000000e+00) [K]
Framework-molecule
    Van der Waals/kʙ        0.000000e+00 ( 0.000000e+00 +/- 0.000000e+00) [K]
    Van der Waals (Tail)/kʙ 0.000000e+00 ( 0.000000e+00 +/- 0.000000e+00) [K]
    Coulombic Real/kʙ       0.000000e+00 ( 0.000000e+00 +/- 0.000000e+00) [K]
    Coulombic Fourier/kʙ    0.000000e+00 ( 0.000000e+00 +/- 0.000000e+00) [K]
Molecule-molecule
    Van der Waals/kʙ       -2.687756e+05 (-2.710823e+05 +/- 0.000000e+00) [K]
    Van der Waals (Tail)/kʙ-1.166005e+04 (-1.159929e+04 +/- 0.000000e+00) [K]
    Coulombic Real/kʙ      -8.067527e+04 (-7.727899e+04 +/- 0.000000e+00) [K]
    Coulombic Fourier/kʙ   -1.961880e+04 (-1.912064e+04 +/- 0.000000e+00) [K]
    Molecule Intra/kʙ       0.000000e+00 ( 0.000000e+00 +/- 0.000000e+00) [K]

Current cycle: 700 out of 5000
===============================================================================

Box:      25.95555   0.00000   0.00000  Average:  25.86031   0.00000   0.00000
           0.00000  25.95555   0.00000             0.00000  25.86031   0.00000
           0.00000   0.00000  25.95555             0.00000   0.00000  25.86031
Lengths:  25.95555  25.95555  25.95555  Average:  25.86031  25.86031  25.86031
Angles:   90.00000  90.00000  90.00000  Average:  90.00000  90.00000  90.00000
Rectangular boundary conditions

net charge:   0.00000000

component 0 (CO2) lambda:  0 occupancy:  1 (1.000000)
    net charge:   0.00000000 [e]

Amount of molecules per component :
-------------------------------------------------------------------------------
Component 0 (CO2)
    molecules:      2.500000e+02 molecules  (2.500000e+02 +/- 0.000000e+00)
    number density: 1.429714e-02 molec./A^3 (1.445917e-02 +/- 0.000000e+00)
    density:        1.044573e+03 kg/m^3     (1.056412e+03 +/- 0.000000e+00)

Average pressure tensor: 
-------------------------------------------------------------------------------
 1.3633e+02  1.3735e+01 -1.7809e+01 +/- 0.0000e+00 0.0000e+00 0.0000e+00 [bar]
 1.3735e+01  7.6828e+01 -1.0459e+00 +/- 0.0000e+00 0.0000e+00 0.0000e+00 [bar]
-1.7809e+01 -1.0459e+00  9.6880e+01 +/- 0.0000e+00 0.0000e+00 0.0000e+00 [bar]
Ideal-gas pressure:   4.990764e+02 +/ 0.000000e+00 [bar]
Excess pressure:     -3.957304e+02 +/ 0.000000e+00 [bar]
Pressure:             1.033460e+02 +/ 0.000000e+00 [bar]

Total potential energy/kʙ  -3.730629e+05 (-3.787460e+05 +/- 0.000000e+00) [K]
-------------------------------------------------------------------------------
ExternalField-molecule
    Van der Waals/kʙ        0.000000e+00 ( 0.000000e+00 +/- 0.000000e+00) [K]
Framework-molecule
    Van der Waals/kʙ        0.000000e+00 ( 0.000000e+00 +/- 0.000000e+00) [K]
    Van der Waals (Tail)/kʙ 0.000000e+00 ( 0.000000e+00 +/- 0.000000e+00) [K]
    Coulombic Real/kʙ       0.000000e+00 ( 0.000000e+00 +/- 0.000000e+00) [K]
    Coulombic Fourier/kʙ    0.000000e+00 ( 0.000000e+00 +/- 0.000000e+00) [K]
Molecule-molecule
    Van der Waals/kʙ       -2.668773e+05 (-2.711641e+05 +/- 0.000000e+00) [K]
    Van der Waals (Tail)/kʙ-1.146827e+04 (-1.160205e+04 +/- 0.000000e+00) [K]
    Coulombic Real/kʙ      -7.505479e+04 (-7.685961e+04 +/- 0.000000e+00) [K]
    Coulombic Fourier/kʙ   -1.966255e+04 (-1.912024e+04 +/- 0.000000e+00) [K]
    Molecule Intra/kʙ       0.000000e+00 ( 0.000000e+00 +/- 0.000000e+00) [K]

Current cycle: 800 out of 5000
===============================================================================

Box:      25.93139   0.00000   0.00000  Average:  25.85544   0.00000   0.00000
           0.00000  25.93139   0.00000             0.00000  25.85544   0.00000
           0.00000   0.00000  25.93139             0.00000   0.00000  25.85544
Lengths:  25.93139  25.93139  25.93139  Average:  25.85544  25.85544  25.85544
Angles:   90.00000  90.00000  90.00000  Average:  90.00000  90.00000  90.00000
Rectangular boundary conditions

net charge:   0.00000000

component 0 (CO2) lambda:  0 occupancy:  1 (1.000000)
    net charge:   0.00000000 [e]

Amount of molecules per component :
-------------------------------------------------------------------------------
Component 0 (CO2)
    molecules:      2.500000e+02 molecules  (2.500000e+02 +/- 0.000000e+00)
    number density: 1.433715e-02 molec./A^3 (1.446727e-02 +/- 0.000000e+00)
    density:        1.047497e+03 kg/m^3     (1.057004e+03 +/- 0.000000e+00)

Average pressure tensor: 
-------------------------------------------------------------------------------
 1.5850e+02  6.9398e+00  7.8018e+00 +/- 0.0000e+00 0.0000e+00 0.0000e+00 [bar]
 6.9398e+00  7.4028e+01 -4.9635e-01 +/- 0.0000e+00 0.0000e+00 0.0000e+00 [bar]
 7.8018e+00 -4.9635e-01  1.2781e+02 +/- 0.0000e+00 0.0000e+00 0.0000e+00 [bar]
Ideal-gas pressure:   4.993561e+02 +/ 0.000000e+00 [bar]
Excess pressure:     -3.792408e+02 +/ 0.000000e+00 [bar]
Pressure:             1.201153e+02 +/ 0.000000e+00 [bar]

Total potential energy/kʙ  -3.824556e+05 (-3.788816e+05 +/- 0.000000e+00) [K]
-------------------------------------------------------------------------------
ExternalField-molecule
    Van der Waals/kʙ        0.000000e+00 ( 0.000000e+00 +/- 0.000000e+00) [K]
Framework-molecule
    Van der Waals/kʙ        0.000000e+00 ( 0.000000e+00 +/- 0.000000e+00) [K]
    Van der Waals (Tail)/kʙ 0.000000e+00 ( 0.000000e+00 +/- 0.000000e+00) [K]
    Coulombic Real/kʙ       0.000000e+00 ( 0.000000e+00 +/- 0.000000e+00) [K]
    Coulombic Fourier/kʙ    0.000000e+00 ( 0.000000e+00 +/- 0.000000e+00) [K]
Molecule-molecule
    Van der Waals/kʙ       -2.701786e+05 (-2.712064e+05 +/- 0.000000e+00) [K]
    Van der Waals (Tail)/kʙ-1.150036e+04 (-1.161198e+04 +/- 0.000000e+00) [K]
    Coulombic Real/kʙ      -8.056683e+04 (-7.687595e+04 +/- 0.000000e+00) [K]
    Coulombic Fourier/kʙ   -2.020979e+04 (-1.918733e+04 +/- 0.000000e+00) [K]
    Molecule Intra/kʙ       0.000000e+00 ( 0.000000e+00 +/- 0.000000e+00) [K]

Current cycle: 900 out of 5000
===============================================================================

Box:      25.77839   0.00000   0.00000  Average:  25.83391   0.00000   0.00000
           0.00000  25.77839   0.00000             0.00000  25.83391   0.00000
           0.00000   0.00000  25.77839             0.00000   0.00000  25.83391
Lengths:  25.77839  25.77839  25.77839  Average:  25.83391  25.83391  25.83391
Angles:   90.00000  90.00000  90.00000  Average:  90.00000  90.00000  90.00000
Rectangular boundary conditions

net charge:   0.00000000

component 0 (CO2) lambda:  0 occupancy:  1 (1.000000)
    net charge:   0.00000000 [e]

Amount of molecules per component :
-------------------------------------------------------------------------------
Component 0 (CO2)
    molecules:      2.500000e+02 molecules  (2.500000e+02 +/- 0.000000e+00)
    number density: 1.459394e-02 molec./A^3 (1.450375e-02 +/- 0.000000e+00)
    density:        1.066258e+03 kg/m^3     (1.059669e+03 +/- 0.000000e+00)

Average pressure tensor: 
-------------------------------------------------------------------------------
 1.6712e+02  1.7199e+01 -6.7324e+00 +/- 0.0000e+00 0.0000e+00 0.0000e+00 [bar]
 1.7199e+01  8.2394e+01  2.7749e+01 +/- 0.0000e+00 0.0000e+00 0.0000e+00 [bar]
-6.7324e+00  2.7749e+01  1.1605e+02 +/- 0.0000e+00 0.0000e+00 0.0000e+00 [bar]
Ideal-gas pressure:   5.006153e+02 +/ 0.000000e+00 [bar]
Excess pressure:     -3.787620e+02 +/ 0.000000e+00 [bar]
Pressure:             1.218533e+02 +/ 0.000000e+00 [bar]

Total potential energy/kʙ  -3.806230e+05 (-3.798210e+05 +/- 0.000000e+00) [K]
-------------------------------------------------------------------------------
ExternalField-molecule
    Van der Waals/kʙ        0.000000e+00 ( 0.000000e+00 +/- 0.000000e+00) [K]
Framework-molecule
    Van der Waals/kʙ        0.000000e+00 ( 0.000000e+00 +/- 0.000000e+00) [K]
    Van der Waals (Tail)/kʙ 0.000000e+00 ( 0.000000e+00 +/- 0.000000e+00) [K]
    Coulombic Real/kʙ       0.000000e+00 ( 0.000000e+00 +/- 0.000000e+00) [K]
    Coulombic Fourier/kʙ    0.000000e+00 ( 0.000000e+00 +/- 0.000000e+00) [K]
Molecule-molecule
    Van der Waals/kʙ       -2.713662e+05 (-2.716014e+05 +/- 0.000000e+00) [K]
    Van der Waals (Tail)/kʙ-1.170634e+04 (-1.164142e+04 +/- 0.000000e+00) [K]
    Coulombic Real/kʙ      -7.723587e+04 (-7.730244e+04 +/- 0.000000e+00) [K]
    Coulombic Fourier/kʙ   -2.031460e+04 (-1.927577e+04 +/- 0.000000e+00) [K]
    Molecule Intra/kʙ       0.000000e+00 ( 0.000000e+00 +/- 0.000000e+00) [K]

Current cycle: 1000 out of 5000
===============================================================================

Box:      25.80312   0.00000   0.00000  Average:  25.82407   0.00000   0.00000
           0.00000  25.80312   0.00000             0.00000  25.82407   0.00000
           0.00000   0.00000  25.80312             0.00000   0.00000  25.82407
Lengths:  25.80312  25.80312  25.80312  Average:  25.82407  25.82407  25.82407
Angles:   90.00000  90.00000  90.00000  Average:  90.00000  90.00000  90.00000
Rectangular boundary conditions

net charge:   0.00000000

component 0 (CO2) lambda:  0 occupancy:  1 (1.000000)
    net charge:   0.00000000 [e]

Amount of molecules per component :
-------------------------------------------------------------------------------
Component 0 (CO2)
    molecules:      2.500000e+02 molecules  (2.500000e+02 +/- 0.000000e+00)
    number density: 1.455202e-02 molec./A^3 (1.452019e-02 +/- 0.000000e+00)
    density:        1.063195e+03 kg/m^3     (1.060870e+03 +/- 0.000000e+00)

Average pressure tensor: 
-------------------------------------------------------------------------------
 1.5242e+02  1.9602e+01 -1.0063e+01 +/- 0.0000e+00 0.0000e+00 0.0000e+00 [bar]
 1.9602e+01  6.5022e+01  2.7450e+01 +/- 0.0000e+00 0.0000e+00 0.0000e+00 [bar]
-1.0063e+01  2.7450e+01  1.3794e+02 +/- 0.0000e+00 0.0000e+00 0.0000e+00 [bar]
Ideal-gas pressure:   5.011827e+02 +/ 0.000000e+00 [bar]
Excess pressure:     -3.827206e+02 +/ 0.000000e+00 [bar]
Pressure:             1.184620e+02 +/ 0.000000e+00 [bar]

Total potential energy/kʙ  -3.728389e+05 (-3.802598e+05 +/- 0.000000e+00) [K]
-------------------------------------------------------------------------------
ExternalField-molecule
    Van der Waals/kʙ        0.000000e+00 ( 0.000000e+00 +/- 0.000000e+00) [K]
Framework-molecule
    Van der Waals/kʙ        0.000000e+00 ( 0.000000e+00 +/- 0.000000e+00) [K]
    Van der Waals (Tail)/kʙ 0.000000e+00 ( 0.000000e+00 +/- 0.000000e+00) [K]
    Coulombic Real/kʙ       0.000000e+00 ( 0.000000e+00 +/- 0.000000e+00) [K]
    Coulombic Fourier/kʙ    0.000000e+00 ( 0.000000e+00 +/- 0.000000e+00) [K]
Molecule-molecule
    Van der Waals/kʙ       -2.746227e+05 (-2.718797e+05 +/- 0.000000e+00) [K]
    Van der Waals (Tail)/kʙ-1.167271e+04 (-1.165308e+04 +/- 0.000000e+00) [K]
    Coulombic Real/kʙ      -6.724627e+04 (-7.737587e+04 +/- 0.000000e+00) [K]
    Coulombic Fourier/kʙ   -1.929721e+04 (-1.935113e+04 +/- 0.000000e+00) [K]
    Molecule Intra/kʙ       0.000000e+00 ( 0.000000e+00 +/- 0.000000e+00) [K]

Current cycle: 1100 out of 5000
===============================================================================

Box:      25.84723   0.00000   0.00000  Average:  25.82508   0.00000   0.00000
           0.00000  25.84723   0.00000             0.00000  25.82508   0.00000
           0.00000   0.00000  25.84723             0.00000   0.00000  25.82508
Lengths:  25.84723  25.84723  25.84723  Average:  25.82508  25.82508  25.82508
Angles:   90.00000  90.00000  90.00000  Average:  90.00000  90.00000  90.00000
Rectangular boundary conditions

net charge:   0.00000000

component 0 (CO2) lambda:  0 occupancy:  1 (1.000000)
    net charge:   0.00000000 [e]

Amount of molecules per component :
-------------------------------------------------------------------------------
Component 0 (CO2)
    molecules:      2.500000e+02 molecules  (2.500000e+02 +/- 0.000000e+00)
    number density: 1.447765e-02 molec./A^3 (1.451833e-02 +/- 0.000000e+00)
    density:        1.057762e+03 kg/m^3     (1.060734e+03 +/- 0.000000e+00)

Average pressure tensor: 
-------------------------------------------------------------------------------
 1.3179e+02  1.5061e+01 -1.2910e+01 +/- 0.0000e+00 0.0000e+00 0.0000e+00 [bar]
 1.5061e+01  9.6225e+01  1.1506e+01 +/- 0.0000e+00 0.0000e+00 0.0000e+00 [bar]
-1.2910e+01  1.1506e+01  1.5548e+02 +/- 0.0000e+00 0.0000e+00 0.0000e+00 [bar]
Ideal-gas pressure:   5.011185e+02 +/ 0.000000e+00 [bar]
Excess pressure:     -3.732888e+02 +/ 0.000000e+00 [bar]
Pressure:             1.278297e+02 +/ 0.000000e+00 [bar]

Total potential energy/kʙ  -3.868236e+05 (-3.798897e+05 +/- 0.000000e+00) [K]
-------------------------------------------------------------------------------
ExternalField-molecule
    Van der Waals/kʙ        0.000000e+00 ( 0.000000e+00 +/- 0.000000e+00) [K]
Framework-molecule
    Van der Waals/kʙ        0.000000e+00 ( 0.000000e+00 +/- 0.000000e+00) [K]
    Van der Waals (Tail)/kʙ 0.000000e+00 ( 0.000000e+00 +/- 0.000000e+00) [K]
    Coulombic Real/kʙ       0.000000e+00 ( 0.000000e+00 +/- 0.000000e+00) [K]
    Coulombic Fourier/kʙ    0.000000e+00 ( 0.000000e+00 +/- 0.000000e+00) [K]
Molecule-molecule
    Van der Waals/kʙ       -2.778435e+05 (-2.718224e+05 +/- 0.000000e+00) [K]
    Van der Waals (Tail)/kʙ-1.161307e+04 (-1.165538e+04 +/- 0.000000e+00) [K]
    Coulombic Real/kʙ      -7.712769e+04 (-7.702699e+04 +/- 0.000000e+00) [K]
    Coulombic Fourier/kʙ   -2.023930e+04 (-1.938491e+04 +/- 0.000000e+00) [K]
    Molecule Intra/kʙ       0.000000e+00 ( 0.000000e+00 +/- 0.000000e+00) [K]

Current cycle: 1200 out of 5000
===============================================================================

Box:      25.82314   0.00000   0.00000  Average:  25.82323   0.00000   0.00000
           0.00000  25.82314   0.00000             0.00000  25.82323   0.00000
           0.00000   0.00000  25.82314             0.00000   0.00000  25.82323
Lengths:  25.82314  25.82314  25.82314  Average:  25.82323  25.82323  25.82323
Angles:   90.00000  90.00000  90.00000  Average:  90.00000  90.00000  90.00000
Rectangular boundary conditions

net charge:   0.00000000

component 0 (CO2) lambda:  0 occupancy:  1 (1.000000)
    net charge:   0.00000000 [e]

Amount of molecules per component :
-------------------------------------------------------------------------------
Component 0 (CO2)
    molecules:      2.500000e+02 molecules  (2.500000e+02 +/- 0.000000e+00)
    number density: 1.451821e-02 molec./A^3 (1.452121e-02 +/- 0.000000e+00)
    density:        1.060725e+03 kg/m^3     (1.060944e+03 +/- 0.000000e+00)

Average pressure tensor: 
-------------------------------------------------------------------------------
 1.3327e+02  1.8094e+01 -6.9702e+00 +/- 0.0000e+00 0.0000e+00 0.0000e+00 [bar]
 1.8094e+01  7.8454e+01  1.3314e+01 +/- 0.0000e+00 0.0000e+00 0.0000e+00 [bar]
-6.9702e+00  1.3314e+01  1.6898e+02 +/- 0.0000e+00 0.0000e+00 0.0000e+00 [bar]
Ideal-gas pressure:   5.012178e+02 +/ 0.000000e+00 [bar]
Excess pressure:     -3.743192e+02 +/ 0.000000e+00 [bar]
Pressure:             1.268986e+02 +/ 0.000000e+00 [bar]

Total potential energy/kʙ  -3.813881e+05 (-3.798142e+05 +/- 0.000000e+00) [K]
-------------------------------------------------------------------------------
ExternalField-molecule
    Van der Waals/kʙ        0.000000e+00 ( 0.000000e+00 +/- 0.000000e+00) [K]
Framework-molecule
    Van der Waals/kʙ        0.000000e+00 ( 0.000000e+00 +/- 0.000000e+00) [K]
    Van der Waals (Tail)/kʙ 0.000000e+00 ( 0.000000e+00 +/- 0.000000e+00) [K]
    Coulombic Real/kʙ       0.000000e+00 ( 0.000000e+00 +/- 0.000000e+00) [K]
    Coulombic Fourier/kʙ    0.000000e+00 ( 0.000000e+00 +/- 0.000000e+00) [K]
Molecule-molecule
    Van der Waals/kʙ       -2.705265e+05 (-2.718610e+05 +/- 0.000000e+00) [K]
    Van der Waals (Tail)/kʙ-1.164560e+04 (-1.165718e+04 +/- 0.000000e+00) [K]
    Coulombic Real/kʙ      -7.960067e+04 (-7.690691e+04 +/- 0.000000e+00) [K]
    Coulombic Fourier/kʙ   -1.961526e+04 (-1.938911e+04 +/- 0.000000e+00) [K]
    Molecule Intra/kʙ       0.000000e+00 ( 0.000000e+00 +/- 0.000000e+00) [K]

Current cycle: 1300 out of 5000
===============================================================================

Box:      25.50848   0.00000   0.00000  Average:  25.81376   0.00000   0.00000
           0.00000  25.50848   0.00000             0.00000  25.81376   0.00000
           0.00000   0.00000  25.50848             0.00000   0.00000  25.81376
Lengths:  25.50848  25.50848  25.50848  Average:  25.81376  25.81376  25.81376
Angles:   90.00000  90.00000  90.00000  Average:  90.00000  90.00000  90.00000
Rectangular boundary conditions

net charge:   0.00000000

component 0 (CO2) lambda:  0 occupancy:  1 (1.000000)
    net charge:   0.00000000 [e]

Amount of molecules per component :
-------------------------------------------------------------------------------
Component 0 (CO2)
    molecules:      2.500000e+02 molecules  (2.500000e+02 +/- 0.000000e+00)
    number density: 1.506212e-02 molec./A^3 (1.453741e-02 +/- 0.000000e+00)
    density:        1.100464e+03 kg/m^3     (1.062128e+03 +/- 0.000000e+00)

Average pressure tensor: 
-------------------------------------------------------------------------------
 1.2439e+02  1.9880e+01 -5.5035e+00 +/- 0.0000e+00 0.0000e+00 0.0000e+00 [bar]
 1.9880e+01  6.9747e+01  1.1905e+01 +/- 0.0000e+00 0.0000e+00 0.0000e+00 [bar]
-5.5035e+00  1.1905e+01  1.5270e+02 +/- 0.0000e+00 0.0000e+00 0.0000e+00 [bar]
Ideal-gas pressure:   5.017769e+02 +/ 0.000000e+00 [bar]
Excess pressure:     -3.861634e+02 +/ 0.000000e+00 [bar]
Pressure:             1.156135e+02 +/ 0.000000e+00 [bar]

Total potential energy/kʙ  -4.014421e+05 (-3.809165e+05 +/- 0.000000e+00) [K]
-------------------------------------------------------------------------------
ExternalField-molecule
    Van der Waals/kʙ        0.000000e+00 ( 0.000000e+00 +/- 0.000000e+00) [K]
Framework-molecule
    Van der Waals/kʙ        0.000000e+00 ( 0.000000e+00 +/- 0.000000e+00) [K]
    Van der Waals (Tail)/kʙ 0.000000e+00 ( 0.000000e+00 +/- 0.000000e+00) [K]
    Coulombic Real/kʙ       0.000000e+00 ( 0.000000e+00 +/- 0.000000e+00) [K]
    Coulombic Fourier/kʙ    0.000000e+00 ( 0.000000e+00 +/- 0.000000e+00) [K]
Molecule-molecule
    Van der Waals/kʙ       -2.806909e+05 (-2.723043e+05 +/- 0.000000e+00) [K]
    Van der Waals (Tail)/kʙ-1.208189e+04 (-1.167008e+04 +/- 0.000000e+00) [K]
    Coulombic Real/kʙ      -8.862303e+04 (-7.744073e+04 +/- 0.000000e+00) [K]
    Coulombic Fourier/kʙ   -2.004626e+04 (-1.950140e+04 +/- 0.000000e+00) [K]
    Molecule Intra/kʙ       0.000000e+00 ( 0.000000e+00 +/- 0.000000e+00) [K]

Current cycle: 1400 out of 5000
===============================================================================

Box:      25.62354   0.00000   0.00000  Average:  25.80075   0.00000   0.00000
           0.00000  25.62354   0.00000             0.00000  25.80075   0.00000
           0.00000   0.00000  25.62354             0.00000   0.00000  25.80075
Lengths:  25.62354  25.62354  25.62354  Average:  25.80075  25.80075  25.80075
Angles:   90.00000  90.00000  90.00000  Average:  90.00000  90.00000  90.00000
Rectangular boundary conditions

net charge:   0.00000000

component 0 (CO2) lambda:  0 occupancy:  1 (1.000000)
    net charge:   0.00000000 [e]

Amount of molecules per component :
-------------------------------------------------------------------------------
Component 0 (CO2)
    molecules:      2.500000e+02 molecules  (2.500000e+02 +/- 0.000000e+00)
    number density: 1.486013e-02 molec./A^3 (1.455948e-02 +/- 0.000000e+00)
    density:        1.085706e+03 kg/m^3     (1.063741e+03 +/- 0.000000e+00)

Average pressure tensor: 
-------------------------------------------------------------------------------
 1.2001e+02  1.4911e+01 -4.7007e+00 +/- 0.0000e+00 0.0000e+00 0.0000e+00 [bar]
 1.4911e+01  8.1710e+01  1.9816e+00 +/- 0.0000e+00 0.0000e+00 0.0000e+00 [bar]
-4.7007e+00  1.9816e+00  1.4063e+02 +/- 0.0000e+00 0.0000e+00 0.0000e+00 [bar]
Ideal-gas pressure:   5.025389e+02 +/ 0.000000e+00 [bar]
Excess pressure:     -3.884217e+02 +/ 0.000000e+00 [bar]
Pressure:             1.141172e+02 +/ 0.000000e+00 [bar]

Total potential energy/kʙ  -3.902136e+05 (-3.816935e+05 +/- 0.000000e+00) [K]
-------------------------------------------------------------------------------
ExternalField-molecule
    Van der Waals/kʙ        0.000000e+00 ( 0.000000e+00 +/- 0.000000e+00) [K]
Framework-molecule
    Van der Waals/kʙ        0.000000e+00 ( 0.000000e+00 +/- 0.000000e+00) [K]
    Van der Waals (Tail)/kʙ 0.000000e+00 ( 0.000000e+00 +/- 0.000000e+00) [K]
    Coulombic Real/kʙ       0.000000e+00 ( 0.000000e+00 +/- 0.000000e+00) [K]
    Coulombic Fourier/kʙ    0.000000e+00 ( 0.000000e+00 +/- 0.000000e+00) [K]
Molecule-molecule
    Van der Waals/kʙ       -2.757117e+05 (-2.725749e+05 +/- 0.000000e+00) [K]
    Van der Waals (Tail)/kʙ-1.191986e+04 (-1.168632e+04 +/- 0.000000e+00) [K]
    Coulombic Real/kʙ      -8.222163e+04 (-7.784455e+04 +/- 0.000000e+00) [K]
    Coulombic Fourier/kʙ   -2.036039e+04 (-1.958765e+04 +/- 0.000000e+00) [K]
    Molecule Intra/kʙ       0.000000e+00 ( 0.000000e+00 +/- 0.000000e+00) [K]

Current cycle: 1500 out of 5000
===============================================================================

Box:      25.49036   0.00000   0.00000  Average:  25.78284   0.00000   0.00000
           0.00000  25.49036   0.00000             0.00000  25.78284   0.00000
           0.00000   0.00000  25.49036             0.00000   0.00000  25.78284
Lengths:  25.49036  25.49036  25.49036  Average:  25.78284  25.78284  25.78284
Angles:   90.00000  90.00000  90.00000  Average:  90.00000  90.00000  90.00000
Rectangular boundary conditions

net charge:   0.00000000

component 0 (CO2) lambda:  0 occupancy:  1 (1.000000)
    net charge:   0.00000000 [e]

Amount of molecules per component :
-------------------------------------------------------------------------------
Component 0 (CO2)
    molecules:      2.500000e+02 molecules  (2.500000e+02 +/- 0.000000e+00)
    number density: 1.509427e-02 molec./A^3 (1.459026e-02 +/- 0.000000e+00)
    density:        1.102813e+03 kg/m^3     (1.065989e+03 +/- 0.000000e+00)

Average pressure tensor: 
-------------------------------------------------------------------------------
 1.2987e+02  1.0364e+01 -3.5869e+00 +/- 0.0000e+00 0.0000e+00 0.0000e+00 [bar]
 1.0364e+01  9.4624e+01  8.4884e+00 +/- 0.0000e+00 0.0000e+00 0.0000e+00 [bar]
-3.5869e+00  8.4884e+00  1.3794e+02 +/- 0.0000e+00 0.0000e+00 0.0000e+00 [bar]
Ideal-gas pressure:   5.036011e+02 +/ 0.000000e+00 [bar]
Excess pressure:     -3.827898e+02 +/ 0.000000e+00 [bar]
Pressure:             1.208112e+02 +/ 0.000000e+00 [bar]

Total potential energy/kʙ  -4.021812e+05 (-3.828601e+05 +/- 0.000000e+00) [K]
-------------------------------------------------------------------------------
ExternalField-molecule
    Van der Waals/kʙ        0.000000e+00 ( 0.000000e+00 +/- 0.000000e+00) [K]
Framework-molecule
    Van der Waals/kʙ        0.000000e+00 ( 0.000000e+00 +/- 0.000000e+00) [K]
    Van der Waals (Tail)/kʙ 0.000000e+00 ( 0.000000e+00 +/- 0.000000e+00) [K]
    Coulombic Real/kʙ       0.000000e+00 ( 0.000000e+00 +/- 0.000000e+00) [K]
    Coulombic Fourier/kʙ    0.000000e+00 ( 0.000000e+00 +/- 0.000000e+00) [K]
Molecule-molecule
    Van der Waals/kʙ       -2.864419e+05 (-2.734359e+05 +/- 0.000000e+00) [K]
    Van der Waals (Tail)/kʙ-1.210767e+04 (-1.171461e+04 +/- 0.000000e+00) [K]
    Coulombic Real/kʙ      -8.385838e+04 (-7.812127e+04 +/- 0.000000e+00) [K]
    Coulombic Fourier/kʙ   -1.977326e+04 (-1.958839e+04 +/- 0.000000e+00) [K]
    Molecule Intra/kʙ       0.000000e+00 ( 0.000000e+00 +/- 0.000000e+00) [K]

Current cycle: 1600 out of 5000
===============================================================================

Box:      25.70808   0.00000   0.00000  Average:  25.77372   0.00000   0.00000
           0.00000  25.70808   0.00000             0.00000  25.77372   0.00000
           0.00000   0.00000  25.70808             0.00000   0.00000  25.77372
Lengths:  25.70808  25.70808  25.70808  Average:  25.77372  25.77372  25.77372
Angles:   90.00000  90.00000  90.00000  Average:  90.00000  90.00000  90.00000
Rectangular boundary conditions

net charge:   0.00000000

component 0 (CO2) lambda:  0 occupancy:  1 (1.000000)
    net charge:   0.00000000 [e]

Amount of molecules per component :
-------------------------------------------------------------------------------
Component 0 (CO2)
    molecules:      2.500000e+02 molecules  (2.500000e+02 +/- 0.000000e+00)
    number density: 1.471401e-02 molec./A^3 (1.460577e-02 +/- 0.000000e+00)
    density:        1.075031e+03 kg/m^3     (1.067123e+03 +/- 0.000000e+00)

Average pressure tensor: 
-------------------------------------------------------------------------------
 1.3301e+02  8.4512e+00  8.5506e+00 +/- 0.0000e+00 0.0000e+00 0.0000e+00 [bar]
 8.4512e+00  8.7747e+01  1.3623e+01 +/- 0.0000e+00 0.0000e+00 0.0000e+00 [bar]
 8.5506e+00  1.3623e+01  1.5130e+02 +/- 0.0000e+00 0.0000e+00 0.0000e+00 [bar]
Ideal-gas pressure:   5.041366e+02 +/ 0.000000e+00 [bar]
Excess pressure:     -3.801161e+02 +/ 0.000000e+00 [bar]
Pressure:             1.240205e+02 +/ 0.000000e+00 [bar]

Total potential energy/kʙ  -3.915480e+05 (-3.833818e+05 +/- 0.000000e+00) [K]
-------------------------------------------------------------------------------
ExternalField-molecule
    Van der Waals/kʙ        0.000000e+00 ( 0.000000e+00 +/- 0.000000e+00) [K]
Framework-molecule
    Van der Waals/kʙ        0.000000e+00 ( 0.000000e+00 +/- 0.000000e+00) [K]
    Van der Waals (Tail)/kʙ 0.000000e+00 ( 0.000000e+00 +/- 0.000000e+00) [K]
    Coulombic Real/kʙ       0.000000e+00 ( 0.000000e+00 +/- 0.000000e+00) [K]
    Coulombic Fourier/kʙ    0.000000e+00 ( 0.000000e+00 +/- 0.000000e+00) [K]
Molecule-molecule
    Van der Waals/kʙ       -2.793134e+05 (-2.738873e+05 +/- 0.000000e+00) [K]
    Van der Waals (Tail)/kʙ-1.180265e+04 (-1.172665e+04 +/- 0.000000e+00) [K]
    Coulombic Real/kʙ      -8.125578e+04 (-7.818829e+04 +/- 0.000000e+00) [K]
    Coulombic Fourier/kʙ   -1.917622e+04 (-1.957956e+04 +/- 0.000000e+00) [K]
    Molecule Intra/kʙ       0.000000e+00 ( 0.000000e+00 +/- 0.000000e+00) [K]

Current cycle: 1700 out of 5000
===============================================================================

Box:      25.63969   0.00000   0.00000  Average:  25.77540   0.00000   0.00000
           0.00000  25.63969   0.00000             0.00000  25.77540   0.00000
           0.00000   0.00000  25.63969             0.00000   0.00000  25.77540
Lengths:  25.63969  25.63969  25.63969  Average:  25.77540  25.77540  25.77540
Angles:   90.00000  90.00000  90.00000  Average:  90.00000  90.00000  90.00000
Rectangular boundary conditions

net charge:   0.00000000

component 0 (CO2) lambda:  0 occupancy:  1 (1.000000)
    net charge:   0.00000000 [e]

Amount of molecules per component :
-------------------------------------------------------------------------------
Component 0 (CO2)
    molecules:      2.500000e+02 molecules  (2.500000e+02 +/- 0.000000e+00)
    number density: 1.483207e-02 molec./A^3 (1.460275e-02 +/- 0.000000e+00)
    density:        1.083657e+03 kg/m^3     (1.066902e+03 +/- 0.000000e+00)

Average pressure tensor: 
-------------------------------------------------------------------------------
 1.3318e+02  4.7264e+00 -4.0702e+00 +/- 0.0000e+00 0.0000e+00 0.0000e+00 [bar]
 4.7264e+00  8.7322e+01  1.3135e+01 +/- 0.0000e+00 0.0000e+00 0.0000e+00 [bar]
-4.0702e+00  1.3135e+01  1.5868e+02 +/- 0.0000e+00 0.0000e+00 0.0000e+00 [bar]
Ideal-gas pressure:   5.040321e+02 +/ 0.000000e+00 [bar]
Excess pressure:     -3.776376e+02 +/ 0.000000e+00 [bar]
Pressure:             1.263945e+02 +/ 0.000000e+00 [bar]

Total potential energy/kʙ  -3.845210e+05 (-3.833803e+05 +/- 0.000000e+00) [K]
-------------------------------------------------------------------------------
ExternalField-molecule
    Van der Waals/kʙ        0.000000e+00 ( 0.000000e+00 +/- 0.000000e+00) [K]
Framework-molecule
    Van der Waals/kʙ        0.000000e+00 ( 0.000000e+00 +/- 0.000000e+00) [K]
    Van der Waals (Tail)/kʙ 0.000000e+00 ( 0.000000e+00 +/- 0.000000e+00) [K]
    Coulombic Real/kʙ       0.000000e+00 ( 0.000000e+00 +/- 0.000000e+00) [K]
    Coulombic Fourier/kʙ    0.000000e+00 ( 0.000000e+00 +/- 0.000000e+00) [K]
Molecule-molecule
    Van der Waals/kʙ       -2.764763e+05 (-2.738710e+05 +/- 0.000000e+00) [K]
    Van der Waals (Tail)/kʙ-1.189736e+04 (-1.172517e+04 +/- 0.000000e+00) [K]
    Coulombic Real/kʙ      -7.727873e+04 (-7.826308e+04 +/- 0.000000e+00) [K]
    Coulombic Fourier/kʙ   -1.886861e+04 (-1.952105e+04 +/- 0.000000e+00) [K]
    Molecule Intra/kʙ       0.000000e+00 ( 0.000000e+00 +/- 0.000000e+00) [K]

Current cycle: 1800 out of 5000
===============================================================================

Box:      25.78676   0.00000   0.00000  Average:  25.77943   0.00000   0.00000
           0.00000  25.78676   0.00000             0.00000  25.77943   0.00000
           0.00000   0.00000  25.78676             0.00000   0.00000  25.77943
Lengths:  25.78676  25.78676  25.78676  Average:  25.77943  25.77943  25.77943
Angles:   90.00000  90.00000  90.00000  Average:  90.00000  90.00000  90.00000
Rectangular boundary conditions

net charge:   0.00000000

component 0 (CO2) lambda:  0 occupancy:  1 (1.000000)
    net charge:   0.00000000 [e]

Amount of molecules per component :
-------------------------------------------------------------------------------
Component 0 (CO2)
    molecules:      2.500000e+02 molecules  (2.500000e+02 +/- 0.000000e+00)
    number density: 1.457973e-02 molec./A^3 (1.459583e-02 +/- 0.000000e+00)
    density:        1.065220e+03 kg/m^3     (1.066396e+03 +/- 0.000000e+00)

Average pressure tensor: 
-------------------------------------------------------------------------------
 1.2763e+02  1.0213e+01 -9.3463e+00 +/- 0.0000e+00 0.0000e+00 0.0000e+00 [bar]
 1.0213e+01  1.0189e+02  1.0710e+01 +/- 0.0000e+00 0.0000e+00 0.0000e+00 [bar]
-9.3463e+00  1.0710e+01  1.5488e+02 +/- 0.0000e+00 0.0000e+00 0.0000e+00 [bar]
Ideal-gas pressure:   5.037935e+02 +/ 0.000000e+00 [bar]
Excess pressure:     -3.756596e+02 +/ 0.000000e+00 [bar]
Pressure:             1.281339e+02 +/ 0.000000e+00 [bar]

Total potential energy/kʙ  -3.799726e+05 (-3.830657e+05 +/- 0.000000e+00) [K]
-------------------------------------------------------------------------------
ExternalField-molecule
    Van der Waals/kʙ        0.000000e+00 ( 0.000000e+00 +/- 0.000000e+00) [K]
Framework-molecule
    Van der Waals/kʙ        0.000000e+00 ( 0.000000e+00 +/- 0.000000e+00) [K]
    Van der Waals (Tail)/kʙ 0.000000e+00 ( 0.000000e+00 +/- 0.000000e+00) [K]
    Coulombic Real/kʙ       0.000000e+00 ( 0.000000e+00 +/- 0.000000e+00) [K]
    Coulombic Fourier/kʙ    0.000000e+00 ( 0.000000e+00 +/- 0.000000e+00) [K]
Molecule-molecule
    Van der Waals/kʙ       -2.746036e+05 (-2.737909e+05 +/- 0.000000e+00) [K]
    Van der Waals (Tail)/kʙ-1.169494e+04 (-1.171914e+04 +/- 0.000000e+00) [K]
    Coulombic Real/kʙ      -7.416365e+04 (-7.806237e+04 +/- 0.000000e+00) [K]
    Coulombic Fourier/kʙ   -1.951041e+04 (-1.949323e+04 +/- 0.000000e+00) [K]
    Molecule Intra/kʙ       0.000000e+00 ( 0.000000e+00 +/- 0.000000e+00) [K]

Current cycle: 1900 out of 5000
===============================================================================

Box:      25.96556   0.00000   0.00000  Average:  25.78120   0.00000   0.00000
           0.00000  25.96556   0.00000             0.00000  25.78120   0.00000
           0.00000   0.00000  25.96556             0.00000   0.00000  25.78120
Lengths:  25.96556  25.96556  25.96556  Average:  25.78120  25.78120  25.78120
Angles:   90.00000  90.00000  90.00000  Average:  90.00000  90.00000  90.00000
Rectangular boundary conditions

net charge:   0.00000000

component 0 (CO2) lambda:  0 occupancy:  1 (1.000000)
    net charge:   0.00000000 [e]

Amount of molecules per component :
-------------------------------------------------------------------------------
Component 0 (CO2)
    molecules:      2.500000e+02 molecules  (2.500000e+02 +/- 0.000000e+00)
    number density: 1.428062e-02 molec./A^3 (1.459268e-02 +/- 0.000000e+00)
    density:        1.043367e+03 kg/m^3     (1.066166e+03 +/- 0.000000e+00)

Average pressure tensor: 
-------------------------------------------------------------------------------
 1.2018e+02  1.6058e+01 -1.5044e+01 +/- 0.0000e+00 0.0000e+00 0.0000e+00 [bar]
 1.6058e+01  1.0244e+02  1.5981e+01 +/- 0.0000e+00 0.0000e+00 0.0000e+00 [bar]
-1.5044e+01  1.5981e+01  1.5406e+02 +/- 0.0000e+00 0.0000e+00 0.0000e+00 [bar]
Ideal-gas pressure:   5.036847e+02 +/ 0.000000e+00 [bar]
Excess pressure:     -3.781262e+02 +/ 0.000000e+00 [bar]
Pressure:             1.255585e+02 +/ 0.000000e+00 [bar]

Total potential energy/kʙ  -3.813349e+05 (-3.827434e+05 +/- 0.000000e+00) [K]
-------------------------------------------------------------------------------
ExternalField-molecule
    Van der Waals/kʙ        0.000000e+00 ( 0.000000e+00 +/- 0.000000e+00) [K]
Framework-molecule
    Van der Waals/kʙ        0.000000e+00 ( 0.000000e+00 +/- 0.000000e+00) [K]
    Van der Waals (Tail)/kʙ 0.000000e+00 ( 0.000000e+00 +/- 0.000000e+00) [K]
    Coulombic Real/kʙ       0.000000e+00 ( 0.000000e+00 +/- 0.000000e+00) [K]
    Coulombic Fourier/kʙ    0.000000e+00 ( 0.000000e+00 +/- 0.000000e+00) [K]
Molecule-molecule
    Van der Waals/kʙ       -2.717567e+05 (-2.736995e+05 +/- 0.000000e+00) [K]
    Van der Waals (Tail)/kʙ-1.145502e+04 (-1.171471e+04 +/- 0.000000e+00) [K]
    Coulombic Real/kʙ      -7.912604e+04 (-7.787218e+04 +/- 0.000000e+00) [K]
    Coulombic Fourier/kʙ   -1.899716e+04 (-1.945698e+04 +/- 0.000000e+00) [K]
    Molecule Intra/kʙ       0.000000e+00 ( 0.000000e+00 +/- 0.000000e+00) [K]

Current cycle: 2000 out of 5000
===============================================================================

Box:      26.05145   0.00000   0.00000  Average:  25.79020   0.00000   0.00000
           0.00000  26.05145   0.00000             0.00000  25.79020   0.00000
           0.00000   0.00000  26.05145             0.00000   0.00000  25.79020
Lengths:  26.05145  26.05145  26.05145  Average:  25.79020  25.79020  25.79020
Angles:   90.00000  90.00000  90.00000  Average:  90.00000  90.00000  90.00000
Rectangular boundary conditions

net charge:   0.00000000

component 0 (CO2) lambda:  0 occupancy:  1 (1.000000)
    net charge:   0.00000000 [e]

Amount of molecules per component :
-------------------------------------------------------------------------------
Component 0 (CO2)
    molecules:      2.500000e+02 molecules  (2.500000e+02 +/- 0.000000e+00)
    number density: 1.413983e-02 molec./A^3 (1.457756e-02 +/- 0.000000e+00)
    density:        1.033080e+03 kg/m^3     (1.065061e+03 +/- 0.000000e+00)

Average pressure tensor: 
-------------------------------------------------------------------------------
 1.0649e+02  1.6522e+01 -1.9082e+01 +/- 0.0000e+00 0.0000e+00 0.0000e+00 [bar]
 1.6522e+01  1.0385e+02  1.0191e+01 +/- 0.0000e+00 0.0000e+00 0.0000e+00 [bar]
-1.9082e+01  1.0191e+01  1.4274e+02 +/- 0.0000e+00 0.0000e+00 0.0000e+00 [bar]
Ideal-gas pressure:   5.031628e+02 +/ 0.000000e+00 [bar]
Excess pressure:     -3.854715e+02 +/ 0.000000e+00 [bar]
Pressure:             1.176914e+02 +/ 0.000000e+00 [bar]

Total potential energy/kʙ  -3.651246e+05 (-3.825576e+05 +/- 0.000000e+00) [K]
-------------------------------------------------------------------------------
ExternalField-molecule
    Van der Waals/kʙ        0.000000e+00 ( 0.000000e+00 +/- 0.000000e+00) [K]
Framework-molecule
    Van der Waals/kʙ        0.000000e+00 ( 0.000000e+00 +/- 0.000000e+00) [K]
    Van der Waals (Tail)/kʙ 0.000000e+00 ( 0.000000e+00 +/- 0.000000e+00) [K]
    Coulombic Real/kʙ       0.000000e+00 ( 0.000000e+00 +/- 0.000000e+00) [K]
    Coulombic Fourier/kʙ    0.000000e+00 ( 0.000000e+00 +/- 0.000000e+00) [K]
Molecule-molecule
    Van der Waals/kʙ       -2.566177e+05 (-2.733234e+05 +/- 0.000000e+00) [K]
    Van der Waals (Tail)/kʙ-1.134208e+04 (-1.170156e+04 +/- 0.000000e+00) [K]
    Coulombic Real/kʙ      -7.824929e+04 (-7.804788e+04 +/- 0.000000e+00) [K]
    Coulombic Fourier/kʙ   -1.891546e+04 (-1.948482e+04 +/- 0.000000e+00) [K]
    Molecule Intra/kʙ       0.000000e+00 ( 0.000000e+00 +/- 0.000000e+00) [K]

Current cycle: 2100 out of 5000
===============================================================================

Box:      25.89170   0.00000   0.00000  Average:  25.80287   0.00000   0.00000
           0.00000  25.89170   0.00000             0.00000  25.80287   0.00000
           0.00000   0.00000  25.89170             0.00000   0.00000  25.80287
Lengths:  25.89170  25.89170  25.89170  Average:  25.80287  25.80287  25.80287
Angles:   90.00000  90.00000  90.00000  Average:  90.00000  90.00000  90.00000
Rectangular boundary conditions

net charge:   0.00000000

component 0 (CO2) lambda:  0 occupancy:  1 (1.000000)
    net charge:   0.00000000 [e]

Amount of molecules per component :
-------------------------------------------------------------------------------
Component 0 (CO2)
    molecules:      2.500000e+02 molecules  (2.500000e+02 +/- 0.000000e+00)
    number density: 1.440318e-02 molec./A^3 (1.455645e-02 +/- 0.000000e+00)
    density:        1.052321e+03 kg/m^3     (1.063519e+03 +/- 0.000000e+00)

Average pressure tensor: 
-------------------------------------------------------------------------------
 1.1434e+02  2.1385e+01 -2.4524e+01 +/- 0.0000e+00 0.0000e+00 0.0000e+00 [bar]
 2.1385e+01  1.0276e+02  2.5490e+00 +/- 0.0000e+00 0.0000e+00 0.0000e+00 [bar]
-2.4524e+01  2.5490e+00  1.3963e+02 +/- 0.0000e+00 0.0000e+00 0.0000e+00 [bar]
Ideal-gas pressure:   5.024340e+02 +/ 0.000000e+00 [bar]
Excess pressure:     -3.835257e+02 +/ 0.000000e+00 [bar]
Pressure:             1.189083e+02 +/ 0.000000e+00 [bar]

Total potential energy/kʙ  -3.764318e+05 (-3.820712e+05 +/- 0.000000e+00) [K]
-------------------------------------------------------------------------------
ExternalField-molecule
    Van der Waals/kʙ        0.000000e+00 ( 0.000000e+00 +/- 0.000000e+00) [K]
Framework-molecule
    Van der Waals/kʙ        0.000000e+00 ( 0.000000e+00 +/- 0.000000e+00) [K]
    Van der Waals (Tail)/kʙ 0.000000e+00 ( 0.000000e+00 +/- 0.000000e+00) [K]
[...]
    Coulombic Fourier/kʙ    0.000000e+00 ( 0.000000e+00 +/- 0.000000e+00) [K]
Molecule-molecule
    Van der Waals/kʙ       -2.793064e+05 (-2.752691e+05 +/- 5.679279e+03) [K]
    Van der Waals (Tail)/kʙ-1.194762e+04 (-1.176630e+04 +/- 2.100731e+02) [K]
    Coulombic Real/kʙ      -8.117633e+04 (-7.934427e+04 +/- 3.257788e+03) [K]
    Coulombic Fourier/kʙ   -1.900666e+04 (-1.949450e+04 +/- 5.315349e+02) [K]
    Molecule Intra/kʙ       0.000000e+00 ( 0.000000e+00 +/- 0.000000e+00) [K]

Current cycle: 4700 out of 5000
===============================================================================

Box:      25.75772   0.00000   0.00000  Average:  25.73882   0.00000   0.00000
           0.00000  25.75772   0.00000             0.00000  25.73882   0.00000
           0.00000   0.00000  25.75772             0.00000   0.00000  25.73882
Lengths:  25.75772  25.75772  25.75772  Average:  25.73882  25.73882  25.73882
Angles:   90.00000  90.00000  90.00000  Average:  90.00000  90.00000  90.00000
Rectangular boundary conditions

net charge:   0.00000000

component 0 (CO2) lambda:  0 occupancy:  1 (1.000000)
    net charge:   0.00000000 [e]

Amount of molecules per component :
-------------------------------------------------------------------------------
Component 0 (CO2)
    molecules:      2.500000e+02 molecules  (2.500000e+02 +/- 3.944933e-14)
    number density: 1.462910e-02 molec./A^3 (1.466630e-02 +/- 2.459929e-04)
    density:        1.068827e+03 kg/m^3     (1.071545e+03 +/- 1.797266e+01)

Average pressure tensor: 
-------------------------------------------------------------------------------
 1.2414e+02  1.1494e+01  3.2162e+01 +/- 4.7075e+01 3.1105e+01 7.1151e+01 [bar]
 1.1494e+01  8.8953e+01 -1.9047e-01 +/- 3.1105e+01 3.8796e+01 5.1126e+01 [bar]
 3.2162e+01 -1.9047e-01  1.3209e+02 +/- 7.1151e+01 5.1126e+01 2.1364e+01 [bar]
Ideal-gas pressure:   5.062259e+02 +/ 8.490753e+00 [bar]
Excess pressure:     -3.911643e+02 +/ 1.089098e+01 [bar]
Pressure:             1.150616e+02 +/ 5.237650e+00 [bar]

Total potential energy/kʙ  -3.837556e+05 (-3.859252e+05 +/- 8.687904e+03) [K]
-------------------------------------------------------------------------------
ExternalField-molecule
    Van der Waals/kʙ        0.000000e+00 ( 0.000000e+00 +/- 0.000000e+00) [K]
Framework-molecule
    Van der Waals/kʙ        0.000000e+00 ( 0.000000e+00 +/- 0.000000e+00) [K]
    Van der Waals (Tail)/kʙ 0.000000e+00 ( 0.000000e+00 +/- 0.000000e+00) [K]
    Coulombic Real/kʙ       0.000000e+00 ( 0.000000e+00 +/- 0.000000e+00) [K]
    Coulombic Fourier/kʙ    0.000000e+00 ( 0.000000e+00 +/- 0.000000e+00) [K]
Molecule-molecule
    Van der Waals/kʙ       -2.772117e+05 (-2.753051e+05 +/- 5.154326e+03) [K]
    Van der Waals (Tail)/kʙ-1.173455e+04 (-1.176748e+04 +/- 1.902629e+02) [K]
    Coulombic Real/kʙ      -7.672536e+04 (-7.935689e+04 +/- 2.936885e+03) [K]
    Coulombic Fourier/kʙ   -1.808400e+04 (-1.949579e+04 +/- 4.840016e+02) [K]
    Molecule Intra/kʙ       0.000000e+00 ( 0.000000e+00 +/- 0.000000e+00) [K]

Current cycle: 4800 out of 5000
===============================================================================

Box:      26.04575   0.00000   0.00000  Average:  25.74009   0.00000   0.00000
           0.00000  26.04575   0.00000             0.00000  25.74009   0.00000
           0.00000   0.00000  26.04575             0.00000   0.00000  25.74009
Lengths:  26.04575  26.04575  26.04575  Average:  25.74009  25.74009  25.74009
Angles:   90.00000  90.00000  90.00000  Average:  90.00000  90.00000  90.00000
Rectangular boundary conditions

net charge:   0.00000000

component 0 (CO2) lambda:  0 occupancy:  1 (1.000000)
    net charge:   0.00000000 [e]

Amount of molecules per component :
-------------------------------------------------------------------------------
Component 0 (CO2)
    molecules:      2.500000e+02 molecules  (2.500000e+02 +/- 0.000000e+00)
    number density: 1.414912e-02 molec./A^3 (1.466405e-02 +/- 2.150291e-04)
    density:        1.033759e+03 kg/m^3     (1.071381e+03 +/- 1.571040e+01)

Average pressure tensor: 
-------------------------------------------------------------------------------
 1.2443e+02  1.1472e+01  3.0224e+01 +/- 4.7009e+01 2.9645e+01 6.2469e+01 [bar]
 1.1472e+01  9.4097e+01 -1.5825e+00 +/- 2.9645e+01 3.6914e+01 5.0772e+01 [bar]
 3.0224e+01 -1.5825e+00  1.3225e+02 +/- 6.2469e+01 5.0772e+01 2.1262e+01 [bar]
Ideal-gas pressure:   5.061482e+02 +/ 7.422000e+00 [bar]
Excess pressure:     -3.892207e+02 +/ 5.557078e+00 [bar]
Pressure:             1.169275e+02 +/ 6.947439e+00 [bar]

Total potential energy/kʙ  -3.615349e+05 (-3.857084e+05 +/- 7.208995e+03) [K]
-------------------------------------------------------------------------------
ExternalField-molecule
    Van der Waals/kʙ        0.000000e+00 ( 0.000000e+00 +/- 0.000000e+00) [K]
Framework-molecule
    Van der Waals/kʙ        0.000000e+00 ( 0.000000e+00 +/- 0.000000e+00) [K]
    Van der Waals (Tail)/kʙ 0.000000e+00 ( 0.000000e+00 +/- 0.000000e+00) [K]
    Coulombic Real/kʙ       0.000000e+00 ( 0.000000e+00 +/- 0.000000e+00) [K]
    Coulombic Fourier/kʙ    0.000000e+00 ( 0.000000e+00 +/- 0.000000e+00) [K]
Molecule-molecule
    Van der Waals/kʙ       -2.617227e+05 (-2.752210e+05 +/- 4.409072e+03) [K]
    Van der Waals (Tail)/kʙ-1.134954e+04 (-1.176594e+04 +/- 1.677056e+02) [K]
    Coulombic Real/kʙ      -6.926947e+04 (-7.924069e+04 +/- 2.323714e+03) [K]
    Coulombic Fourier/kʙ   -1.919319e+04 (-1.948076e+04 +/- 4.066302e+02) [K]
    Molecule Intra/kʙ       0.000000e+00 ( 0.000000e+00 +/- 0.000000e+00) [K]

Current cycle: 4900 out of 5000
===============================================================================

Box:      25.73855   0.00000   0.00000  Average:  25.74101   0.00000   0.00000
           0.00000  25.73855   0.00000             0.00000  25.74101   0.00000
           0.00000   0.00000  25.73855             0.00000   0.00000  25.74101
Lengths:  25.73855  25.73855  25.73855  Average:  25.74101  25.74101  25.74101
Angles:   90.00000  90.00000  90.00000  Average:  90.00000  90.00000  90.00000
Rectangular boundary conditions

net charge:   0.00000000

component 0 (CO2) lambda:  0 occupancy:  1 (1.000000)
    net charge:   0.00000000 [e]

Amount of molecules per component :
-------------------------------------------------------------------------------
Component 0 (CO2)
    molecules:      2.500000e+02 molecules  (2.500000e+02 +/- 0.000000e+00)
    number density: 1.466181e-02 molec./A^3 (1.466242e-02 +/- 1.932267e-04)
    density:        1.071217e+03 kg/m^3     (1.071262e+03 +/- 1.411748e+01)

Average pressure tensor: 
-------------------------------------------------------------------------------
 1.2400e+02  1.0676e+01  3.0361e+01 +/- 4.6505e+01 2.7344e+01 6.0267e+01 [bar]
 1.0676e+01  9.2064e+01 -4.4951e+00 +/- 2.7344e+01 3.6523e+01 5.4831e+01 [bar]
 3.0361e+01 -4.4951e+00  1.2984e+02 +/- 6.0267e+01 5.4831e+01 2.3070e+01 [bar]
Ideal-gas pressure:   5.060920e+02 +/ 6.669464e+00 [bar]
Excess pressure:     -3.907925e+02 +/ 8.380159e+00 [bar]
Pressure:             1.152995e+02 +/ 5.025173e+00 [bar]

Total potential energy/kʙ  -3.862932e+05 (-3.855600e+05 +/- 6.267375e+03) [K]
-------------------------------------------------------------------------------
ExternalField-molecule
    Van der Waals/kʙ        0.000000e+00 ( 0.000000e+00 +/- 0.000000e+00) [K]
Framework-molecule
    Van der Waals/kʙ        0.000000e+00 ( 0.000000e+00 +/- 0.000000e+00) [K]
    Van der Waals (Tail)/kʙ 0.000000e+00 ( 0.000000e+00 +/- 0.000000e+00) [K]
    Coulombic Real/kʙ       0.000000e+00 ( 0.000000e+00 +/- 0.000000e+00) [K]
    Coulombic Fourier/kʙ    0.000000e+00 ( 0.000000e+00 +/- 0.000000e+00) [K]
Molecule-molecule
    Van der Waals/kʙ       -2.757705e+05 (-2.751627e+05 +/- 3.911030e+03) [K]
    Van der Waals (Tail)/kʙ-1.176078e+04 (-1.176390e+04 +/- 1.492475e+02) [K]
    Coulombic Real/kʙ      -7.879811e+04 (-7.915175e+04 +/- 1.936410e+03) [K]
    Coulombic Fourier/kʙ   -1.996385e+04 (-1.948165e+04 +/- 3.858980e+02) [K]
    Molecule Intra/kʙ       0.000000e+00 ( 0.000000e+00 +/- 0.000000e+00) [K]


Energy statistics             |  Energy [K]   | Recomputed [K]|  Drift [K]    |
===============================================================================
Total potential energy/kʙ     | -3.875532e+05 | -3.875532e+05 | -2.526843e-09 |
    external field VDW/kʙ     |  0.000000e+00 |  0.000000e+00 |  0.000000e+00 |
    external field Real/kʙ    |  0.000000e+00 |  0.000000e+00 |  0.000000e+00 |
    framework-molecule VDW/kʙ |  0.000000e+00 |  0.000000e+00 |  0.000000e+00 |
    framework-molecule Real/kʙ|  0.000000e+00 |  0.000000e+00 |  0.000000e+00 |
    molecule-molecule VDW/kʙ  | -2.757443e+05 | -2.757443e+05 | -1.750194e-09 |
    molecule-molecule Real/kʙ | -8.040998e+04 | -8.040998e+04 | -7.875874e-10 |
    Van der Waals (Tail)/kʙ   | -1.193941e+04 | -1.193941e+04 |  0.000000e+00 |
    Ewald Fourier/kʙ          |  1.686757e+04 |  1.686757e+04 |  1.093871e-11 |
    Ewald self/kʙ             | -5.557308e+06 | -5.557308e+06 |  0.000000e+00 |
    Ewald exclusion/kʙ        |  5.520981e+06 |  5.520981e+06 |  0.000000e+00 |
    intra VDW/kʙ              |  0.000000e+00 |  0.000000e+00 |  0.000000e+00 |
    intra Coulombic/kʙ        |  0.000000e+00 |  0.000000e+00 |  0.000000e+00 |
    polarization/kʙ           |  0.000000e+00 |  0.000000e+00 |  0.000000e+00 |
    dU/dlambda VDW/kʙ         |  0.000000e+00 |  0.000000e+00 |  0.000000e+00 |
    dU/dlambda Real/kʙ        |  0.000000e+00 |  0.000000e+00 |  0.000000e+00 |
    dU/dlambda Ewald/kʙ       |  0.000000e+00 |  0.000000e+00 |  0.000000e+00 |
-------------------------------------------------------------------------------


Monte-Carlo moves statistics
===============================================================================

    Volume change        all:                8288
    Volume change        total:              8288
    Volume change        constructed:        8288
    Volume change        accepted:           1825
    Volume change        fraction:       0.220198
    Volume change        max-change:     0.060000

Component 0 [CO2]
    Reinsertion (CBMC)   all:              413901
    Reinsertion (CBMC)   total:            413901
    Reinsertion (CBMC)   constructed:      364847
    Reinsertion (CBMC)   accepted:           4999
    Reinsertion (CBMC)   fraction:       0.012078
    Reinsertion (CBMC)   max-change:     0.000000

    Translation          all:              414190
    Translation          total:            138022     137779     138389
    Translation          constructed:      138022     137779     138389
    Translation          accepted:          70688      85424      67558
    Translation          fraction:       0.512150   0.620007   0.488175
    Translation          max-change:     0.630542   0.454545   0.673077

    Rotation             all:              413621
    Rotation             total:            138658     137245     137718
    Rotation             constructed:      138658     137245     137717
    Rotation             accepted:          66663      80435      63913
    Rotation             fraction:       0.480773   0.586069   0.464086
    Rotation             max-change:     0.725926   0.518519   0.769231



Production run counting of the MC moves summed over systems and components
===============================================================================

Volume change                          8288 (0.6630 [%])
Reinsertion (CBMC)                   413901 (33.1121 [%])
Translation                          414190 (33.1352 [%])
Rotation                             413621 (33.0897 [%])

Production count MC-steps:          1250000 [-]
               All summed:          1250000 [-]
               difference:                0 [-]


Production run CPU timings of the MC moves
===============================================================================

Component 0 CO2

Rotation                             63.196208 [s]
    Ewald                            31.438296 [s]
    ExternalField-Molecule            0.014759 [s]
    Framework-Molecule                0.014755 [s]
    Molecule-Molecule                29.097741 [s]
    Overhead                          2.630657 [s]

Reinsertion (CBMC)                  223.046790 [s]
    Ewald                            27.652808 [s]
    NonEwald                        194.962800 [s]
    Overhead                          0.431182 [s]

Translation                          63.179414 [s]
    Ewald                            31.351750 [s]
    ExternalField-Molecule            0.015987 [s]
    Framework-Molecule                0.024381 [s]
    Molecule-Molecule                29.086048 [s]
    Overhead                          2.701248 [s]



Volume change                         72.896495 [s]
    Ewald                             30.792732 [s]
    NonEwald                          39.339505 [s]
    Tail                               2.465734 [s]

Property sampling                     0.301169 [s]
Energy/pressure sampling:             9.043121 [s]


Production run CPU timings of the MC moves summed over systems and components
===============================================================================


Translation                          63.179414 [s]
    Ewald                            31.351750 [s]
    ExternalField-Molecule            0.015987 [s]
    Framework-Molecule                0.024381 [s]
    Molecule-Molecule                29.086048 [s]
    Overhead                          2.701248 [s]

Rotation                             63.196208 [s]
    Ewald                            31.438296 [s]
    ExternalField-Molecule            0.014759 [s]
    Framework-Molecule                0.014755 [s]
    Molecule-Molecule                29.097741 [s]
    Overhead                          2.630657 [s]

Volume change                        72.896495 [s]
    Ewald                            30.792732 [s]
    NonEwald                         39.339505 [s]
    Tail                              2.465734 [s]
    Overhead                          0.298524 [s]

Reinsertion (CBMC)                  223.046790 [s]
    Ewald                            27.652808 [s]
    NonEwald                        194.962800 [s]
    Overhead                          0.431182 [s]

Property sampling:                    0.301169 [s]
Energy/pressure sampling:             9.043121 [s]

Production simulation time:         432.632303 [s]
                All summed:         431.663197 [s]
                  Overhead:           0.969106 [s]


Initalization simulation time:       84.089703 [s]
Equilibration simulation time:        0.000000 [s]
Production simulation time:         432.632303 [s]
Total simulation time:              516.722006 [s]


Energy averages and statistics:
===============================================================================

Framework-molecule energy:
-------------------------------------------------------------------------------



Framework-molecule energy contributions per energy type:
-------------------------------------------------------------------------------



Inter-molecular energy:
-------------------------------------------------------------------------------

    Inter-molecular energy/kʙ 0-0 [CO2-CO2]:
    ---------------------------------------------------------------------------
        Block[  0] -3.803340e+05
        Block[  1] -3.849556e+05
        Block[  2] -3.827416e+05
        Block[  3] -3.868988e+05
        Block[  4] -3.929742e+05
        -----------------------------------------------------------------------
        Average  -3.855808e+05 +/-  5.966124e+03 [K]



Inter-molecular energy contributions per energy type:
-------------------------------------------------------------------------------

    Van der Waals energy/kʙ 0-0 [CO2-CO2]:
    ---------------------------------------------------------------------------
        Block[  0] -2.718523e+05
        Block[  1] -2.749615e+05
        Block[  2] -2.735868e+05
        Block[  3] -2.756089e+05
        Block[  4] -2.799464e+05
        -----------------------------------------------------------------------
        Average  -2.751912e+05 +/-  3.753318e+03 [K]

    VDW Tail-Correction energy/kʙ 0-0 [CO2-CO2]:
    ---------------------------------------------------------------------------
        Block[  0] -1.165289e+04
        Block[  1] -1.175382e+04
        Block[  2] -1.168143e+04
        Block[  3] -1.179032e+04
        Block[  4] -1.194548e+04
        -----------------------------------------------------------------------
        Average  -1.176479e+04 +/-  1.427567e+02 [K]

    Coulomb Real energy/kʙ 0-0 [CO2-CO2]:
    ---------------------------------------------------------------------------
        Block[  0] -7.747717e+04
        Block[  1] -7.861658e+04
        Block[  2] -7.840179e+04
        Block[  3] -8.000732e+04
        Block[  4] -8.118020e+04
        -----------------------------------------------------------------------
        Average  -7.913661e+04 +/-  1.809574e+03 [K]

    Coulomb Fourier energy/kʙ 0-0 [CO2-CO2]:
    ---------------------------------------------------------------------------
        Block[  0] -1.935167e+04
        Block[  1] -1.962366e+04
        Block[  2] -1.907160e+04
        Block[  3] -1.949230e+04
        Block[  4] -1.990211e+04
        -----------------------------------------------------------------------
        Average  -1.948827e+04 +/-  3.835901e+02 [K]


Total energy/kʙ
-------------------------------------------------------------------------------
    Block[  0] -3.803340e+05
    Block[  1] -3.849556e+05
    Block[  2] -3.827416e+05
    Block[  3] -3.868988e+05
    Block[  4] -3.929742e+05
    ---------------------------------------------------------------------------
    Average  -3.855808e+05 +/-  5.966124e+03 [K]

Pressure averages and statistics:
===============================================================================

Average pressure tensor: 
-------------------------------------------------------------------------------
 1.2384e+02  1.1843e+01  2.8312e+01 +/- 4.6305e+01 2.8471e+01 5.5275e+01 [bar]
 1.1843e+01  8.9739e+01 -5.0670e+00 +/- 2.8471e+01 3.7273e+01 5.2591e+01 [bar]
 2.8312e+01 -5.0670e+00  1.2845e+02 +/- 5.5275e+01 5.2591e+01 2.4470e+01 [bar]

    Block[  0]  5.011816e+07
    Block[  1]  5.051592e+07
    Block[  2]  5.028588e+07
    Block[  3]  5.071676e+07
    Block[  4]  5.144731e+07
    ---------------------------------------------------------------------------
    Ideal gas pressure   5.061681e+07 +/-  3.863271e-02 [Pa]
                         5.061681e+02 +/-  6.415117e+00 [bar]


    Block[  0] -3.824621e+07
    Block[  1] -3.886566e+07
    Block[  2] -3.942056e+07
    Block[  3] -3.891171e+07
    Block[  4] -4.063408e+07
    ---------------------------------------------------------------------------
    Excess pressure  -3.921564e+07 +/-  1.111894e+06 [Pa]
                     -3.921564e+02 +/-  1.111894e+01 [bar]


    Block[  0]  1.187195e+07
    Block[  1]  1.165026e+07
    Block[  2]  1.086532e+07
    Block[  3]  1.180506e+07
    Block[  4]  1.081323e+07
    ---------------------------------------------------------------------------
    Pressure average   1.140116e+07 +/-  6.449678e+05 [Pa]
                       1.140116e+02 +/-  6.449678e+00 [bar]


Enthalpy of adsorption
===============================================================================

No fluctuating components present.


Densities
===============================================================================

Component 0 (CO2)
    Block[  0] 250
    Block[  1] 250
    Block[  2] 250
    Block[  3] 250
    Block[  4] 250
    -----------------------------------------------------------------------
    Density average   2.500000e+02 +/-  0.000000e+00 [molecules]
    Density average   1.466463e-02 +/-  1.858578e-04 [molec/A^3]
    Density average   1.071423e+03 +/-  1.357909e+01 [kg.m⁻³]

