Compiler and run-time data
===============================================================================
RASPA 3.0.4

Random seed: 3238205502

Compiled as a 64-bits application
Compiler: gcc Ubuntu Clang 18.1.3 (1ubuntu1)
Compile Date = Mar 15 2025, Compile Time = 19:39:45

2025-06-02 12:44:41.159060
Simulation started on Mon, Jun 02
The start time was 12:44:00

Hostname:    c062
OS type:     Linux on x86_64
OS release:  6.8.0-58-generic
OS version:  #60-Ubuntu SMP PREEMPT_DYNAMIC Fri Mar 14 18:29:48 UTC 2025


Mutual consistent basic set of units:
===============================================================================

Unit of temperature: 1 [K]
Unit of length:      1e-10 [m]
Unit of time:        1e-12 [s]
Unit of mass:        1.6605402e-27 [kg]
Unit of charge:      1.60217733e-19 [C/particle]


Boltzmann constant (internal units):          0.8314464919307584 [-]
represents conversion from energy (internal units) to temperature (in Kelvin)

Derived units and their conversion factors:
===============================================================================

Unit of energy:                           1.6605402000000002e-23 [J]
Unit of energy:                           10.000008872307538 [J.mol⁻¹]
Unit of velocity:                         100 [m.s⁻¹]
Unit of force:                            1.6605402000000002e-13 [N]
Unit of diffusion:                        1.0000000000000002e-08 [m².s⁻¹]
Unit of acceleration:                     1.0000000000000002e-08 [m².s⁻¹]
Unit of torque:                           1.6605402000000002e-23 [N.m]
Unit of pressure:                         16605402 [Pa]
Unit of volume:                           1e-30 [m³]
Unit of density:                          1660.5402 [kg.m⁻³]
Unit of dynamic viscosity:                1.6605401999999997e-05 [N.s.m⁻²]
Unit of enthalpy:                         1.6605402000000002e-23 [J]
Unit of polarizability:                   1.5458657349975198e-35 [-]
Unit of Coulomb potential:                167101.08000665612 [K]
Unit of dielectric constant:              1.5458657349975193e-05 [s².C².kg⁻¹.m⁻³]
Unit of dipole moment:                    1.60217733e-29 [C.m]
Unit of Debye:                            4.803206799099162 [C.m]
Unit of electric potential:               0.00010364272224473431 [V]
Unit of electric field:                   1036427.222447343 [V.m⁻¹]
Unit of isothermal compressibility:       6.02213665167516e-08 [Pa⁻¹]
Unit of heat capacity:                    10.000008872307538 [J.mol⁻¹.K⁻¹]
Unit of volumetric expansion coefficient: 1 [K⁻¹]


Internal conversion factors:
===============================================================================

Energy (internal units) to Kelvin:      1.202724284692786 [-]
Kelvin to energy (internal units):      0.8314457542157567 [-]


System definitions
===============================================================================

Temperature:          250 [K]
Beta:                 0.0048108928702210625 [-]
Pressure:             1.6e+07 [Pa]
Helium void fraction: 1 [-]

Box:      30.00000   0.00000   0.00000
           0.00000  30.00000   0.00000
           0.00000   0.00000  30.00000
Lengths:  30.00000  30.00000  30.00000
Angles:   90.00000  90.00000  90.00000
Rectangular boundary conditions



Property measurement settings
===============================================================================




Pseudo-atoms
===============================================================================

  0 - C_co2    framework-atom: false
  1 - O_co2    framework-atom: false

  0 - C_co2    mass: 12.00000, charge:  0.70000
  1 - O_co2    mass: 15.99940, charge: -0.35000

  0 - C_co2    polarizability:  0.00000
  1 - O_co2    polarizability:  0.00000

  0 - J. J. Potoff et al., AIChE J. 2001, 47, 1676–1682.
  1 - J. J. Potoff et al., AIChE J. 2001, 47, 1676–1682.

Force field status
===============================================================================

Cutoff Framework-Molecule VDW:  12.00000 [Å]
Cutoff Molecule-Molecule VDW:   12.00000 [Å]
Cutoff Coulomb:                 12.00000 [Å]

Overlap-criteria VDW:           1.000000e+05 [K]

C_co2    - C_co2    Lennard-Jones p₀/kʙ:  27.00000 [K], p₁:  2.80000 [Å]
                                  shift:   0.00000 [K], tailcorrections: true
C_co2    - O_co2    Lennard-Jones p₀/kʙ:  46.18441 [K], p₁:  2.92500 [Å]
                                  shift:   0.00000 [K], tailcorrections: true
O_co2    - O_co2    Lennard-Jones p₀/kʙ:  79.00000 [K], p₁:  3.05000 [Å]
                                  shift:   0.00000 [K], tailcorrections: true

Ewald precision: 1e-06
Ewald alpha: 0.26505830360350674
Ewald k-vectors: 8 8 8


Component definitions
===============================================================================

Component 0 [CO2]

    Type: Adsorbate

    Critical temperature:  304.1282 [K]
    Critical pressure:     7377300 [Pa]
    Acentric factor:       0.22394 [-]

    Mol-fraction:                 1 [-]
    Swappable:                   false

    Mass:                         43.9988 [-]
    Bulk fluid density:           0 [-]
    Compressibility:              0 [-]
    Excess molecules:             0 [-]

    Number Of Atoms:    3
    CBMC starting bead: 0
      0: O_co2  position  0.00000 -0.00000  1.16000, charge -0.35000
      1: C_co2  position  0.00000 -0.00000  0.00000, charge  0.70000
      2: O_co2  position  0.00000 -0.00000 -1.16000, charge -0.35000
    Diagonalized inertia-vector:      43.05758528 43.05758528 0.00000000
    Translational degrees of freedom: 3
    Rotational degrees of freedom:    2
    Shape of the molecule is: 'Linear'
    Net-charge:        0.00000000 [e]

    Move probabilities:
    Translation:                   0.331126 [-]
    Random translation:            0.000000 [-]
    Rotation:                      0.331126 [-]
    Random rotation:               0.000000 [-]
    Volume change:                 0.006623 [-]
    Reinsertion (CBMC):            0.331126 [-]
    Identity change (CBMC):        0.000000 [-]
    Swap:                          0.000000 [-]
    Swap (CBMC):                   0.000000 [-]
    Swap (CFCMC):                  0.000000 [-]
    Swap (CB/CFCMC):               0.000000 [-]
    Gibbs volume:                  0.000000 [-]
    Gibbs swap (CBMC):             0.000000 [-]
    Gibbs swap (CFCMC):            0.000000 [-]
    Widom:                         0.000000 [-]
    Widom (CFCMC):                 0.000000 [-]
    Widom (CB/CFCMC):              0.000000 [-]
    Parallel tempering:            0.000000 [-]
    Hybrid MC:                     0.000000 [-]

    number of blocking-pockets: 0

    number of bonds: 0





Number of pseudo-atoms
===============================================================================

Component   0 (CO2)
-------------------------------------------------------------------------------
    index   0 (C_co2): 200 atoms
    index   1 (O_co2): 400 atoms

Total number of pseudo-atoms:
-------------------------------------------------------------------------------
    index   0 (C_co2): 200 atoms
    index   1 (O_co2): 400 atoms




Energy status Recomputed from scratch
===============================================================================

Total potential energy/kʙ       -6.015558e+04 [K]
    external field VDW/kʙ        0.000000e+00 [K]
    external field Real/kʙ       0.000000e+00 [K]
    framework-molecule VDW/kʙ    0.000000e+00 [K]
    framework-molecule Real/kʙ   0.000000e+00 [K]
    molecule-molecule VDW/kʙ    -3.563205e+04 [K]
    molecule-molecule Real/kʙ   -2.089570e+04 [K]
    Van der Waals (Tail)/kʙ     -2.751265e+03 [K]
    Ewald Fourier/kʙ             1.088457e+04 [K]
    Ewald self/kʙ               -3.673356e+06 [K]
    Ewald exclusion/kʙ           3.661595e+06 [K]
    intra VDW/kʙ                 0.000000e+00 [K]
    intra Coulombic/kʙ           0.000000e+00 [K]
    polarization/kʙ              0.000000e+00 [K]
    dU/dlambda VDW/kʙ            0.000000e+00 [K]
    dU/dlambda Real/kʙ           0.000000e+00 [K]
    dU/dlambda Ewald/kʙ          0.000000e+00 [K]





Initialization: Current cycle: 0 out of 1000
===============================================================================

Box:      30.00000   0.00000   0.00000
           0.00000  30.00000   0.00000
           0.00000   0.00000  30.00000
Lengths:  30.00000  30.00000  30.00000
Angles:   90.00000  90.00000  90.00000
Rectangular boundary conditions

net charge:   0.00000000

component   0 (CO2) lambda:  0 occupancy:  1 (1.000000)
    net charge:   0.00000000 [e]

Amount of molecules per component :
-------------------------------------------------------------------------------
Component 0 (CO2)
    molecules:         2.000000e+02 molecules
    number density:    7.407407e-03 molec/A^3
    density:           5.411979e+02 kg/m^3

Total potential energy/kʙ       -1.384326e+05 [K]
-------------------------------------------------------------------------------
    external field VDW/kʙ        0.000000e+00 [K]
    external field Real/kʙ       0.000000e+00 [K]
    framework-molecule VDW/kʙ    0.000000e+00 [K]
    framework-molecule Real/kʙ   0.000000e+00 [K]
    molecule-molecule VDW/kʙ    -1.122875e+05 [K]
    molecule-molecule Real/kʙ   -2.183649e+04 [K]
    Van der Waals (Tail)/kʙ     -2.751265e+03 [K]
    Ewald Fourier/kʙ             1.020378e+04 [K]
    Ewald self/kʙ               -3.673356e+06 [K]
    Ewald exclusion/kʙ           3.661595e+06 [K]
    intra VDW/kʙ                 0.000000e+00 [K]
    intra Coulombic/kʙ           0.000000e+00 [K]
    polarization/kʙ              0.000000e+00 [K]
    dU/dlambda VDW/kʙ            0.000000e+00 [K]
    dU/dlambda Real/kʙ           0.000000e+00 [K]
    dU/dlambda Ewald/kʙ          0.000000e+00 [K]


Initialization: Current cycle: 100 out of 1000
===============================================================================

Box:      26.62796   0.00000   0.00000
           0.00000  26.62796   0.00000
           0.00000   0.00000  26.62796
Lengths:  26.62796  26.62796  26.62796
Angles:   90.00000  90.00000  90.00000
Rectangular boundary conditions

net charge:   0.00000000

component   0 (CO2) lambda:  0 occupancy:  1 (1.000000)
    net charge:   0.00000000 [e]

Amount of molecules per component :
-------------------------------------------------------------------------------
Component 0 (CO2)
    molecules:         2.000000e+02 molecules
    number density:    1.059294e-02 molec/A^3
    density:           7.739383e+02 kg/m^3

Total potential energy/kʙ       -2.343144e+05 [K]
-------------------------------------------------------------------------------
    external field VDW/kʙ        0.000000e+00 [K]
    external field Real/kʙ       0.000000e+00 [K]
    framework-molecule VDW/kʙ    0.000000e+00 [K]
    framework-molecule Real/kʙ   0.000000e+00 [K]
    molecule-molecule VDW/kʙ    -1.697338e+05 [K]
    molecule-molecule Real/kʙ   -5.573741e+04 [K]
    Van der Waals (Tail)/kʙ     -3.934438e+03 [K]
    Ewald Fourier/kʙ             6.852349e+03 [K]
    Ewald self/kʙ               -3.673356e+06 [K]
    Ewald exclusion/kʙ           3.661595e+06 [K]
    intra VDW/kʙ                 0.000000e+00 [K]
    intra Coulombic/kʙ           0.000000e+00 [K]
    polarization/kʙ              0.000000e+00 [K]
    dU/dlambda VDW/kʙ            0.000000e+00 [K]
    dU/dlambda Real/kʙ           0.000000e+00 [K]
    dU/dlambda Ewald/kʙ          0.000000e+00 [K]


Initialization: Current cycle: 200 out of 1000
===============================================================================

Box:      25.05187   0.00000   0.00000
           0.00000  25.05187   0.00000
           0.00000   0.00000  25.05187
Lengths:  25.05187  25.05187  25.05187
Angles:   90.00000  90.00000  90.00000
Rectangular boundary conditions

net charge:   0.00000000

component   0 (CO2) lambda:  0 occupancy:  1 (1.000000)
    net charge:   0.00000000 [e]

Amount of molecules per component :
-------------------------------------------------------------------------------
Component 0 (CO2)
    molecules:         2.000000e+02 molecules
    number density:    1.272065e-02 molec/A^3
    density:           9.293926e+02 kg/m^3

Total potential energy/kʙ       -2.697213e+05 [K]
-------------------------------------------------------------------------------
    external field VDW/kʙ        0.000000e+00 [K]
    external field Real/kʙ       0.000000e+00 [K]
    framework-molecule VDW/kʙ    0.000000e+00 [K]
    framework-molecule Real/kʙ   0.000000e+00 [K]
    molecule-molecule VDW/kʙ    -1.966964e+05 [K]
    molecule-molecule Real/kʙ   -6.189656e+04 [K]
    Van der Waals (Tail)/kʙ     -4.724714e+03 [K]
    Ewald Fourier/kʙ             5.357473e+03 [K]
    Ewald self/kʙ               -3.673356e+06 [K]
    Ewald exclusion/kʙ           3.661595e+06 [K]
    intra VDW/kʙ                 0.000000e+00 [K]
    intra Coulombic/kʙ           0.000000e+00 [K]
    polarization/kʙ              0.000000e+00 [K]
    dU/dlambda VDW/kʙ            0.000000e+00 [K]
    dU/dlambda Real/kʙ           0.000000e+00 [K]
    dU/dlambda Ewald/kʙ          0.000000e+00 [K]


Initialization: Current cycle: 300 out of 1000
===============================================================================

Box:      24.24566   0.00000   0.00000
           0.00000  24.24566   0.00000
           0.00000   0.00000  24.24566
Lengths:  24.24566  24.24566  24.24566
Angles:   90.00000  90.00000  90.00000
Rectangular boundary conditions

net charge:   0.00000000

component   0 (CO2) lambda:  0 occupancy:  1 (1.000000)
    net charge:   0.00000000 [e]

Amount of molecules per component :
-------------------------------------------------------------------------------
Component 0 (CO2)
    molecules:         2.000000e+02 molecules
    number density:    1.403227e-02 molec/A^3
    density:           1.025222e+03 kg/m^3

Total potential energy/kʙ       -2.912760e+05 [K]
-------------------------------------------------------------------------------
    external field VDW/kʙ        0.000000e+00 [K]
    external field Real/kʙ       0.000000e+00 [K]
    framework-molecule VDW/kʙ    0.000000e+00 [K]
    framework-molecule Real/kʙ   0.000000e+00 [K]
    molecule-molecule VDW/kʙ    -2.133607e+05 [K]
    molecule-molecule Real/kʙ   -6.609146e+04 [K]
    Van der Waals (Tail)/kʙ     -5.211878e+03 [K]
    Ewald Fourier/kʙ             5.149199e+03 [K]
    Ewald self/kʙ               -3.673356e+06 [K]
    Ewald exclusion/kʙ           3.661595e+06 [K]
    intra VDW/kʙ                 0.000000e+00 [K]
    intra Coulombic/kʙ           0.000000e+00 [K]
    polarization/kʙ              0.000000e+00 [K]
    dU/dlambda VDW/kʙ            0.000000e+00 [K]
    dU/dlambda Real/kʙ           0.000000e+00 [K]
    dU/dlambda Ewald/kʙ          0.000000e+00 [K]


Initialization: Current cycle: 400 out of 1000
===============================================================================

Box:      23.79451   0.00000   0.00000
           0.00000  23.79451   0.00000
           0.00000   0.00000  23.79451
Lengths:  23.79451  23.79451  23.79451
Angles:   90.00000  90.00000  90.00000
Rectangular boundary conditions

net charge:   0.00000000

component   0 (CO2) lambda:  0 occupancy:  1 (1.000000)
    net charge:   0.00000000 [e]

Amount of molecules per component :
-------------------------------------------------------------------------------
Component 0 (CO2)
    molecules:         2.000000e+02 molecules
    number density:    1.484567e-02 molec/A^3
    density:           1.084650e+03 kg/m^3

Total potential energy/kʙ       -3.140637e+05 [K]
-------------------------------------------------------------------------------
    external field VDW/kʙ        0.000000e+00 [K]
    external field Real/kʙ       0.000000e+00 [K]
    framework-molecule VDW/kʙ    0.000000e+00 [K]
    framework-molecule Real/kʙ   0.000000e+00 [K]
    molecule-molecule VDW/kʙ    -2.244941e+05 [K]
    molecule-molecule Real/kʙ   -7.710251e+04 [K]
    Van der Waals (Tail)/kʙ     -5.513991e+03 [K]
    Ewald Fourier/kʙ             4.807991e+03 [K]
    Ewald self/kʙ               -3.673356e+06 [K]
    Ewald exclusion/kʙ           3.661595e+06 [K]
    intra VDW/kʙ                 0.000000e+00 [K]
    intra Coulombic/kʙ           0.000000e+00 [K]
    polarization/kʙ              0.000000e+00 [K]
    dU/dlambda VDW/kʙ            0.000000e+00 [K]
    dU/dlambda Real/kʙ           0.000000e+00 [K]
    dU/dlambda Ewald/kʙ          0.000000e+00 [K]


Initialization: Current cycle: 500 out of 1000
===============================================================================

Box:      23.77945   0.00000   0.00000
           0.00000  23.77945   0.00000
           0.00000   0.00000  23.77945
Lengths:  23.77945  23.77945  23.77945
Angles:   90.00000  90.00000  90.00000
Rectangular boundary conditions

net charge:   0.00000000

component   0 (CO2) lambda:  0 occupancy:  1 (1.000000)
    net charge:   0.00000000 [e]

Amount of molecules per component :
-------------------------------------------------------------------------------
Component 0 (CO2)
    molecules:         2.000000e+02 molecules
    number density:    1.487389e-02 molec/A^3
    density:           1.086712e+03 kg/m^3

Total potential energy/kʙ       -3.062130e+05 [K]
-------------------------------------------------------------------------------
    external field VDW/kʙ        0.000000e+00 [K]
    external field Real/kʙ       0.000000e+00 [K]
    framework-molecule VDW/kʙ    0.000000e+00 [K]
    framework-molecule Real/kʙ   0.000000e+00 [K]
    molecule-molecule VDW/kʙ    -2.254608e+05 [K]
    molecule-molecule Real/kʙ   -6.838826e+04 [K]
    Van der Waals (Tail)/kʙ     -5.524472e+03 [K]
    Ewald Fourier/kʙ             4.921626e+03 [K]
    Ewald self/kʙ               -3.673356e+06 [K]
    Ewald exclusion/kʙ           3.661595e+06 [K]
    intra VDW/kʙ                 0.000000e+00 [K]
    intra Coulombic/kʙ           0.000000e+00 [K]
    polarization/kʙ              0.000000e+00 [K]
    dU/dlambda VDW/kʙ            0.000000e+00 [K]
    dU/dlambda Real/kʙ           0.000000e+00 [K]
    dU/dlambda Ewald/kʙ          0.000000e+00 [K]


Initialization: Current cycle: 600 out of 1000
===============================================================================

Box:      23.57749   0.00000   0.00000
           0.00000  23.57749   0.00000
           0.00000   0.00000  23.57749
Lengths:  23.57749  23.57749  23.57749
Angles:   90.00000  90.00000  90.00000
Rectangular boundary conditions

net charge:   0.00000000

component   0 (CO2) lambda:  0 occupancy:  1 (1.000000)
    net charge:   0.00000000 [e]

Amount of molecules per component :
-------------------------------------------------------------------------------
Component 0 (CO2)
    molecules:         2.000000e+02 molecules
    number density:    1.525939e-02 molec/A^3
    density:           1.114877e+03 kg/m^3

Total potential energy/kʙ       -3.218775e+05 [K]
-------------------------------------------------------------------------------
    external field VDW/kʙ        0.000000e+00 [K]
    external field Real/kʙ       0.000000e+00 [K]
    framework-molecule VDW/kʙ    0.000000e+00 [K]
    framework-molecule Real/kʙ   0.000000e+00 [K]
    molecule-molecule VDW/kʙ    -2.329510e+05 [K]
    molecule-molecule Real/kʙ   -7.578982e+04 [K]
    Van der Waals (Tail)/kʙ     -5.667655e+03 [K]
    Ewald Fourier/kʙ             4.292105e+03 [K]
    Ewald self/kʙ               -3.673356e+06 [K]
    Ewald exclusion/kʙ           3.661595e+06 [K]
    intra VDW/kʙ                 0.000000e+00 [K]
    intra Coulombic/kʙ           0.000000e+00 [K]
    polarization/kʙ              0.000000e+00 [K]
    dU/dlambda VDW/kʙ            0.000000e+00 [K]
    dU/dlambda Real/kʙ           0.000000e+00 [K]
    dU/dlambda Ewald/kʙ          0.000000e+00 [K]


Initialization: Current cycle: 700 out of 1000
===============================================================================

Box:      23.56393   0.00000   0.00000
           0.00000  23.56393   0.00000
           0.00000   0.00000  23.56393
Lengths:  23.56393  23.56393  23.56393
Angles:   90.00000  90.00000  90.00000
Rectangular boundary conditions

net charge:   0.00000000

component   0 (CO2) lambda:  0 occupancy:  1 (1.000000)
    net charge:   0.00000000 [e]

Amount of molecules per component :
-------------------------------------------------------------------------------
Component 0 (CO2)
    molecules:         2.000000e+02 molecules
    number density:    1.528576e-02 molec/A^3
    density:           1.116804e+03 kg/m^3

Total potential energy/kʙ       -3.246880e+05 [K]
-------------------------------------------------------------------------------
    external field VDW/kʙ        0.000000e+00 [K]
    external field Real/kʙ       0.000000e+00 [K]
    framework-molecule VDW/kʙ    0.000000e+00 [K]
    framework-molecule Real/kʙ   0.000000e+00 [K]
    molecule-molecule VDW/kʙ    -2.358790e+05 [K]
    molecule-molecule Real/kʙ   -7.645688e+04 [K]
    Van der Waals (Tail)/kʙ     -5.677449e+03 [K]
    Ewald Fourier/kʙ             5.086463e+03 [K]
    Ewald self/kʙ               -3.673356e+06 [K]
    Ewald exclusion/kʙ           3.661595e+06 [K]
    intra VDW/kʙ                 0.000000e+00 [K]
    intra Coulombic/kʙ           0.000000e+00 [K]
    polarization/kʙ              0.000000e+00 [K]
    dU/dlambda VDW/kʙ            0.000000e+00 [K]
    dU/dlambda Real/kʙ           0.000000e+00 [K]
    dU/dlambda Ewald/kʙ          0.000000e+00 [K]


Initialization: Current cycle: 800 out of 1000
===============================================================================

Box:      23.73276   0.00000   0.00000
           0.00000  23.73276   0.00000
           0.00000   0.00000  23.73276
Lengths:  23.73276  23.73276  23.73276
Angles:   90.00000  90.00000  90.00000
Rectangular boundary conditions

net charge:   0.00000000

component   0 (CO2) lambda:  0 occupancy:  1 (1.000000)
    net charge:   0.00000000 [e]

Amount of molecules per component :
-------------------------------------------------------------------------------
Component 0 (CO2)
    molecules:         2.000000e+02 molecules
    number density:    1.496184e-02 molec/A^3
    density:           1.093138e+03 kg/m^3

Total potential energy/kʙ       -3.219416e+05 [K]
-------------------------------------------------------------------------------
    external field VDW/kʙ        0.000000e+00 [K]
    external field Real/kʙ       0.000000e+00 [K]
    framework-molecule VDW/kʙ    0.000000e+00 [K]
    framework-molecule Real/kʙ   0.000000e+00 [K]
    molecule-molecule VDW/kʙ    -2.331840e+05 [K]
    molecule-molecule Real/kʙ   -7.655436e+04 [K]
    Van der Waals (Tail)/kʙ     -5.557139e+03 [K]
    Ewald Fourier/kʙ             5.115018e+03 [K]
    Ewald self/kʙ               -3.673356e+06 [K]
    Ewald exclusion/kʙ           3.661595e+06 [K]
    intra VDW/kʙ                 0.000000e+00 [K]
    intra Coulombic/kʙ           0.000000e+00 [K]
    polarization/kʙ              0.000000e+00 [K]
    dU/dlambda VDW/kʙ            0.000000e+00 [K]
    dU/dlambda Real/kʙ           0.000000e+00 [K]
    dU/dlambda Ewald/kʙ          0.000000e+00 [K]


Initialization: Current cycle: 900 out of 1000
===============================================================================

Box:      23.61600   0.00000   0.00000
           0.00000  23.61600   0.00000
           0.00000   0.00000  23.61600
Lengths:  23.61600  23.61600  23.61600
Angles:   90.00000  90.00000  90.00000
Rectangular boundary conditions

net charge:   0.00000000

component   0 (CO2) lambda:  0 occupancy:  1 (1.000000)
    net charge:   0.00000000 [e]

Amount of molecules per component :
-------------------------------------------------------------------------------
Component 0 (CO2)
    molecules:         2.000000e+02 molecules
    number density:    1.518486e-02 molec/A^3
    density:           1.109432e+03 kg/m^3

Total potential energy/kʙ       -3.196561e+05 [K]
-------------------------------------------------------------------------------
    external field VDW/kʙ        0.000000e+00 [K]
    external field Real/kʙ       0.000000e+00 [K]
    framework-molecule VDW/kʙ    0.000000e+00 [K]
    framework-molecule Real/kʙ   0.000000e+00 [K]
    molecule-molecule VDW/kʙ    -2.271931e+05 [K]
    molecule-molecule Real/kʙ   -7.970898e+04 [K]
    Van der Waals (Tail)/kʙ     -5.639973e+03 [K]
    Ewald Fourier/kʙ             4.647081e+03 [K]
    Ewald self/kʙ               -3.673356e+06 [K]
    Ewald exclusion/kʙ           3.661595e+06 [K]
    intra VDW/kʙ                 0.000000e+00 [K]
    intra Coulombic/kʙ           0.000000e+00 [K]
    polarization/kʙ              0.000000e+00 [K]
    dU/dlambda VDW/kʙ            0.000000e+00 [K]
    dU/dlambda Real/kʙ           0.000000e+00 [K]
    dU/dlambda Ewald/kʙ          0.000000e+00 [K]


Current cycle: 0 out of 5000
===============================================================================

Box:      23.90151   0.00000   0.00000  Average:  23.90151   0.00000   0.00000
           0.00000  23.90151   0.00000             0.00000  23.90151   0.00000
           0.00000   0.00000  23.90151             0.00000   0.00000  23.90151
Lengths:  23.90151  23.90151  23.90151  Average:  23.90151  23.90151  23.90151
Angles:   90.00000  90.00000  90.00000  Average:  90.00000  90.00000  90.00000
Rectangular boundary conditions

net charge:   0.00000000

component 0 (CO2) lambda:  0 occupancy:  1 (1.000000)
    net charge:   0.00000000 [e]

Amount of molecules per component :
-------------------------------------------------------------------------------
Component 0 (CO2)
    molecules:      2.000000e+02 molecules  (2.000000e+02 +/- 0.000000e+00)
    number density: 1.464719e-02 molec./A^3 (1.464719e-02 +/- 0.000000e+00)
    density:        1.070149e+03 kg/m^3     (1.070149e+03 +/- 0.000000e+00)

Average pressure tensor: 
-------------------------------------------------------------------------------
 5.0557e+02  0.0000e+00  0.0000e+00 +/- 0.0000e+00 0.0000e+00 0.0000e+00 [bar]
 0.0000e+00  5.0557e+02  0.0000e+00 +/- 0.0000e+00 0.0000e+00 0.0000e+00 [bar]
 0.0000e+00  0.0000e+00  5.0557e+02 +/- 0.0000e+00 0.0000e+00 0.0000e+00 [bar]
Ideal-gas pressure:   5.055661e+02 +/ 0.000000e+00 [bar]
Excess pressure:      0.000000e+00 +/ 0.000000e+00 [bar]
Pressure:             5.055661e+02 +/ 0.000000e+00 [bar]

Total potential energy/kʙ  -3.134803e+05 (-3.134803e+05 +/- 0.000000e+00) [K]
-------------------------------------------------------------------------------
ExternalField-molecule
    Van der Waals/kʙ        0.000000e+00 ( 0.000000e+00 +/- 0.000000e+00) [K]
Framework-molecule
    Van der Waals/kʙ        0.000000e+00 ( 0.000000e+00 +/- 0.000000e+00) [K]
    Van der Waals (Tail)/kʙ 0.000000e+00 ( 0.000000e+00 +/- 0.000000e+00) [K]
    Coulombic Real/kʙ       0.000000e+00 ( 0.000000e+00 +/- 0.000000e+00) [K]
    Coulombic Fourier/kʙ    0.000000e+00 ( 0.000000e+00 +/- 0.000000e+00) [K]
Molecule-molecule
    Van der Waals/kʙ       -2.245028e+05 (-2.245028e+05 +/- 0.000000e+00) [K]
    Van der Waals (Tail)/kʙ-5.440270e+03 (-5.440270e+03 +/- 0.000000e+00) [K]
    Coulombic Real/kʙ      -7.638178e+04 (-7.638178e+04 +/- 0.000000e+00) [K]
    Coulombic Fourier/kʙ   -7.155498e+03 (-7.155498e+03 +/- 0.000000e+00) [K]
    Molecule Intra/kʙ       0.000000e+00 ( 0.000000e+00 +/- 0.000000e+00) [K]

Current cycle: 100 out of 5000
===============================================================================

Box:      23.69346   0.00000   0.00000  Average:  23.83119   0.00000   0.00000
           0.00000  23.69346   0.00000             0.00000  23.83119   0.00000
           0.00000   0.00000  23.69346             0.00000   0.00000  23.83119
Lengths:  23.69346  23.69346  23.69346  Average:  23.83119  23.83119  23.83119
Angles:   90.00000  90.00000  90.00000  Average:  90.00000  90.00000  90.00000
Rectangular boundary conditions

net charge:   0.00000000

component 0 (CO2) lambda:  0 occupancy:  1 (1.000000)
    net charge:   0.00000000 [e]

Amount of molecules per component :
-------------------------------------------------------------------------------
Component 0 (CO2)
    molecules:      2.000000e+02 molecules  (2.000000e+02 +/- 0.000000e+00)
    number density: 1.503643e-02 molec./A^3 (1.477977e-02 +/- 0.000000e+00)
    density:        1.098587e+03 kg/m^3     (1.079835e+03 +/- 0.000000e+00)

Average pressure tensor: 
-------------------------------------------------------------------------------
 1.3282e+02  1.8001e+02  7.6591e+00 +/- 0.0000e+00 0.0000e+00 0.0000e+00 [bar]
 1.8001e+02  4.0481e+02  3.5380e+00 +/- 0.0000e+00 0.0000e+00 0.0000e+00 [bar]
 7.6591e+00  3.5380e+00  1.0254e+02 +/- 0.0000e+00 0.0000e+00 0.0000e+00 [bar]
Ideal-gas pressure:   5.101422e+02 +/ 0.000000e+00 [bar]
Excess pressure:     -2.967513e+02 +/ 0.000000e+00 [bar]
Pressure:             2.133910e+02 +/ 0.000000e+00 [bar]

Total potential energy/kʙ  -3.082981e+05 (-3.080112e+05 +/- 0.000000e+00) [K]
-------------------------------------------------------------------------------
ExternalField-molecule
    Van der Waals/kʙ        0.000000e+00 ( 0.000000e+00 +/- 0.000000e+00) [K]
Framework-molecule
    Van der Waals/kʙ        0.000000e+00 ( 0.000000e+00 +/- 0.000000e+00) [K]
    Van der Waals (Tail)/kʙ 0.000000e+00 ( 0.000000e+00 +/- 0.000000e+00) [K]
    Coulombic Real/kʙ       0.000000e+00 ( 0.000000e+00 +/- 0.000000e+00) [K]
    Coulombic Fourier/kʙ    0.000000e+00 ( 0.000000e+00 +/- 0.000000e+00) [K]
Molecule-molecule
    Van der Waals/kʙ       -2.253819e+05 (-2.257965e+05 +/- 0.000000e+00) [K]
    Van der Waals (Tail)/kʙ-5.584843e+03 (-5.491308e+03 +/- 0.000000e+00) [K]
    Coulombic Real/kʙ      -7.059947e+04 (-7.016135e+04 +/- 0.000000e+00) [K]
    Coulombic Fourier/kʙ   -6.731820e+03 (-6.561985e+03 +/- 0.000000e+00) [K]
    Molecule Intra/kʙ       0.000000e+00 ( 0.000000e+00 +/- 0.000000e+00) [K]

Current cycle: 200 out of 5000
===============================================================================

Box:      23.90431   0.00000   0.00000  Average:  23.75824   0.00000   0.00000
           0.00000  23.90431   0.00000             0.00000  23.75824   0.00000
           0.00000   0.00000  23.90431             0.00000   0.00000  23.75824
Lengths:  23.90431  23.90431  23.90431  Average:  23.75824  23.75824  23.75824
Angles:   90.00000  90.00000  90.00000  Average:  90.00000  90.00000  90.00000
Rectangular boundary conditions

net charge:   0.00000000

component 0 (CO2) lambda:  0 occupancy:  1 (1.000000)
    net charge:   0.00000000 [e]

Amount of molecules per component :
-------------------------------------------------------------------------------
Component 0 (CO2)
    molecules:      2.000000e+02 molecules  (2.000000e+02 +/- 0.000000e+00)
    number density: 1.464202e-02 molec./A^3 (1.491669e-02 +/- 0.000000e+00)
    density:        1.069771e+03 kg/m^3     (1.089839e+03 +/- 0.000000e+00)

Average pressure tensor: 
-------------------------------------------------------------------------------
 2.0883e+02  1.2691e+02 -4.4627e+01 +/- 0.0000e+00 0.0000e+00 0.0000e+00 [bar]
 1.2691e+02  2.3569e+02 -1.8925e+01 +/- 0.0000e+00 0.0000e+00 0.0000e+00 [bar]
-4.4627e+01 -1.8925e+01  7.9900e+01 +/- 0.0000e+00 0.0000e+00 0.0000e+00 [bar]
Ideal-gas pressure:   5.148684e+02 +/ 0.000000e+00 [bar]
Excess pressure:     -3.400591e+02 +/ 0.000000e+00 [bar]
Pressure:             1.748093e+02 +/ 0.000000e+00 [bar]

Total potential energy/kʙ  -3.080556e+05 (-3.116121e+05 +/- 0.000000e+00) [K]
-------------------------------------------------------------------------------
ExternalField-molecule
    Van der Waals/kʙ        0.000000e+00 ( 0.000000e+00 +/- 0.000000e+00) [K]
Framework-molecule
    Van der Waals/kʙ        0.000000e+00 ( 0.000000e+00 +/- 0.000000e+00) [K]
    Van der Waals (Tail)/kʙ 0.000000e+00 ( 0.000000e+00 +/- 0.000000e+00) [K]
    Coulombic Real/kʙ       0.000000e+00 ( 0.000000e+00 +/- 0.000000e+00) [K]
    Coulombic Fourier/kʙ    0.000000e+00 ( 0.000000e+00 +/- 0.000000e+00) [K]
Molecule-molecule
    Van der Waals/kʙ       -2.260057e+05 (-2.279876e+05 +/- 0.000000e+00) [K]
    Van der Waals (Tail)/kʙ-5.438352e+03 (-5.529282e+03 +/- 0.000000e+00) [K]
    Coulombic Real/kʙ      -7.002373e+04 (-7.159529e+04 +/- 0.000000e+00) [K]
    Coulombic Fourier/kʙ   -6.587842e+03 (-6.499909e+03 +/- 0.000000e+00) [K]
    Molecule Intra/kʙ       0.000000e+00 ( 0.000000e+00 +/- 0.000000e+00) [K]

Current cycle: 300 out of 5000
===============================================================================

Box:      23.59202   0.00000   0.00000  Average:  23.72435   0.00000   0.00000
           0.00000  23.59202   0.00000             0.00000  23.72435   0.00000
           0.00000   0.00000  23.59202             0.00000   0.00000  23.72435
Lengths:  23.59202  23.59202  23.59202  Average:  23.72435  23.72435  23.72435
Angles:   90.00000  90.00000  90.00000  Average:  90.00000  90.00000  90.00000
Rectangular boundary conditions

net charge:   0.00000000

component 0 (CO2) lambda:  0 occupancy:  1 (1.000000)
    net charge:   0.00000000 [e]

Amount of molecules per component :
-------------------------------------------------------------------------------
Component 0 (CO2)
    molecules:      2.000000e+02 molecules  (2.000000e+02 +/- 0.000000e+00)
    number density: 1.523122e-02 molec./A^3 (1.498097e-02 +/- 0.000000e+00)
    density:        1.112819e+03 kg/m^3     (1.094535e+03 +/- 0.000000e+00)

Average pressure tensor: 
-------------------------------------------------------------------------------
 2.4514e+02  5.0965e+01 -5.1488e+01 +/- 0.0000e+00 0.0000e+00 0.0000e+00 [bar]
 5.0965e+01  2.7022e+02  2.9204e+01 +/- 0.0000e+00 0.0000e+00 0.0000e+00 [bar]
-5.1488e+01  2.9204e+01  2.0190e+02 +/- 0.0000e+00 0.0000e+00 0.0000e+00 [bar]
Ideal-gas pressure:   5.170871e+02 +/ 0.000000e+00 [bar]
Excess pressure:     -2.780009e+02 +/ 0.000000e+00 [bar]
Pressure:             2.390862e+02 +/ 0.000000e+00 [bar]

Total potential energy/kʙ  -3.156917e+05 (-3.132789e+05 +/- 0.000000e+00) [K]
-------------------------------------------------------------------------------
ExternalField-molecule
    Van der Waals/kʙ        0.000000e+00 ( 0.000000e+00 +/- 0.000000e+00) [K]
Framework-molecule
    Van der Waals/kʙ        0.000000e+00 ( 0.000000e+00 +/- 0.000000e+00) [K]
    Van der Waals (Tail)/kʙ 0.000000e+00 ( 0.000000e+00 +/- 0.000000e+00) [K]
    Coulombic Real/kʙ       0.000000e+00 ( 0.000000e+00 +/- 0.000000e+00) [K]
    Coulombic Fourier/kʙ    0.000000e+00 ( 0.000000e+00 +/- 0.000000e+00) [K]
Molecule-molecule
    Van der Waals/kʙ       -2.283218e+05 (-2.289498e+05 +/- 0.000000e+00) [K]
    Van der Waals (Tail)/kʙ-5.657193e+03 (-5.569818e+03 +/- 0.000000e+00) [K]
    Coulombic Real/kʙ      -7.490099e+04 (-7.226723e+04 +/- 0.000000e+00) [K]
    Coulombic Fourier/kʙ   -6.811689e+03 (-6.492054e+03 +/- 0.000000e+00) [K]
    Molecule Intra/kʙ       0.000000e+00 ( 0.000000e+00 +/- 0.000000e+00) [K]

Current cycle: 400 out of 5000
===============================================================================

Box:      23.67223   0.00000   0.00000  Average:  23.70704   0.00000   0.00000
           0.00000  23.67223   0.00000             0.00000  23.70704   0.00000
           0.00000   0.00000  23.67223             0.00000   0.00000  23.70704
Lengths:  23.67223  23.67223  23.67223  Average:  23.70704  23.70704  23.70704
Angles:   90.00000  90.00000  90.00000  Average:  90.00000  90.00000  90.00000
Rectangular boundary conditions

net charge:   0.00000000

component 0 (CO2) lambda:  0 occupancy:  1 (1.000000)
    net charge:   0.00000000 [e]

Amount of molecules per component :
-------------------------------------------------------------------------------
Component 0 (CO2)
    molecules:      2.000000e+02 molecules  (2.000000e+02 +/- 0.000000e+00)
    number density: 1.507691e-02 molec./A^3 (1.501344e-02 +/- 0.000000e+00)
    density:        1.101545e+03 kg/m^3     (1.096908e+03 +/- 0.000000e+00)

Average pressure tensor: 
-------------------------------------------------------------------------------
 2.0846e+02  1.4624e+01 -4.8534e+01 +/- 0.0000e+00 0.0000e+00 0.0000e+00 [bar]
 1.4624e+01  2.3066e+02  1.8711e+01 +/- 0.0000e+00 0.0000e+00 0.0000e+00 [bar]
-4.8534e+01  1.8711e+01  2.6450e+02 +/- 0.0000e+00 0.0000e+00 0.0000e+00 [bar]
Ideal-gas pressure:   5.182078e+02 +/ 0.000000e+00 [bar]
Excess pressure:     -2.836687e+02 +/ 0.000000e+00 [bar]
Pressure:             2.345391e+02 +/ 0.000000e+00 [bar]

Total potential energy/kʙ  -3.145003e+05 (-3.140203e+05 +/- 0.000000e+00) [K]
-------------------------------------------------------------------------------
ExternalField-molecule
    Van der Waals/kʙ        0.000000e+00 ( 0.000000e+00 +/- 0.000000e+00) [K]
Framework-molecule
    Van der Waals/kʙ        0.000000e+00 ( 0.000000e+00 +/- 0.000000e+00) [K]
    Van der Waals (Tail)/kʙ 0.000000e+00 ( 0.000000e+00 +/- 0.000000e+00) [K]
    Coulombic Real/kʙ       0.000000e+00 ( 0.000000e+00 +/- 0.000000e+00) [K]
    Coulombic Fourier/kʙ    0.000000e+00 ( 0.000000e+00 +/- 0.000000e+00) [K]
Molecule-molecule
    Van der Waals/kʙ       -2.311291e+05 (-2.292595e+05 +/- 0.000000e+00) [K]
    Van der Waals (Tail)/kʙ-5.599878e+03 (-5.579263e+03 +/- 0.000000e+00) [K]
    Coulombic Real/kʙ      -7.123390e+04 (-7.264496e+04 +/- 0.000000e+00) [K]
    Coulombic Fourier/kʙ   -6.537444e+03 (-6.536534e+03 +/- 0.000000e+00) [K]
    Molecule Intra/kʙ       0.000000e+00 ( 0.000000e+00 +/- 0.000000e+00) [K]

Current cycle: 500 out of 5000
===============================================================================

Box:      23.62530   0.00000   0.00000  Average:  23.69124   0.00000   0.00000
           0.00000  23.62530   0.00000             0.00000  23.69124   0.00000
           0.00000   0.00000  23.62530             0.00000   0.00000  23.69124
Lengths:  23.62530  23.62530  23.62530  Average:  23.69124  23.69124  23.69124
Angles:   90.00000  90.00000  90.00000  Average:  90.00000  90.00000  90.00000
Rectangular boundary conditions

net charge:   0.00000000

component 0 (CO2) lambda:  0 occupancy:  1 (1.000000)
    net charge:   0.00000000 [e]

Amount of molecules per component :
-------------------------------------------------------------------------------
Component 0 (CO2)
    molecules:      2.000000e+02 molecules  (2.000000e+02 +/- 0.000000e+00)
    number density: 1.516695e-02 molec./A^3 (1.504324e-02 +/- 0.000000e+00)
    density:        1.108123e+03 kg/m^3     (1.099085e+03 +/- 0.000000e+00)

Average pressure tensor: 
-------------------------------------------------------------------------------
 1.7798e+02  1.6773e+01 -6.2160e+01 +/- 0.0000e+00 0.0000e+00 0.0000e+00 [bar]
 1.6773e+01  2.0113e+02  4.3211e+01 +/- 0.0000e+00 0.0000e+00 0.0000e+00 [bar]
-6.2160e+01  4.3211e+01  2.1177e+02 +/- 0.0000e+00 0.0000e+00 0.0000e+00 [bar]
Ideal-gas pressure:   5.192364e+02 +/ 0.000000e+00 [bar]
Excess pressure:     -3.222781e+02 +/ 0.000000e+00 [bar]
Pressure:             1.969583e+02 +/ 0.000000e+00 [bar]

Total potential energy/kʙ  -3.283294e+05 (-3.157220e+05 +/- 0.000000e+00) [K]
-------------------------------------------------------------------------------
ExternalField-molecule
    Van der Waals/kʙ        0.000000e+00 ( 0.000000e+00 +/- 0.000000e+00) [K]
Framework-molecule
    Van der Waals/kʙ        0.000000e+00 ( 0.000000e+00 +/- 0.000000e+00) [K]
    Van der Waals (Tail)/kʙ 0.000000e+00 ( 0.000000e+00 +/- 0.000000e+00) [K]
    Coulombic Real/kʙ       0.000000e+00 ( 0.000000e+00 +/- 0.000000e+00) [K]
    Coulombic Fourier/kʙ    0.000000e+00 ( 0.000000e+00 +/- 0.000000e+00) [K]
Molecule-molecule
    Van der Waals/kʙ       -2.363562e+05 (-2.302304e+05 +/- 0.000000e+00) [K]
    Van der Waals (Tail)/kʙ-5.633319e+03 (-5.589957e+03 +/- 0.000000e+00) [K]
    Coulombic Real/kʙ      -7.904401e+04 (-7.332107e+04 +/- 0.000000e+00) [K]
    Coulombic Fourier/kʙ   -7.295862e+03 (-6.580566e+03 +/- 0.000000e+00) [K]
    Molecule Intra/kʙ       0.000000e+00 ( 0.000000e+00 +/- 0.000000e+00) [K]

Current cycle: 600 out of 5000
===============================================================================

Box:      23.57250   0.00000   0.00000  Average:  23.67838   0.00000   0.00000
           0.00000  23.57250   0.00000             0.00000  23.67838   0.00000
           0.00000   0.00000  23.57250             0.00000   0.00000  23.67838
Lengths:  23.57250  23.57250  23.57250  Average:  23.67838  23.67838  23.67838
Angles:   90.00000  90.00000  90.00000  Average:  90.00000  90.00000  90.00000
Rectangular boundary conditions

net charge:   0.00000000

component 0 (CO2) lambda:  0 occupancy:  1 (1.000000)
    net charge:   0.00000000 [e]

Amount of molecules per component :
-------------------------------------------------------------------------------
Component 0 (CO2)
    molecules:      2.000000e+02 molecules  (2.000000e+02 +/- 0.000000e+00)
    number density: 1.526909e-02 molec./A^3 (1.506803e-02 +/- 0.000000e+00)
    density:        1.115586e+03 kg/m^3     (1.100896e+03 +/- 0.000000e+00)

Average pressure tensor: 
-------------------------------------------------------------------------------
 1.8209e+02  3.2060e+01 -8.2293e+01 +/- 0.0000e+00 0.0000e+00 0.0000e+00 [bar]
 3.2060e+01  1.8801e+02  5.4033e+01 +/- 0.0000e+00 0.0000e+00 0.0000e+00 [bar]
-8.2293e+01  5.4033e+01  1.7512e+02 +/- 0.0000e+00 0.0000e+00 0.0000e+00 [bar]
Ideal-gas pressure:   5.200921e+02 +/ 0.000000e+00 [bar]
Excess pressure:     -3.383502e+02 +/ 0.000000e+00 [bar]
Pressure:             1.817419e+02 +/ 0.000000e+00 [bar]

Total potential energy/kʙ  -3.210939e+05 (-3.164247e+05 +/- 0.000000e+00) [K]
-------------------------------------------------------------------------------
ExternalField-molecule
    Van der Waals/kʙ        0.000000e+00 ( 0.000000e+00 +/- 0.000000e+00) [K]
Framework-molecule
    Van der Waals/kʙ        0.000000e+00 ( 0.000000e+00 +/- 0.000000e+00) [K]
    Van der Waals (Tail)/kʙ 0.000000e+00 ( 0.000000e+00 +/- 0.000000e+00) [K]
    Coulombic Real/kʙ       0.000000e+00 ( 0.000000e+00 +/- 0.000000e+00) [K]
    Coulombic Fourier/kʙ    0.000000e+00 ( 0.000000e+00 +/- 0.000000e+00) [K]
Molecule-molecule
    Van der Waals/kʙ       -2.374887e+05 (-2.304349e+05 +/- 0.000000e+00) [K]
    Van der Waals (Tail)/kʙ-5.671258e+03 (-5.598748e+03 +/- 0.000000e+00) [K]
    Coulombic Real/kʙ      -7.107792e+04 (-7.370192e+04 +/- 0.000000e+00) [K]
    Coulombic Fourier/kʙ   -6.856026e+03 (-6.689071e+03 +/- 0.000000e+00) [K]
    Molecule Intra/kʙ       0.000000e+00 ( 0.000000e+00 +/- 0.000000e+00) [K]

Current cycle: 700 out of 5000
===============================================================================

Box:      23.62534   0.00000   0.00000  Average:  23.66636   0.00000   0.00000
           0.00000  23.62534   0.00000             0.00000  23.66636   0.00000
           0.00000   0.00000  23.62534             0.00000   0.00000  23.66636
Lengths:  23.62534  23.62534  23.62534  Average:  23.66636  23.66636  23.66636
Angles:   90.00000  90.00000  90.00000  Average:  90.00000  90.00000  90.00000
Rectangular boundary conditions

net charge:   0.00000000

component 0 (CO2) lambda:  0 occupancy:  1 (1.000000)
    net charge:   0.00000000 [e]

Amount of molecules per component :
-------------------------------------------------------------------------------
Component 0 (CO2)
    molecules:      2.000000e+02 molecules  (2.000000e+02 +/- 0.000000e+00)
    number density: 1.516686e-02 molec./A^3 (1.509091e-02 +/- 0.000000e+00)
    density:        1.108117e+03 kg/m^3     (1.102568e+03 +/- 0.000000e+00)

Average pressure tensor: 
-------------------------------------------------------------------------------
 1.5706e+02  1.5024e+01 -9.9491e+01 +/- 0.0000e+00 0.0000e+00 0.0000e+00 [bar]
 1.5024e+01  1.7291e+02  4.2705e+01 +/- 0.0000e+00 0.0000e+00 0.0000e+00 [bar]
-9.9491e+01  4.2705e+01  1.1556e+02 +/- 0.0000e+00 0.0000e+00 0.0000e+00 [bar]
Ideal-gas pressure:   5.208819e+02 +/ 0.000000e+00 [bar]
Excess pressure:     -3.723714e+02 +/ 0.000000e+00 [bar]
Pressure:             1.485104e+02 +/ 0.000000e+00 [bar]

Total potential energy/kʙ  -3.191084e+05 (-3.168790e+05 +/- 0.000000e+00) [K]
-------------------------------------------------------------------------------
ExternalField-molecule
    Van der Waals/kʙ        0.000000e+00 ( 0.000000e+00 +/- 0.000000e+00) [K]
Framework-molecule
    Van der Waals/kʙ        0.000000e+00 ( 0.000000e+00 +/- 0.000000e+00) [K]
    Van der Waals (Tail)/kʙ 0.000000e+00 ( 0.000000e+00 +/- 0.000000e+00) [K]
    Coulombic Real/kʙ       0.000000e+00 ( 0.000000e+00 +/- 0.000000e+00) [K]
    Coulombic Fourier/kʙ    0.000000e+00 ( 0.000000e+00 +/- 0.000000e+00) [K]
Molecule-molecule
    Van der Waals/kʙ       -2.331159e+05 (-2.309665e+05 +/- 0.000000e+00) [K]
    Van der Waals (Tail)/kʙ-5.633288e+03 (-5.604028e+03 +/- 0.000000e+00) [K]
    Coulombic Real/kʙ      -7.300447e+04 (-7.351987e+04 +/- 0.000000e+00) [K]
    Coulombic Fourier/kʙ   -7.354690e+03 (-6.788612e+03 +/- 0.000000e+00) [K]
    Molecule Intra/kʙ       0.000000e+00 ( 0.000000e+00 +/- 0.000000e+00) [K]

Current cycle: 800 out of 5000
===============================================================================

Box:      23.87338   0.00000   0.00000  Average:  23.68634   0.00000   0.00000
           0.00000  23.87338   0.00000             0.00000  23.68634   0.00000
           0.00000   0.00000  23.87338             0.00000   0.00000  23.68634
Lengths:  23.87338  23.87338  23.87338  Average:  23.68634  23.68634  23.68634
Angles:   90.00000  90.00000  90.00000  Average:  90.00000  90.00000  90.00000
Rectangular boundary conditions

net charge:   0.00000000

component 0 (CO2) lambda:  0 occupancy:  1 (1.000000)
    net charge:   0.00000000 [e]

Amount of molecules per component :
-------------------------------------------------------------------------------
Component 0 (CO2)
    molecules:      2.000000e+02 molecules  (2.000000e+02 +/- 0.000000e+00)
    number density: 1.469901e-02 molec./A^3 (1.505316e-02 +/- 0.000000e+00)
    density:        1.073935e+03 kg/m^3     (1.099810e+03 +/- 0.000000e+00)

Average pressure tensor: 
-------------------------------------------------------------------------------
 1.3989e+02  2.2216e+01 -7.6574e+01 +/- 0.0000e+00 0.0000e+00 0.0000e+00 [bar]
 2.2216e+01  1.7854e+02  2.7486e+01 +/- 0.0000e+00 0.0000e+00 0.0000e+00 [bar]
-7.6574e+01  2.7486e+01  1.1978e+02 +/- 0.0000e+00 0.0000e+00 0.0000e+00 [bar]
Ideal-gas pressure:   5.195788e+02 +/ 0.000000e+00 [bar]
Excess pressure:     -3.735082e+02 +/ 0.000000e+00 [bar]
Pressure:             1.460706e+02 +/ 0.000000e+00 [bar]

Total potential energy/kʙ  -3.154320e+05 (-3.166920e+05 +/- 0.000000e+00) [K]
-------------------------------------------------------------------------------
ExternalField-molecule
    Van der Waals/kʙ        0.000000e+00 ( 0.000000e+00 +/- 0.000000e+00) [K]
Framework-molecule
    Van der Waals/kʙ        0.000000e+00 ( 0.000000e+00 +/- 0.000000e+00) [K]
    Van der Waals (Tail)/kʙ 0.000000e+00 ( 0.000000e+00 +/- 0.000000e+00) [K]
    Coulombic Real/kʙ       0.000000e+00 ( 0.000000e+00 +/- 0.000000e+00) [K]
    Coulombic Fourier/kʙ    0.000000e+00 ( 0.000000e+00 +/- 0.000000e+00) [K]
Molecule-molecule
    Van der Waals/kʙ       -2.217660e+05 (-2.303165e+05 +/- 0.000000e+00) [K]
    Van der Waals (Tail)/kʙ-5.459517e+03 (-5.589440e+03 +/- 0.000000e+00) [K]
    Coulombic Real/kʙ      -8.077765e+04 (-7.394159e+04 +/- 0.000000e+00) [K]
    Coulombic Fourier/kʙ   -7.428812e+03 (-6.844466e+03 +/- 0.000000e+00) [K]
    Molecule Intra/kʙ       0.000000e+00 ( 0.000000e+00 +/- 0.000000e+00) [K]

Current cycle: 900 out of 5000
===============================================================================

Box:      23.53802   0.00000   0.00000  Average:  23.69731   0.00000   0.00000
           0.00000  23.53802   0.00000             0.00000  23.69731   0.00000
           0.00000   0.00000  23.53802             0.00000   0.00000  23.69731
Lengths:  23.53802  23.53802  23.53802  Average:  23.69731  23.69731  23.69731
Angles:   90.00000  90.00000  90.00000  Average:  90.00000  90.00000  90.00000
Rectangular boundary conditions

net charge:   0.00000000

component 0 (CO2) lambda:  0 occupancy:  1 (1.000000)
    net charge:   0.00000000 [e]

Amount of molecules per component :
-------------------------------------------------------------------------------
Component 0 (CO2)
    molecules:      2.000000e+02 molecules  (2.000000e+02 +/- 0.000000e+00)
    number density: 1.533629e-02 molec./A^3 (1.503257e-02 +/- 0.000000e+00)
    density:        1.120496e+03 kg/m^3     (1.098305e+03 +/- 0.000000e+00)

Average pressure tensor: 
-------------------------------------------------------------------------------
 1.3288e+02  2.7571e+01 -7.5485e+01 +/- 0.0000e+00 0.0000e+00 0.0000e+00 [bar]
 2.7571e+01  1.5200e+02  3.9323e+01 +/- 0.0000e+00 0.0000e+00 0.0000e+00 [bar]
-7.5485e+01  3.9323e+01  9.9307e+01 +/- 0.0000e+00 0.0000e+00 0.0000e+00 [bar]
Ideal-gas pressure:   5.188681e+02 +/ 0.000000e+00 [bar]
Excess pressure:     -3.908048e+02 +/ 0.000000e+00 [bar]
Pressure:             1.280633e+02 +/ 0.000000e+00 [bar]

Total potential energy/kʙ  -3.255576e+05 (-3.170067e+05 +/- 0.000000e+00) [K]
-------------------------------------------------------------------------------
ExternalField-molecule
    Van der Waals/kʙ        0.000000e+00 ( 0.000000e+00 +/- 0.000000e+00) [K]
Framework-molecule
    Van der Waals/kʙ        0.000000e+00 ( 0.000000e+00 +/- 0.000000e+00) [K]
    Van der Waals (Tail)/kʙ 0.000000e+00 ( 0.000000e+00 +/- 0.000000e+00) [K]
    Coulombic Real/kʙ       0.000000e+00 ( 0.000000e+00 +/- 0.000000e+00) [K]
    Coulombic Fourier/kʙ    0.000000e+00 ( 0.000000e+00 +/- 0.000000e+00) [K]
Molecule-molecule
    Van der Waals/kʙ       -2.329061e+05 (-2.302662e+05 +/- 0.000000e+00) [K]
    Van der Waals (Tail)/kʙ-5.696217e+03 (-5.581219e+03 +/- 0.000000e+00) [K]
    Coulombic Real/kʙ      -7.954369e+04 (-7.428759e+04 +/- 0.000000e+00) [K]
    Coulombic Fourier/kʙ   -7.411546e+03 (-6.871662e+03 +/- 0.000000e+00) [K]
    Molecule Intra/kʙ       0.000000e+00 ( 0.000000e+00 +/- 0.000000e+00) [K]

Current cycle: 1000 out of 5000
===============================================================================

Box:      23.59595   0.00000   0.00000  Average:  23.68559   0.00000   0.00000
           0.00000  23.59595   0.00000             0.00000  23.68559   0.00000
           0.00000   0.00000  23.59595             0.00000   0.00000  23.68559
Lengths:  23.59595  23.59595  23.59595  Average:  23.68559  23.68559  23.68559
Angles:   90.00000  90.00000  90.00000  Average:  90.00000  90.00000  90.00000
Rectangular boundary conditions

net charge:   0.00000000

component 0 (CO2) lambda:  0 occupancy:  1 (1.000000)
    net charge:   0.00000000 [e]

Amount of molecules per component :
-------------------------------------------------------------------------------
Component 0 (CO2)
    molecules:      2.000000e+02 molecules  (2.000000e+02 +/- 0.000000e+00)
    number density: 1.522360e-02 molec./A^3 (1.505484e-02 +/- 0.000000e+00)
    density:        1.112262e+03 kg/m^3     (1.099932e+03 +/- 0.000000e+00)

Average pressure tensor: 
-------------------------------------------------------------------------------
 1.3925e+02  4.9887e+01 -8.6362e+01 +/- 0.0000e+00 0.0000e+00 0.0000e+00 [bar]
 4.9887e+01  1.5379e+02  3.4805e+01 +/- 0.0000e+00 0.0000e+00 0.0000e+00 [bar]
-8.6362e+01  3.4805e+01  1.1652e+02 +/- 0.0000e+00 0.0000e+00 0.0000e+00 [bar]
Ideal-gas pressure:   5.196368e+02 +/ 0.000000e+00 [bar]
Excess pressure:     -3.831135e+02 +/ 0.000000e+00 [bar]
Pressure:             1.365233e+02 +/ 0.000000e+00 [bar]

Total potential energy/kʙ  -3.253366e+05 (-3.175378e+05 +/- 0.000000e+00) [K]
-------------------------------------------------------------------------------
ExternalField-molecule
    Van der Waals/kʙ        0.000000e+00 ( 0.000000e+00 +/- 0.000000e+00) [K]
Framework-molecule
    Van der Waals/kʙ        0.000000e+00 ( 0.000000e+00 +/- 0.000000e+00) [K]
    Van der Waals (Tail)/kʙ 0.000000e+00 ( 0.000000e+00 +/- 0.000000e+00) [K]
    Coulombic Real/kʙ       0.000000e+00 ( 0.000000e+00 +/- 0.000000e+00) [K]
    Coulombic Fourier/kʙ    0.000000e+00 ( 0.000000e+00 +/- 0.000000e+00) [K]
Molecule-molecule
    Van der Waals/kʙ       -2.321024e+05 (-2.305418e+05 +/- 0.000000e+00) [K]
    Van der Waals (Tail)/kʙ-5.654362e+03 (-5.588156e+03 +/- 0.000000e+00) [K]
    Coulombic Real/kʙ      -8.049278e+04 (-7.451386e+04 +/- 0.000000e+00) [K]
    Coulombic Fourier/kʙ   -7.086999e+03 (-6.894029e+03 +/- 0.000000e+00) [K]
    Molecule Intra/kʙ       0.000000e+00 ( 0.000000e+00 +/- 0.000000e+00) [K]

Current cycle: 1100 out of 5000
===============================================================================

Box:      23.95354   0.00000   0.00000  Average:  23.68259   0.00000   0.00000
           0.00000  23.95354   0.00000             0.00000  23.68259   0.00000
           0.00000   0.00000  23.95354             0.00000   0.00000  23.68259
Lengths:  23.95354  23.95354  23.95354  Average:  23.68259  23.68259  23.68259
Angles:   90.00000  90.00000  90.00000  Average:  90.00000  90.00000  90.00000
Rectangular boundary conditions

net charge:   0.00000000

component 0 (CO2) lambda:  0 occupancy:  1 (1.000000)
    net charge:   0.00000000 [e]

Amount of molecules per component :
-------------------------------------------------------------------------------
Component 0 (CO2)
    molecules:      2.000000e+02 molecules  (2.000000e+02 +/- 0.000000e+00)
    number density: 1.455193e-02 molec./A^3 (1.506047e-02 +/- 0.000000e+00)
    density:        1.063189e+03 kg/m^3     (1.100344e+03 +/- 0.000000e+00)

Average pressure tensor: 
-------------------------------------------------------------------------------
 1.4086e+02  7.5090e+01 -8.0348e+01 +/- 0.0000e+00 0.0000e+00 0.0000e+00 [bar]
 7.5090e+01  1.4225e+02  2.1051e+01 +/- 0.0000e+00 0.0000e+00 0.0000e+00 [bar]
-8.0348e+01  2.1051e+01  1.2167e+02 +/- 0.0000e+00 0.0000e+00 0.0000e+00 [bar]
Ideal-gas pressure:   5.198310e+02 +/ 0.000000e+00 [bar]
Excess pressure:     -3.849065e+02 +/ 0.000000e+00 [bar]
Pressure:             1.349244e+02 +/ 0.000000e+00 [bar]

Total potential energy/kʙ  -3.096959e+05 (-3.177160e+05 +/- 0.000000e+00) [K]
-------------------------------------------------------------------------------
ExternalField-molecule
    Van der Waals/kʙ        0.000000e+00 ( 0.000000e+00 +/- 0.000000e+00) [K]
Framework-molecule
    Van der Waals/kʙ        0.000000e+00 ( 0.000000e+00 +/- 0.000000e+00) [K]
    Van der Waals (Tail)/kʙ 0.000000e+00 ( 0.000000e+00 +/- 0.000000e+00) [K]
    Coulombic Real/kʙ       0.000000e+00 ( 0.000000e+00 +/- 0.000000e+00) [K]
    Coulombic Fourier/kʙ    0.000000e+00 ( 0.000000e+00 +/- 0.000000e+00) [K]
Molecule-molecule
    Van der Waals/kʙ       -2.212260e+05 (-2.304458e+05 +/- 0.000000e+00) [K]
    Van der Waals (Tail)/kʙ-5.404890e+03 (-5.588761e+03 +/- 0.000000e+00) [K]
    Coulombic Real/kʙ      -7.573756e+04 (-7.477396e+04 +/- 0.000000e+00) [K]
    Coulombic Fourier/kʙ   -7.327465e+03 (-6.907508e+03 +/- 0.000000e+00) [K]
    Molecule Intra/kʙ       0.000000e+00 ( 0.000000e+00 +/- 0.000000e+00) [K]

Current cycle: 1200 out of 5000
===============================================================================

Box:      23.59500   0.00000   0.00000  Average:  23.69145   0.00000   0.00000
           0.00000  23.59500   0.00000             0.00000  23.69145   0.00000
           0.00000   0.00000  23.59500             0.00000   0.00000  23.69145
Lengths:  23.59500  23.59500  23.59500  Average:  23.69145  23.69145  23.69145
Angles:   90.00000  90.00000  90.00000  Average:  90.00000  90.00000  90.00000
Rectangular boundary conditions

net charge:   0.00000000

component 0 (CO2) lambda:  0 occupancy:  1 (1.000000)
    net charge:   0.00000000 [e]

Amount of molecules per component :
-------------------------------------------------------------------------------
Component 0 (CO2)
    molecules:      2.000000e+02 molecules  (2.000000e+02 +/- 0.000000e+00)
    number density: 1.522544e-02 molec./A^3 (1.504350e-02 +/- 0.000000e+00)
    density:        1.112397e+03 kg/m^3     (1.099104e+03 +/- 0.000000e+00)

Average pressure tensor: 
-------------------------------------------------------------------------------
 1.3281e+02  7.1588e+01 -6.9478e+01 +/- 0.0000e+00 0.0000e+00 0.0000e+00 [bar]
 7.1588e+01  1.3471e+02  1.7252e+00 +/- 0.0000e+00 0.0000e+00 0.0000e+00 [bar]
-6.9478e+01  1.7252e+00  1.3223e+02 +/- 0.0000e+00 0.0000e+00 0.0000e+00 [bar]
Ideal-gas pressure:   5.192452e+02 +/ 0.000000e+00 [bar]
Excess pressure:     -3.859943e+02 +/ 0.000000e+00 [bar]
Pressure:             1.332509e+02 +/ 0.000000e+00 [bar]

Total potential energy/kʙ  -3.193483e+05 (-3.178086e+05 +/- 0.000000e+00) [K]
-------------------------------------------------------------------------------
ExternalField-molecule
    Van der Waals/kʙ        0.000000e+00 ( 0.000000e+00 +/- 0.000000e+00) [K]
Framework-molecule
    Van der Waals/kʙ        0.000000e+00 ( 0.000000e+00 +/- 0.000000e+00) [K]
    Van der Waals (Tail)/kʙ 0.000000e+00 ( 0.000000e+00 +/- 0.000000e+00) [K]
    Coulombic Real/kʙ       0.000000e+00 ( 0.000000e+00 +/- 0.000000e+00) [K]
    Coulombic Fourier/kʙ    0.000000e+00 ( 0.000000e+00 +/- 0.000000e+00) [K]
Molecule-molecule
    Van der Waals/kʙ       -2.267117e+05 (-2.299644e+05 +/- 0.000000e+00) [K]
    Van der Waals (Tail)/kʙ-5.655045e+03 (-5.583901e+03 +/- 0.000000e+00) [K]
    Coulombic Real/kʙ      -7.979690e+04 (-7.532715e+04 +/- 0.000000e+00) [K]
    Coulombic Fourier/kʙ   -7.184727e+03 (-6.933207e+03 +/- 0.000000e+00) [K]
    Molecule Intra/kʙ       0.000000e+00 ( 0.000000e+00 +/- 0.000000e+00) [K]

Current cycle: 1300 out of 5000
===============================================================================

Box:      23.54614   0.00000   0.00000  Average:  23.68358   0.00000   0.00000
           0.00000  23.54614   0.00000             0.00000  23.68358   0.00000
           0.00000   0.00000  23.54614             0.00000   0.00000  23.68358
Lengths:  23.54614  23.54614  23.54614  Average:  23.68358  23.68358  23.68358
Angles:   90.00000  90.00000  90.00000  Average:  90.00000  90.00000  90.00000
Rectangular boundary conditions

net charge:   0.00000000

component 0 (CO2) lambda:  0 occupancy:  1 (1.000000)
    net charge:   0.00000000 [e]

Amount of molecules per component :
-------------------------------------------------------------------------------
Component 0 (CO2)
    molecules:      2.000000e+02 molecules  (2.000000e+02 +/- 0.000000e+00)
    number density: 1.532042e-02 molec./A^3 (1.505858e-02 +/- 0.000000e+00)
    density:        1.119336e+03 kg/m^3     (1.100206e+03 +/- 0.000000e+00)

Average pressure tensor: 
-------------------------------------------------------------------------------
 1.2935e+02  6.8450e+01 -5.5436e+01 +/- 0.0000e+00 0.0000e+00 0.0000e+00 [bar]
 6.8450e+01  1.4195e+02 -5.1138e+00 +/- 0.0000e+00 0.0000e+00 0.0000e+00 [bar]
-5.5436e+01 -5.1138e+00  1.2775e+02 +/- 0.0000e+00 0.0000e+00 0.0000e+00 [bar]
Ideal-gas pressure:   5.197659e+02 +/ 0.000000e+00 [bar]
Excess pressure:     -3.867469e+02 +/ 0.000000e+00 [bar]
Pressure:             1.330190e+02 +/ 0.000000e+00 [bar]

Total potential energy/kʙ  -3.363913e+05 (-3.183784e+05 +/- 0.000000e+00) [K]
-------------------------------------------------------------------------------
ExternalField-molecule
    Van der Waals/kʙ        0.000000e+00 ( 0.000000e+00 +/- 0.000000e+00) [K]
Framework-molecule
    Van der Waals/kʙ        0.000000e+00 ( 0.000000e+00 +/- 0.000000e+00) [K]
    Van der Waals (Tail)/kʙ 0.000000e+00 ( 0.000000e+00 +/- 0.000000e+00) [K]
    Coulombic Real/kʙ       0.000000e+00 ( 0.000000e+00 +/- 0.000000e+00) [K]
    Coulombic Fourier/kʙ    0.000000e+00 ( 0.000000e+00 +/- 0.000000e+00) [K]
Molecule-molecule
    Van der Waals/kʙ       -2.419561e+05 (-2.303597e+05 +/- 0.000000e+00) [K]
    Van der Waals (Tail)/kʙ-5.690323e+03 (-5.588798e+03 +/- 0.000000e+00) [K]
    Coulombic Real/kʙ      -8.164762e+04 (-7.549005e+04 +/- 0.000000e+00) [K]
    Coulombic Fourier/kʙ   -7.097291e+03 (-6.939905e+03 +/- 0.000000e+00) [K]
    Molecule Intra/kʙ       0.000000e+00 ( 0.000000e+00 +/- 0.000000e+00) [K]

Current cycle: 1400 out of 5000
===============================================================================

Box:      23.53027   0.00000   0.00000  Average:  23.66774   0.00000   0.00000
           0.00000  23.53027   0.00000             0.00000  23.66774   0.00000
           0.00000   0.00000  23.53027             0.00000   0.00000  23.66774
Lengths:  23.53027  23.53027  23.53027  Average:  23.66774  23.66774  23.66774
Angles:   90.00000  90.00000  90.00000  Average:  90.00000  90.00000  90.00000
Rectangular boundary conditions

net charge:   0.00000000

component 0 (CO2) lambda:  0 occupancy:  1 (1.000000)
    net charge:   0.00000000 [e]

Amount of molecules per component :
-------------------------------------------------------------------------------
Component 0 (CO2)
    molecules:      2.000000e+02 molecules  (2.000000e+02 +/- 0.000000e+00)
    number density: 1.535145e-02 molec./A^3 (1.508920e-02 +/- 0.000000e+00)
    density:        1.121603e+03 kg/m^3     (1.102443e+03 +/- 0.000000e+00)

Average pressure tensor: 
-------------------------------------------------------------------------------
 1.3470e+02  7.8655e+01 -3.8007e+01 +/- 0.0000e+00 0.0000e+00 0.0000e+00 [bar]
 7.8655e+01  1.4714e+02 -1.1418e+01 +/- 0.0000e+00 0.0000e+00 0.0000e+00 [bar]
-3.8007e+01 -1.1418e+01  1.2980e+02 +/- 0.0000e+00 0.0000e+00 0.0000e+00 [bar]
Ideal-gas pressure:   5.208226e+02 +/ 0.000000e+00 [bar]
Excess pressure:     -3.836090e+02 +/ 0.000000e+00 [bar]
Pressure:             1.372136e+02 +/ 0.000000e+00 [bar]

Total potential energy/kʙ  -3.310705e+05 (-3.191544e+05 +/- 0.000000e+00) [K]
-------------------------------------------------------------------------------
ExternalField-molecule
    Van der Waals/kʙ        0.000000e+00 ( 0.000000e+00 +/- 0.000000e+00) [K]
Framework-molecule
    Van der Waals/kʙ        0.000000e+00 ( 0.000000e+00 +/- 0.000000e+00) [K]
    Van der Waals (Tail)/kʙ 0.000000e+00 ( 0.000000e+00 +/- 0.000000e+00) [K]
    Coulombic Real/kʙ       0.000000e+00 ( 0.000000e+00 +/- 0.000000e+00) [K]
    Coulombic Fourier/kʙ    0.000000e+00 ( 0.000000e+00 +/- 0.000000e+00) [K]
Molecule-molecule
    Van der Waals/kʙ       -2.352221e+05 (-2.308574e+05 +/- 0.000000e+00) [K]
    Van der Waals (Tail)/kʙ-5.701846e+03 (-5.601424e+03 +/- 0.000000e+00) [K]
    Coulombic Real/kʙ      -8.276078e+04 (-7.573099e+04 +/- 0.000000e+00) [K]
    Coulombic Fourier/kʙ   -7.385759e+03 (-6.964607e+03 +/- 0.000000e+00) [K]
    Molecule Intra/kʙ       0.000000e+00 ( 0.000000e+00 +/- 0.000000e+00) [K]

Current cycle: 1500 out of 5000
===============================================================================

Box:      23.51517   0.00000   0.00000  Average:  23.65825   0.00000   0.00000
           0.00000  23.51517   0.00000             0.00000  23.65825   0.00000
           0.00000   0.00000  23.51517             0.00000   0.00000  23.65825
Lengths:  23.51517  23.51517  23.51517  Average:  23.65825  23.65825  23.65825
Angles:   90.00000  90.00000  90.00000  Average:  90.00000  90.00000  90.00000
Rectangular boundary conditions

net charge:   0.00000000

component 0 (CO2) lambda:  0 occupancy:  1 (1.000000)
    net charge:   0.00000000 [e]

Amount of molecules per component :
-------------------------------------------------------------------------------
Component 0 (CO2)
    molecules:      2.000000e+02 molecules  (2.000000e+02 +/- 0.000000e+00)
    number density: 1.538104e-02 molec./A^3 (1.510740e-02 +/- 0.000000e+00)
    density:        1.123765e+03 kg/m^3     (1.103773e+03 +/- 0.000000e+00)

Average pressure tensor: 
-------------------------------------------------------------------------------
 1.5142e+02  8.1187e+01 -3.2868e+01 +/- 0.0000e+00 0.0000e+00 0.0000e+00 [bar]
 8.1187e+01  1.5665e+02 -1.1434e+01 +/- 0.0000e+00 0.0000e+00 0.0000e+00 [bar]
-3.2868e+01 -1.1434e+01  1.2881e+02 +/- 0.0000e+00 0.0000e+00 0.0000e+00 [bar]
Ideal-gas pressure:   5.214509e+02 +/ 0.000000e+00 [bar]
Excess pressure:     -3.758253e+02 +/ 0.000000e+00 [bar]
Pressure:             1.456257e+02 +/ 0.000000e+00 [bar]

Total potential energy/kʙ  -3.284878e+05 (-3.197656e+05 +/- 0.000000e+00) [K]
-------------------------------------------------------------------------------
ExternalField-molecule
    Van der Waals/kʙ        0.000000e+00 ( 0.000000e+00 +/- 0.000000e+00) [K]
Framework-molecule
    Van der Waals/kʙ        0.000000e+00 ( 0.000000e+00 +/- 0.000000e+00) [K]
    Van der Waals (Tail)/kʙ 0.000000e+00 ( 0.000000e+00 +/- 0.000000e+00) [K]
    Coulombic Real/kʙ       0.000000e+00 ( 0.000000e+00 +/- 0.000000e+00) [K]
    Coulombic Fourier/kʙ    0.000000e+00 ( 0.000000e+00 +/- 0.000000e+00) [K]
Molecule-molecule
    Van der Waals/kʙ       -2.351481e+05 (-2.310533e+05 +/- 0.000000e+00) [K]
    Van der Waals (Tail)/kʙ-5.712838e+03 (-5.609190e+03 +/- 0.000000e+00) [K]
    Coulombic Real/kʙ      -8.034541e+04 (-7.613090e+04 +/- 0.000000e+00) [K]
    Coulombic Fourier/kʙ   -7.281474e+03 (-6.972262e+03 +/- 0.000000e+00) [K]
    Molecule Intra/kʙ       0.000000e+00 ( 0.000000e+00 +/- 0.000000e+00) [K]

Current cycle: 1600 out of 5000
===============================================================================

Box:      23.68031   0.00000   0.00000  Average:  23.66017   0.00000   0.00000
           0.00000  23.68031   0.00000             0.00000  23.66017   0.00000
           0.00000   0.00000  23.68031             0.00000   0.00000  23.66017
Lengths:  23.68031  23.68031  23.68031  Average:  23.66017  23.66017  23.66017
Angles:   90.00000  90.00000  90.00000  Average:  90.00000  90.00000  90.00000
Rectangular boundary conditions

net charge:   0.00000000

component 0 (CO2) lambda:  0 occupancy:  1 (1.000000)
    net charge:   0.00000000 [e]

Amount of molecules per component :
-------------------------------------------------------------------------------
Component 0 (CO2)
    molecules:      2.000000e+02 molecules  (2.000000e+02 +/- 0.000000e+00)
    number density: 1.506150e-02 molec./A^3 (1.510363e-02 +/- 0.000000e+00)
    density:        1.100419e+03 kg/m^3     (1.103497e+03 +/- 0.000000e+00)

Average pressure tensor: 
-------------------------------------------------------------------------------
 1.4965e+02  7.1830e+01 -2.8811e+01 +/- 0.0000e+00 0.0000e+00 0.0000e+00 [bar]
 7.1830e+01  1.5529e+02 -2.7382e+01 +/- 0.0000e+00 0.0000e+00 0.0000e+00 [bar]
-2.8811e+01 -2.7382e+01  1.3876e+02 +/- 0.0000e+00 0.0000e+00 0.0000e+00 [bar]
Ideal-gas pressure:   5.213208e+02 +/ 0.000000e+00 [bar]
Excess pressure:     -3.734226e+02 +/ 0.000000e+00 [bar]
Pressure:             1.478982e+02 +/ 0.000000e+00 [bar]

Total potential energy/kʙ  -3.146858e+05 (-3.194690e+05 +/- 0.000000e+00) [K]
-------------------------------------------------------------------------------
ExternalField-molecule
    Van der Waals/kʙ        0.000000e+00 ( 0.000000e+00 +/- 0.000000e+00) [K]
Framework-molecule
    Van der Waals/kʙ        0.000000e+00 ( 0.000000e+00 +/- 0.000000e+00) [K]
    Van der Waals (Tail)/kʙ 0.000000e+00 ( 0.000000e+00 +/- 0.000000e+00) [K]
    Coulombic Real/kʙ       0.000000e+00 ( 0.000000e+00 +/- 0.000000e+00) [K]
    Coulombic Fourier/kʙ    0.000000e+00 ( 0.000000e+00 +/- 0.000000e+00) [K]
Molecule-molecule
    Van der Waals/kʙ       -2.289738e+05 (-2.308243e+05 +/- 0.000000e+00) [K]
    Van der Waals (Tail)/kʙ-5.594152e+03 (-5.607830e+03 +/- 0.000000e+00) [K]
    Coulombic Real/kʙ      -7.300422e+04 (-7.606925e+04 +/- 0.000000e+00) [K]
    Coulombic Fourier/kʙ   -7.113679e+03 (-6.967600e+03 +/- 0.000000e+00) [K]
    Molecule Intra/kʙ       0.000000e+00 ( 0.000000e+00 +/- 0.000000e+00) [K]

Current cycle: 1700 out of 5000
===============================================================================

Box:      23.75525   0.00000   0.00000  Average:  23.66571   0.00000   0.00000
           0.00000  23.75525   0.00000             0.00000  23.66571   0.00000
           0.00000   0.00000  23.75525             0.00000   0.00000  23.66571
Lengths:  23.75525  23.75525  23.75525  Average:  23.66571  23.66571  23.66571
Angles:   90.00000  90.00000  90.00000  Average:  90.00000  90.00000  90.00000
Rectangular boundary conditions

net charge:   0.00000000

component 0 (CO2) lambda:  0 occupancy:  1 (1.000000)
    net charge:   0.00000000 [e]

Amount of molecules per component :
-------------------------------------------------------------------------------
Component 0 (CO2)
    molecules:      2.000000e+02 molecules  (2.000000e+02 +/- 0.000000e+00)
    number density: 1.491939e-02 molec./A^3 (1.509297e-02 +/- 0.000000e+00)
    density:        1.090036e+03 kg/m^3     (1.102718e+03 +/- 0.000000e+00)

Average pressure tensor: 
-------------------------------------------------------------------------------
 1.5492e+02  7.9615e+01 -2.0746e+01 +/- 0.0000e+00 0.0000e+00 0.0000e+00 [bar]
 7.9615e+01  1.5185e+02 -2.8678e+01 +/- 0.0000e+00 0.0000e+00 0.0000e+00 [bar]
-2.0746e+01 -2.8678e+01  1.4918e+02 +/- 0.0000e+00 0.0000e+00 0.0000e+00 [bar]
Ideal-gas pressure:   5.209529e+02 +/ 0.000000e+00 [bar]
Excess pressure:     -3.689712e+02 +/ 0.000000e+00 [bar]
Pressure:             1.519817e+02 +/ 0.000000e+00 [bar]

Total potential energy/kʙ  -3.074521e+05 (-3.192688e+05 +/- 0.000000e+00) [K]
-------------------------------------------------------------------------------
ExternalField-molecule
    Van der Waals/kʙ        0.000000e+00 ( 0.000000e+00 +/- 0.000000e+00) [K]
Framework-molecule
    Van der Waals/kʙ        0.000000e+00 ( 0.000000e+00 +/- 0.000000e+00) [K]
    Van der Waals (Tail)/kʙ 0.000000e+00 ( 0.000000e+00 +/- 0.000000e+00) [K]
    Coulombic Real/kʙ       0.000000e+00 ( 0.000000e+00 +/- 0.000000e+00) [K]
    Coulombic Fourier/kʙ    0.000000e+00 ( 0.000000e+00 +/- 0.000000e+00) [K]
Molecule-molecule
    Van der Waals/kʙ       -2.188876e+05 (-2.305183e+05 +/- 0.000000e+00) [K]
    Van der Waals (Tail)/kʙ-5.541371e+03 (-5.604537e+03 +/- 0.000000e+00) [K]
    Coulombic Real/kʙ      -7.546700e+04 (-7.614841e+04 +/- 0.000000e+00) [K]
    Coulombic Fourier/kʙ   -7.556079e+03 (-6.997562e+03 +/- 0.000000e+00) [K]
    Molecule Intra/kʙ       0.000000e+00 ( 0.000000e+00 +/- 0.000000e+00) [K]

Current cycle: 1800 out of 5000
===============================================================================

Box:      23.96936   0.00000   0.00000  Average:  23.67726   0.00000   0.00000
           0.00000  23.96936   0.00000             0.00000  23.67726   0.00000
           0.00000   0.00000  23.96936             0.00000   0.00000  23.67726
Lengths:  23.96936  23.96936  23.96936  Average:  23.67726  23.67726  23.67726
Angles:   90.00000  90.00000  90.00000  Average:  90.00000  90.00000  90.00000
Rectangular boundary conditions

net charge:   0.00000000

component 0 (CO2) lambda:  0 occupancy:  1 (1.000000)
    net charge:   0.00000000 [e]

Amount of molecules per component :
-------------------------------------------------------------------------------
Component 0 (CO2)
    molecules:      2.000000e+02 molecules  (2.000000e+02 +/- 0.000000e+00)
    number density: 1.452314e-02 molec./A^3 (1.507116e-02 +/- 0.000000e+00)
    density:        1.061085e+03 kg/m^3     (1.101125e+03 +/- 0.000000e+00)

Average pressure tensor: 
-------------------------------------------------------------------------------
 1.5531e+02  7.3919e+01 -2.0699e+01 +/- 0.0000e+00 0.0000e+00 0.0000e+00 [bar]
 7.3919e+01  1.6077e+02 -2.6054e+01 +/- 0.0000e+00 0.0000e+00 0.0000e+00 [bar]
-2.0699e+01 -2.6054e+01  1.5821e+02 +/- 0.0000e+00 0.0000e+00 0.0000e+00 [bar]
Ideal-gas pressure:   5.202001e+02 +/ 0.000000e+00 [bar]
Excess pressure:     -3.621025e+02 +/ 0.000000e+00 [bar]
Pressure:             1.580975e+02 +/ 0.000000e+00 [bar]

Total potential energy/kʙ  -3.017064e+05 (-3.184561e+05 +/- 0.000000e+00) [K]
-------------------------------------------------------------------------------
ExternalField-molecule
    Van der Waals/kʙ        0.000000e+00 ( 0.000000e+00 +/- 0.000000e+00) [K]
Framework-molecule
    Van der Waals/kʙ        0.000000e+00 ( 0.000000e+00 +/- 0.000000e+00) [K]
    Van der Waals (Tail)/kʙ 0.000000e+00 ( 0.000000e+00 +/- 0.000000e+00) [K]
    Coulombic Real/kʙ       0.000000e+00 ( 0.000000e+00 +/- 0.000000e+00) [K]
    Coulombic Fourier/kʙ    0.000000e+00 ( 0.000000e+00 +/- 0.000000e+00) [K]
Molecule-molecule
    Van der Waals/kʙ       -2.255538e+05 (-2.301014e+05 +/- 0.000000e+00) [K]
    Van der Waals (Tail)/kʙ-5.394196e+03 (-5.596052e+03 +/- 0.000000e+00) [K]
    Coulombic Real/kʙ      -6.445893e+04 (-7.576665e+04 +/- 0.000000e+00) [K]
    Coulombic Fourier/kʙ   -6.299415e+03 (-6.991972e+03 +/- 0.000000e+00) [K]
    Molecule Intra/kʙ       0.000000e+00 ( 0.000000e+00 +/- 0.000000e+00) [K]

Current cycle: 1900 out of 5000
===============================================================================

Box:      23.85081   0.00000   0.00000  Average:  23.69428   0.00000   0.00000
           0.00000  23.85081   0.00000             0.00000  23.69428   0.00000
           0.00000   0.00000  23.85081             0.00000   0.00000  23.69428
Lengths:  23.85081  23.85081  23.85081  Average:  23.69428  23.69428  23.69428
Angles:   90.00000  90.00000  90.00000  Average:  90.00000  90.00000  90.00000
Rectangular boundary conditions

net charge:   0.00000000

component 0 (CO2) lambda:  0 occupancy:  1 (1.000000)
    net charge:   0.00000000 [e]

Amount of molecules per component :
-------------------------------------------------------------------------------
Component 0 (CO2)
    molecules:      2.000000e+02 molecules  (2.000000e+02 +/- 0.000000e+00)
    number density: 1.474078e-02 molec./A^3 (1.503942e-02 +/- 0.000000e+00)
    density:        1.076987e+03 kg/m^3     (1.098806e+03 +/- 0.000000e+00)

Average pressure tensor: 
-------------------------------------------------------------------------------
 1.5918e+02  7.3541e+01 -2.1181e+01 +/- 0.0000e+00 0.0000e+00 0.0000e+00 [bar]
 7.3541e+01  1.4729e+02 -1.7821e+01 +/- 0.0000e+00 0.0000e+00 0.0000e+00 [bar]
-2.1181e+01 -1.7821e+01  1.4765e+02 +/- 0.0000e+00 0.0000e+00 0.0000e+00 [bar]
Ideal-gas pressure:   5.191045e+02 +/ 0.000000e+00 [bar]
Excess pressure:     -3.677306e+02 +/ 0.000000e+00 [bar]
Pressure:             1.513738e+02 +/ 0.000000e+00 [bar]

Total potential energy/kʙ  -3.037453e+05 (-3.177745e+05 +/- 0.000000e+00) [K]
-------------------------------------------------------------------------------
ExternalField-molecule
    Van der Waals/kʙ        0.000000e+00 ( 0.000000e+00 +/- 0.000000e+00) [K]
Framework-molecule
    Van der Waals/kʙ        0.000000e+00 ( 0.000000e+00 +/- 0.000000e+00) [K]
    Van der Waals (Tail)/kʙ 0.000000e+00 ( 0.000000e+00 +/- 0.000000e+00) [K]
    Coulombic Real/kʙ       0.000000e+00 ( 0.000000e+00 +/- 0.000000e+00) [K]
    Coulombic Fourier/kʙ    0.000000e+00 ( 0.000000e+00 +/- 0.000000e+00) [K]
Molecule-molecule
    Van der Waals/kʙ       -2.197717e+05 (-2.296469e+05 +/- 0.000000e+00) [K]
    Van der Waals (Tail)/kʙ-5.475032e+03 (-5.584788e+03 +/- 0.000000e+00) [K]
    Coulombic Real/kʙ      -7.174079e+04 (-7.556399e+04 +/- 0.000000e+00) [K]
    Coulombic Fourier/kʙ   -6.757850e+03 (-6.978851e+03 +/- 0.000000e+00) [K]
    Molecule Intra/kʙ       0.000000e+00 ( 0.000000e+00 +/- 0.000000e+00) [K]

Current cycle: 2000 out of 5000
===============================================================================

Box:      23.68375   0.00000   0.00000  Average:  23.69713   0.00000   0.00000
           0.00000  23.68375   0.00000             0.00000  23.69713   0.00000
           0.00000   0.00000  23.68375             0.00000   0.00000  23.69713
Lengths:  23.68375  23.68375  23.68375  Average:  23.69713  23.69713  23.69713
Angles:   90.00000  90.00000  90.00000  Average:  90.00000  90.00000  90.00000
Rectangular boundary conditions

net charge:   0.00000000

component 0 (CO2) lambda:  0 occupancy:  1 (1.000000)
    net charge:   0.00000000 [e]

Amount of molecules per component :
-------------------------------------------------------------------------------
Component 0 (CO2)
    molecules:      2.000000e+02 molecules  (2.000000e+02 +/- 0.000000e+00)
    number density: 1.505492e-02 molec./A^3 (1.503388e-02 +/- 0.000000e+00)
    density:        1.099938e+03 kg/m^3     (1.098401e+03 +/- 0.000000e+00)

Average pressure tensor: 
-------------------------------------------------------------------------------
 1.6259e+02  6.5977e+01 -2.7044e+01 +/- 0.0000e+00 0.0000e+00 0.0000e+00 [bar]
 6.5977e+01  1.4649e+02 -2.1595e+01 +/- 0.0000e+00 0.0000e+00 0.0000e+00 [bar]
-2.7044e+01 -2.1595e+01  1.4845e+02 +/- 0.0000e+00 0.0000e+00 0.0000e+00 [bar]
Ideal-gas pressure:   5.189132e+02 +/ 0.000000e+00 [bar]
Excess pressure:     -3.664039e+02 +/ 0.000000e+00 [bar]
Pressure:             1.525093e+02 +/ 0.000000e+00 [bar]

Total potential energy/kʙ  -3.148749e+05 (-3.171456e+05 +/- 0.000000e+00) [K]
-------------------------------------------------------------------------------
ExternalField-molecule
    Van der Waals/kʙ        0.000000e+00 ( 0.000000e+00 +/- 0.000000e+00) [K]
Framework-molecule
    Van der Waals/kʙ        0.000000e+00 ( 0.000000e+00 +/- 0.000000e+00) [K]
    Van der Waals (Tail)/kʙ 0.000000e+00 ( 0.000000e+00 +/- 0.000000e+00) [K]
    Coulombic Real/kʙ       0.000000e+00 ( 0.000000e+00 +/- 0.000000e+00) [K]
    Coulombic Fourier/kʙ    0.000000e+00 ( 0.000000e+00 +/- 0.000000e+00) [K]
Molecule-molecule
    Van der Waals/kʙ       -2.332067e+05 (-2.295377e+05 +/- 0.000000e+00) [K]
    Van der Waals (Tail)/kʙ-5.591711e+03 (-5.582044e+03 +/- 0.000000e+00) [K]
    Coulombic Real/kʙ      -6.884104e+04 (-7.505411e+04 +/- 0.000000e+00) [K]
    Coulombic Fourier/kʙ   -7.235447e+03 (-6.971757e+03 +/- 0.000000e+00) [K]
    Molecule Intra/kʙ       0.000000e+00 ( 0.000000e+00 +/- 0.000000e+00) [K]

Current cycle: 2100 out of 5000
===============================================================================

Box:      23.89443   0.00000   0.00000  Average:  23.69883   0.00000   0.00000
           0.00000  23.89443   0.00000             0.00000  23.69883   0.00000
           0.00000   0.00000  23.89443             0.00000   0.00000  23.69883
Lengths:  23.89443  23.89443  23.89443  Average:  23.69883  23.69883  23.69883
Angles:   90.00000  90.00000  90.00000  Average:  90.00000  90.00000  90.00000
Rectangular boundary conditions

net charge:   0.00000000

component 0 (CO2) lambda:  0 occupancy:  1 (1.000000)
    net charge:   0.00000000 [e]

Amount of molecules per component :
-------------------------------------------------------------------------------
Component 0 (CO2)
    molecules:      2.000000e+02 molecules  (2.000000e+02 +/- 0.000000e+00)
    number density: 1.466020e-02 molec./A^3 (1.503055e-02 +/- 0.000000e+00)
    density:        1.071099e+03 kg/m^3     (1.098158e+03 +/- 0.000000e+00)

Average pressure tensor: 
-------------------------------------------------------------------------------
 1.6547e+02  6.7490e+01 -2.2527e+01 +/- 0.0000e+00 0.0000e+00 0.0000e+00 [bar]
 6.7490e+01  1.5243e+02 -2.1139e+01 +/- 0.0000e+00 0.0000e+00 0.0000e+00 [bar]
-2.2527e+01 -2.1139e+01  1.5101e+02 +/- 0.0000e+00 0.0000e+00 0.0000e+00 [bar]
Ideal-gas pressure:   5.187985e+02 +/ 0.000000e+00 [bar]
Excess pressure:     -3.624920e+02 +/ 0.000000e+00 [bar]
Pressure:             1.563065e+02 +/ 0.000000e+00 [bar]

Total potential energy/kʙ  -3.069089e+05 (-3.169983e+05 +/- 0.000000e+00) [K]
-------------------------------------------------------------------------------
ExternalField-molecule
    Van der Waals/kʙ        0.000000e+00 ( 0.000000e+00 +/- 0.000000e+00) [K]
Framework-molecule
    Van der Waals/kʙ        0.000000e+00 ( 0.000000e+00 +/- 0.000000e+00) [K]
    Van der Waals (Tail)/kʙ 0.000000e+00 ( 0.000000e+00 +/- 0.000000e+00) [K]
[...]
    Coulombic Fourier/kʙ    0.000000e+00 ( 0.000000e+00 +/- 0.000000e+00) [K]
Molecule-molecule
    Van der Waals/kʙ       -2.319826e+05 (-2.263281e+05 +/- 4.257929e+03) [K]
    Van der Waals (Tail)/kʙ-5.707800e+03 (-5.513606e+03 +/- 8.483835e+01) [K]
    Coulombic Real/kʙ      -8.039870e+04 (-7.371942e+04 +/- 1.913899e+03) [K]
    Coulombic Fourier/kʙ   -7.354439e+03 (-6.914253e+03 +/- 1.216031e+02) [K]
    Molecule Intra/kʙ       0.000000e+00 ( 0.000000e+00 +/- 0.000000e+00) [K]

Current cycle: 4700 out of 5000
===============================================================================

Box:      23.61236   0.00000   0.00000  Average:  23.79219   0.00000   0.00000
           0.00000  23.61236   0.00000             0.00000  23.79219   0.00000
           0.00000   0.00000  23.61236             0.00000   0.00000  23.79219
Lengths:  23.61236  23.61236  23.61236  Average:  23.79219  23.79219  23.79219
Angles:   90.00000  90.00000  90.00000  Average:  90.00000  90.00000  90.00000
Rectangular boundary conditions

net charge:   0.00000000

component 0 (CO2) lambda:  0 occupancy:  1 (1.000000)
    net charge:   0.00000000 [e]

Amount of molecules per component :
-------------------------------------------------------------------------------
Component 0 (CO2)
    molecules:      2.000000e+02 molecules  (2.000000e+02 +/- 0.000000e+00)
    number density: 1.519189e-02 molec./A^3 (1.485584e-02 +/- 2.258601e-04)
    density:        1.109945e+03 kg/m^3     (1.085393e+03 +/- 1.650173e+01)

Average pressure tensor: 
-------------------------------------------------------------------------------
 1.9930e+02  2.7047e+01 -1.9238e+01 +/- 6.9244e+01 4.8629e+01 8.7123e+01 [bar]
 2.7047e+01  1.0368e+02 -9.8666e+00 +/- 4.8629e+01 6.2745e+01 9.9799e+01 [bar]
-1.9238e+01 -9.8666e+00  1.6588e+02 +/- 8.7123e+01 9.9799e+01 4.6468e+01 [bar]
Ideal-gas pressure:   5.127680e+02 +/ 7.795846e+00 [bar]
Excess pressure:     -3.564818e+02 +/ 2.104361e+01 [bar]
Pressure:             1.562861e+02 +/ 1.674180e+01 [bar]

Total potential energy/kʙ  -3.261268e+05 (-3.128327e+05 +/- 5.330993e+03) [K]
-------------------------------------------------------------------------------
ExternalField-molecule
    Van der Waals/kʙ        0.000000e+00 ( 0.000000e+00 +/- 0.000000e+00) [K]
Framework-molecule
    Van der Waals/kʙ        0.000000e+00 ( 0.000000e+00 +/- 0.000000e+00) [K]
    Van der Waals (Tail)/kʙ 0.000000e+00 ( 0.000000e+00 +/- 0.000000e+00) [K]
    Coulombic Real/kʙ       0.000000e+00 ( 0.000000e+00 +/- 0.000000e+00) [K]
    Coulombic Fourier/kʙ    0.000000e+00 ( 0.000000e+00 +/- 0.000000e+00) [K]
Molecule-molecule
    Van der Waals/kʙ       -2.321371e+05 (-2.265266e+05 +/- 4.111000e+03) [K]
    Van der Waals (Tail)/kʙ-5.642582e+03 (-5.517096e+03 +/- 8.317764e+01) [K]
    Coulombic Real/kʙ      -8.098878e+04 (-7.386736e+04 +/- 1.724798e+03) [K]
    Coulombic Fourier/kʙ   -7.358309e+03 (-6.921675e+03 +/- 1.256948e+02) [K]
    Molecule Intra/kʙ       0.000000e+00 ( 0.000000e+00 +/- 0.000000e+00) [K]

Current cycle: 4800 out of 5000
===============================================================================

Box:      23.47168   0.00000   0.00000  Average:  23.79040   0.00000   0.00000
           0.00000  23.47168   0.00000             0.00000  23.79040   0.00000
           0.00000   0.00000  23.47168             0.00000   0.00000  23.79040
Lengths:  23.47168  23.47168  23.47168  Average:  23.79040  23.79040  23.79040
Angles:   90.00000  90.00000  90.00000  Average:  90.00000  90.00000  90.00000
Rectangular boundary conditions

net charge:   0.00000000

component 0 (CO2) lambda:  0 occupancy:  1 (1.000000)
    net charge:   0.00000000 [e]

Amount of molecules per component :
-------------------------------------------------------------------------------
Component 0 (CO2)
    molecules:      2.000000e+02 molecules  (2.000000e+02 +/- 0.000000e+00)
    number density: 1.546669e-02 molec./A^3 (1.485913e-02 +/- 2.256515e-04)
    density:        1.130023e+03 kg/m^3     (1.085633e+03 +/- 1.648648e+01)

Average pressure tensor: 
-------------------------------------------------------------------------------
 2.0013e+02  2.6031e+01 -1.7026e+01 +/- 6.6291e+01 4.9079e+01 8.3069e+01 [bar]
 2.6031e+01  1.0440e+02 -1.0595e+01 +/- 4.9079e+01 6.2957e+01 9.8846e+01 [bar]
-1.7026e+01 -1.0595e+01  1.6665e+02 +/- 8.3069e+01 9.8846e+01 4.5424e+01 [bar]
Ideal-gas pressure:   5.128815e+02 +/ 7.788645e+00 [bar]
Excess pressure:     -3.558244e+02 +/ 2.142401e+01 [bar]
Pressure:             1.570571e+02 +/ 1.730870e+01 [bar]

Total potential energy/kʙ  -3.324117e+05 (-3.130915e+05 +/- 5.336332e+03) [K]
-------------------------------------------------------------------------------
ExternalField-molecule
    Van der Waals/kʙ        0.000000e+00 ( 0.000000e+00 +/- 0.000000e+00) [K]
Framework-molecule
    Van der Waals/kʙ        0.000000e+00 ( 0.000000e+00 +/- 0.000000e+00) [K]
    Van der Waals (Tail)/kʙ 0.000000e+00 ( 0.000000e+00 +/- 0.000000e+00) [K]
    Coulombic Real/kʙ       0.000000e+00 ( 0.000000e+00 +/- 0.000000e+00) [K]
    Coulombic Fourier/kʙ    0.000000e+00 ( 0.000000e+00 +/- 0.000000e+00) [K]
Molecule-molecule
    Van der Waals/kʙ       -2.336331e+05 (-2.265861e+05 +/- 4.103150e+03) [K]
    Van der Waals (Tail)/kʙ-5.744649e+03 (-5.518606e+03 +/- 8.323366e+01) [K]
    Coulombic Real/kʙ      -8.605846e+04 (-7.405729e+04 +/- 1.773337e+03) [K]
    Coulombic Fourier/kʙ   -6.975464e+03 (-6.929507e+03 +/- 1.332118e+02) [K]
    Molecule Intra/kʙ       0.000000e+00 ( 0.000000e+00 +/- 0.000000e+00) [K]

Current cycle: 4900 out of 5000
===============================================================================

Box:      23.78613   0.00000   0.00000  Average:  23.78813   0.00000   0.00000
           0.00000  23.78613   0.00000             0.00000  23.78813   0.00000
           0.00000   0.00000  23.78613             0.00000   0.00000  23.78813
Lengths:  23.78613  23.78613  23.78613  Average:  23.78813  23.78813  23.78813
Angles:   90.00000  90.00000  90.00000  Average:  90.00000  90.00000  90.00000
Rectangular boundary conditions

net charge:   0.00000000

component 0 (CO2) lambda:  0 occupancy:  1 (1.000000)
    net charge:   0.00000000 [e]

Amount of molecules per component :
-------------------------------------------------------------------------------
Component 0 (CO2)
    molecules:      2.000000e+02 molecules  (2.000000e+02 +/- 0.000000e+00)
    number density: 1.486136e-02 molec./A^3 (1.486335e-02 +/- 2.261188e-04)
    density:        1.085796e+03 kg/m^3     (1.085942e+03 +/- 1.652062e+01)

Average pressure tensor: 
-------------------------------------------------------------------------------
 1.9774e+02  2.5007e+01 -1.6190e+01 +/- 6.8326e+01 4.9521e+01 8.1756e+01 [bar]
 2.5007e+01  1.0473e+02 -1.1133e+01 +/- 4.9521e+01 6.2974e+01 9.7965e+01 [bar]
-1.6190e+01 -1.1133e+01  1.6853e+02 +/- 8.1756e+01 9.7965e+01 4.7283e+01 [bar]
Ideal-gas pressure:   5.130271e+02 +/ 7.804774e+00 [bar]
Excess pressure:     -3.560260e+02 +/ 2.116997e+01 [bar]
Pressure:             1.570011e+02 +/ 1.710418e+01 [bar]

Total potential energy/kʙ  -3.108944e+05 (-3.131477e+05 +/- 5.348881e+03) [K]
-------------------------------------------------------------------------------
ExternalField-molecule
    Van der Waals/kʙ        0.000000e+00 ( 0.000000e+00 +/- 0.000000e+00) [K]
Framework-molecule
    Van der Waals/kʙ        0.000000e+00 ( 0.000000e+00 +/- 0.000000e+00) [K]
    Van der Waals (Tail)/kʙ 0.000000e+00 ( 0.000000e+00 +/- 0.000000e+00) [K]
    Coulombic Real/kʙ       0.000000e+00 ( 0.000000e+00 +/- 0.000000e+00) [K]
    Coulombic Fourier/kʙ    0.000000e+00 ( 0.000000e+00 +/- 0.000000e+00) [K]
Molecule-molecule
    Van der Waals/kʙ       -2.245712e+05 (-2.266411e+05 +/- 4.105302e+03) [K]
    Van der Waals (Tail)/kʙ-5.519817e+03 (-5.519974e+03 +/- 8.347707e+01) [K]
    Coulombic Real/kʙ      -7.418225e+04 (-7.405825e+04 +/- 1.763552e+03) [K]
    Coulombic Fourier/kʙ   -6.621091e+03 (-6.928367e+03 +/- 1.299441e+02) [K]
    Molecule Intra/kʙ       0.000000e+00 ( 0.000000e+00 +/- 0.000000e+00) [K]


Energy statistics             |  Energy [K]   | Recomputed [K]|  Drift [K]    |
===============================================================================
Total potential energy/kʙ     | -3.043379e+05 | -3.043379e+05 | -1.925214e-10 |
    external field VDW/kʙ     |  0.000000e+00 |  0.000000e+00 |  0.000000e+00 |
    external field Real/kʙ    |  0.000000e+00 |  0.000000e+00 |  0.000000e+00 |
    framework-molecule VDW/kʙ |  0.000000e+00 |  0.000000e+00 |  0.000000e+00 |
    framework-molecule Real/kʙ|  0.000000e+00 |  0.000000e+00 |  0.000000e+00 |
    molecule-molecule VDW/kʙ  | -2.232608e+05 | -2.232608e+05 |  7.000777e-11 |
    molecule-molecule Real/kʙ | -6.931107e+04 | -6.931107e+04 |  2.887820e-10 |
    Van der Waals (Tail)/kʙ   | -5.511375e+03 | -5.511375e+03 |  0.000000e+00 |
    Ewald Fourier/kʙ          |  5.506463e+03 |  5.506463e+03 |  8.750971e-12 |
    Ewald self/kʙ             | -3.673356e+06 | -3.673356e+06 |  0.000000e+00 |
    Ewald exclusion/kʙ        |  3.661595e+06 |  3.661595e+06 | -5.600621e-10 |
    intra VDW/kʙ              |  0.000000e+00 |  0.000000e+00 |  0.000000e+00 |
    intra Coulombic/kʙ        |  0.000000e+00 |  0.000000e+00 |  0.000000e+00 |
    polarization/kʙ           |  0.000000e+00 |  0.000000e+00 |  0.000000e+00 |
    dU/dlambda VDW/kʙ         |  0.000000e+00 |  0.000000e+00 |  0.000000e+00 |
    dU/dlambda Real/kʙ        |  0.000000e+00 |  0.000000e+00 |  0.000000e+00 |
    dU/dlambda Ewald/kʙ       |  0.000000e+00 |  0.000000e+00 |  0.000000e+00 |
-------------------------------------------------------------------------------


Monte-Carlo moves statistics
===============================================================================

    Volume change        all:                6600
    Volume change        total:              6600
    Volume change        constructed:        6600
    Volume change        accepted:           3483
    Volume change        fraction:       0.527727
    Volume change        max-change:     0.025000

Component 0 [CO2]
    Reinsertion (CBMC)   all:              331015
    Reinsertion (CBMC)   total:            331015
    Reinsertion (CBMC)   constructed:      287109
    Reinsertion (CBMC)   accepted:           3326
    Reinsertion (CBMC)   fraction:       0.010048
    Reinsertion (CBMC)   max-change:     0.000000

    Translation          all:              331196
    Translation          total:            110482     110515     110199
    Translation          constructed:      110482     110464     110199
    Translation          accepted:          61529      38981      56083
    Translation          fraction:       0.556914   0.352721   0.508925
    Translation          max-change:     0.541667   1.028571   0.629630

    Rotation             all:              331189
    Rotation             total:            110407     110432     110350
    Rotation             constructed:      110315     110432     110350
    Rotation             accepted:          39620      60233      52138
    Rotation             fraction:       0.358854   0.545431   0.472478
    Rotation             max-change:     1.091358   0.588235   0.720000



Production run counting of the MC moves summed over systems and components
===============================================================================

Volume change                          6600 (0.6600 [%])
Reinsertion (CBMC)                   331015 (33.1015 [%])
Translation                          331196 (33.1196 [%])
Rotation                             331189 (33.1189 [%])

Production count MC-steps:          1000000 [-]
               All summed:          1000000 [-]
               difference:                0 [-]


Production run CPU timings of the MC moves
===============================================================================

Component 0 CO2

Rotation                             47.308950 [s]
    Ewald                            13.689158 [s]
    ExternalField-Molecule            0.010956 [s]
    Framework-Molecule                0.010471 [s]
    Molecule-Molecule                32.479007 [s]
    Overhead                          1.119358 [s]

Reinsertion (CBMC)                  220.140785 [s]
    Ewald                            11.673040 [s]
    NonEwald                        208.175180 [s]
    Overhead                          0.292565 [s]

Translation                          47.365779 [s]
    Ewald                            13.660015 [s]
    ExternalField-Molecule            0.010875 [s]
    Framework-Molecule                0.020348 [s]
    Molecule-Molecule                32.578650 [s]
    Overhead                          1.095891 [s]



Volume change                         53.486233 [s]
    Ewald                              9.527433 [s]
    NonEwald                          42.494451 [s]
    Tail                               1.242383 [s]

Property sampling                     0.285422 [s]
Energy/pressure sampling:             6.337257 [s]


Production run CPU timings of the MC moves summed over systems and components
===============================================================================


Translation                          47.365779 [s]
    Ewald                            13.660015 [s]
    ExternalField-Molecule            0.010875 [s]
    Framework-Molecule                0.020348 [s]
    Molecule-Molecule                32.578650 [s]
    Overhead                          1.095891 [s]

Rotation                             47.308950 [s]
    Ewald                            13.689158 [s]
    ExternalField-Molecule            0.010956 [s]
    Framework-Molecule                0.010471 [s]
    Molecule-Molecule                32.479007 [s]
    Overhead                          1.119358 [s]

Volume change                        53.486233 [s]
    Ewald                             9.527433 [s]
    NonEwald                         42.494451 [s]
    Tail                              1.242383 [s]
    Overhead                          0.221966 [s]

Reinsertion (CBMC)                  220.140785 [s]
    Ewald                            11.673040 [s]
    NonEwald                        208.175180 [s]
    Overhead                          0.292565 [s]

Property sampling:                    0.285422 [s]
Energy/pressure sampling:             6.337257 [s]

Production simulation time:         375.579781 [s]
                All summed:         374.924426 [s]
                  Overhead:           0.655355 [s]


Initalization simulation time:       71.986305 [s]
Equilibration simulation time:        0.000000 [s]
Production simulation time:         375.579781 [s]
Total simulation time:              447.566086 [s]


Energy averages and statistics:
===============================================================================

Framework-molecule energy:
-------------------------------------------------------------------------------



Framework-molecule energy contributions per energy type:
-------------------------------------------------------------------------------



Inter-molecular energy:
-------------------------------------------------------------------------------

    Inter-molecular energy/kʙ 0-0 [CO2-CO2]:
    ---------------------------------------------------------------------------
        Block[  0] -3.174598e+05
        Block[  1] -3.168542e+05
        Block[  2] -3.097776e+05
        Block[  3] -3.076911e+05
        Block[  4] -3.140673e+05
        -----------------------------------------------------------------------
        Average  -3.131700e+05 +/-  5.350854e+03 [K]



Inter-molecular energy contributions per energy type:
-------------------------------------------------------------------------------

    Van der Waals energy/kʙ 0-0 [CO2-CO2]:
    ---------------------------------------------------------------------------
        Block[  0] -2.305262e+05
        Block[  1] -2.285126e+05
        Block[  2] -2.256041e+05
        Block[  3] -2.217392e+05
        Block[  4] -2.270212e+05
        -----------------------------------------------------------------------
        Average  -2.266807e+05 +/-  4.109832e+03 [K]

    VDW Tail-Correction energy/kʙ 0-0 [CO2-CO2]:
    ---------------------------------------------------------------------------
        Block[  0] -5.587494e+03
        Block[  1] -5.576498e+03
        Block[  2] -5.478360e+03
        Block[  3] -5.427853e+03
        Block[  4] -5.529533e+03
        -----------------------------------------------------------------------
        Average  -5.519948e+03 +/-  8.342611e+01 [K]

    Coulomb Real energy/kʙ 0-0 [CO2-CO2]:
    ---------------------------------------------------------------------------
        Block[  0] -7.445407e+04
        Block[  1] -7.571629e+04
        Block[  2] -7.191961e+04
        Block[  3] -7.358842e+04
        Block[  4] -7.453661e+04
        -----------------------------------------------------------------------
        Average  -7.404300e+04 +/-  1.747771e+03 [K]

    Coulomb Fourier energy/kʙ 0-0 [CO2-CO2]:
    ---------------------------------------------------------------------------
        Block[  0] -6.892099e+03
        Block[  1] -7.048779e+03
        Block[  2] -6.775454e+03
        Block[  3] -6.935587e+03
        Block[  4] -6.979952e+03
        -----------------------------------------------------------------------
        Average  -6.926374e+03 +/-  1.270454e+02 [K]


Total energy/kʙ
-------------------------------------------------------------------------------
    Block[  0] -3.174598e+05
    Block[  1] -3.168542e+05
    Block[  2] -3.097776e+05
    Block[  3] -3.076911e+05
    Block[  4] -3.140673e+05
    ---------------------------------------------------------------------------
    Average  -3.131700e+05 +/-  5.350854e+03 [K]

Pressure averages and statistics:
===============================================================================

Average pressure tensor: 
-------------------------------------------------------------------------------
 1.9944e+02  2.2715e+01 -2.2734e+01 +/- 6.5201e+01 5.1787e+01 8.7257e+01 [bar]
 2.2715e+01  1.0373e+02 -9.4889e+00 +/- 5.1787e+01 6.2525e+01 9.5233e+01 [bar]
-2.2734e+01 -9.4889e+00  1.6789e+02 +/- 8.7257e+01 9.5233e+01 4.3674e+01 [bar]

    Block[  0]  5.196310e+07
    Block[  1]  5.181947e+07
    Block[  2]  5.090217e+07
    Block[  3]  5.045903e+07
    Block[  4]  5.137397e+07
    ---------------------------------------------------------------------------
    Ideal gas pressure   5.130355e+07 +/-  4.699444e-02 [Pa]
                         5.130355e+02 +/-  7.803616e+00 [bar]


    Block[  0] -3.831449e+07
    Block[  1] -3.494440e+07
    Block[  2] -3.594048e+07
    Block[  3] -3.377600e+07
    Block[  4] -3.503261e+07
    ---------------------------------------------------------------------------
    Excess pressure  -3.560160e+07 +/-  2.110771e+06 [Pa]
                     -3.560160e+02 +/-  2.110771e+01 [bar]


    Block[  0]  1.364861e+07
    Block[  1]  1.687506e+07
    Block[  2]  1.496168e+07
    Block[  3]  1.668303e+07
    Block[  4]  1.634136e+07
    ---------------------------------------------------------------------------
    Pressure average   1.570195e+07 +/-  1.701277e+06 [Pa]
                       1.570195e+02 +/-  1.701277e+01 [bar]


Enthalpy of adsorption
===============================================================================

No fluctuating components present.


Densities
===============================================================================

Component 0 (CO2)
    Block[  0] 200
    Block[  1] 200
    Block[  2] 200
    Block[  3] 200
    Block[  4] 200
    -----------------------------------------------------------------------
    Density average   2.000000e+02 +/-  0.000000e+00 [molecules]
    Density average   1.486359e-02 +/-  2.260852e-04 [molec/A^3]
    Density average   1.085959e+03 +/-  1.651817e+01 [kg.m⁻³]

