Compiler and run-time data
===============================================================================
RASPA 3.0.4

Random seed: 198960220

Compiled as a 64-bits application
Compiler: gcc Ubuntu Clang 18.1.3 (1ubuntu1)
Compile Date = Mar 15 2025, Compile Time = 19:39:45

2025-06-02 12:44:41.160051
Simulation started on Mon, Jun 02
The start time was 12:44:00

Hostname:    c062
OS type:     Linux on x86_64
OS release:  6.8.0-58-generic
OS version:  #60-Ubuntu SMP PREEMPT_DYNAMIC Fri Mar 14 18:29:48 UTC 2025


Mutual consistent basic set of units:
===============================================================================

Unit of temperature: 1 [K]
Unit of length:      1e-10 [m]
Unit of time:        1e-12 [s]
Unit of mass:        1.6605402e-27 [kg]
Unit of charge:      1.60217733e-19 [C/particle]


Boltzmann constant (internal units):          0.8314464919307584 [-]
represents conversion from energy (internal units) to temperature (in Kelvin)

Derived units and their conversion factors:
===============================================================================

Unit of energy:                           1.6605402000000002e-23 [J]
Unit of energy:                           10.000008872307538 [J.mol⁻¹]
Unit of velocity:                         100 [m.s⁻¹]
Unit of force:                            1.6605402000000002e-13 [N]
Unit of diffusion:                        1.0000000000000002e-08 [m².s⁻¹]
Unit of acceleration:                     1.0000000000000002e-08 [m².s⁻¹]
Unit of torque:                           1.6605402000000002e-23 [N.m]
Unit of pressure:                         16605402 [Pa]
Unit of volume:                           1e-30 [m³]
Unit of density:                          1660.5402 [kg.m⁻³]
Unit of dynamic viscosity:                1.6605401999999997e-05 [N.s.m⁻²]
Unit of enthalpy:                         1.6605402000000002e-23 [J]
Unit of polarizability:                   1.5458657349975198e-35 [-]
Unit of Coulomb potential:                167101.08000665612 [K]
Unit of dielectric constant:              1.5458657349975193e-05 [s².C².kg⁻¹.m⁻³]
Unit of dipole moment:                    1.60217733e-29 [C.m]
Unit of Debye:                            4.803206799099162 [C.m]
Unit of electric potential:               0.00010364272224473431 [V]
Unit of electric field:                   1036427.222447343 [V.m⁻¹]
Unit of isothermal compressibility:       6.02213665167516e-08 [Pa⁻¹]
Unit of heat capacity:                    10.000008872307538 [J.mol⁻¹.K⁻¹]
Unit of volumetric expansion coefficient: 1 [K⁻¹]


Internal conversion factors:
===============================================================================

Energy (internal units) to Kelvin:      1.202724284692786 [-]
Kelvin to energy (internal units):      0.8314457542157567 [-]


System definitions
===============================================================================

Temperature:          250 [K]
Beta:                 0.0048108928702210625 [-]
Pressure:             2e+07 [Pa]
Helium void fraction: 1 [-]

Box:      30.00000   0.00000   0.00000
           0.00000  30.00000   0.00000
           0.00000   0.00000  30.00000
Lengths:  30.00000  30.00000  30.00000
Angles:   90.00000  90.00000  90.00000
Rectangular boundary conditions



Property measurement settings
===============================================================================




Pseudo-atoms
===============================================================================

  0 - C_co2    framework-atom: false
  1 - O_co2    framework-atom: false

  0 - C_co2    mass: 12.00000, charge:  0.70000
  1 - O_co2    mass: 15.99940, charge: -0.35000

  0 - C_co2    polarizability:  0.00000
  1 - O_co2    polarizability:  0.00000

  0 - J. J. Potoff et al., AIChE J. 2001, 47, 1676–1682.
  1 - J. J. Potoff et al., AIChE J. 2001, 47, 1676–1682.

Force field status
===============================================================================

Cutoff Framework-Molecule VDW:  12.00000 [Å]
Cutoff Molecule-Molecule VDW:   12.00000 [Å]
Cutoff Coulomb:                 12.00000 [Å]

Overlap-criteria VDW:           1.000000e+05 [K]

C_co2    - C_co2    Lennard-Jones p₀/kʙ:  27.00000 [K], p₁:  2.80000 [Å]
                                  shift:   0.00000 [K], tailcorrections: true
C_co2    - O_co2    Lennard-Jones p₀/kʙ:  46.18441 [K], p₁:  2.92500 [Å]
                                  shift:   0.00000 [K], tailcorrections: true
O_co2    - O_co2    Lennard-Jones p₀/kʙ:  79.00000 [K], p₁:  3.05000 [Å]
                                  shift:   0.00000 [K], tailcorrections: true

Ewald precision: 1e-06
Ewald alpha: 0.26505830360350674
Ewald k-vectors: 8 8 8


Component definitions
===============================================================================

Component 0 [CO2]

    Type: Adsorbate

    Critical temperature:  304.1282 [K]
    Critical pressure:     7377300 [Pa]
    Acentric factor:       0.22394 [-]

    Mol-fraction:                 1 [-]
    Swappable:                   false

    Mass:                         43.9988 [-]
    Bulk fluid density:           0 [-]
    Compressibility:              0 [-]
    Excess molecules:             0 [-]

    Number Of Atoms:    3
    CBMC starting bead: 0
      0: O_co2  position  0.00000 -0.00000  1.16000, charge -0.35000
      1: C_co2  position  0.00000 -0.00000  0.00000, charge  0.70000
      2: O_co2  position  0.00000 -0.00000 -1.16000, charge -0.35000
    Diagonalized inertia-vector:      43.05758528 43.05758528 0.00000000
    Translational degrees of freedom: 3
    Rotational degrees of freedom:    2
    Shape of the molecule is: 'Linear'
    Net-charge:        0.00000000 [e]

    Move probabilities:
    Translation:                   0.331126 [-]
    Random translation:            0.000000 [-]
    Rotation:                      0.331126 [-]
    Random rotation:               0.000000 [-]
    Volume change:                 0.006623 [-]
    Reinsertion (CBMC):            0.331126 [-]
    Identity change (CBMC):        0.000000 [-]
    Swap:                          0.000000 [-]
    Swap (CBMC):                   0.000000 [-]
    Swap (CFCMC):                  0.000000 [-]
    Swap (CB/CFCMC):               0.000000 [-]
    Gibbs volume:                  0.000000 [-]
    Gibbs swap (CBMC):             0.000000 [-]
    Gibbs swap (CFCMC):            0.000000 [-]
    Widom:                         0.000000 [-]
    Widom (CFCMC):                 0.000000 [-]
    Widom (CB/CFCMC):              0.000000 [-]
    Parallel tempering:            0.000000 [-]
    Hybrid MC:                     0.000000 [-]

    number of blocking-pockets: 0

    number of bonds: 0





Number of pseudo-atoms
===============================================================================

Component   0 (CO2)
-------------------------------------------------------------------------------
    index   0 (C_co2): 200 atoms
    index   1 (O_co2): 400 atoms

Total number of pseudo-atoms:
-------------------------------------------------------------------------------
    index   0 (C_co2): 200 atoms
    index   1 (O_co2): 400 atoms




Energy status Recomputed from scratch
===============================================================================

Total potential energy/kʙ       -6.015558e+04 [K]
    external field VDW/kʙ        0.000000e+00 [K]
    external field Real/kʙ       0.000000e+00 [K]
    framework-molecule VDW/kʙ    0.000000e+00 [K]
    framework-molecule Real/kʙ   0.000000e+00 [K]
    molecule-molecule VDW/kʙ    -3.563205e+04 [K]
    molecule-molecule Real/kʙ   -2.089570e+04 [K]
    Van der Waals (Tail)/kʙ     -2.751265e+03 [K]
    Ewald Fourier/kʙ             1.088457e+04 [K]
    Ewald self/kʙ               -3.673356e+06 [K]
    Ewald exclusion/kʙ           3.661595e+06 [K]
    intra VDW/kʙ                 0.000000e+00 [K]
    intra Coulombic/kʙ           0.000000e+00 [K]
    polarization/kʙ              0.000000e+00 [K]
    dU/dlambda VDW/kʙ            0.000000e+00 [K]
    dU/dlambda Real/kʙ           0.000000e+00 [K]
    dU/dlambda Ewald/kʙ          0.000000e+00 [K]





Initialization: Current cycle: 0 out of 1000
===============================================================================

Box:      30.00000   0.00000   0.00000
           0.00000  30.00000   0.00000
           0.00000   0.00000  30.00000
Lengths:  30.00000  30.00000  30.00000
Angles:   90.00000  90.00000  90.00000
Rectangular boundary conditions

net charge:   0.00000000

component   0 (CO2) lambda:  0 occupancy:  1 (1.000000)
    net charge:   0.00000000 [e]

Amount of molecules per component :
-------------------------------------------------------------------------------
Component 0 (CO2)
    molecules:         2.000000e+02 molecules
    number density:    7.407407e-03 molec/A^3
    density:           5.411979e+02 kg/m^3

Total potential energy/kʙ       -7.805469e+04 [K]
-------------------------------------------------------------------------------
    external field VDW/kʙ        0.000000e+00 [K]
    external field Real/kʙ       0.000000e+00 [K]
    framework-molecule VDW/kʙ    0.000000e+00 [K]
    framework-molecule Real/kʙ   0.000000e+00 [K]
    molecule-molecule VDW/kʙ    -4.969832e+04 [K]
    molecule-molecule Real/kʙ   -2.403515e+04 [K]
    Van der Waals (Tail)/kʙ     -2.751265e+03 [K]
    Ewald Fourier/kʙ             1.019117e+04 [K]
    Ewald self/kʙ               -3.673356e+06 [K]
    Ewald exclusion/kʙ           3.661595e+06 [K]
    intra VDW/kʙ                 0.000000e+00 [K]
    intra Coulombic/kʙ           0.000000e+00 [K]
    polarization/kʙ              0.000000e+00 [K]
    dU/dlambda VDW/kʙ            0.000000e+00 [K]
    dU/dlambda Real/kʙ           0.000000e+00 [K]
    dU/dlambda Ewald/kʙ          0.000000e+00 [K]


Initialization: Current cycle: 100 out of 1000
===============================================================================

Box:      26.15043   0.00000   0.00000
           0.00000  26.15043   0.00000
           0.00000   0.00000  26.15043
Lengths:  26.15043  26.15043  26.15043
Angles:   90.00000  90.00000  90.00000
Rectangular boundary conditions

net charge:   0.00000000

component   0 (CO2) lambda:  0 occupancy:  1 (1.000000)
    net charge:   0.00000000 [e]

Amount of molecules per component :
-------------------------------------------------------------------------------
Component 0 (CO2)
    molecules:         2.000000e+02 molecules
    number density:    1.118391e-02 molec/A^3
    density:           8.171154e+02 kg/m^3

Total potential energy/kʙ       -2.405599e+05 [K]
-------------------------------------------------------------------------------
    external field VDW/kʙ        0.000000e+00 [K]
    external field Real/kʙ       0.000000e+00 [K]
    framework-molecule VDW/kʙ    0.000000e+00 [K]
    framework-molecule Real/kʙ   0.000000e+00 [K]
    molecule-molecule VDW/kʙ    -1.750658e+05 [K]
    molecule-molecule Real/kʙ   -5.617025e+04 [K]
    Van der Waals (Tail)/kʙ     -4.153936e+03 [K]
    Ewald Fourier/kʙ             6.591252e+03 [K]
    Ewald self/kʙ               -3.673356e+06 [K]
    Ewald exclusion/kʙ           3.661595e+06 [K]
    intra VDW/kʙ                 0.000000e+00 [K]
    intra Coulombic/kʙ           0.000000e+00 [K]
    polarization/kʙ              0.000000e+00 [K]
    dU/dlambda VDW/kʙ            0.000000e+00 [K]
    dU/dlambda Real/kʙ           0.000000e+00 [K]
    dU/dlambda Ewald/kʙ          0.000000e+00 [K]


Initialization: Current cycle: 200 out of 1000
===============================================================================

Box:      24.58601   0.00000   0.00000
           0.00000  24.58601   0.00000
           0.00000   0.00000  24.58601
Lengths:  24.58601  24.58601  24.58601
Angles:   90.00000  90.00000  90.00000
Rectangular boundary conditions

net charge:   0.00000000

component   0 (CO2) lambda:  0 occupancy:  1 (1.000000)
    net charge:   0.00000000 [e]

Amount of molecules per component :
-------------------------------------------------------------------------------
Component 0 (CO2)
    molecules:         2.000000e+02 molecules
    number density:    1.345755e-02 molec/A^3
    density:           9.832318e+02 kg/m^3

Total potential energy/kʙ       -2.840706e+05 [K]
-------------------------------------------------------------------------------
    external field VDW/kʙ        0.000000e+00 [K]
    external field Real/kʙ       0.000000e+00 [K]
    framework-molecule VDW/kʙ    0.000000e+00 [K]
    framework-molecule Real/kʙ   0.000000e+00 [K]
    molecule-molecule VDW/kʙ    -2.042273e+05 [K]
    molecule-molecule Real/kʙ   -6.801547e+04 [K]
    Van der Waals (Tail)/kʙ     -4.998415e+03 [K]
    Ewald Fourier/kʙ             4.931701e+03 [K]
    Ewald self/kʙ               -3.673356e+06 [K]
    Ewald exclusion/kʙ           3.661595e+06 [K]
    intra VDW/kʙ                 0.000000e+00 [K]
    intra Coulombic/kʙ           0.000000e+00 [K]
    polarization/kʙ              0.000000e+00 [K]
    dU/dlambda VDW/kʙ            0.000000e+00 [K]
    dU/dlambda Real/kʙ           0.000000e+00 [K]
    dU/dlambda Ewald/kʙ          0.000000e+00 [K]


Initialization: Current cycle: 300 out of 1000
===============================================================================

Box:      24.06543   0.00000   0.00000
           0.00000  24.06543   0.00000
           0.00000   0.00000  24.06543
Lengths:  24.06543  24.06543  24.06543
Angles:   90.00000  90.00000  90.00000
Rectangular boundary conditions

net charge:   0.00000000

component   0 (CO2) lambda:  0 occupancy:  1 (1.000000)
    net charge:   0.00000000 [e]

Amount of molecules per component :
-------------------------------------------------------------------------------
Component 0 (CO2)
    molecules:         2.000000e+02 molecules
    number density:    1.434991e-02 molec/A^3
    density:           1.048429e+03 kg/m^3

Total potential energy/kʙ       -3.094110e+05 [K]
-------------------------------------------------------------------------------
    external field VDW/kʙ        0.000000e+00 [K]
    external field Real/kʙ       0.000000e+00 [K]
    framework-molecule VDW/kʙ    0.000000e+00 [K]
    framework-molecule Real/kʙ   0.000000e+00 [K]
    molecule-molecule VDW/kʙ    -2.186571e+05 [K]
    molecule-molecule Real/kʙ   -7.774898e+04 [K]
    Van der Waals (Tail)/kʙ     -5.329853e+03 [K]
    Ewald Fourier/kʙ             4.086082e+03 [K]
    Ewald self/kʙ               -3.673356e+06 [K]
    Ewald exclusion/kʙ           3.661595e+06 [K]
    intra VDW/kʙ                 0.000000e+00 [K]
    intra Coulombic/kʙ           0.000000e+00 [K]
    polarization/kʙ              0.000000e+00 [K]
    dU/dlambda VDW/kʙ            0.000000e+00 [K]
    dU/dlambda Real/kʙ           0.000000e+00 [K]
    dU/dlambda Ewald/kʙ          0.000000e+00 [K]


Initialization: Current cycle: 400 out of 1000
===============================================================================

Box:      24.12015   0.00000   0.00000
           0.00000  24.12015   0.00000
           0.00000   0.00000  24.12015
Lengths:  24.12015  24.12015  24.12015
Angles:   90.00000  90.00000  90.00000
Rectangular boundary conditions

net charge:   0.00000000

component   0 (CO2) lambda:  0 occupancy:  1 (1.000000)
    net charge:   0.00000000 [e]

Amount of molecules per component :
-------------------------------------------------------------------------------
Component 0 (CO2)
    molecules:         2.000000e+02 molecules
    number density:    1.425247e-02 molec/A^3
    density:           1.041310e+03 kg/m^3

Total potential energy/kʙ       -3.008715e+05 [K]
-------------------------------------------------------------------------------
    external field VDW/kʙ        0.000000e+00 [K]
    external field Real/kʙ       0.000000e+00 [K]
    framework-molecule VDW/kʙ    0.000000e+00 [K]
    framework-molecule Real/kʙ   0.000000e+00 [K]
    molecule-molecule VDW/kʙ    -2.189586e+05 [K]
    molecule-molecule Real/kʙ   -7.021496e+04 [K]
    Van der Waals (Tail)/kʙ     -5.293664e+03 [K]
    Ewald Fourier/kʙ             5.356844e+03 [K]
    Ewald self/kʙ               -3.673356e+06 [K]
    Ewald exclusion/kʙ           3.661595e+06 [K]
    intra VDW/kʙ                 0.000000e+00 [K]
    intra Coulombic/kʙ           0.000000e+00 [K]
    polarization/kʙ              0.000000e+00 [K]
    dU/dlambda VDW/kʙ            0.000000e+00 [K]
    dU/dlambda Real/kʙ           0.000000e+00 [K]
    dU/dlambda Ewald/kʙ          0.000000e+00 [K]


Initialization: Current cycle: 500 out of 1000
===============================================================================

Box:      23.94004   0.00000   0.00000
           0.00000  23.94004   0.00000
           0.00000   0.00000  23.94004
Lengths:  23.94004  23.94004  23.94004
Angles:   90.00000  90.00000  90.00000
Rectangular boundary conditions

net charge:   0.00000000

component   0 (CO2) lambda:  0 occupancy:  1 (1.000000)
    net charge:   0.00000000 [e]

Amount of molecules per component :
-------------------------------------------------------------------------------
Component 0 (CO2)
    molecules:         2.000000e+02 molecules
    number density:    1.457656e-02 molec/A^3
    density:           1.064989e+03 kg/m^3

Total potential energy/kʙ       -3.038857e+05 [K]
-------------------------------------------------------------------------------
    external field VDW/kʙ        0.000000e+00 [K]
    external field Real/kʙ       0.000000e+00 [K]
    framework-molecule VDW/kʙ    0.000000e+00 [K]
    framework-molecule Real/kʙ   0.000000e+00 [K]
    molecule-molecule VDW/kʙ    -2.210902e+05 [K]
    molecule-molecule Real/kʙ   -7.028070e+04 [K]
    Van der Waals (Tail)/kʙ     -5.414039e+03 [K]
    Ewald Fourier/kʙ             4.660378e+03 [K]
    Ewald self/kʙ               -3.673356e+06 [K]
    Ewald exclusion/kʙ           3.661595e+06 [K]
    intra VDW/kʙ                 0.000000e+00 [K]
    intra Coulombic/kʙ           0.000000e+00 [K]
    polarization/kʙ              0.000000e+00 [K]
    dU/dlambda VDW/kʙ            0.000000e+00 [K]
    dU/dlambda Real/kʙ           0.000000e+00 [K]
    dU/dlambda Ewald/kʙ          0.000000e+00 [K]


Initialization: Current cycle: 600 out of 1000
===============================================================================

Box:      23.74400   0.00000   0.00000
           0.00000  23.74400   0.00000
           0.00000   0.00000  23.74400
Lengths:  23.74400  23.74400  23.74400
Angles:   90.00000  90.00000  90.00000
Rectangular boundary conditions

net charge:   0.00000000

component   0 (CO2) lambda:  0 occupancy:  1 (1.000000)
    net charge:   0.00000000 [e]

Amount of molecules per component :
-------------------------------------------------------------------------------
Component 0 (CO2)
    molecules:         2.000000e+02 molecules
    number density:    1.494060e-02 molec/A^3
    density:           1.091586e+03 kg/m^3

Total potential energy/kʙ       -3.127716e+05 [K]
-------------------------------------------------------------------------------
    external field VDW/kʙ        0.000000e+00 [K]
    external field Real/kʙ       0.000000e+00 [K]
    framework-molecule VDW/kʙ    0.000000e+00 [K]
    framework-molecule Real/kʙ   0.000000e+00 [K]
    molecule-molecule VDW/kʙ    -2.286338e+05 [K]
    molecule-molecule Real/kʙ   -7.107167e+04 [K]
    Van der Waals (Tail)/kʙ     -5.549250e+03 [K]
    Ewald Fourier/kʙ             4.244285e+03 [K]
    Ewald self/kʙ               -3.673356e+06 [K]
    Ewald exclusion/kʙ           3.661595e+06 [K]
    intra VDW/kʙ                 0.000000e+00 [K]
    intra Coulombic/kʙ           0.000000e+00 [K]
    polarization/kʙ              0.000000e+00 [K]
    dU/dlambda VDW/kʙ            0.000000e+00 [K]
    dU/dlambda Real/kʙ           0.000000e+00 [K]
    dU/dlambda Ewald/kʙ          0.000000e+00 [K]


Initialization: Current cycle: 700 out of 1000
===============================================================================

Box:      23.57194   0.00000   0.00000
           0.00000  23.57194   0.00000
           0.00000   0.00000  23.57194
Lengths:  23.57194  23.57194  23.57194
Angles:   90.00000  90.00000  90.00000
Rectangular boundary conditions

net charge:   0.00000000

component   0 (CO2) lambda:  0 occupancy:  1 (1.000000)
    net charge:   0.00000000 [e]

Amount of molecules per component :
-------------------------------------------------------------------------------
Component 0 (CO2)
    molecules:         2.000000e+02 molecules
    number density:    1.527017e-02 molec/A^3
    density:           1.115665e+03 kg/m^3

Total potential energy/kʙ       -3.138481e+05 [K]
-------------------------------------------------------------------------------
    external field VDW/kʙ        0.000000e+00 [K]
    external field Real/kʙ       0.000000e+00 [K]
    framework-molecule VDW/kʙ    0.000000e+00 [K]
    framework-molecule Real/kʙ   0.000000e+00 [K]
    molecule-molecule VDW/kʙ    -2.260742e+05 [K]
    molecule-molecule Real/kʙ   -7.570798e+04 [K]
    Van der Waals (Tail)/kʙ     -5.671659e+03 [K]
    Ewald Fourier/kʙ             5.366913e+03 [K]
    Ewald self/kʙ               -3.673356e+06 [K]
    Ewald exclusion/kʙ           3.661595e+06 [K]
    intra VDW/kʙ                 0.000000e+00 [K]
    intra Coulombic/kʙ           0.000000e+00 [K]
    polarization/kʙ              0.000000e+00 [K]
    dU/dlambda VDW/kʙ            0.000000e+00 [K]
    dU/dlambda Real/kʙ           0.000000e+00 [K]
    dU/dlambda Ewald/kʙ          0.000000e+00 [K]


Initialization: Current cycle: 800 out of 1000
===============================================================================

Box:      23.96746   0.00000   0.00000
           0.00000  23.96746   0.00000
           0.00000   0.00000  23.96746
Lengths:  23.96746  23.96746  23.96746
Angles:   90.00000  90.00000  90.00000
Rectangular boundary conditions

net charge:   0.00000000

component   0 (CO2) lambda:  0 occupancy:  1 (1.000000)
    net charge:   0.00000000 [e]

Amount of molecules per component :
-------------------------------------------------------------------------------
Component 0 (CO2)
    molecules:         2.000000e+02 molecules
    number density:    1.452659e-02 molec/A^3
    density:           1.061338e+03 kg/m^3

Total potential energy/kʙ       -3.123847e+05 [K]
-------------------------------------------------------------------------------
    external field VDW/kʙ        0.000000e+00 [K]
    external field Real/kʙ       0.000000e+00 [K]
    framework-molecule VDW/kʙ    0.000000e+00 [K]
    framework-molecule Real/kʙ   0.000000e+00 [K]
    molecule-molecule VDW/kʙ    -2.183857e+05 [K]
    molecule-molecule Real/kʙ   -8.132750e+04 [K]
    Van der Waals (Tail)/kʙ     -5.395479e+03 [K]
    Ewald Fourier/kʙ             4.485175e+03 [K]
    Ewald self/kʙ               -3.673356e+06 [K]
    Ewald exclusion/kʙ           3.661595e+06 [K]
    intra VDW/kʙ                 0.000000e+00 [K]
    intra Coulombic/kʙ           0.000000e+00 [K]
    polarization/kʙ              0.000000e+00 [K]
    dU/dlambda VDW/kʙ            0.000000e+00 [K]
    dU/dlambda Real/kʙ           0.000000e+00 [K]
    dU/dlambda Ewald/kʙ          0.000000e+00 [K]


Initialization: Current cycle: 900 out of 1000
===============================================================================

Box:      24.09332   0.00000   0.00000
           0.00000  24.09332   0.00000
           0.00000   0.00000  24.09332
Lengths:  24.09332  24.09332  24.09332
Angles:   90.00000  90.00000  90.00000
Rectangular boundary conditions

net charge:   0.00000000

component   0 (CO2) lambda:  0 occupancy:  1 (1.000000)
    net charge:   0.00000000 [e]

Amount of molecules per component :
-------------------------------------------------------------------------------
Component 0 (CO2)
    molecules:         2.000000e+02 molecules
    number density:    1.430014e-02 molec/A^3
    density:           1.044793e+03 kg/m^3

Total potential energy/kʙ       -2.979647e+05 [K]
-------------------------------------------------------------------------------
    external field VDW/kʙ        0.000000e+00 [K]
    external field Real/kʙ       0.000000e+00 [K]
    framework-molecule VDW/kʙ    0.000000e+00 [K]
    framework-molecule Real/kʙ   0.000000e+00 [K]
    molecule-molecule VDW/kʙ    -2.200055e+05 [K]
    molecule-molecule Real/kʙ   -6.683082e+04 [K]
    Van der Waals (Tail)/kʙ     -5.311369e+03 [K]
    Ewald Fourier/kʙ             5.944117e+03 [K]
    Ewald self/kʙ               -3.673356e+06 [K]
    Ewald exclusion/kʙ           3.661595e+06 [K]
    intra VDW/kʙ                 0.000000e+00 [K]
    intra Coulombic/kʙ           0.000000e+00 [K]
    polarization/kʙ              0.000000e+00 [K]
    dU/dlambda VDW/kʙ            0.000000e+00 [K]
    dU/dlambda Real/kʙ           0.000000e+00 [K]
    dU/dlambda Ewald/kʙ          0.000000e+00 [K]


Current cycle: 0 out of 5000
===============================================================================

Box:      23.84447   0.00000   0.00000  Average:  23.84447   0.00000   0.00000
           0.00000  23.84447   0.00000             0.00000  23.84447   0.00000
           0.00000   0.00000  23.84447             0.00000   0.00000  23.84447
Lengths:  23.84447  23.84447  23.84447  Average:  23.84447  23.84447  23.84447
Angles:   90.00000  90.00000  90.00000  Average:  90.00000  90.00000  90.00000
Rectangular boundary conditions

net charge:   0.00000000

component 0 (CO2) lambda:  0 occupancy:  1 (1.000000)
    net charge:   0.00000000 [e]

Amount of molecules per component :
-------------------------------------------------------------------------------
Component 0 (CO2)
    molecules:      2.000000e+02 molecules  (2.000000e+02 +/- 0.000000e+00)
    number density: 1.475255e-02 molec./A^3 (1.475255e-02 +/- 0.000000e+00)
    density:        1.077846e+03 kg/m^3     (1.077846e+03 +/- 0.000000e+00)

Average pressure tensor: 
-------------------------------------------------------------------------------
 5.0920e+02  0.0000e+00  0.0000e+00 +/- 0.0000e+00 0.0000e+00 0.0000e+00 [bar]
 0.0000e+00  5.0920e+02  0.0000e+00 +/- 0.0000e+00 0.0000e+00 0.0000e+00 [bar]
 0.0000e+00  0.0000e+00  5.0920e+02 +/- 0.0000e+00 0.0000e+00 0.0000e+00 [bar]
Ideal-gas pressure:   5.092028e+02 +/ 0.000000e+00 [bar]
Excess pressure:      0.000000e+00 +/ 0.000000e+00 [bar]
Pressure:             5.092028e+02 +/ 0.000000e+00 [bar]

Total potential energy/kʙ  -3.099463e+05 (-3.099463e+05 +/- 0.000000e+00) [K]
-------------------------------------------------------------------------------
ExternalField-molecule
    Van der Waals/kʙ        0.000000e+00 ( 0.000000e+00 +/- 0.000000e+00) [K]
Framework-molecule
    Van der Waals/kʙ        0.000000e+00 ( 0.000000e+00 +/- 0.000000e+00) [K]
    Van der Waals (Tail)/kʙ 0.000000e+00 ( 0.000000e+00 +/- 0.000000e+00) [K]
    Coulombic Real/kʙ       0.000000e+00 ( 0.000000e+00 +/- 0.000000e+00) [K]
    Coulombic Fourier/kʙ    0.000000e+00 ( 0.000000e+00 +/- 0.000000e+00) [K]
Molecule-molecule
    Van der Waals/kʙ       -2.274098e+05 (-2.274098e+05 +/- 0.000000e+00) [K]
    Van der Waals (Tail)/kʙ-5.479403e+03 (-5.479403e+03 +/- 0.000000e+00) [K]
    Coulombic Real/kʙ      -7.039641e+04 (-7.039641e+04 +/- 0.000000e+00) [K]
    Coulombic Fourier/kʙ   -6.660714e+03 (-6.660714e+03 +/- 0.000000e+00) [K]
    Molecule Intra/kʙ       0.000000e+00 ( 0.000000e+00 +/- 0.000000e+00) [K]

Current cycle: 100 out of 5000
===============================================================================

Box:      23.94137   0.00000   0.00000  Average:  23.94799   0.00000   0.00000
           0.00000  23.94137   0.00000             0.00000  23.94799   0.00000
           0.00000   0.00000  23.94137             0.00000   0.00000  23.94799
Lengths:  23.94137  23.94137  23.94137  Average:  23.94799  23.94799  23.94799
Angles:   90.00000  90.00000  90.00000  Average:  90.00000  90.00000  90.00000
Rectangular boundary conditions

net charge:   0.00000000

component 0 (CO2) lambda:  0 occupancy:  1 (1.000000)
    net charge:   0.00000000 [e]

Amount of molecules per component :
-------------------------------------------------------------------------------
Component 0 (CO2)
    molecules:      2.000000e+02 molecules  (2.000000e+02 +/- 0.000000e+00)
    number density: 1.457415e-02 molec./A^3 (1.456396e-02 +/- 0.000000e+00)
    density:        1.064812e+03 kg/m^3     (1.064068e+03 +/- 0.000000e+00)

Average pressure tensor: 
-------------------------------------------------------------------------------
 4.0910e+02 -1.2682e+02 -6.5004e+01 +/- 0.0000e+00 0.0000e+00 0.0000e+00 [bar]
-1.2682e+02  7.3951e+01  1.1425e+02 +/- 0.0000e+00 0.0000e+00 0.0000e+00 [bar]
-6.5004e+01  1.1425e+02  2.4416e+02 +/- 0.0000e+00 0.0000e+00 0.0000e+00 [bar]
Ideal-gas pressure:   5.026935e+02 +/ 0.000000e+00 [bar]
Excess pressure:     -2.602896e+02 +/ 0.000000e+00 [bar]
Pressure:             2.424039e+02 +/ 0.000000e+00 [bar]

Total potential energy/kʙ  -3.054977e+05 (-3.043498e+05 +/- 0.000000e+00) [K]
-------------------------------------------------------------------------------
ExternalField-molecule
    Van der Waals/kʙ        0.000000e+00 ( 0.000000e+00 +/- 0.000000e+00) [K]
Framework-molecule
    Van der Waals/kʙ        0.000000e+00 ( 0.000000e+00 +/- 0.000000e+00) [K]
    Van der Waals (Tail)/kʙ 0.000000e+00 ( 0.000000e+00 +/- 0.000000e+00) [K]
    Coulombic Real/kʙ       0.000000e+00 ( 0.000000e+00 +/- 0.000000e+00) [K]
    Coulombic Fourier/kʙ    0.000000e+00 ( 0.000000e+00 +/- 0.000000e+00) [K]
Molecule-molecule
    Van der Waals/kʙ       -2.252384e+05 (-2.220672e+05 +/- 0.000000e+00) [K]
    Van der Waals (Tail)/kʙ-5.413141e+03 (-5.411183e+03 +/- 0.000000e+00) [K]
    Coulombic Real/kʙ      -6.778211e+04 (-7.007603e+04 +/- 0.000000e+00) [K]
    Coulombic Fourier/kʙ   -7.064000e+03 (-6.795354e+03 +/- 0.000000e+00) [K]
    Molecule Intra/kʙ       0.000000e+00 ( 0.000000e+00 +/- 0.000000e+00) [K]

Current cycle: 200 out of 5000
===============================================================================

Box:      23.77835   0.00000   0.00000  Average:  23.89950   0.00000   0.00000
           0.00000  23.77835   0.00000             0.00000  23.89950   0.00000
           0.00000   0.00000  23.77835             0.00000   0.00000  23.89950
Lengths:  23.77835  23.77835  23.77835  Average:  23.89950  23.89950  23.89950
Angles:   90.00000  90.00000  90.00000  Average:  90.00000  90.00000  90.00000
Rectangular boundary conditions

net charge:   0.00000000

component 0 (CO2) lambda:  0 occupancy:  1 (1.000000)
    net charge:   0.00000000 [e]

Amount of molecules per component :
-------------------------------------------------------------------------------
Component 0 (CO2)
    molecules:      2.000000e+02 molecules  (2.000000e+02 +/- 0.000000e+00)
    number density: 1.487596e-02 molec./A^3 (1.465257e-02 +/- 0.000000e+00)
    density:        1.086863e+03 kg/m^3     (1.070542e+03 +/- 0.000000e+00)

Average pressure tensor: 
-------------------------------------------------------------------------------
 3.6554e+02  5.8109e+01  3.1163e+01 +/- 0.0000e+00 0.0000e+00 0.0000e+00 [bar]
 5.8109e+01  3.0908e+01  1.1516e+02 +/- 0.0000e+00 0.0000e+00 0.0000e+00 [bar]
 3.1163e+01  1.1516e+02  2.5291e+02 +/- 0.0000e+00 0.0000e+00 0.0000e+00 [bar]
Ideal-gas pressure:   5.057518e+02 +/ 0.000000e+00 [bar]
Excess pressure:     -2.892974e+02 +/ 0.000000e+00 [bar]
Pressure:             2.164545e+02 +/ 0.000000e+00 [bar]

Total potential energy/kʙ  -3.089937e+05 (-3.068812e+05 +/- 0.000000e+00) [K]
-------------------------------------------------------------------------------
ExternalField-molecule
    Van der Waals/kʙ        0.000000e+00 ( 0.000000e+00 +/- 0.000000e+00) [K]
Framework-molecule
    Van der Waals/kʙ        0.000000e+00 ( 0.000000e+00 +/- 0.000000e+00) [K]
    Van der Waals (Tail)/kʙ 0.000000e+00 ( 0.000000e+00 +/- 0.000000e+00) [K]
    Coulombic Real/kʙ       0.000000e+00 ( 0.000000e+00 +/- 0.000000e+00) [K]
    Coulombic Fourier/kʙ    0.000000e+00 ( 0.000000e+00 +/- 0.000000e+00) [K]
Molecule-molecule
    Van der Waals/kʙ       -2.241104e+05 (-2.230765e+05 +/- 0.000000e+00) [K]
    Van der Waals (Tail)/kʙ-5.525241e+03 (-5.446273e+03 +/- 0.000000e+00) [K]
    Coulombic Real/kʙ      -7.255447e+04 (-7.149832e+04 +/- 0.000000e+00) [K]
    Coulombic Fourier/kʙ   -6.803544e+03 (-6.860124e+03 +/- 0.000000e+00) [K]
    Molecule Intra/kʙ       0.000000e+00 ( 0.000000e+00 +/- 0.000000e+00) [K]

Current cycle: 300 out of 5000
===============================================================================

Box:      23.86366   0.00000   0.00000  Average:  23.83766   0.00000   0.00000
           0.00000  23.86366   0.00000             0.00000  23.83766   0.00000
           0.00000   0.00000  23.86366             0.00000   0.00000  23.83766
Lengths:  23.86366  23.86366  23.86366  Average:  23.83766  23.83766  23.83766
Angles:   90.00000  90.00000  90.00000  Average:  90.00000  90.00000  90.00000
Rectangular boundary conditions

net charge:   0.00000000

component 0 (CO2) lambda:  0 occupancy:  1 (1.000000)
    net charge:   0.00000000 [e]

Amount of molecules per component :
-------------------------------------------------------------------------------
Component 0 (CO2)
    molecules:      2.000000e+02 molecules  (2.000000e+02 +/- 0.000000e+00)
    number density: 1.471698e-02 molec./A^3 (1.476791e-02 +/- 0.000000e+00)
    density:        1.075248e+03 kg/m^3     (1.078969e+03 +/- 0.000000e+00)

Average pressure tensor: 
-------------------------------------------------------------------------------
 4.1341e+02  4.3692e+01  3.8155e+01 +/- 0.0000e+00 0.0000e+00 0.0000e+00 [bar]
 4.3692e+01 -2.5332e+00  6.7657e+01 +/- 0.0000e+00 0.0000e+00 0.0000e+00 [bar]
 3.8155e+01  6.7657e+01  2.6327e+02 +/- 0.0000e+00 0.0000e+00 0.0000e+00 [bar]
Ideal-gas pressure:   5.097331e+02 +/ 0.000000e+00 [bar]
Excess pressure:     -2.850185e+02 +/ 0.000000e+00 [bar]
Pressure:             2.247147e+02 +/ 0.000000e+00 [bar]

Total potential energy/kʙ  -3.087672e+05 (-3.095831e+05 +/- 0.000000e+00) [K]
-------------------------------------------------------------------------------
ExternalField-molecule
    Van der Waals/kʙ        0.000000e+00 ( 0.000000e+00 +/- 0.000000e+00) [K]
Framework-molecule
    Van der Waals/kʙ        0.000000e+00 ( 0.000000e+00 +/- 0.000000e+00) [K]
    Van der Waals (Tail)/kʙ 0.000000e+00 ( 0.000000e+00 +/- 0.000000e+00) [K]
    Coulombic Real/kʙ       0.000000e+00 ( 0.000000e+00 +/- 0.000000e+00) [K]
    Coulombic Fourier/kʙ    0.000000e+00 ( 0.000000e+00 +/- 0.000000e+00) [K]
Molecule-molecule
    Van der Waals/kʙ       -2.250580e+05 (-2.248793e+05 +/- 0.000000e+00) [K]
    Van der Waals (Tail)/kʙ-5.466191e+03 (-5.483858e+03 +/- 0.000000e+00) [K]
    Coulombic Real/kʙ      -7.139895e+04 (-7.232145e+04 +/- 0.000000e+00) [K]
    Coulombic Fourier/kʙ   -6.844148e+03 (-6.898504e+03 +/- 0.000000e+00) [K]
    Molecule Intra/kʙ       0.000000e+00 ( 0.000000e+00 +/- 0.000000e+00) [K]

Current cycle: 400 out of 5000
===============================================================================

Box:      23.60127   0.00000   0.00000  Average:  23.83303   0.00000   0.00000
           0.00000  23.60127   0.00000             0.00000  23.83303   0.00000
           0.00000   0.00000  23.60127             0.00000   0.00000  23.83303
Lengths:  23.60127  23.60127  23.60127  Average:  23.83303  23.83303  23.83303
Angles:   90.00000  90.00000  90.00000  Average:  90.00000  90.00000  90.00000
Rectangular boundary conditions

net charge:   0.00000000

component 0 (CO2) lambda:  0 occupancy:  1 (1.000000)
    net charge:   0.00000000 [e]

Amount of molecules per component :
-------------------------------------------------------------------------------
Component 0 (CO2)
    molecules:      2.000000e+02 molecules  (2.000000e+02 +/- 0.000000e+00)
    number density: 1.521332e-02 molec./A^3 (1.477657e-02 +/- 0.000000e+00)
    density:        1.111511e+03 kg/m^3     (1.079601e+03 +/- 0.000000e+00)

Average pressure tensor: 
-------------------------------------------------------------------------------
 3.7256e+02 -2.1569e+01  5.8777e+01 +/- 0.0000e+00 0.0000e+00 0.0000e+00 [bar]
-2.1569e+01  4.8195e+01  4.2794e+01 +/- 0.0000e+00 0.0000e+00 0.0000e+00 [bar]
 5.8777e+01  4.2794e+01  2.2433e+02 +/- 0.0000e+00 0.0000e+00 0.0000e+00 [bar]
Ideal-gas pressure:   5.100319e+02 +/ 0.000000e+00 [bar]
Excess pressure:     -2.950040e+02 +/ 0.000000e+00 [bar]
Pressure:             2.150278e+02 +/ 0.000000e+00 [bar]

Total potential energy/kʙ  -3.106530e+05 (-3.095125e+05 +/- 0.000000e+00) [K]
-------------------------------------------------------------------------------
ExternalField-molecule
    Van der Waals/kʙ        0.000000e+00 ( 0.000000e+00 +/- 0.000000e+00) [K]
Framework-molecule
    Van der Waals/kʙ        0.000000e+00 ( 0.000000e+00 +/- 0.000000e+00) [K]
    Van der Waals (Tail)/kʙ 0.000000e+00 ( 0.000000e+00 +/- 0.000000e+00) [K]
    Coulombic Real/kʙ       0.000000e+00 ( 0.000000e+00 +/- 0.000000e+00) [K]
    Coulombic Fourier/kʙ    0.000000e+00 ( 0.000000e+00 +/- 0.000000e+00) [K]
Molecule-molecule
    Van der Waals/kʙ       -2.218981e+05 (-2.242366e+05 +/- 0.000000e+00) [K]
    Van der Waals (Tail)/kʙ-5.650542e+03 (-5.489714e+03 +/- 0.000000e+00) [K]
    Coulombic Real/kʙ      -7.626568e+04 (-7.281264e+04 +/- 0.000000e+00) [K]
    Coulombic Fourier/kʙ   -6.838659e+03 (-6.973592e+03 +/- 0.000000e+00) [K]
    Molecule Intra/kʙ       0.000000e+00 ( 0.000000e+00 +/- 0.000000e+00) [K]

Current cycle: 500 out of 5000
===============================================================================

Box:      23.58361   0.00000   0.00000  Average:  23.79568   0.00000   0.00000
           0.00000  23.58361   0.00000             0.00000  23.79568   0.00000
           0.00000   0.00000  23.58361             0.00000   0.00000  23.79568
Lengths:  23.58361  23.58361  23.58361  Average:  23.79568  23.79568  23.79568
Angles:   90.00000  90.00000  90.00000  Average:  90.00000  90.00000  90.00000
Rectangular boundary conditions

net charge:   0.00000000

component 0 (CO2) lambda:  0 occupancy:  1 (1.000000)
    net charge:   0.00000000 [e]

Amount of molecules per component :
-------------------------------------------------------------------------------
Component 0 (CO2)
    molecules:      2.000000e+02 molecules  (2.000000e+02 +/- 0.000000e+00)
    number density: 1.524751e-02 molec./A^3 (1.484692e-02 +/- 0.000000e+00)
    density:        1.114009e+03 kg/m^3     (1.084742e+03 +/- 0.000000e+00)

Average pressure tensor: 
-------------------------------------------------------------------------------
 3.7904e+02 -1.5127e+01  3.9892e+01 +/- 0.0000e+00 0.0000e+00 0.0000e+00 [bar]
-1.5127e+01  1.0489e+02  8.4634e+00 +/- 0.0000e+00 0.0000e+00 0.0000e+00 [bar]
 3.9892e+01  8.4634e+00  2.3246e+02 +/- 0.0000e+00 0.0000e+00 0.0000e+00 [bar]
Ideal-gas pressure:   5.124602e+02 +/ 0.000000e+00 [bar]
Excess pressure:     -2.736637e+02 +/ 0.000000e+00 [bar]
Pressure:             2.387966e+02 +/ 0.000000e+00 [bar]

Total potential energy/kʙ  -3.195502e+05 (-3.110530e+05 +/- 0.000000e+00) [K]
-------------------------------------------------------------------------------
ExternalField-molecule
    Van der Waals/kʙ        0.000000e+00 ( 0.000000e+00 +/- 0.000000e+00) [K]
Framework-molecule
    Van der Waals/kʙ        0.000000e+00 ( 0.000000e+00 +/- 0.000000e+00) [K]
    Van der Waals (Tail)/kʙ 0.000000e+00 ( 0.000000e+00 +/- 0.000000e+00) [K]
    Coulombic Real/kʙ       0.000000e+00 ( 0.000000e+00 +/- 0.000000e+00) [K]
    Coulombic Fourier/kʙ    0.000000e+00 ( 0.000000e+00 +/- 0.000000e+00) [K]
Molecule-molecule
    Van der Waals/kʙ       -2.329843e+05 (-2.252661e+05 +/- 0.000000e+00) [K]
    Van der Waals (Tail)/kʙ-5.663242e+03 (-5.516679e+03 +/- 0.000000e+00) [K]
    Coulombic Real/kʙ      -7.412062e+04 (-7.326739e+04 +/- 0.000000e+00) [K]
    Coulombic Fourier/kʙ   -6.782046e+03 (-7.002868e+03 +/- 0.000000e+00) [K]
    Molecule Intra/kʙ       0.000000e+00 ( 0.000000e+00 +/- 0.000000e+00) [K]

Current cycle: 600 out of 5000
===============================================================================

Box:      23.66801   0.00000   0.00000  Average:  23.77693   0.00000   0.00000
           0.00000  23.66801   0.00000             0.00000  23.77693   0.00000
           0.00000   0.00000  23.66801             0.00000   0.00000  23.77693
Lengths:  23.66801  23.66801  23.66801  Average:  23.77693  23.77693  23.77693
Angles:   90.00000  90.00000  90.00000  Average:  90.00000  90.00000  90.00000
Rectangular boundary conditions

net charge:   0.00000000

component 0 (CO2) lambda:  0 occupancy:  1 (1.000000)
    net charge:   0.00000000 [e]

Amount of molecules per component :
-------------------------------------------------------------------------------
Component 0 (CO2)
    molecules:      2.000000e+02 molecules  (2.000000e+02 +/- 0.000000e+00)
    number density: 1.508498e-02 molec./A^3 (1.488205e-02 +/- 0.000000e+00)
    density:        1.102134e+03 kg/m^3     (1.087308e+03 +/- 0.000000e+00)

Average pressure tensor: 
-------------------------------------------------------------------------------
 3.8125e+02  4.4856e+01  6.1284e+01 +/- 0.0000e+00 0.0000e+00 0.0000e+00 [bar]
 4.4856e+01  9.4628e+01 -1.8577e+01 +/- 0.0000e+00 0.0000e+00 0.0000e+00 [bar]
 6.1284e+01 -1.8577e+01  2.1754e+02 +/- 0.0000e+00 0.0000e+00 0.0000e+00 [bar]
Ideal-gas pressure:   5.136725e+02 +/ 0.000000e+00 [bar]
Excess pressure:     -2.825329e+02 +/ 0.000000e+00 [bar]
Pressure:             2.311396e+02 +/ 0.000000e+00 [bar]

Total potential energy/kʙ  -3.174140e+05 (-3.116495e+05 +/- 0.000000e+00) [K]
-------------------------------------------------------------------------------
ExternalField-molecule
    Van der Waals/kʙ        0.000000e+00 ( 0.000000e+00 +/- 0.000000e+00) [K]
Framework-molecule
    Van der Waals/kʙ        0.000000e+00 ( 0.000000e+00 +/- 0.000000e+00) [K]
    Van der Waals (Tail)/kʙ 0.000000e+00 ( 0.000000e+00 +/- 0.000000e+00) [K]
    Coulombic Real/kʙ       0.000000e+00 ( 0.000000e+00 +/- 0.000000e+00) [K]
    Coulombic Fourier/kʙ    0.000000e+00 ( 0.000000e+00 +/- 0.000000e+00) [K]
Molecule-molecule
    Van der Waals/kʙ       -2.327153e+05 (-2.260123e+05 +/- 0.000000e+00) [K]
    Van der Waals (Tail)/kʙ-5.602874e+03 (-5.529313e+03 +/- 0.000000e+00) [K]
    Coulombic Real/kʙ      -7.228461e+04 (-7.316784e+04 +/- 0.000000e+00) [K]
    Coulombic Fourier/kʙ   -6.811211e+03 (-6.940062e+03 +/- 0.000000e+00) [K]
    Molecule Intra/kʙ       0.000000e+00 ( 0.000000e+00 +/- 0.000000e+00) [K]

Current cycle: 700 out of 5000
===============================================================================

Box:      23.60102   0.00000   0.00000  Average:  23.76047   0.00000   0.00000
           0.00000  23.60102   0.00000             0.00000  23.76047   0.00000
           0.00000   0.00000  23.60102             0.00000   0.00000  23.76047
Lengths:  23.60102  23.60102  23.60102  Average:  23.76047  23.76047  23.76047
Angles:   90.00000  90.00000  90.00000  Average:  90.00000  90.00000  90.00000
Rectangular boundary conditions

net charge:   0.00000000

component 0 (CO2) lambda:  0 occupancy:  1 (1.000000)
    net charge:   0.00000000 [e]

Amount of molecules per component :
-------------------------------------------------------------------------------
Component 0 (CO2)
    molecules:      2.000000e+02 molecules  (2.000000e+02 +/- 0.000000e+00)
    number density: 1.521380e-02 molec./A^3 (1.491293e-02 +/- 0.000000e+00)
    density:        1.111546e+03 kg/m^3     (1.089564e+03 +/- 0.000000e+00)

Average pressure tensor: 
-------------------------------------------------------------------------------
 3.5074e+02  3.7132e+01  7.1693e+01 +/- 0.0000e+00 0.0000e+00 0.0000e+00 [bar]
 3.7132e+01  1.4737e+02 -2.6527e+01 +/- 0.0000e+00 0.0000e+00 0.0000e+00 [bar]
 7.1693e+01 -2.6527e+01  2.2156e+02 +/- 0.0000e+00 0.0000e+00 0.0000e+00 [bar]
Ideal-gas pressure:   5.147386e+02 +/ 0.000000e+00 [bar]
Excess pressure:     -2.748456e+02 +/ 0.000000e+00 [bar]
Pressure:             2.398930e+02 +/ 0.000000e+00 [bar]

Total potential energy/kʙ  -3.215879e+05 (-3.130583e+05 +/- 0.000000e+00) [K]
-------------------------------------------------------------------------------
ExternalField-molecule
    Van der Waals/kʙ        0.000000e+00 ( 0.000000e+00 +/- 0.000000e+00) [K]
Framework-molecule
    Van der Waals/kʙ        0.000000e+00 ( 0.000000e+00 +/- 0.000000e+00) [K]
    Van der Waals (Tail)/kʙ 0.000000e+00 ( 0.000000e+00 +/- 0.000000e+00) [K]
    Coulombic Real/kʙ       0.000000e+00 ( 0.000000e+00 +/- 0.000000e+00) [K]
    Coulombic Fourier/kʙ    0.000000e+00 ( 0.000000e+00 +/- 0.000000e+00) [K]
Molecule-molecule
    Van der Waals/kʙ       -2.326252e+05 (-2.266608e+05 +/- 0.000000e+00) [K]
    Van der Waals (Tail)/kʙ-5.650720e+03 (-5.541891e+03 +/- 0.000000e+00) [K]
    Coulombic Real/kʙ      -7.694280e+04 (-7.388652e+04 +/- 0.000000e+00) [K]
    Coulombic Fourier/kʙ   -6.369154e+03 (-6.969101e+03 +/- 0.000000e+00) [K]
    Molecule Intra/kʙ       0.000000e+00 ( 0.000000e+00 +/- 0.000000e+00) [K]

Current cycle: 800 out of 5000
===============================================================================

Box:      23.89035   0.00000   0.00000  Average:  23.76411   0.00000   0.00000
           0.00000  23.89035   0.00000             0.00000  23.76411   0.00000
           0.00000   0.00000  23.89035             0.00000   0.00000  23.76411
Lengths:  23.89035  23.89035  23.89035  Average:  23.76411  23.76411  23.76411
Angles:   90.00000  90.00000  90.00000  Average:  90.00000  90.00000  90.00000
Rectangular boundary conditions

net charge:   0.00000000

component 0 (CO2) lambda:  0 occupancy:  1 (1.000000)
    net charge:   0.00000000 [e]

Amount of molecules per component :
-------------------------------------------------------------------------------
Component 0 (CO2)
    molecules:      2.000000e+02 molecules  (2.000000e+02 +/- 0.000000e+00)
    number density: 1.466772e-02 molec./A^3 (1.490601e-02 +/- 0.000000e+00)
    density:        1.071649e+03 kg/m^3     (1.089058e+03 +/- 0.000000e+00)

Average pressure tensor: 
-------------------------------------------------------------------------------
 3.2374e+02  6.0658e+01  5.9266e+01 +/- 0.0000e+00 0.0000e+00 0.0000e+00 [bar]
 6.0658e+01  1.8626e+02 -2.6671e+01 +/- 0.0000e+00 0.0000e+00 0.0000e+00 [bar]
 5.9266e+01 -2.6671e+01  2.1712e+02 +/- 0.0000e+00 0.0000e+00 0.0000e+00 [bar]
Ideal-gas pressure:   5.144996e+02 +/ 0.000000e+00 [bar]
Excess pressure:     -2.721264e+02 +/ 0.000000e+00 [bar]
Pressure:             2.423732e+02 +/ 0.000000e+00 [bar]

Total potential energy/kʙ  -3.041376e+05 (-3.126277e+05 +/- 0.000000e+00) [K]
-------------------------------------------------------------------------------
ExternalField-molecule
    Van der Waals/kʙ        0.000000e+00 ( 0.000000e+00 +/- 0.000000e+00) [K]
Framework-molecule
    Van der Waals/kʙ        0.000000e+00 ( 0.000000e+00 +/- 0.000000e+00) [K]
    Van der Waals (Tail)/kʙ 0.000000e+00 ( 0.000000e+00 +/- 0.000000e+00) [K]
    Coulombic Real/kʙ       0.000000e+00 ( 0.000000e+00 +/- 0.000000e+00) [K]
    Coulombic Fourier/kʙ    0.000000e+00 ( 0.000000e+00 +/- 0.000000e+00) [K]
Molecule-molecule
    Van der Waals/kʙ       -2.248940e+05 (-2.264827e+05 +/- 0.000000e+00) [K]
    Van der Waals (Tail)/kʙ-5.447895e+03 (-5.537543e+03 +/- 0.000000e+00) [K]
    Coulombic Real/kʙ      -6.696283e+04 (-7.369711e+04 +/- 0.000000e+00) [K]
    Coulombic Fourier/kʙ   -6.832856e+03 (-6.910281e+03 +/- 0.000000e+00) [K]
    Molecule Intra/kʙ       0.000000e+00 ( 0.000000e+00 +/- 0.000000e+00) [K]

Current cycle: 900 out of 5000
===============================================================================

Box:      23.67560   0.00000   0.00000  Average:  23.79012   0.00000   0.00000
           0.00000  23.67560   0.00000             0.00000  23.79012   0.00000
           0.00000   0.00000  23.67560             0.00000   0.00000  23.79012
Lengths:  23.67560  23.67560  23.67560  Average:  23.79012  23.79012  23.79012
Angles:   90.00000  90.00000  90.00000  Average:  90.00000  90.00000  90.00000
Rectangular boundary conditions

net charge:   0.00000000

component 0 (CO2) lambda:  0 occupancy:  1 (1.000000)
    net charge:   0.00000000 [e]

Amount of molecules per component :
-------------------------------------------------------------------------------
Component 0 (CO2)
    molecules:      2.000000e+02 molecules  (2.000000e+02 +/- 0.000000e+00)
    number density: 1.507047e-02 molec./A^3 (1.485804e-02 +/- 0.000000e+00)
    density:        1.101074e+03 kg/m^3     (1.085554e+03 +/- 0.000000e+00)

Average pressure tensor: 
-------------------------------------------------------------------------------
 3.2060e+02  6.3757e+01  7.0578e+01 +/- 0.0000e+00 0.0000e+00 0.0000e+00 [bar]
 6.3757e+01  1.5789e+02 -2.4314e+01 +/- 0.0000e+00 0.0000e+00 0.0000e+00 [bar]
 7.0578e+01 -2.4314e+01  2.1911e+02 +/- 0.0000e+00 0.0000e+00 0.0000e+00 [bar]
Ideal-gas pressure:   5.128439e+02 +/ 0.000000e+00 [bar]
Excess pressure:     -2.803129e+02 +/ 0.000000e+00 [bar]
Pressure:             2.325309e+02 +/ 0.000000e+00 [bar]

Total potential energy/kʙ  -3.178060e+05 (-3.114585e+05 +/- 0.000000e+00) [K]
-------------------------------------------------------------------------------
ExternalField-molecule
    Van der Waals/kʙ        0.000000e+00 ( 0.000000e+00 +/- 0.000000e+00) [K]
Framework-molecule
    Van der Waals/kʙ        0.000000e+00 ( 0.000000e+00 +/- 0.000000e+00) [K]
    Van der Waals (Tail)/kʙ 0.000000e+00 ( 0.000000e+00 +/- 0.000000e+00) [K]
    Coulombic Real/kʙ       0.000000e+00 ( 0.000000e+00 +/- 0.000000e+00) [K]
    Coulombic Fourier/kʙ    0.000000e+00 ( 0.000000e+00 +/- 0.000000e+00) [K]
Molecule-molecule
    Van der Waals/kʙ       -2.270677e+05 (-2.256419e+05 +/- 0.000000e+00) [K]
    Van der Waals (Tail)/kʙ-5.597486e+03 (-5.519939e+03 +/- 0.000000e+00) [K]
    Coulombic Real/kʙ      -7.776015e+04 (-7.339204e+04 +/- 0.000000e+00) [K]
    Coulombic Fourier/kʙ   -7.380622e+03 (-6.904672e+03 +/- 0.000000e+00) [K]
    Molecule Intra/kʙ       0.000000e+00 ( 0.000000e+00 +/- 0.000000e+00) [K]

Current cycle: 1000 out of 5000
===============================================================================

Box:      23.49984   0.00000   0.00000  Average:  23.78147   0.00000   0.00000
           0.00000  23.49984   0.00000             0.00000  23.78147   0.00000
           0.00000   0.00000  23.49984             0.00000   0.00000  23.78147
Lengths:  23.49984  23.49984  23.49984  Average:  23.78147  23.78147  23.78147
Angles:   90.00000  90.00000  90.00000  Average:  90.00000  90.00000  90.00000
Rectangular boundary conditions

net charge:   0.00000000

component 0 (CO2) lambda:  0 occupancy:  1 (1.000000)
    net charge:   0.00000000 [e]

Amount of molecules per component :
-------------------------------------------------------------------------------
Component 0 (CO2)
    molecules:      2.000000e+02 molecules  (2.000000e+02 +/- 0.000000e+00)
    number density: 1.541115e-02 molec./A^3 (1.487414e-02 +/- 0.000000e+00)
    density:        1.125965e+03 kg/m^3     (1.086730e+03 +/- 0.000000e+00)

Average pressure tensor: 
-------------------------------------------------------------------------------
 3.1251e+02  4.5690e+01  6.4481e+01 +/- 0.0000e+00 0.0000e+00 0.0000e+00 [bar]
 4.5690e+01  1.4706e+02 -4.9719e+01 +/- 0.0000e+00 0.0000e+00 0.0000e+00 [bar]
 6.4481e+01 -4.9719e+01  2.3821e+02 +/- 0.0000e+00 0.0000e+00 0.0000e+00 [bar]
Ideal-gas pressure:   5.133997e+02 +/ 0.000000e+00 [bar]
Excess pressure:     -2.808053e+02 +/ 0.000000e+00 [bar]
Pressure:             2.325945e+02 +/ 0.000000e+00 [bar]

Total potential energy/kʙ  -3.218451e+05 (-3.119089e+05 +/- 0.000000e+00) [K]
-------------------------------------------------------------------------------
ExternalField-molecule
    Van der Waals/kʙ        0.000000e+00 ( 0.000000e+00 +/- 0.000000e+00) [K]
Framework-molecule
    Van der Waals/kʙ        0.000000e+00 ( 0.000000e+00 +/- 0.000000e+00) [K]
    Van der Waals (Tail)/kʙ 0.000000e+00 ( 0.000000e+00 +/- 0.000000e+00) [K]
    Coulombic Real/kʙ       0.000000e+00 ( 0.000000e+00 +/- 0.000000e+00) [K]
    Coulombic Fourier/kʙ    0.000000e+00 ( 0.000000e+00 +/- 0.000000e+00) [K]
Molecule-molecule
    Van der Waals/kʙ       -2.280809e+05 (-2.258270e+05 +/- 0.000000e+00) [K]
    Van der Waals (Tail)/kʙ-5.724022e+03 (-5.526607e+03 +/- 0.000000e+00) [K]
    Coulombic Real/kʙ      -8.089910e+04 (-7.366054e+04 +/- 0.000000e+00) [K]
    Coulombic Fourier/kʙ   -7.141089e+03 (-6.894776e+03 +/- 0.000000e+00) [K]
    Molecule Intra/kʙ       0.000000e+00 ( 0.000000e+00 +/- 0.000000e+00) [K]

Current cycle: 1100 out of 5000
===============================================================================

Box:      23.72455   0.00000   0.00000  Average:  23.77473   0.00000   0.00000
           0.00000  23.72455   0.00000             0.00000  23.77473   0.00000
           0.00000   0.00000  23.72455             0.00000   0.00000  23.77473
Lengths:  23.72455  23.72455  23.72455  Average:  23.77473  23.77473  23.77473
Angles:   90.00000  90.00000  90.00000  Average:  90.00000  90.00000  90.00000
Rectangular boundary conditions

net charge:   0.00000000

component 0 (CO2) lambda:  0 occupancy:  1 (1.000000)
    net charge:   0.00000000 [e]

Amount of molecules per component :
-------------------------------------------------------------------------------
Component 0 (CO2)
    molecules:      2.000000e+02 molecules  (2.000000e+02 +/- 0.000000e+00)
    number density: 1.497739e-02 molec./A^3 (1.488659e-02 +/- 0.000000e+00)
    density:        1.094274e+03 kg/m^3     (1.087640e+03 +/- 0.000000e+00)

Average pressure tensor: 
-------------------------------------------------------------------------------
 3.1518e+02  3.8236e+01  7.2544e+01 +/- 0.0000e+00 0.0000e+00 0.0000e+00 [bar]
 3.8236e+01  1.5712e+02 -5.7916e+01 +/- 0.0000e+00 0.0000e+00 0.0000e+00 [bar]
 7.2544e+01 -5.7916e+01  2.3389e+02 +/- 0.0000e+00 0.0000e+00 0.0000e+00 [bar]
Ideal-gas pressure:   5.138295e+02 +/ 0.000000e+00 [bar]
Excess pressure:     -2.784308e+02 +/ 0.000000e+00 [bar]
Pressure:             2.353987e+02 +/ 0.000000e+00 [bar]

Total potential energy/kʙ  -3.151556e+05 (-3.124963e+05 +/- 0.000000e+00) [K]
-------------------------------------------------------------------------------
ExternalField-molecule
    Van der Waals/kʙ        0.000000e+00 ( 0.000000e+00 +/- 0.000000e+00) [K]
Framework-molecule
    Van der Waals/kʙ        0.000000e+00 ( 0.000000e+00 +/- 0.000000e+00) [K]
    Van der Waals (Tail)/kʙ 0.000000e+00 ( 0.000000e+00 +/- 0.000000e+00) [K]
    Coulombic Real/kʙ       0.000000e+00 ( 0.000000e+00 +/- 0.000000e+00) [K]
    Coulombic Fourier/kʙ    0.000000e+00 ( 0.000000e+00 +/- 0.000000e+00) [K]
Molecule-molecule
    Van der Waals/kʙ       -2.260738e+05 (-2.260821e+05 +/- 0.000000e+00) [K]
    Van der Waals (Tail)/kʙ-5.562914e+03 (-5.530824e+03 +/- 0.000000e+00) [K]
    Coulombic Real/kʙ      -7.647507e+04 (-7.398014e+04 +/- 0.000000e+00) [K]
    Coulombic Fourier/kʙ   -7.043798e+03 (-6.903169e+03 +/- 0.000000e+00) [K]
    Molecule Intra/kʙ       0.000000e+00 ( 0.000000e+00 +/- 0.000000e+00) [K]

Current cycle: 1200 out of 5000
===============================================================================

Box:      23.75458   0.00000   0.00000  Average:  23.77281   0.00000   0.00000
           0.00000  23.75458   0.00000             0.00000  23.77281   0.00000
           0.00000   0.00000  23.75458             0.00000   0.00000  23.77281
Lengths:  23.75458  23.75458  23.75458  Average:  23.77281  23.77281  23.77281
Angles:   90.00000  90.00000  90.00000  Average:  90.00000  90.00000  90.00000
Rectangular boundary conditions

net charge:   0.00000000

component 0 (CO2) lambda:  0 occupancy:  1 (1.000000)
    net charge:   0.00000000 [e]

Amount of molecules per component :
-------------------------------------------------------------------------------
Component 0 (CO2)
    molecules:      2.000000e+02 molecules  (2.000000e+02 +/- 0.000000e+00)
    number density: 1.492066e-02 molec./A^3 (1.489002e-02 +/- 0.000000e+00)
    density:        1.090129e+03 kg/m^3     (1.087890e+03 +/- 0.000000e+00)

Average pressure tensor: 
-------------------------------------------------------------------------------
 2.9346e+02  3.6629e+01  6.7259e+01 +/- 0.0000e+00 0.0000e+00 0.0000e+00 [bar]
 3.6629e+01  1.3897e+02 -5.5791e+01 +/- 0.0000e+00 0.0000e+00 0.0000e+00 [bar]
 6.7259e+01 -5.5791e+01  2.2934e+02 +/- 0.0000e+00 0.0000e+00 0.0000e+00 [bar]
Ideal-gas pressure:   5.139477e+02 +/ 0.000000e+00 [bar]
Excess pressure:     -2.933579e+02 +/ 0.000000e+00 [bar]
Pressure:             2.205899e+02 +/ 0.000000e+00 [bar]

Total potential energy/kʙ  -3.154322e+05 (-3.126423e+05 +/- 0.000000e+00) [K]
-------------------------------------------------------------------------------
ExternalField-molecule
    Van der Waals/kʙ        0.000000e+00 ( 0.000000e+00 +/- 0.000000e+00) [K]
Framework-molecule
    Van der Waals/kʙ        0.000000e+00 ( 0.000000e+00 +/- 0.000000e+00) [K]
    Van der Waals (Tail)/kʙ 0.000000e+00 ( 0.000000e+00 +/- 0.000000e+00) [K]
    Coulombic Real/kʙ       0.000000e+00 ( 0.000000e+00 +/- 0.000000e+00) [K]
    Coulombic Fourier/kʙ    0.000000e+00 ( 0.000000e+00 +/- 0.000000e+00) [K]
Molecule-molecule
    Van der Waals/kʙ       -2.343615e+05 (-2.263611e+05 +/- 0.000000e+00) [K]
    Van der Waals (Tail)/kʙ-5.541845e+03 (-5.530752e+03 +/- 0.000000e+00) [K]
    Coulombic Real/kʙ      -6.841576e+04 (-7.384275e+04 +/- 0.000000e+00) [K]
    Coulombic Fourier/kʙ   -7.113111e+03 (-6.907704e+03 +/- 0.000000e+00) [K]
    Molecule Intra/kʙ       0.000000e+00 ( 0.000000e+00 +/- 0.000000e+00) [K]

Current cycle: 1300 out of 5000
===============================================================================

Box:      24.01164   0.00000   0.00000  Average:  23.77286   0.00000   0.00000
           0.00000  24.01164   0.00000             0.00000  23.77286   0.00000
           0.00000   0.00000  24.01164             0.00000   0.00000  23.77286
Lengths:  24.01164  24.01164  24.01164  Average:  23.77286  23.77286  23.77286
Angles:   90.00000  90.00000  90.00000  Average:  90.00000  90.00000  90.00000
Rectangular boundary conditions

net charge:   0.00000000

component 0 (CO2) lambda:  0 occupancy:  1 (1.000000)
    net charge:   0.00000000 [e]

Amount of molecules per component :
-------------------------------------------------------------------------------
Component 0 (CO2)
    molecules:      2.000000e+02 molecules  (2.000000e+02 +/- 0.000000e+00)
    number density: 1.444657e-02 molec./A^3 (1.488979e-02 +/- 0.000000e+00)
    density:        1.055491e+03 kg/m^3     (1.087873e+03 +/- 0.000000e+00)

Average pressure tensor: 
-------------------------------------------------------------------------------
 2.8826e+02  4.0254e+01  6.7625e+01 +/- 0.0000e+00 0.0000e+00 0.0000e+00 [bar]
 4.0254e+01  1.5650e+02 -4.6781e+01 +/- 0.0000e+00 0.0000e+00 0.0000e+00 [bar]
 6.7625e+01 -4.6781e+01  2.2948e+02 +/- 0.0000e+00 0.0000e+00 0.0000e+00 [bar]
Ideal-gas pressure:   5.139398e+02 +/ 0.000000e+00 [bar]
Excess pressure:     -2.891960e+02 +/ 0.000000e+00 [bar]
Pressure:             2.247438e+02 +/ 0.000000e+00 [bar]

Total potential energy/kʙ  -3.080219e+05 (-3.127631e+05 +/- 0.000000e+00) [K]
-------------------------------------------------------------------------------
ExternalField-molecule
    Van der Waals/kʙ        0.000000e+00 ( 0.000000e+00 +/- 0.000000e+00) [K]
Framework-molecule
    Van der Waals/kʙ        0.000000e+00 ( 0.000000e+00 +/- 0.000000e+00) [K]
    Van der Waals (Tail)/kʙ 0.000000e+00 ( 0.000000e+00 +/- 0.000000e+00) [K]
    Coulombic Real/kʙ       0.000000e+00 ( 0.000000e+00 +/- 0.000000e+00) [K]
    Coulombic Fourier/kʙ    0.000000e+00 ( 0.000000e+00 +/- 0.000000e+00) [K]
Molecule-molecule
    Van der Waals/kʙ       -2.246031e+05 (-2.263076e+05 +/- 0.000000e+00) [K]
    Van der Waals (Tail)/kʙ-5.365755e+03 (-5.531101e+03 +/- 0.000000e+00) [K]
    Coulombic Real/kʙ      -7.083569e+04 (-7.400611e+04 +/- 0.000000e+00) [K]
    Coulombic Fourier/kʙ   -7.217350e+03 (-6.918252e+03 +/- 0.000000e+00) [K]
    Molecule Intra/kʙ       0.000000e+00 ( 0.000000e+00 +/- 0.000000e+00) [K]

Current cycle: 1400 out of 5000
===============================================================================

Box:      23.75260   0.00000   0.00000  Average:  23.77097   0.00000   0.00000
           0.00000  23.75260   0.00000             0.00000  23.77097   0.00000
           0.00000   0.00000  23.75260             0.00000   0.00000  23.77097
Lengths:  23.75260  23.75260  23.75260  Average:  23.77097  23.77097  23.77097
Angles:   90.00000  90.00000  90.00000  Average:  90.00000  90.00000  90.00000
Rectangular boundary conditions

net charge:   0.00000000

component 0 (CO2) lambda:  0 occupancy:  1 (1.000000)
    net charge:   0.00000000 [e]

Amount of molecules per component :
-------------------------------------------------------------------------------
Component 0 (CO2)
    molecules:      2.000000e+02 molecules  (2.000000e+02 +/- 0.000000e+00)
    number density: 1.492440e-02 molec./A^3 (1.489323e-02 +/- 0.000000e+00)
    density:        1.090402e+03 kg/m^3     (1.088125e+03 +/- 0.000000e+00)

Average pressure tensor: 
-------------------------------------------------------------------------------
 2.6577e+02  3.5395e+01  8.5066e+01 +/- 0.0000e+00 0.0000e+00 0.0000e+00 [bar]
 3.5395e+01  1.6771e+02 -3.1802e+01 +/- 0.0000e+00 0.0000e+00 0.0000e+00 [bar]
 8.5066e+01 -3.1802e+01  2.1468e+02 +/- 0.0000e+00 0.0000e+00 0.0000e+00 [bar]
Ideal-gas pressure:   5.140587e+02 +/ 0.000000e+00 [bar]
Excess pressure:     -2.980036e+02 +/ 0.000000e+00 [bar]
Pressure:             2.160551e+02 +/ 0.000000e+00 [bar]

Total potential energy/kʙ  -3.260823e+05 (-3.132818e+05 +/- 0.000000e+00) [K]
-------------------------------------------------------------------------------
ExternalField-molecule
    Van der Waals/kʙ        0.000000e+00 ( 0.000000e+00 +/- 0.000000e+00) [K]
Framework-molecule
    Van der Waals/kʙ        0.000000e+00 ( 0.000000e+00 +/- 0.000000e+00) [K]
    Van der Waals (Tail)/kʙ 0.000000e+00 ( 0.000000e+00 +/- 0.000000e+00) [K]
    Coulombic Real/kʙ       0.000000e+00 ( 0.000000e+00 +/- 0.000000e+00) [K]
    Coulombic Fourier/kʙ    0.000000e+00 ( 0.000000e+00 +/- 0.000000e+00) [K]
Molecule-molecule
    Van der Waals/kʙ       -2.307177e+05 (-2.264785e+05 +/- 0.000000e+00) [K]
    Van der Waals (Tail)/kʙ-5.543231e+03 (-5.532426e+03 +/- 0.000000e+00) [K]
    Coulombic Real/kʙ      -8.264051e+04 (-7.433310e+04 +/- 0.000000e+00) [K]
    Coulombic Fourier/kʙ   -7.180872e+03 (-6.937702e+03 +/- 0.000000e+00) [K]
    Molecule Intra/kʙ       0.000000e+00 ( 0.000000e+00 +/- 0.000000e+00) [K]

Current cycle: 1500 out of 5000
===============================================================================

Box:      23.50190   0.00000   0.00000  Average:  23.75837   0.00000   0.00000
           0.00000  23.50190   0.00000             0.00000  23.75837   0.00000
           0.00000   0.00000  23.50190             0.00000   0.00000  23.75837
Lengths:  23.50190  23.50190  23.50190  Average:  23.75837  23.75837  23.75837
Angles:   90.00000  90.00000  90.00000  Average:  90.00000  90.00000  90.00000
Rectangular boundary conditions

net charge:   0.00000000

component 0 (CO2) lambda:  0 occupancy:  1 (1.000000)
    net charge:   0.00000000 [e]

Amount of molecules per component :
-------------------------------------------------------------------------------
Component 0 (CO2)
    molecules:      2.000000e+02 molecules  (2.000000e+02 +/- 0.000000e+00)
    number density: 1.540711e-02 molec./A^3 (1.491718e-02 +/- 0.000000e+00)
    density:        1.125670e+03 kg/m^3     (1.089875e+03 +/- 0.000000e+00)

Average pressure tensor: 
-------------------------------------------------------------------------------
 2.6499e+02  2.6255e+01  9.2469e+01 +/- 0.0000e+00 0.0000e+00 0.0000e+00 [bar]
 2.6255e+01  1.7244e+02 -2.7643e+01 +/- 0.0000e+00 0.0000e+00 0.0000e+00 [bar]
 9.2469e+01 -2.7643e+01  2.2005e+02 +/- 0.0000e+00 0.0000e+00 0.0000e+00 [bar]
Ideal-gas pressure:   5.148854e+02 +/ 0.000000e+00 [bar]
Excess pressure:     -2.957234e+02 +/ 0.000000e+00 [bar]
Pressure:             2.191620e+02 +/ 0.000000e+00 [bar]

Total potential energy/kʙ  -3.233346e+05 (-3.139381e+05 +/- 0.000000e+00) [K]
-------------------------------------------------------------------------------
ExternalField-molecule
    Van der Waals/kʙ        0.000000e+00 ( 0.000000e+00 +/- 0.000000e+00) [K]
Framework-molecule
    Van der Waals/kʙ        0.000000e+00 ( 0.000000e+00 +/- 0.000000e+00) [K]
    Van der Waals (Tail)/kʙ 0.000000e+00 ( 0.000000e+00 +/- 0.000000e+00) [K]
    Coulombic Real/kʙ       0.000000e+00 ( 0.000000e+00 +/- 0.000000e+00) [K]
    Coulombic Fourier/kʙ    0.000000e+00 ( 0.000000e+00 +/- 0.000000e+00) [K]
Molecule-molecule
    Van der Waals/kʙ       -2.379651e+05 (-2.269453e+05 +/- 0.000000e+00) [K]
    Van der Waals (Tail)/kʙ-5.722519e+03 (-5.542145e+03 +/- 0.000000e+00) [K]
    Coulombic Real/kʙ      -7.266450e+04 (-7.449956e+04 +/- 0.000000e+00) [K]
    Coulombic Fourier/kʙ   -6.982476e+03 (-6.951049e+03 +/- 0.000000e+00) [K]
    Molecule Intra/kʙ       0.000000e+00 ( 0.000000e+00 +/- 0.000000e+00) [K]

Current cycle: 1600 out of 5000
===============================================================================

Box:      23.67952   0.00000   0.00000  Average:  23.74597   0.00000   0.00000
           0.00000  23.67952   0.00000             0.00000  23.74597   0.00000
           0.00000   0.00000  23.67952             0.00000   0.00000  23.74597
Lengths:  23.67952  23.67952  23.67952  Average:  23.74597  23.74597  23.74597
Angles:   90.00000  90.00000  90.00000  Average:  90.00000  90.00000  90.00000
Rectangular boundary conditions

net charge:   0.00000000

component 0 (CO2) lambda:  0 occupancy:  1 (1.000000)
    net charge:   0.00000000 [e]

Amount of molecules per component :
-------------------------------------------------------------------------------
Component 0 (CO2)
    molecules:      2.000000e+02 molecules  (2.000000e+02 +/- 0.000000e+00)
    number density: 1.506299e-02 molec./A^3 (1.494079e-02 +/- 0.000000e+00)
    density:        1.100528e+03 kg/m^3     (1.091600e+03 +/- 0.000000e+00)

Average pressure tensor: 
-------------------------------------------------------------------------------
 2.5177e+02  1.3361e+01  9.6058e+01 +/- 0.0000e+00 0.0000e+00 0.0000e+00 [bar]
 1.3361e+01  1.6957e+02 -2.0764e+01 +/- 0.0000e+00 0.0000e+00 0.0000e+00 [bar]
 9.6058e+01 -2.0764e+01  2.2575e+02 +/- 0.0000e+00 0.0000e+00 0.0000e+00 [bar]
Ideal-gas pressure:   5.157002e+02 +/ 0.000000e+00 [bar]
Excess pressure:     -3.000064e+02 +/ 0.000000e+00 [bar]
Pressure:             2.156938e+02 +/ 0.000000e+00 [bar]

Total potential energy/kʙ  -3.177073e+05 (-3.144884e+05 +/- 0.000000e+00) [K]
-------------------------------------------------------------------------------
ExternalField-molecule
    Van der Waals/kʙ        0.000000e+00 ( 0.000000e+00 +/- 0.000000e+00) [K]
Framework-molecule
    Van der Waals/kʙ        0.000000e+00 ( 0.000000e+00 +/- 0.000000e+00) [K]
    Van der Waals (Tail)/kʙ 0.000000e+00 ( 0.000000e+00 +/- 0.000000e+00) [K]
    Coulombic Real/kʙ       0.000000e+00 ( 0.000000e+00 +/- 0.000000e+00) [K]
    Coulombic Fourier/kʙ    0.000000e+00 ( 0.000000e+00 +/- 0.000000e+00) [K]
Molecule-molecule
    Van der Waals/kʙ       -2.327401e+05 (-2.274520e+05 +/- 0.000000e+00) [K]
    Van der Waals (Tail)/kʙ-5.594708e+03 (-5.550565e+03 +/- 0.000000e+00) [K]
    Coulombic Real/kʙ      -7.233160e+04 (-7.454456e+04 +/- 0.000000e+00) [K]
    Coulombic Fourier/kʙ   -7.040923e+03 (-6.941261e+03 +/- 0.000000e+00) [K]
    Molecule Intra/kʙ       0.000000e+00 ( 0.000000e+00 +/- 0.000000e+00) [K]

Current cycle: 1700 out of 5000
===============================================================================

Box:      23.63317   0.00000   0.00000  Average:  23.73951   0.00000   0.00000
           0.00000  23.63317   0.00000             0.00000  23.73951   0.00000
           0.00000   0.00000  23.63317             0.00000   0.00000  23.73951
Lengths:  23.63317  23.63317  23.63317  Average:  23.73951  23.73951  23.73951
Angles:   90.00000  90.00000  90.00000  Average:  90.00000  90.00000  90.00000
Rectangular boundary conditions

net charge:   0.00000000

component 0 (CO2) lambda:  0 occupancy:  1 (1.000000)
    net charge:   0.00000000 [e]

Amount of molecules per component :
-------------------------------------------------------------------------------
Component 0 (CO2)
    molecules:      2.000000e+02 molecules  (2.000000e+02 +/- 0.000000e+00)
    number density: 1.515179e-02 molec./A^3 (1.495292e-02 +/- 0.000000e+00)
    density:        1.107016e+03 kg/m^3     (1.092486e+03 +/- 0.000000e+00)

Average pressure tensor: 
-------------------------------------------------------------------------------
 2.4617e+02  4.5803e+00  9.1624e+01 +/- 0.0000e+00 0.0000e+00 0.0000e+00 [bar]
 4.5803e+00  1.5761e+02 -1.6753e+01 +/- 0.0000e+00 0.0000e+00 0.0000e+00 [bar]
 9.1624e+01 -1.6753e+01  2.3579e+02 +/- 0.0000e+00 0.0000e+00 0.0000e+00 [bar]
Ideal-gas pressure:   5.161188e+02 +/ 0.000000e+00 [bar]
Excess pressure:     -3.029295e+02 +/ 0.000000e+00 [bar]
Pressure:             2.131893e+02 +/ 0.000000e+00 [bar]

Total potential energy/kʙ  -3.211176e+05 (-3.148170e+05 +/- 0.000000e+00) [K]
-------------------------------------------------------------------------------
ExternalField-molecule
    Van der Waals/kʙ        0.000000e+00 ( 0.000000e+00 +/- 0.000000e+00) [K]
Framework-molecule
    Van der Waals/kʙ        0.000000e+00 ( 0.000000e+00 +/- 0.000000e+00) [K]
    Van der Waals (Tail)/kʙ 0.000000e+00 ( 0.000000e+00 +/- 0.000000e+00) [K]
    Coulombic Real/kʙ       0.000000e+00 ( 0.000000e+00 +/- 0.000000e+00) [K]
    Coulombic Fourier/kʙ    0.000000e+00 ( 0.000000e+00 +/- 0.000000e+00) [K]
Molecule-molecule
    Van der Waals/kʙ       -2.290921e+05 (-2.277030e+05 +/- 0.000000e+00) [K]
    Van der Waals (Tail)/kʙ-5.627691e+03 (-5.554851e+03 +/- 0.000000e+00) [K]
    Coulombic Real/kʙ      -7.991792e+04 (-7.462942e+04 +/- 0.000000e+00) [K]
    Coulombic Fourier/kʙ   -6.479905e+03 (-6.929745e+03 +/- 0.000000e+00) [K]
    Molecule Intra/kʙ       0.000000e+00 ( 0.000000e+00 +/- 0.000000e+00) [K]

Current cycle: 1800 out of 5000
===============================================================================

Box:      23.45957   0.00000   0.00000  Average:  23.72747   0.00000   0.00000
           0.00000  23.45957   0.00000             0.00000  23.72747   0.00000
           0.00000   0.00000  23.45957             0.00000   0.00000  23.72747
Lengths:  23.45957  23.45957  23.45957  Average:  23.72747  23.72747  23.72747
Angles:   90.00000  90.00000  90.00000  Average:  90.00000  90.00000  90.00000
Rectangular boundary conditions

net charge:   0.00000000

component 0 (CO2) lambda:  0 occupancy:  1 (1.000000)
    net charge:   0.00000000 [e]

Amount of molecules per component :
-------------------------------------------------------------------------------
Component 0 (CO2)
    molecules:      2.000000e+02 molecules  (2.000000e+02 +/- 0.000000e+00)
    number density: 1.549066e-02 molec./A^3 (1.497596e-02 +/- 0.000000e+00)
    density:        1.131774e+03 kg/m^3     (1.094169e+03 +/- 0.000000e+00)

Average pressure tensor: 
-------------------------------------------------------------------------------
 2.4320e+02  2.9382e+00  8.8489e+01 +/- 0.0000e+00 0.0000e+00 0.0000e+00 [bar]
 2.9382e+00  1.6317e+02 -6.5469e+00 +/- 0.0000e+00 0.0000e+00 0.0000e+00 [bar]
 8.8489e+01 -6.5469e+00  2.4190e+02 +/- 0.0000e+00 0.0000e+00 0.0000e+00 [bar]
Ideal-gas pressure:   5.169141e+02 +/ 0.000000e+00 [bar]
Excess pressure:     -3.008275e+02 +/ 0.000000e+00 [bar]
Pressure:             2.160866e+02 +/ 0.000000e+00 [bar]

Total potential energy/kʙ  -3.366294e+05 (-3.155919e+05 +/- 0.000000e+00) [K]
-------------------------------------------------------------------------------
ExternalField-molecule
    Van der Waals/kʙ        0.000000e+00 ( 0.000000e+00 +/- 0.000000e+00) [K]
Framework-molecule
    Van der Waals/kʙ        0.000000e+00 ( 0.000000e+00 +/- 0.000000e+00) [K]
    Van der Waals (Tail)/kʙ 0.000000e+00 ( 0.000000e+00 +/- 0.000000e+00) [K]
    Coulombic Real/kʙ       0.000000e+00 ( 0.000000e+00 +/- 0.000000e+00) [K]
    Coulombic Fourier/kʙ    0.000000e+00 ( 0.000000e+00 +/- 0.000000e+00) [K]
Molecule-molecule
    Van der Waals/kʙ       -2.406351e+05 (-2.282479e+05 +/- 0.000000e+00) [K]
    Van der Waals (Tail)/kʙ-5.753554e+03 (-5.564107e+03 +/- 0.000000e+00) [K]
    Coulombic Real/kʙ      -8.329679e+04 (-7.486388e+04 +/- 0.000000e+00) [K]
    Coulombic Fourier/kʙ   -6.943932e+03 (-6.916013e+03 +/- 0.000000e+00) [K]
    Molecule Intra/kʙ       0.000000e+00 ( 0.000000e+00 +/- 0.000000e+00) [K]

Current cycle: 1900 out of 5000
===============================================================================

Box:      23.38165   0.00000   0.00000  Average:  23.71427   0.00000   0.00000
           0.00000  23.38165   0.00000             0.00000  23.71427   0.00000
           0.00000   0.00000  23.38165             0.00000   0.00000  23.71427
Lengths:  23.38165  23.38165  23.38165  Average:  23.71427  23.71427  23.71427
Angles:   90.00000  90.00000  90.00000  Average:  90.00000  90.00000  90.00000
Rectangular boundary conditions

net charge:   0.00000000

component 0 (CO2) lambda:  0 occupancy:  1 (1.000000)
    net charge:   0.00000000 [e]

Amount of molecules per component :
-------------------------------------------------------------------------------
Component 0 (CO2)
    molecules:      2.000000e+02 molecules  (2.000000e+02 +/- 0.000000e+00)
    number density: 1.564605e-02 molec./A^3 (1.500132e-02 +/- 0.000000e+00)
    density:        1.143127e+03 kg/m^3     (1.096022e+03 +/- 0.000000e+00)

Average pressure tensor: 
-------------------------------------------------------------------------------
 2.2061e+02  1.7103e+00  7.9221e+01 +/- 0.0000e+00 0.0000e+00 0.0000e+00 [bar]
 1.7103e+00  1.6658e+02 -4.1960e+00 +/- 0.0000e+00 0.0000e+00 0.0000e+00 [bar]
 7.9221e+01 -4.1960e+00  2.4434e+02 +/- 0.0000e+00 0.0000e+00 0.0000e+00 [bar]
Ideal-gas pressure:   5.177894e+02 +/ 0.000000e+00 [bar]
Excess pressure:     -3.072786e+02 +/ 0.000000e+00 [bar]
Pressure:             2.105108e+02 +/ 0.000000e+00 [bar]

Total potential energy/kʙ  -3.335037e+05 (-3.164418e+05 +/- 0.000000e+00) [K]
-------------------------------------------------------------------------------
ExternalField-molecule
    Van der Waals/kʙ        0.000000e+00 ( 0.000000e+00 +/- 0.000000e+00) [K]
Framework-molecule
    Van der Waals/kʙ        0.000000e+00 ( 0.000000e+00 +/- 0.000000e+00) [K]
    Van der Waals (Tail)/kʙ 0.000000e+00 ( 0.000000e+00 +/- 0.000000e+00) [K]
    Coulombic Real/kʙ       0.000000e+00 ( 0.000000e+00 +/- 0.000000e+00) [K]
    Coulombic Fourier/kʙ    0.000000e+00 ( 0.000000e+00 +/- 0.000000e+00) [K]
Molecule-molecule
    Van der Waals/kʙ       -2.369022e+05 (-2.287876e+05 +/- 0.000000e+00) [K]
    Van der Waals (Tail)/kʙ-5.811269e+03 (-5.573597e+03 +/- 0.000000e+00) [K]
    Coulombic Real/kʙ      -8.415576e+04 (-7.515663e+04 +/- 0.000000e+00) [K]
    Coulombic Fourier/kʙ   -6.634492e+03 (-6.923959e+03 +/- 0.000000e+00) [K]
    Molecule Intra/kʙ       0.000000e+00 ( 0.000000e+00 +/- 0.000000e+00) [K]

Current cycle: 2000 out of 5000
===============================================================================

Box:      23.56483   0.00000   0.00000  Average:  23.70652   0.00000   0.00000
           0.00000  23.56483   0.00000             0.00000  23.70652   0.00000
           0.00000   0.00000  23.56483             0.00000   0.00000  23.70652
Lengths:  23.56483  23.56483  23.56483  Average:  23.70652  23.70652  23.70652
Angles:   90.00000  90.00000  90.00000  Average:  90.00000  90.00000  90.00000
Rectangular boundary conditions

net charge:   0.00000000

component 0 (CO2) lambda:  0 occupancy:  1 (1.000000)
    net charge:   0.00000000 [e]

Amount of molecules per component :
-------------------------------------------------------------------------------
Component 0 (CO2)
    molecules:      2.000000e+02 molecules  (2.000000e+02 +/- 0.000000e+00)
    number density: 1.528401e-02 molec./A^3 (1.501607e-02 +/- 0.000000e+00)
    density:        1.116676e+03 kg/m^3     (1.097100e+03 +/- 0.000000e+00)

Average pressure tensor: 
-------------------------------------------------------------------------------
 2.2138e+02  6.9069e+00  7.7066e+01 +/- 0.0000e+00 0.0000e+00 0.0000e+00 [bar]
 6.9069e+00  1.7298e+02 -1.0971e+01 +/- 0.0000e+00 0.0000e+00 0.0000e+00 [bar]
 7.7066e+01 -1.0971e+01  2.3741e+02 +/- 0.0000e+00 0.0000e+00 0.0000e+00 [bar]
Ideal-gas pressure:   5.182985e+02 +/ 0.000000e+00 [bar]
Excess pressure:     -3.077100e+02 +/ 0.000000e+00 [bar]
Pressure:             2.105886e+02 +/ 0.000000e+00 [bar]

Total potential energy/kʙ  -3.279791e+05 (-3.170529e+05 +/- 0.000000e+00) [K]
-------------------------------------------------------------------------------
ExternalField-molecule
    Van der Waals/kʙ        0.000000e+00 ( 0.000000e+00 +/- 0.000000e+00) [K]
Framework-molecule
    Van der Waals/kʙ        0.000000e+00 ( 0.000000e+00 +/- 0.000000e+00) [K]
    Van der Waals (Tail)/kʙ 0.000000e+00 ( 0.000000e+00 +/- 0.000000e+00) [K]
    Coulombic Real/kʙ       0.000000e+00 ( 0.000000e+00 +/- 0.000000e+00) [K]
    Coulombic Fourier/kʙ    0.000000e+00 ( 0.000000e+00 +/- 0.000000e+00) [K]
Molecule-molecule
    Van der Waals/kʙ       -2.286235e+05 (-2.290989e+05 +/- 0.000000e+00) [K]
    Van der Waals (Tail)/kʙ-5.676799e+03 (-5.578303e+03 +/- 0.000000e+00) [K]
    Coulombic Real/kʙ      -8.694697e+04 (-7.546298e+04 +/- 0.000000e+00) [K]
    Coulombic Fourier/kʙ   -6.731807e+03 (-6.912749e+03 +/- 0.000000e+00) [K]
    Molecule Intra/kʙ       0.000000e+00 ( 0.000000e+00 +/- 0.000000e+00) [K]

Current cycle: 2100 out of 5000
===============================================================================

Box:      23.80417   0.00000   0.00000  Average:  23.70365   0.00000   0.00000
           0.00000  23.80417   0.00000             0.00000  23.70365   0.00000
           0.00000   0.00000  23.80417             0.00000   0.00000  23.70365
Lengths:  23.80417  23.80417  23.80417  Average:  23.70365  23.70365  23.70365
Angles:   90.00000  90.00000  90.00000  Average:  90.00000  90.00000  90.00000
Rectangular boundary conditions

net charge:   0.00000000

component 0 (CO2) lambda:  0 occupancy:  1 (1.000000)
    net charge:   0.00000000 [e]

Amount of molecules per component :
-------------------------------------------------------------------------------
Component 0 (CO2)
    molecules:      2.000000e+02 molecules  (2.000000e+02 +/- 0.000000e+00)
    number density: 1.482761e-02 molec./A^3 (1.502138e-02 +/- 0.000000e+00)
    density:        1.083330e+03 kg/m^3     (1.097487e+03 +/- 0.000000e+00)

Average pressure tensor: 
-------------------------------------------------------------------------------
 2.2777e+02  1.8843e+01  6.7283e+01 +/- 0.0000e+00 0.0000e+00 0.0000e+00 [bar]
 1.8843e+01  1.7259e+02 -4.8414e+00 +/- 0.0000e+00 0.0000e+00 0.0000e+00 [bar]
 6.7283e+01 -4.8414e+00  2.3544e+02 +/- 0.0000e+00 0.0000e+00 0.0000e+00 [bar]
Ideal-gas pressure:   5.184817e+02 +/ 0.000000e+00 [bar]
Excess pressure:     -3.065502e+02 +/ 0.000000e+00 [bar]
Pressure:             2.119315e+02 +/ 0.000000e+00 [bar]

Total potential energy/kʙ  -3.202303e+05 (-3.175031e+05 +/- 0.000000e+00) [K]
-------------------------------------------------------------------------------
ExternalField-molecule
    Van der Waals/kʙ        0.000000e+00 ( 0.000000e+00 +/- 0.000000e+00) [K]
Framework-molecule
    Van der Waals/kʙ        0.000000e+00 ( 0.000000e+00 +/- 0.000000e+00) [K]
    Van der Waals (Tail)/kʙ 0.000000e+00 ( 0.000000e+00 +/- 0.000000e+00) [K]
[...]
    Coulombic Fourier/kʙ    0.000000e+00 ( 0.000000e+00 +/- 0.000000e+00) [K]
Molecule-molecule
    Van der Waals/kʙ       -2.357736e+05 (-2.295446e+05 +/- 3.540335e+03) [K]
    Van der Waals (Tail)/kʙ-5.605333e+03 (-5.584383e+03 +/- 5.887464e+01) [K]
    Coulombic Real/kʙ      -7.193927e+04 (-7.612608e+04 +/- 2.312207e+03) [K]
    Coulombic Fourier/kʙ   -7.476999e+03 (-7.022918e+03 +/- 1.679821e+02) [K]
    Molecule Intra/kʙ       0.000000e+00 ( 0.000000e+00 +/- 0.000000e+00) [K]

Current cycle: 4700 out of 5000
===============================================================================

Box:      23.51943   0.00000   0.00000  Average:  23.69109   0.00000   0.00000
           0.00000  23.51943   0.00000             0.00000  23.69109   0.00000
           0.00000   0.00000  23.51943             0.00000   0.00000  23.69109
Lengths:  23.51943  23.51943  23.51943  Average:  23.69109  23.69109  23.69109
Angles:   90.00000  90.00000  90.00000  Average:  90.00000  90.00000  90.00000
Rectangular boundary conditions

net charge:   0.00000000

component 0 (CO2) lambda:  0 occupancy:  1 (1.000000)
    net charge:   0.00000000 [e]

Amount of molecules per component :
-------------------------------------------------------------------------------
Component 0 (CO2)
    molecules:      2.000000e+02 molecules  (2.000000e+02 +/- 0.000000e+00)
    number density: 1.537268e-02 molec./A^3 (1.504535e-02 +/- 1.643109e-04)
    density:        1.123154e+03 kg/m^3     (1.099239e+03 +/- 1.200483e+01)

Average pressure tensor: 
-------------------------------------------------------------------------------
 2.2066e+02  7.4083e+00  4.1743e+01 +/- 8.5635e+01 7.3171e+01 7.8351e+01 [bar]
 7.4083e+00  1.5732e+02  4.8999e+01 +/- 7.3171e+01 4.0140e+01 8.2741e+01 [bar]
 4.1743e+01  4.8999e+01  2.0660e+02 +/- 7.8351e+01 8.2741e+01 8.0391e+01 [bar]
Ideal-gas pressure:   5.193091e+02 +/ 5.671396e+00 [bar]
Excess pressure:     -3.244492e+02 +/ 3.350819e+01 [bar]
Pressure:             1.948599e+02 +/ 3.020965e+01 [bar]

Total potential energy/kʙ  -3.268128e+05 (-3.183845e+05 +/- 5.845510e+03) [K]
-------------------------------------------------------------------------------
ExternalField-molecule
    Van der Waals/kʙ        0.000000e+00 ( 0.000000e+00 +/- 0.000000e+00) [K]
Framework-molecule
    Van der Waals/kʙ        0.000000e+00 ( 0.000000e+00 +/- 0.000000e+00) [K]
    Van der Waals (Tail)/kʙ 0.000000e+00 ( 0.000000e+00 +/- 0.000000e+00) [K]
    Coulombic Real/kʙ       0.000000e+00 ( 0.000000e+00 +/- 0.000000e+00) [K]
    Coulombic Fourier/kʙ    0.000000e+00 ( 0.000000e+00 +/- 0.000000e+00) [K]
Molecule-molecule
    Van der Waals/kʙ       -2.328799e+05 (-2.296193e+05 +/- 3.585294e+03) [K]
    Van der Waals (Tail)/kʙ-5.709733e+03 (-5.586954e+03 +/- 6.152015e+01) [K]
    Coulombic Real/kʙ      -8.179646e+04 (-7.615517e+04 +/- 2.302284e+03) [K]
    Coulombic Fourier/kʙ   -6.426683e+03 (-7.023051e+03 +/- 1.672637e+02) [K]
    Molecule Intra/kʙ       0.000000e+00 ( 0.000000e+00 +/- 0.000000e+00) [K]

Current cycle: 4800 out of 5000
===============================================================================

Box:      23.35992   0.00000   0.00000  Average:  23.68615   0.00000   0.00000
           0.00000  23.35992   0.00000             0.00000  23.68615   0.00000
           0.00000   0.00000  23.35992             0.00000   0.00000  23.68615
Lengths:  23.35992  23.35992  23.35992  Average:  23.68615  23.68615  23.68615
Angles:   90.00000  90.00000  90.00000  Average:  90.00000  90.00000  90.00000
Rectangular boundary conditions

net charge:   0.00000000

component 0 (CO2) lambda:  0 occupancy:  1 (1.000000)
    net charge:   0.00000000 [e]

Amount of molecules per component :
-------------------------------------------------------------------------------
Component 0 (CO2)
    molecules:      2.000000e+02 molecules  (2.000000e+02 +/- 0.000000e+00)
    number density: 1.568975e-02 molec./A^3 (1.505489e-02 +/- 1.759007e-04)
    density:        1.146320e+03 kg/m^3     (1.099936e+03 +/- 1.285161e+01)

Average pressure tensor: 
-------------------------------------------------------------------------------
 2.1796e+02  6.9182e+00  4.0351e+01 +/- 8.6973e+01 6.9567e+01 7.7708e+01 [bar]
 6.9182e+00  1.5587e+02  4.5335e+01 +/- 6.9567e+01 4.1471e+01 8.0125e+01 [bar]
 4.0351e+01  4.5335e+01  2.1069e+02 +/- 7.7708e+01 8.0125e+01 8.5772e+01 [bar]
Ideal-gas pressure:   5.196385e+02 +/ 6.071435e+00 [bar]
Excess pressure:     -3.247976e+02 +/ 3.332898e+01 [bar]
Pressure:             1.948409e+02 +/ 3.003507e+01 [bar]

Total potential energy/kʙ  -3.392835e+05 (-3.186601e+05 +/- 6.050427e+03) [K]
-------------------------------------------------------------------------------
ExternalField-molecule
    Van der Waals/kʙ        0.000000e+00 ( 0.000000e+00 +/- 0.000000e+00) [K]
Framework-molecule
    Van der Waals/kʙ        0.000000e+00 ( 0.000000e+00 +/- 0.000000e+00) [K]
    Van der Waals (Tail)/kʙ 0.000000e+00 ( 0.000000e+00 +/- 0.000000e+00) [K]
    Coulombic Real/kʙ       0.000000e+00 ( 0.000000e+00 +/- 0.000000e+00) [K]
    Coulombic Fourier/kʙ    0.000000e+00 ( 0.000000e+00 +/- 0.000000e+00) [K]
Molecule-molecule
    Van der Waals/kʙ       -2.366064e+05 (-2.298021e+05 +/- 3.770496e+03) [K]
    Van der Waals (Tail)/kʙ-5.827498e+03 (-5.590292e+03 +/- 6.540613e+01) [K]
    Coulombic Real/kʙ      -8.913699e+04 (-7.624574e+04 +/- 2.310097e+03) [K]
    Coulombic Fourier/kʙ   -7.712698e+03 (-7.022006e+03 +/- 1.662025e+02) [K]
    Molecule Intra/kʙ       0.000000e+00 ( 0.000000e+00 +/- 0.000000e+00) [K]

Current cycle: 4900 out of 5000
===============================================================================

Box:      23.50065   0.00000   0.00000  Average:  23.68161   0.00000   0.00000
           0.00000  23.50065   0.00000             0.00000  23.68161   0.00000
           0.00000   0.00000  23.50065             0.00000   0.00000  23.68161
Lengths:  23.50065  23.50065  23.50065  Average:  23.68161  23.68161  23.68161
Angles:   90.00000  90.00000  90.00000  Average:  90.00000  90.00000  90.00000
Rectangular boundary conditions

net charge:   0.00000000

component 0 (CO2) lambda:  0 occupancy:  1 (1.000000)
    net charge:   0.00000000 [e]

Amount of molecules per component :
-------------------------------------------------------------------------------
Component 0 (CO2)
    molecules:      2.000000e+02 molecules  (2.000000e+02 +/- 0.000000e+00)
    number density: 1.540956e-02 molec./A^3 (1.506364e-02 +/- 1.858506e-04)
    density:        1.125849e+03 kg/m^3     (1.100576e+03 +/- 1.357856e+01)

Average pressure tensor: 
-------------------------------------------------------------------------------
 2.1605e+02  1.0963e+01  3.7033e+01 +/- 8.7926e+01 7.4563e+01 7.7673e+01 [bar]
 1.0963e+01  1.5635e+02  4.1858e+01 +/- 7.4563e+01 3.8936e+01 7.9898e+01 [bar]
 3.7033e+01  4.1858e+01  2.1512e+02 +/- 7.7673e+01 7.9898e+01 9.1366e+01 [bar]
Ideal-gas pressure:   5.199406e+02 +/ 6.414868e+00 [bar]
Excess pressure:     -3.241028e+02 +/ 3.353271e+01 [bar]
Pressure:             1.958379e+02 +/ 3.061832e+01 [bar]

Total potential energy/kʙ  -3.297296e+05 (-3.189719e+05 +/- 6.332462e+03) [K]
-------------------------------------------------------------------------------
ExternalField-molecule
    Van der Waals/kʙ        0.000000e+00 ( 0.000000e+00 +/- 0.000000e+00) [K]
Framework-molecule
    Van der Waals/kʙ        0.000000e+00 ( 0.000000e+00 +/- 0.000000e+00) [K]
    Van der Waals (Tail)/kʙ 0.000000e+00 ( 0.000000e+00 +/- 0.000000e+00) [K]
    Coulombic Real/kʙ       0.000000e+00 ( 0.000000e+00 +/- 0.000000e+00) [K]
    Coulombic Fourier/kʙ    0.000000e+00 ( 0.000000e+00 +/- 0.000000e+00) [K]
Molecule-molecule
    Van der Waals/kʙ       -2.308036e+05 (-2.299301e+05 +/- 3.876603e+03) [K]
    Van der Waals (Tail)/kʙ-5.723429e+03 (-5.593616e+03 +/- 6.917930e+01) [K]
    Coulombic Real/kʙ      -8.581107e+04 (-7.641551e+04 +/- 2.405018e+03) [K]
    Coulombic Fourier/kʙ   -7.391499e+03 (-7.032662e+03 +/- 1.728725e+02) [K]
    Molecule Intra/kʙ       0.000000e+00 ( 0.000000e+00 +/- 0.000000e+00) [K]


Energy statistics             |  Energy [K]   | Recomputed [K]|  Drift [K]    |
===============================================================================
Total potential energy/kʙ     | -3.245357e+05 | -3.245357e+05 | -2.049368e-09 |
    external field VDW/kʙ     |  0.000000e+00 |  0.000000e+00 |  0.000000e+00 |
    external field Real/kʙ    |  0.000000e+00 |  0.000000e+00 |  0.000000e+00 |
    framework-molecule VDW/kʙ |  0.000000e+00 |  0.000000e+00 |  0.000000e+00 |
    framework-molecule Real/kʙ|  0.000000e+00 |  0.000000e+00 |  0.000000e+00 |
    molecule-molecule VDW/kʙ  | -2.285946e+05 | -2.285946e+05 | -2.135237e-09 |
    molecule-molecule Real/kʙ | -8.253426e+04 | -8.253426e+04 |  8.750971e-11 |
    Van der Waals (Tail)/kʙ   | -5.658046e+03 | -5.658046e+03 |  0.000000e+00 |
    Ewald Fourier/kʙ          |  4.012257e+03 |  4.012257e+03 | -1.640807e-12 |
    Ewald self/kʙ             | -3.673356e+06 | -3.673356e+06 |  0.000000e+00 |
    Ewald exclusion/kʙ        |  3.661595e+06 |  3.661595e+06 |  0.000000e+00 |
    intra VDW/kʙ              |  0.000000e+00 |  0.000000e+00 |  0.000000e+00 |
    intra Coulombic/kʙ        |  0.000000e+00 |  0.000000e+00 |  0.000000e+00 |
    polarization/kʙ           |  0.000000e+00 |  0.000000e+00 |  0.000000e+00 |
    dU/dlambda VDW/kʙ         |  0.000000e+00 |  0.000000e+00 |  0.000000e+00 |
    dU/dlambda Real/kʙ        |  0.000000e+00 |  0.000000e+00 |  0.000000e+00 |
    dU/dlambda Ewald/kʙ       |  0.000000e+00 |  0.000000e+00 |  0.000000e+00 |
-------------------------------------------------------------------------------


Monte-Carlo moves statistics
===============================================================================

    Volume change        all:                6721
    Volume change        total:              6721
    Volume change        constructed:        6721
    Volume change        accepted:           2452
    Volume change        fraction:       0.364827
    Volume change        max-change:     0.040000

Component 0 [CO2]
    Reinsertion (CBMC)   all:              330841
    Reinsertion (CBMC)   total:            330841
    Reinsertion (CBMC)   constructed:      281697
    Reinsertion (CBMC)   accepted:           2737
    Reinsertion (CBMC)   fraction:       0.008273
    Reinsertion (CBMC)   max-change:     0.000000

    Translation          all:              331421
    Translation          total:            110584     110287     110550
    Translation          constructed:      110584     110287     110550
    Translation          accepted:          55580      45158      57244
    Translation          fraction:       0.502604   0.409459   0.517811
    Translation          max-change:     0.623377   0.842105   0.600000

    Rotation             all:              331017
    Rotation             total:            110740     109759     110518
    Rotation             constructed:      110740     109757     110518
    Rotation             accepted:          69942      46743      56273
    Rotation             fraction:       0.631588   0.425869   0.509175
    Rotation             max-change:     0.428571   0.833333   0.647059



Production run counting of the MC moves summed over systems and components
===============================================================================

Volume change                          6721 (0.6721 [%])
Reinsertion (CBMC)                   330841 (33.0841 [%])
Translation                          331421 (33.1421 [%])
Rotation                             331017 (33.1017 [%])

Production count MC-steps:          1000000 [-]
               All summed:          1000000 [-]
               difference:                0 [-]


Production run CPU timings of the MC moves
===============================================================================

Component 0 CO2

Rotation                             47.400412 [s]
    Ewald                            13.249650 [s]
    ExternalField-Molecule            0.011524 [s]
    Framework-Molecule                0.011612 [s]
    Molecule-Molecule                32.919916 [s]
    Overhead                          1.207710 [s]

Reinsertion (CBMC)                  219.356718 [s]
    Ewald                            11.515653 [s]
    NonEwald                        207.550399 [s]
    Overhead                          0.290666 [s]

Translation                          47.554055 [s]
    Ewald                            13.320207 [s]
    ExternalField-Molecule            0.012585 [s]
    Framework-Molecule                0.020202 [s]
    Molecule-Molecule                33.083663 [s]
    Overhead                          1.117398 [s]



Volume change                         48.723854 [s]
    Ewald                             10.221055 [s]
    NonEwald                          37.010014 [s]
    Tail                               1.280114 [s]

Property sampling                     0.289095 [s]
Energy/pressure sampling:             6.415912 [s]


Production run CPU timings of the MC moves summed over systems and components
===============================================================================


Translation                          47.554055 [s]
    Ewald                            13.320207 [s]
    ExternalField-Molecule            0.012585 [s]
    Framework-Molecule                0.020202 [s]
    Molecule-Molecule                33.083663 [s]
    Overhead                          1.117398 [s]

Rotation                             47.400412 [s]
    Ewald                            13.249650 [s]
    ExternalField-Molecule            0.011524 [s]
    Framework-Molecule                0.011612 [s]
    Molecule-Molecule                32.919916 [s]
    Overhead                          1.207710 [s]

Volume change                        48.723854 [s]
    Ewald                            10.221055 [s]
    NonEwald                         37.010014 [s]
    Tail                              1.280114 [s]
    Overhead                          0.212671 [s]

Reinsertion (CBMC)                  219.356718 [s]
    Ewald                            11.515653 [s]
    NonEwald                        207.550399 [s]
    Overhead                          0.290666 [s]

Property sampling:                    0.289095 [s]
Energy/pressure sampling:             6.415912 [s]

Production simulation time:         370.423246 [s]
                All summed:         369.740046 [s]
                  Overhead:           0.683200 [s]


Initalization simulation time:       71.978863 [s]
Equilibration simulation time:        0.000000 [s]
Production simulation time:         370.423246 [s]
Total simulation time:              442.402109 [s]


Energy averages and statistics:
===============================================================================

Framework-molecule energy:
-------------------------------------------------------------------------------



Framework-molecule energy contributions per energy type:
-------------------------------------------------------------------------------



Inter-molecular energy:
-------------------------------------------------------------------------------

    Inter-molecular energy/kʙ 0-0 [CO2-CO2]:
    ---------------------------------------------------------------------------
        Block[  0] -3.118095e+05
        Block[  1] -3.221870e+05
        Block[  2] -3.228027e+05
        Block[  3] -3.154899e+05
        Block[  4] -3.234205e+05
        -----------------------------------------------------------------------
        Average  -3.191419e+05 +/-  6.453279e+03 [K]



Inter-molecular energy contributions per energy type:
-------------------------------------------------------------------------------

    Van der Waals energy/kʙ 0-0 [CO2-CO2]:
    ---------------------------------------------------------------------------
        Block[  0] -2.258044e+05
        Block[  1] -2.323981e+05
        Block[  2] -2.314574e+05
        Block[  3] -2.275241e+05
        Block[  4] -2.329015e+05
        -----------------------------------------------------------------------
        Average  -2.300171e+05 +/-  3.927082e+03 [K]

    VDW Tail-Correction energy/kʙ 0-0 [CO2-CO2]:
    ---------------------------------------------------------------------------
        Block[  0] -5.524633e+03
        Block[  1] -5.630988e+03
        Block[  2] -5.616876e+03
        Block[  3] -5.547433e+03
        Block[  4] -5.656284e+03
        -----------------------------------------------------------------------
        Average  -5.595243e+03 +/-  7.007212e+01 [K]

    Coulomb Real energy/kʙ 0-0 [CO2-CO2]:
    ---------------------------------------------------------------------------
        Block[  0] -7.358815e+04
        Block[  1] -7.722297e+04
        Block[  2] -7.849311e+04
        Block[  3] -7.542091e+04
        Block[  4] -7.774551e+04
        -----------------------------------------------------------------------
        Average  -7.649413e+04 +/-  2.458725e+03 [K]

    Coulomb Fourier energy/kʙ 0-0 [CO2-CO2]:
    ---------------------------------------------------------------------------
        Block[  0] -6.892313e+03
        Block[  1] -6.934995e+03
        Block[  2] -7.235338e+03
        Block[  3] -6.997468e+03
        Block[  4] -7.117224e+03
        -----------------------------------------------------------------------
        Average  -7.035467e+03 +/-  1.740977e+02 [K]


Total energy/kʙ
-------------------------------------------------------------------------------
    Block[  0] -3.118095e+05
    Block[  1] -3.221870e+05
    Block[  2] -3.228027e+05
    Block[  3] -3.154899e+05
    Block[  4] -3.234205e+05
    ---------------------------------------------------------------------------
    Average  -3.191419e+05 +/-  6.453279e+03 [K]

Pressure averages and statistics:
===============================================================================

Average pressure tensor: 
-------------------------------------------------------------------------------
 2.1314e+02  9.3161e+00  2.7122e+01 +/- 8.9736e+01 6.9798e+01 8.3905e+01 [bar]
 9.3161e+00  1.5751e+02  3.7587e+01 +/- 6.9798e+01 3.6117e+01 8.1292e+01 [bar]
 2.7122e+01  3.7587e+01  2.1577e+02 +/- 8.3905e+01 8.1292e+01 8.8266e+01 [bar]

    Block[  0]  5.133812e+07
    Block[  1]  5.232065e+07
    Block[  2]  5.221962e+07
    Block[  3]  5.159038e+07
    Block[  4]  5.256762e+07
    ---------------------------------------------------------------------------
    Ideal gas pressure   5.200728e+07 +/-  3.882711e-02 [Pa]
                         5.200728e+02 +/-  6.447397e+00 [bar]


    Block[  0] -2.809563e+07
    Block[  1] -3.342452e+07
    Block[  2] -3.520935e+07
    Block[  3] -3.352423e+07
    Block[  4] -3.204704e+07
    ---------------------------------------------------------------------------
    Excess pressure  -3.246015e+07 +/-  3.333518e+06 [Pa]
                     -3.246015e+02 +/-  3.333518e+01 [bar]


    Block[  0]  2.324249e+07
    Block[  1]  1.889614e+07
    Block[  2]  1.701027e+07
    Block[  3]  1.806615e+07
    Block[  4]  2.052058e+07
    ---------------------------------------------------------------------------
    Pressure average   1.954713e+07 +/-  3.019086e+06 [Pa]
                       1.954713e+02 +/-  3.019086e+01 [bar]


Enthalpy of adsorption
===============================================================================

No fluctuating components present.


Densities
===============================================================================

Component 0 (CO2)
    Block[  0] 200
    Block[  1] 200
    Block[  2] 200
    Block[  3] 200
    Block[  4] 200
    -----------------------------------------------------------------------
    Density average   2.000000e+02 +/-  0.000000e+00 [molecules]
    Density average   1.506747e-02 +/-  1.867931e-04 [molec/A^3]
    Density average   1.100855e+03 +/-  1.364742e+01 [kg.m⁻³]

