Compiler and run-time data
===============================================================================
RASPA 3.0.4

Random seed: 965236858

Compiled as a 64-bits application
Compiler: gcc Ubuntu Clang 18.1.3 (1ubuntu1)
Compile Date = Mar 15 2025, Compile Time = 19:39:45

2025-06-03 11:00:36.158037
Simulation started on Tue, Jun 03
The start time was 11:00:00

Hostname:    c061
OS type:     Linux on x86_64
OS release:  6.8.0-58-generic
OS version:  #60-Ubuntu SMP PREEMPT_DYNAMIC Fri Mar 14 18:29:48 UTC 2025


Mutual consistent basic set of units:
===============================================================================

Unit of temperature: 1 [K]
Unit of length:      1e-10 [m]
Unit of time:        1e-12 [s]
Unit of mass:        1.6605402e-27 [kg]
Unit of charge:      1.60217733e-19 [C/particle]


Boltzmann constant (internal units):          0.8314464919307584 [-]
represents conversion from energy (internal units) to temperature (in Kelvin)

Derived units and their conversion factors:
===============================================================================

Unit of energy:                           1.6605402000000002e-23 [J]
Unit of energy:                           10.000008872307538 [J.mol⁻¹]
Unit of velocity:                         100 [m.s⁻¹]
Unit of force:                            1.6605402000000002e-13 [N]
Unit of diffusion:                        1.0000000000000002e-08 [m².s⁻¹]
Unit of acceleration:                     1.0000000000000002e-08 [m².s⁻¹]
Unit of torque:                           1.6605402000000002e-23 [N.m]
Unit of pressure:                         16605402 [Pa]
Unit of volume:                           1e-30 [m³]
Unit of density:                          1660.5402 [kg.m⁻³]
Unit of dynamic viscosity:                1.6605401999999997e-05 [N.s.m⁻²]
Unit of enthalpy:                         1.6605402000000002e-23 [J]
Unit of polarizability:                   1.5458657349975198e-35 [-]
Unit of Coulomb potential:                167101.08000665612 [K]
Unit of dielectric constant:              1.5458657349975193e-05 [s².C².kg⁻¹.m⁻³]
Unit of dipole moment:                    1.60217733e-29 [C.m]
Unit of Debye:                            4.803206799099162 [C.m]
Unit of electric potential:               0.00010364272224473431 [V]
Unit of electric field:                   1036427.222447343 [V.m⁻¹]
Unit of isothermal compressibility:       6.02213665167516e-08 [Pa⁻¹]
Unit of heat capacity:                    10.000008872307538 [J.mol⁻¹.K⁻¹]
Unit of volumetric expansion coefficient: 1 [K⁻¹]


Internal conversion factors:
===============================================================================

Energy (internal units) to Kelvin:      1.202724284692786 [-]
Kelvin to energy (internal units):      0.8314457542157567 [-]


System definitions
===============================================================================

Temperature:          270 [K]
Beta:                 0.004454530435389873 [-]
Pressure:             0 [Pa]
Helium void fraction: 1 [-]

Box:      30.00000   0.00000   0.00000
           0.00000  30.00000   0.00000
           0.00000   0.00000  30.00000
Lengths:  30.00000  30.00000  30.00000
Angles:   90.00000  90.00000  90.00000
Rectangular boundary conditions



Property measurement settings
===============================================================================




Pseudo-atoms
===============================================================================

  0 - C_co2    framework-atom: false
  1 - O_co2    framework-atom: false

  0 - C_co2    mass: 12.00000, charge:  0.70000
  1 - O_co2    mass: 15.99940, charge: -0.35000

  0 - C_co2    polarizability:  0.00000
  1 - O_co2    polarizability:  0.00000

  0 - J. J. Potoff et al., AIChE J. 2001, 47, 1676–1682.
  1 - J. J. Potoff et al., AIChE J. 2001, 47, 1676–1682.

Force field status
===============================================================================

Cutoff Framework-Molecule VDW:  12.00000 [Å]
Cutoff Molecule-Molecule VDW:   12.00000 [Å]
Cutoff Coulomb:                 12.00000 [Å]

Overlap-criteria VDW:           1.000000e+05 [K]

C_co2    - C_co2    Lennard-Jones p₀/kʙ:  27.00000 [K], p₁:  2.80000 [Å]
                                  shift:   0.00000 [K], tailcorrections: true
C_co2    - O_co2    Lennard-Jones p₀/kʙ:  46.18441 [K], p₁:  2.92500 [Å]
                                  shift:   0.00000 [K], tailcorrections: true
O_co2    - O_co2    Lennard-Jones p₀/kʙ:  79.00000 [K], p₁:  3.05000 [Å]
                                  shift:   0.00000 [K], tailcorrections: true

Ewald precision: 1e-06
Ewald alpha: 0.26505830360350674
Ewald k-vectors: 8 8 8


Component definitions
===============================================================================

Component 0 [CO2]

    Type: Adsorbate

    Critical temperature:  304.1282 [K]
    Critical pressure:     7377300 [Pa]
    Acentric factor:       0.22394 [-]

    Mol-fraction:                 1 [-]
    Swappable:                   true

    Mass:                         43.9988 [-]
    Fugacity coefficient:         -nan [-]
    Bulk fluid density:           0 [-]
    Compressibility:              1 [-]
    Excess molecules:             0 [-]

    Number Of Atoms:    3
    CBMC starting bead: 0
      0: O_co2  position  0.00000 -0.00000  1.16000, charge -0.35000
      1: C_co2  position  0.00000 -0.00000  0.00000, charge  0.70000
      2: O_co2  position  0.00000 -0.00000 -1.16000, charge -0.35000
    Diagonalized inertia-vector:      43.05758528 43.05758528 0.00000000
    Translational degrees of freedom: 3
    Rotational degrees of freedom:    2
    Shape of the molecule is: 'Linear'
    Net-charge:        0.00000000 [e]

    Move probabilities:
    Translation:                   0.199203 [-]
    Random translation:            0.000000 [-]
    Rotation:                      0.199203 [-]
    Random rotation:               0.000000 [-]
    Volume change:                 0.000000 [-]
    Reinsertion (CBMC):            0.199203 [-]
    Identity change (CBMC):        0.000000 [-]
    Swap:                          0.000000 [-]
    Swap (CBMC):                   0.000000 [-]
    Swap (CFCMC):                  0.000000 [-]
    Swap (CB/CFCMC):               0.000000 [-]
    Gibbs volume:                  0.003984 [-]
    Gibbs swap (CBMC):             0.398406 [-]
    Gibbs swap (CFCMC):            0.000000 [-]
    Widom:                         0.000000 [-]
    Widom (CFCMC):                 0.000000 [-]
    Widom (CB/CFCMC):              0.000000 [-]
    Parallel tempering:            0.000000 [-]
    Hybrid MC:                     0.000000 [-]

    number of blocking-pockets: 0

    number of bonds: 0





Number of pseudo-atoms
===============================================================================

Component   0 (CO2)
-------------------------------------------------------------------------------
    index   0 (C_co2): 40 atoms
    index   1 (O_co2): 80 atoms

Total number of pseudo-atoms:
-------------------------------------------------------------------------------
    index   0 (C_co2): 40 atoms
    index   1 (O_co2): 80 atoms




Energy status Recomputed from scratch
===============================================================================

Total potential energy/kʙ       -7.401160e+03 [K]
    external field VDW/kʙ        0.000000e+00 [K]
    external field Real/kʙ       0.000000e+00 [K]
    framework-molecule VDW/kʙ    0.000000e+00 [K]
    framework-molecule Real/kʙ   0.000000e+00 [K]
    molecule-molecule VDW/kʙ    -5.575042e+03 [K]
    molecule-molecule Real/kʙ   -1.689602e+03 [K]
    Van der Waals (Tail)/kʙ     -1.100506e+02 [K]
    Ewald Fourier/kʙ             2.325760e+03 [K]
    Ewald self/kʙ               -7.346713e+05 [K]
    Ewald exclusion/kʙ           7.323191e+05 [K]
    intra VDW/kʙ                 0.000000e+00 [K]
    intra Coulombic/kʙ           0.000000e+00 [K]
    polarization/kʙ              0.000000e+00 [K]
    dU/dlambda VDW/kʙ            0.000000e+00 [K]
    dU/dlambda Real/kʙ           0.000000e+00 [K]
    dU/dlambda Ewald/kʙ          0.000000e+00 [K]





Initialization: Current cycle: 0 out of 2000
===============================================================================

Box:      29.76424   0.00000   0.00000
           0.00000  29.76424   0.00000
           0.00000   0.00000  29.76424
Lengths:  29.76424  29.76424  29.76424
Angles:   90.00000  90.00000  90.00000
Rectangular boundary conditions

net charge:   0.00000000

component   0 (CO2) lambda:  0 occupancy:  1 (1.000000)
    net charge:   0.00000000 [e]

Amount of molecules per component :
-------------------------------------------------------------------------------
Component 0 (CO2)
    molecules:         4.000000e+01 molecules
    number density:    1.516965e-03 molec/A^3
    density:           1.108321e+02 kg/m^3

Total potential energy/kʙ       -9.961449e+03 [K]
-------------------------------------------------------------------------------
    external field VDW/kʙ        0.000000e+00 [K]
    external field Real/kʙ       0.000000e+00 [K]
    framework-molecule VDW/kʙ    0.000000e+00 [K]
    framework-molecule Real/kʙ   0.000000e+00 [K]
    molecule-molecule VDW/kʙ    -7.242226e+03 [K]
    molecule-molecule Real/kʙ   -2.601430e+03 [K]
    Van der Waals (Tail)/kʙ     -1.126865e+02 [K]
    Ewald Fourier/kʙ             2.347119e+03 [K]
    Ewald self/kʙ               -7.346713e+05 [K]
    Ewald exclusion/kʙ           7.323191e+05 [K]
    intra VDW/kʙ                 0.000000e+00 [K]
    intra Coulombic/kʙ           0.000000e+00 [K]
    polarization/kʙ              0.000000e+00 [K]
    dU/dlambda VDW/kʙ            0.000000e+00 [K]
    dU/dlambda Real/kʙ           0.000000e+00 [K]
    dU/dlambda Ewald/kʙ          0.000000e+00 [K]


Initialization: Current cycle: 100 out of 2000
===============================================================================

Box:      28.12743   0.00000   0.00000
           0.00000  28.12743   0.00000
           0.00000   0.00000  28.12743
Lengths:  28.12743  28.12743  28.12743
Angles:   90.00000  90.00000  90.00000
Rectangular boundary conditions

net charge:   0.00000000

component   0 (CO2) lambda:  0 occupancy:  1 (1.000000)
    net charge:   0.00000000 [e]

Amount of molecules per component :
-------------------------------------------------------------------------------
Component 0 (CO2)
    molecules:         3.200000e+01 molecules
    number density:    1.438003e-03 molec/A^3
    density:           1.050630e+02 kg/m^3

Total potential energy/kʙ       -4.985903e+03 [K]
-------------------------------------------------------------------------------
    external field VDW/kʙ        0.000000e+00 [K]
    external field Real/kʙ       0.000000e+00 [K]
    framework-molecule VDW/kʙ    0.000000e+00 [K]
    framework-molecule Real/kʙ   0.000000e+00 [K]
    molecule-molecule VDW/kʙ    -3.350026e+03 [K]
    molecule-molecule Real/kʙ   -1.209781e+03 [K]
    Van der Waals (Tail)/kʙ     -8.545670e+01 [K]
    Ewald Fourier/kʙ             1.541141e+03 [K]
    Ewald self/kʙ               -5.877370e+05 [K]
    Ewald exclusion/kʙ           5.858552e+05 [K]
    intra VDW/kʙ                 0.000000e+00 [K]
    intra Coulombic/kʙ           0.000000e+00 [K]
    polarization/kʙ              0.000000e+00 [K]
    dU/dlambda VDW/kʙ            0.000000e+00 [K]
    dU/dlambda Real/kʙ           0.000000e+00 [K]
    dU/dlambda Ewald/kʙ          0.000000e+00 [K]


Initialization: Current cycle: 200 out of 2000
===============================================================================

Box:      28.32440   0.00000   0.00000
           0.00000  28.32440   0.00000
           0.00000   0.00000  28.32440
Lengths:  28.32440  28.32440  28.32440
Angles:   90.00000  90.00000  90.00000
Rectangular boundary conditions

net charge:   0.00000000

component   0 (CO2) lambda:  0 occupancy:  1 (1.000000)
    net charge:   0.00000000 [e]

Amount of molecules per component :
-------------------------------------------------------------------------------
Component 0 (CO2)
    molecules:         2.400000e+01 molecules
    number density:    1.056159e-03 molec/A^3
    density:           7.716475e+01 kg/m^3

Total potential energy/kʙ       -3.618235e+03 [K]
-------------------------------------------------------------------------------
    external field VDW/kʙ        0.000000e+00 [K]
    external field Real/kʙ       0.000000e+00 [K]
    framework-molecule VDW/kʙ    0.000000e+00 [K]
    framework-molecule Real/kʙ   0.000000e+00 [K]
    molecule-molecule VDW/kʙ    -2.604295e+03 [K]
    molecule-molecule Real/kʙ   -8.387793e+02 [K]
    Van der Waals (Tail)/kʙ     -4.707351e+01 [K]
    Ewald Fourier/kʙ             1.283248e+03 [K]
    Ewald self/kʙ               -4.408028e+05 [K]
    Ewald exclusion/kʙ           4.393914e+05 [K]
    intra VDW/kʙ                 0.000000e+00 [K]
    intra Coulombic/kʙ           0.000000e+00 [K]
    polarization/kʙ              0.000000e+00 [K]
    dU/dlambda VDW/kʙ            0.000000e+00 [K]
    dU/dlambda Real/kʙ           0.000000e+00 [K]
    dU/dlambda Ewald/kʙ          0.000000e+00 [K]


Initialization: Current cycle: 300 out of 2000
===============================================================================

Box:      28.96545   0.00000   0.00000
           0.00000  28.96545   0.00000
           0.00000   0.00000  28.96545
Lengths:  28.96545  28.96545  28.96545
Angles:   90.00000  90.00000  90.00000
Rectangular boundary conditions

net charge:   0.00000000

component   0 (CO2) lambda:  0 occupancy:  1 (1.000000)
    net charge:   0.00000000 [e]

Amount of molecules per component :
-------------------------------------------------------------------------------
Component 0 (CO2)
    molecules:         4.000000e+01 molecules
    number density:    1.645960e-03 molec/A^3
    density:           1.202567e+02 kg/m^3

Total potential energy/kʙ       -6.934102e+03 [K]
-------------------------------------------------------------------------------
    external field VDW/kʙ        0.000000e+00 [K]
    external field Real/kʙ       0.000000e+00 [K]
    framework-molecule VDW/kʙ    0.000000e+00 [K]
    framework-molecule Real/kʙ   0.000000e+00 [K]
    molecule-molecule VDW/kʙ    -6.069762e+03 [K]
    molecule-molecule Real/kʙ   -5.854309e+02 [K]
    Van der Waals (Tail)/kʙ     -1.222688e+02 [K]
    Ewald Fourier/kʙ             2.195585e+03 [K]
    Ewald self/kʙ               -7.346713e+05 [K]
    Ewald exclusion/kʙ           7.323191e+05 [K]
    intra VDW/kʙ                 0.000000e+00 [K]
    intra Coulombic/kʙ           0.000000e+00 [K]
    polarization/kʙ              0.000000e+00 [K]
    dU/dlambda VDW/kʙ            0.000000e+00 [K]
    dU/dlambda Real/kʙ           0.000000e+00 [K]
    dU/dlambda Ewald/kʙ          0.000000e+00 [K]


Initialization: Current cycle: 400 out of 2000
===============================================================================

Box:      30.10467   0.00000   0.00000
           0.00000  30.10467   0.00000
           0.00000   0.00000  30.10467
Lengths:  30.10467  30.10467  30.10467
Angles:   90.00000  90.00000  90.00000
Rectangular boundary conditions

net charge:   0.00000000

component   0 (CO2) lambda:  0 occupancy:  1 (1.000000)
    net charge:   0.00000000 [e]

Amount of molecules per component :
-------------------------------------------------------------------------------
Component 0 (CO2)
    molecules:         2.700000e+01 molecules
    number density:    9.896052e-04 molec/A^3
    density:           7.230225e+01 kg/m^3

Total potential energy/kʙ       -3.249221e+03 [K]
-------------------------------------------------------------------------------
    external field VDW/kʙ        0.000000e+00 [K]
    external field Real/kʙ       0.000000e+00 [K]
    framework-molecule VDW/kʙ    0.000000e+00 [K]
    framework-molecule Real/kʙ   0.000000e+00 [K]
    molecule-molecule VDW/kʙ    -1.961472e+03 [K]
    molecule-molecule Real/kʙ   -1.186777e+03 [K]
    Van der Waals (Tail)/kʙ     -4.962059e+01 [K]
    Ewald Fourier/kʙ             1.536401e+03 [K]
    Ewald self/kʙ               -4.959031e+05 [K]
    Ewald exclusion/kʙ           4.943154e+05 [K]
    intra VDW/kʙ                 0.000000e+00 [K]
    intra Coulombic/kʙ           0.000000e+00 [K]
    polarization/kʙ              0.000000e+00 [K]
    dU/dlambda VDW/kʙ            0.000000e+00 [K]
    dU/dlambda Real/kʙ           0.000000e+00 [K]
    dU/dlambda Ewald/kʙ          0.000000e+00 [K]


Initialization: Current cycle: 500 out of 2000
===============================================================================

Box:      31.15845   0.00000   0.00000
           0.00000  31.15845   0.00000
           0.00000   0.00000  31.15845
Lengths:  31.15845  31.15845  31.15845
Angles:   90.00000  90.00000  90.00000
Rectangular boundary conditions

net charge:   0.00000000

component   0 (CO2) lambda:  0 occupancy:  1 (1.000000)
    net charge:   0.00000000 [e]

Amount of molecules per component :
-------------------------------------------------------------------------------
Component 0 (CO2)
    molecules:         1.400000e+01 molecules
    number density:    4.628075e-04 molec/A^3
    density:           3.381351e+01 kg/m^3

Total potential energy/kʙ       -8.237552e+02 [K]
-------------------------------------------------------------------------------
    external field VDW/kʙ        0.000000e+00 [K]
    external field Real/kʙ       0.000000e+00 [K]
    framework-molecule VDW/kʙ    0.000000e+00 [K]
    framework-molecule Real/kʙ   0.000000e+00 [K]
    molecule-molecule VDW/kʙ    -5.431938e+02 [K]
    molecule-molecule Real/kʙ   -2.370037e+02 [K]
    Van der Waals (Tail)/kʙ     -1.203274e+01 [K]
    Ewald Fourier/kʙ             7.917540e+02 [K]
    Ewald self/kʙ               -2.571349e+05 [K]
    Ewald exclusion/kʙ           2.563117e+05 [K]
    intra VDW/kʙ                 0.000000e+00 [K]
    intra Coulombic/kʙ           0.000000e+00 [K]
    polarization/kʙ              0.000000e+00 [K]
    dU/dlambda VDW/kʙ            0.000000e+00 [K]
    dU/dlambda Real/kʙ           0.000000e+00 [K]
    dU/dlambda Ewald/kʙ          0.000000e+00 [K]


Initialization: Current cycle: 600 out of 2000
===============================================================================

Box:      31.09715   0.00000   0.00000
           0.00000  31.09715   0.00000
           0.00000   0.00000  31.09715
Lengths:  31.09715  31.09715  31.09715
Angles:   90.00000  90.00000  90.00000
Rectangular boundary conditions

net charge:   0.00000000

component   0 (CO2) lambda:  0 occupancy:  1 (1.000000)
    net charge:   0.00000000 [e]

Amount of molecules per component :
-------------------------------------------------------------------------------
Component 0 (CO2)
    molecules:         1.500000e+01 molecules
    number density:    4.988033e-04 molec/A^3
    density:           3.644342e+01 kg/m^3

Total potential energy/kʙ       -1.857003e+02 [K]
-------------------------------------------------------------------------------
    external field VDW/kʙ        0.000000e+00 [K]
    external field Real/kʙ       0.000000e+00 [K]
    framework-molecule VDW/kʙ    0.000000e+00 [K]
    framework-molecule Real/kʙ   0.000000e+00 [K]
    molecule-molecule VDW/kʙ    -3.604070e+02 [K]
    molecule-molecule Real/kʙ    2.267648e+02 [K]
    Van der Waals (Tail)/kʙ     -1.389494e+01 [K]
    Ewald Fourier/kʙ             8.439215e+02 [K]
    Ewald self/kʙ               -2.755017e+05 [K]
    Ewald exclusion/kʙ           2.746196e+05 [K]
    intra VDW/kʙ                 0.000000e+00 [K]
    intra Coulombic/kʙ           0.000000e+00 [K]
    polarization/kʙ              0.000000e+00 [K]
    dU/dlambda VDW/kʙ            0.000000e+00 [K]
    dU/dlambda Real/kʙ           0.000000e+00 [K]
    dU/dlambda Ewald/kʙ          0.000000e+00 [K]


Initialization: Current cycle: 700 out of 2000
===============================================================================

Box:      31.95505   0.00000   0.00000
           0.00000  31.95505   0.00000
           0.00000   0.00000  31.95505
Lengths:  31.95505  31.95505  31.95505
Angles:   90.00000  90.00000  90.00000
Rectangular boundary conditions

net charge:   0.00000000

component   0 (CO2) lambda:  0 occupancy:  1 (1.000000)
    net charge:   0.00000000 [e]

Amount of molecules per component :
-------------------------------------------------------------------------------
Component 0 (CO2)
    molecules:         2.200000e+01 molecules
    number density:    6.742240e-04 molec/A^3
    density:           4.925996e+01 kg/m^3

Total potential energy/kʙ       -1.595369e+03 [K]
-------------------------------------------------------------------------------
    external field VDW/kʙ        0.000000e+00 [K]
    external field Real/kʙ       0.000000e+00 [K]
    framework-molecule VDW/kʙ    0.000000e+00 [K]
    framework-molecule Real/kʙ   0.000000e+00 [K]
    molecule-molecule VDW/kʙ    -1.088262e+03 [K]
    molecule-molecule Real/kʙ   -3.746308e+02 [K]
    Van der Waals (Tail)/kʙ     -2.754629e+01 [K]
    Ewald Fourier/kʙ             1.188794e+03 [K]
    Ewald self/kʙ               -4.040692e+05 [K]
    Ewald exclusion/kʙ           4.027755e+05 [K]
    intra VDW/kʙ                 0.000000e+00 [K]
    intra Coulombic/kʙ           0.000000e+00 [K]
    polarization/kʙ              0.000000e+00 [K]
    dU/dlambda VDW/kʙ            0.000000e+00 [K]
    dU/dlambda Real/kʙ           0.000000e+00 [K]
    dU/dlambda Ewald/kʙ          0.000000e+00 [K]


Initialization: Current cycle: 800 out of 2000
===============================================================================

Box:      32.48208   0.00000   0.00000
           0.00000  32.48208   0.00000
           0.00000   0.00000  32.48208
Lengths:  32.48208  32.48208  32.48208
Angles:   90.00000  90.00000  90.00000
Rectangular boundary conditions

net charge:   0.00000000

component   0 (CO2) lambda:  0 occupancy:  1 (1.000000)
    net charge:   0.00000000 [e]

Amount of molecules per component :
-------------------------------------------------------------------------------
Component 0 (CO2)
    molecules:         2.300000e+01 molecules
    number density:    6.711141e-04 molec/A^3
    density:           4.903274e+01 kg/m^3

Total potential energy/kʙ       -1.625504e+03 [K]
-------------------------------------------------------------------------------
    external field VDW/kʙ        0.000000e+00 [K]
    external field Real/kʙ       0.000000e+00 [K]
    framework-molecule VDW/kʙ    0.000000e+00 [K]
    framework-molecule Real/kʙ   0.000000e+00 [K]
    molecule-molecule VDW/kʙ    -9.535982e+02 [K]
    molecule-molecule Real/kʙ   -4.986799e+02 [K]
    Van der Waals (Tail)/kʙ     -2.866556e+01 [K]
    Ewald Fourier/kʙ             1.207969e+03 [K]
    Ewald self/kʙ               -4.224360e+05 [K]
    Ewald exclusion/kʙ           4.210835e+05 [K]
    intra VDW/kʙ                 0.000000e+00 [K]
    intra Coulombic/kʙ           0.000000e+00 [K]
    polarization/kʙ              0.000000e+00 [K]
    dU/dlambda VDW/kʙ            0.000000e+00 [K]
    dU/dlambda Real/kʙ           0.000000e+00 [K]
    dU/dlambda Ewald/kʙ          0.000000e+00 [K]


Initialization: Current cycle: 900 out of 2000
===============================================================================

Box:      32.81378   0.00000   0.00000
           0.00000  32.81378   0.00000
           0.00000   0.00000  32.81378
Lengths:  32.81378  32.81378  32.81378
Angles:   90.00000  90.00000  90.00000
Rectangular boundary conditions

net charge:   0.00000000

component   0 (CO2) lambda:  0 occupancy:  1 (1.000000)
    net charge:   0.00000000 [e]

Amount of molecules per component :
-------------------------------------------------------------------------------
Component 0 (CO2)
    molecules:         2.500000e+01 molecules
    number density:    7.075730e-04 molec/A^3
    density:           5.169649e+01 kg/m^3

Total potential energy/kʙ       -2.268303e+03 [K]
-------------------------------------------------------------------------------
    external field VDW/kʙ        0.000000e+00 [K]
    external field Real/kʙ       0.000000e+00 [K]
    framework-molecule VDW/kʙ    0.000000e+00 [K]
    framework-molecule Real/kʙ   0.000000e+00 [K]
    molecule-molecule VDW/kʙ    -1.898853e+03 [K]
    molecule-molecule Real/kʙ   -3.453943e+02 [K]
    Van der Waals (Tail)/kʙ     -3.285091e+01 [K]
    Ewald Fourier/kʙ             1.478936e+03 [K]
    Ewald self/kʙ               -4.591696e+05 [K]
    Ewald exclusion/kʙ           4.576994e+05 [K]
    intra VDW/kʙ                 0.000000e+00 [K]
    intra Coulombic/kʙ           0.000000e+00 [K]
    polarization/kʙ              0.000000e+00 [K]
    dU/dlambda VDW/kʙ            0.000000e+00 [K]
    dU/dlambda Real/kʙ           0.000000e+00 [K]
    dU/dlambda Ewald/kʙ          0.000000e+00 [K]


Initialization: Current cycle: 1000 out of 2000
===============================================================================

Box:      33.04072   0.00000   0.00000
           0.00000  33.04072   0.00000
           0.00000   0.00000  33.04072
Lengths:  33.04072  33.04072  33.04072
Angles:   90.00000  90.00000  90.00000
Rectangular boundary conditions

net charge:   0.00000000

component   0 (CO2) lambda:  0 occupancy:  1 (1.000000)
    net charge:   0.00000000 [e]

Amount of molecules per component :
-------------------------------------------------------------------------------
Component 0 (CO2)
    molecules:         3.100000e+01 molecules
    number density:    8.594356e-04 molec/A^3
    density:           6.279183e+01 kg/m^3

Total potential energy/kʙ       -4.481200e+03 [K]
-------------------------------------------------------------------------------
    external field VDW/kʙ        0.000000e+00 [K]
    external field Real/kʙ       0.000000e+00 [K]
    framework-molecule VDW/kʙ    0.000000e+00 [K]
    framework-molecule Real/kʙ   0.000000e+00 [K]
    molecule-molecule VDW/kʙ    -2.783020e+03 [K]
    molecule-molecule Real/kʙ   -1.604036e+03 [K]
    Van der Waals (Tail)/kʙ     -4.947790e+01 [K]
    Ewald Fourier/kʙ             1.778309e+03 [K]
    Ewald self/kʙ               -5.693702e+05 [K]
    Ewald exclusion/kʙ           5.675473e+05 [K]
    intra VDW/kʙ                 0.000000e+00 [K]
    intra Coulombic/kʙ           0.000000e+00 [K]
    polarization/kʙ              0.000000e+00 [K]
    dU/dlambda VDW/kʙ            0.000000e+00 [K]
    dU/dlambda Real/kʙ           0.000000e+00 [K]
    dU/dlambda Ewald/kʙ          0.000000e+00 [K]


Initialization: Current cycle: 1100 out of 2000
===============================================================================

Box:      33.33216   0.00000   0.00000
           0.00000  33.33216   0.00000
           0.00000   0.00000  33.33216
Lengths:  33.33216  33.33216  33.33216
Angles:   90.00000  90.00000  90.00000
Rectangular boundary conditions

net charge:   0.00000000

component   0 (CO2) lambda:  0 occupancy:  1 (1.000000)
    net charge:   0.00000000 [e]

Amount of molecules per component :
-------------------------------------------------------------------------------
Component 0 (CO2)
    molecules:         3.200000e+01 molecules
    number density:    8.640911e-04 molec/A^3
    density:           6.313198e+01 kg/m^3

Total potential energy/kʙ       -3.285999e+03 [K]
-------------------------------------------------------------------------------
    external field VDW/kʙ        0.000000e+00 [K]
    external field Real/kʙ       0.000000e+00 [K]
    framework-molecule VDW/kʙ    0.000000e+00 [K]
    framework-molecule Real/kʙ   0.000000e+00 [K]
    molecule-molecule VDW/kʙ    -1.584462e+03 [K]
    molecule-molecule Real/kʙ   -1.532074e+03 [K]
    Van der Waals (Tail)/kʙ     -5.135063e+01 [K]
    Ewald Fourier/kʙ             1.763669e+03 [K]
    Ewald self/kʙ               -5.877370e+05 [K]
    Ewald exclusion/kʙ           5.858552e+05 [K]
    intra VDW/kʙ                 0.000000e+00 [K]
    intra Coulombic/kʙ           0.000000e+00 [K]
    polarization/kʙ              0.000000e+00 [K]
    dU/dlambda VDW/kʙ            0.000000e+00 [K]
    dU/dlambda Real/kʙ           0.000000e+00 [K]
    dU/dlambda Ewald/kʙ          0.000000e+00 [K]


Initialization: Current cycle: 1200 out of 2000
===============================================================================

Box:      33.17620   0.00000   0.00000
           0.00000  33.17620   0.00000
           0.00000   0.00000  33.17620
Lengths:  33.17620  33.17620  33.17620
Angles:   90.00000  90.00000  90.00000
Rectangular boundary conditions

net charge:   0.00000000

component   0 (CO2) lambda:  0 occupancy:  1 (1.000000)
    net charge:   0.00000000 [e]

Amount of molecules per component :
-------------------------------------------------------------------------------
Component 0 (CO2)
    molecules:         2.100000e+01 molecules
    number density:    5.750948e-04 molec/A^3
    density:           4.201741e+01 kg/m^3

Total potential energy/kʙ       -1.297278e+03 [K]
-------------------------------------------------------------------------------
    external field VDW/kʙ        0.000000e+00 [K]
    external field Real/kʙ       0.000000e+00 [K]
    framework-molecule VDW/kʙ    0.000000e+00 [K]
    framework-molecule Real/kʙ   0.000000e+00 [K]
    molecule-molecule VDW/kʙ    -1.200358e+03 [K]
    molecule-molecule Real/kʙ   -1.222881e+02 [K]
    Van der Waals (Tail)/kʙ     -2.242823e+01 [K]
    Ewald Fourier/kʙ             1.282714e+03 [K]
    Ewald self/kʙ               -3.857024e+05 [K]
    Ewald exclusion/kʙ           3.844675e+05 [K]
    intra VDW/kʙ                 0.000000e+00 [K]
    intra Coulombic/kʙ           0.000000e+00 [K]
    polarization/kʙ              0.000000e+00 [K]
    dU/dlambda VDW/kʙ            0.000000e+00 [K]
    dU/dlambda Real/kʙ           0.000000e+00 [K]
    dU/dlambda Ewald/kʙ          0.000000e+00 [K]


Initialization: Current cycle: 1300 out of 2000
===============================================================================

Box:      33.27844   0.00000   0.00000
           0.00000  33.27844   0.00000
           0.00000   0.00000  33.27844
Lengths:  33.27844  33.27844  33.27844
Angles:   90.00000  90.00000  90.00000
Rectangular boundary conditions

net charge:   0.00000000

component   0 (CO2) lambda:  0 occupancy:  1 (1.000000)
    net charge:   0.00000000 [e]

Amount of molecules per component :
-------------------------------------------------------------------------------
Component 0 (CO2)
    molecules:         3.400000e+01 molecules
    number density:    9.225502e-04 molec/A^3
    density:           6.740310e+01 kg/m^3

Total potential energy/kʙ       -2.931688e+03 [K]
-------------------------------------------------------------------------------
    external field VDW/kʙ        0.000000e+00 [K]
    external field Real/kʙ       0.000000e+00 [K]
    framework-molecule VDW/kʙ    0.000000e+00 [K]
    framework-molecule Real/kʙ   0.000000e+00 [K]
    molecule-molecule VDW/kʙ    -2.301529e+03 [K]
    molecule-molecule Real/kʙ   -4.149519e+02 [K]
    Van der Waals (Tail)/kʙ     -5.825124e+01 [K]
    Ewald Fourier/kʙ             1.842436e+03 [K]
    Ewald self/kʙ               -6.244706e+05 [K]
    Ewald exclusion/kʙ           6.224712e+05 [K]
    intra VDW/kʙ                 0.000000e+00 [K]
    intra Coulombic/kʙ           0.000000e+00 [K]
    polarization/kʙ              0.000000e+00 [K]
    dU/dlambda VDW/kʙ            0.000000e+00 [K]
    dU/dlambda Real/kʙ           0.000000e+00 [K]
    dU/dlambda Ewald/kʙ          0.000000e+00 [K]


Initialization: Current cycle: 1400 out of 2000
===============================================================================

Box:      33.63076   0.00000   0.00000
           0.00000  33.63076   0.00000
           0.00000   0.00000  33.63076
Lengths:  33.63076  33.63076  33.63076
Angles:   90.00000  90.00000  90.00000
Rectangular boundary conditions

net charge:   0.00000000

component   0 (CO2) lambda:  0 occupancy:  1 (1.000000)
    net charge:   0.00000000 [e]

Amount of molecules per component :
-------------------------------------------------------------------------------
Component 0 (CO2)
    molecules:         4.600000e+01 molecules
    number density:    1.209338e-03 molec/A^3
    density:           8.835634e+01 kg/m^3

Total potential energy/kʙ       -1.197115e+04 [K]
-------------------------------------------------------------------------------
    external field VDW/kʙ        0.000000e+00 [K]
    external field Real/kʙ       0.000000e+00 [K]
    framework-molecule VDW/kʙ    0.000000e+00 [K]
    framework-molecule Real/kʙ   0.000000e+00 [K]
    molecule-molecule VDW/kʙ    -8.511069e+03 [K]
    molecule-molecule Real/kʙ   -3.218698e+03 [K]
    Van der Waals (Tail)/kʙ     -1.033099e+02 [K]
    Ewald Fourier/kʙ             2.566987e+03 [K]
    Ewald self/kʙ               -8.448720e+05 [K]
    Ewald exclusion/kʙ           8.421669e+05 [K]
    intra VDW/kʙ                 0.000000e+00 [K]
    intra Coulombic/kʙ           0.000000e+00 [K]
    polarization/kʙ              0.000000e+00 [K]
    dU/dlambda VDW/kʙ            0.000000e+00 [K]
    dU/dlambda Real/kʙ           0.000000e+00 [K]
    dU/dlambda Ewald/kʙ          0.000000e+00 [K]


Initialization: Current cycle: 1500 out of 2000
===============================================================================

Box:      33.69112   0.00000   0.00000
           0.00000  33.69112   0.00000
           0.00000   0.00000  33.69112
Lengths:  33.69112  33.69112  33.69112
Angles:   90.00000  90.00000  90.00000
Rectangular boundary conditions

net charge:   0.00000000

component   0 (CO2) lambda:  0 occupancy:  1 (1.000000)
    net charge:   0.00000000 [e]

Amount of molecules per component :
-------------------------------------------------------------------------------
Component 0 (CO2)
    molecules:         4.100000e+01 molecules
    number density:    1.072105e-03 molec/A^3
    density:           7.832985e+01 kg/m^3

Total potential energy/kʙ       -4.851381e+03 [K]
-------------------------------------------------------------------------------
    external field VDW/kʙ        0.000000e+00 [K]
    external field Real/kʙ       0.000000e+00 [K]
    framework-molecule VDW/kʙ    0.000000e+00 [K]
    framework-molecule Real/kʙ   0.000000e+00 [K]
    molecule-molecule VDW/kʙ    -3.676025e+03 [K]
    molecule-molecule Real/kʙ   -1.056225e+03 [K]
    Van der Waals (Tail)/kʙ     -8.163146e+01 [K]
    Ewald Fourier/kʙ             2.373532e+03 [K]
    Ewald self/kʙ               -7.530381e+05 [K]
    Ewald exclusion/kʙ           7.506270e+05 [K]
    intra VDW/kʙ                 0.000000e+00 [K]
    intra Coulombic/kʙ           0.000000e+00 [K]
    polarization/kʙ              0.000000e+00 [K]
    dU/dlambda VDW/kʙ            0.000000e+00 [K]
    dU/dlambda Real/kʙ           0.000000e+00 [K]
    dU/dlambda Ewald/kʙ          0.000000e+00 [K]


Initialization: Current cycle: 1600 out of 2000
===============================================================================

Box:      33.46838   0.00000   0.00000
           0.00000  33.46838   0.00000
           0.00000   0.00000  33.46838
Lengths:  33.46838  33.46838  33.46838
Angles:   90.00000  90.00000  90.00000
Rectangular boundary conditions

net charge:   0.00000000

component   0 (CO2) lambda:  0 occupancy:  1 (1.000000)
    net charge:   0.00000000 [e]

Amount of molecules per component :
-------------------------------------------------------------------------------
Component 0 (CO2)
    molecules:         4.300000e+01 molecules
    number density:    1.147003e-03 molec/A^3
    density:           8.380198e+01 kg/m^3

Total potential energy/kʙ       -5.755430e+03 [K]
-------------------------------------------------------------------------------
    external field VDW/kʙ        0.000000e+00 [K]
    external field Real/kʙ       0.000000e+00 [K]
    framework-molecule VDW/kʙ    0.000000e+00 [K]
    framework-molecule Real/kʙ   0.000000e+00 [K]
    molecule-molecule VDW/kʙ    -4.074920e+03 [K]
    molecule-molecule Real/kʙ   -1.609545e+03 [K]
    Van der Waals (Tail)/kʙ     -9.159444e+01 [K]
    Ewald Fourier/kʙ             2.549272e+03 [K]
    Ewald self/kʙ               -7.897716e+05 [K]
    Ewald exclusion/kʙ           7.872430e+05 [K]
    intra VDW/kʙ                 0.000000e+00 [K]
    intra Coulombic/kʙ           0.000000e+00 [K]
    polarization/kʙ              0.000000e+00 [K]
    dU/dlambda VDW/kʙ            0.000000e+00 [K]
    dU/dlambda Real/kʙ           0.000000e+00 [K]
    dU/dlambda Ewald/kʙ          0.000000e+00 [K]


Initialization: Current cycle: 1700 out of 2000
===============================================================================

Box:      33.40408   0.00000   0.00000
           0.00000  33.40408   0.00000
           0.00000   0.00000  33.40408
Lengths:  33.40408  33.40408  33.40408
Angles:   90.00000  90.00000  90.00000
Rectangular boundary conditions

net charge:   0.00000000

component   0 (CO2) lambda:  0 occupancy:  1 (1.000000)
    net charge:   0.00000000 [e]

Amount of molecules per component :
-------------------------------------------------------------------------------
Component 0 (CO2)
    molecules:         4.100000e+01 molecules
    number density:    1.099981e-03 molec/A^3
    density:           8.036652e+01 kg/m^3

Total potential energy/kʙ       -7.625296e+03 [K]
-------------------------------------------------------------------------------
    external field VDW/kʙ        0.000000e+00 [K]
    external field Real/kʙ       0.000000e+00 [K]
    framework-molecule VDW/kʙ    0.000000e+00 [K]
    framework-molecule Real/kʙ   0.000000e+00 [K]
    molecule-molecule VDW/kʙ    -5.660422e+03 [K]
    molecule-molecule Real/kʙ   -1.611715e+03 [K]
    Van der Waals (Tail)/kʙ     -8.375397e+01 [K]
    Ewald Fourier/kʙ             2.141627e+03 [K]
    Ewald self/kʙ               -7.530381e+05 [K]
    Ewald exclusion/kʙ           7.506270e+05 [K]
    intra VDW/kʙ                 0.000000e+00 [K]
    intra Coulombic/kʙ           0.000000e+00 [K]
    polarization/kʙ              0.000000e+00 [K]
    dU/dlambda VDW/kʙ            0.000000e+00 [K]
    dU/dlambda Real/kʙ           0.000000e+00 [K]
    dU/dlambda Ewald/kʙ          0.000000e+00 [K]


Initialization: Current cycle: 1800 out of 2000
===============================================================================

Box:      33.59690   0.00000   0.00000
           0.00000  33.59690   0.00000
           0.00000   0.00000  33.59690
Lengths:  33.59690  33.59690  33.59690
Angles:   90.00000  90.00000  90.00000
Rectangular boundary conditions

net charge:   0.00000000

component   0 (CO2) lambda:  0 occupancy:  1 (1.000000)
    net charge:   0.00000000 [e]

Amount of molecules per component :
-------------------------------------------------------------------------------
Component 0 (CO2)
    molecules:         3.800000e+01 molecules
    number density:    1.002042e-03 molec/A^3
    density:           7.321092e+01 kg/m^3

Total potential energy/kʙ       -5.656850e+03 [K]
-------------------------------------------------------------------------------
    external field VDW/kʙ        0.000000e+00 [K]
    external field Real/kʙ       0.000000e+00 [K]
    framework-molecule VDW/kʙ    0.000000e+00 [K]
    framework-molecule Real/kʙ   0.000000e+00 [K]
    molecule-molecule VDW/kʙ    -4.552638e+03 [K]
    molecule-molecule Real/kʙ   -9.918269e+02 [K]
    Van der Waals (Tail)/kʙ     -7.071407e+01 [K]
    Ewald Fourier/kʙ             2.192943e+03 [K]
    Ewald self/kʙ               -6.979377e+05 [K]
    Ewald exclusion/kʙ           6.957031e+05 [K]
    intra VDW/kʙ                 0.000000e+00 [K]
    intra Coulombic/kʙ           0.000000e+00 [K]
    polarization/kʙ              0.000000e+00 [K]
    dU/dlambda VDW/kʙ            0.000000e+00 [K]
    dU/dlambda Real/kʙ           0.000000e+00 [K]
    dU/dlambda Ewald/kʙ          0.000000e+00 [K]


Initialization: Current cycle: 1900 out of 2000
===============================================================================

Box:      33.53890   0.00000   0.00000
           0.00000  33.53890   0.00000
           0.00000   0.00000  33.53890
Lengths:  33.53890  33.53890  33.53890
Angles:   90.00000  90.00000  90.00000
Rectangular boundary conditions

net charge:   0.00000000

component   0 (CO2) lambda:  0 occupancy:  1 (1.000000)
    net charge:   0.00000000 [e]

Amount of molecules per component :
-------------------------------------------------------------------------------
Component 0 (CO2)
    molecules:         3.300000e+01 molecules
    number density:    8.747166e-04 molec/A^3
    density:           6.390829e+01 kg/m^3

Total potential energy/kʙ       -2.614354e+03 [K]
-------------------------------------------------------------------------------
    external field VDW/kʙ        0.000000e+00 [K]
    external field Real/kʙ       0.000000e+00 [K]
    framework-molecule VDW/kʙ    0.000000e+00 [K]
    framework-molecule Real/kʙ   0.000000e+00 [K]
    molecule-molecule VDW/kʙ    -2.438939e+03 [K]
    molecule-molecule Real/kʙ   -5.586551e+00 [K]
    Van der Waals (Tail)/kʙ     -5.360651e+01 [K]
    Ewald Fourier/kʙ             1.824364e+03 [K]
    Ewald self/kʙ               -6.061038e+05 [K]
    Ewald exclusion/kʙ           6.041632e+05 [K]
    intra VDW/kʙ                 0.000000e+00 [K]
    intra Coulombic/kʙ           0.000000e+00 [K]
    polarization/kʙ              0.000000e+00 [K]
    dU/dlambda VDW/kʙ            0.000000e+00 [K]
    dU/dlambda Real/kʙ           0.000000e+00 [K]
    dU/dlambda Ewald/kʙ          0.000000e+00 [K]


Current cycle: 0 out of 6000
===============================================================================

Box:      33.37442   0.00000   0.00000  Average:  33.37442   0.00000   0.00000
           0.00000  33.37442   0.00000             0.00000  33.37442   0.00000
           0.00000   0.00000  33.37442             0.00000   0.00000  33.37442
Lengths:  33.37442  33.37442  33.37442  Average:  33.37442  33.37442  33.37442
Angles:   90.00000  90.00000  90.00000  Average:  90.00000  90.00000  90.00000
Rectangular boundary conditions

net charge:   0.00000000

component 0 (CO2) lambda:  0 occupancy:  1 (1.000000)
    net charge:   0.00000000 [e]

Amount of molecules per component :
-------------------------------------------------------------------------------
Component 0 (CO2)
    molecules:      3.000000e+01 molecules  (3.000000e+01 +/- 0.000000e+00)
    number density: 8.070121e-04 molec./A^3 (8.070121e-04 +/- 0.000000e+00)
    density:        5.896168e+01 kg/m^3     (5.896168e+01 +/- 0.000000e+00)

Average pressure tensor: 
-------------------------------------------------------------------------------
 3.0083e+01  0.0000e+00  0.0000e+00 +/- 0.0000e+00 0.0000e+00 0.0000e+00 [bar]
 0.0000e+00  3.0083e+01  0.0000e+00 +/- 0.0000e+00 0.0000e+00 0.0000e+00 [bar]
 0.0000e+00  0.0000e+00  3.0083e+01 +/- 0.0000e+00 0.0000e+00 0.0000e+00 [bar]
Ideal-gas pressure:   3.008344e+01 +/ 0.000000e+00 [bar]
Excess pressure:      0.000000e+00 +/ 0.000000e+00 [bar]
Pressure:             3.008344e+01 +/ 0.000000e+00 [bar]

Total potential energy/kʙ  -2.219917e+03 (-2.219917e+03 +/- 0.000000e+00) [K]
-------------------------------------------------------------------------------
ExternalField-molecule
    Van der Waals/kʙ        0.000000e+00 ( 0.000000e+00 +/- 0.000000e+00) [K]
Framework-molecule
    Van der Waals/kʙ        0.000000e+00 ( 0.000000e+00 +/- 0.000000e+00) [K]
    Van der Waals (Tail)/kʙ 0.000000e+00 ( 0.000000e+00 +/- 0.000000e+00) [K]
    Coulombic Real/kʙ       0.000000e+00 ( 0.000000e+00 +/- 0.000000e+00) [K]
    Coulombic Fourier/kʙ    0.000000e+00 ( 0.000000e+00 +/- 0.000000e+00) [K]
Molecule-molecule
    Van der Waals/kʙ       -1.483064e+03 (-1.483064e+03 +/- 0.000000e+00) [K]
    Van der Waals (Tail)/kʙ-4.496116e+01 (-4.496116e+01 +/- 0.000000e+00) [K]
    Coulombic Real/kʙ      -5.438271e+02 (-5.438271e+02 +/- 0.000000e+00) [K]
    Coulombic Fourier/kʙ   -1.480642e+02 (-1.480642e+02 +/- 0.000000e+00) [K]
    Molecule Intra/kʙ       0.000000e+00 ( 0.000000e+00 +/- 0.000000e+00) [K]

Current cycle: 100 out of 6000
===============================================================================

Box:      33.56241   0.00000   0.00000  Average:  33.43781   0.00000   0.00000
           0.00000  33.56241   0.00000             0.00000  33.43781   0.00000
           0.00000   0.00000  33.56241             0.00000   0.00000  33.43781
Lengths:  33.56241  33.56241  33.56241  Average:  33.43781  33.43781  33.43781
Angles:   90.00000  90.00000  90.00000  Average:  90.00000  90.00000  90.00000
Rectangular boundary conditions

net charge:   0.00000000

component 0 (CO2) lambda:  0 occupancy:  1 (1.000000)
    net charge:   0.00000000 [e]

Amount of molecules per component :
-------------------------------------------------------------------------------
Component 0 (CO2)
    molecules:      3.700000e+01 molecules  (3.123762e+01 +/- 0.000000e+00)
    number density: 9.786837e-04 molec./A^3 (8.348963e-04 +/- 0.000000e+00)
    density:        7.150431e+01 kg/m^3     (6.099895e+01 +/- 0.000000e+00)

Average pressure tensor: 
-------------------------------------------------------------------------------
 2.6294e+01  2.1406e-01  1.5822e+00 +/- 0.0000e+00 0.0000e+00 0.0000e+00 [bar]
 2.1406e-01  2.2796e+01 -1.3258e+00 +/- 0.0000e+00 0.0000e+00 0.0000e+00 [bar]
 1.5822e+00 -1.3258e+00  2.6242e+01 +/- 0.0000e+00 0.0000e+00 0.0000e+00 [bar]
Ideal-gas pressure:   3.112290e+01 +/ 0.000000e+00 [bar]
Excess pressure:     -6.012397e+00 +/ 0.000000e+00 [bar]
Pressure:             2.511050e+01 +/ 0.000000e+00 [bar]

Total potential energy/kʙ  -5.164604e+03 (-2.960442e+03 +/- 0.000000e+00) [K]
-------------------------------------------------------------------------------
ExternalField-molecule
    Van der Waals/kʙ        0.000000e+00 ( 0.000000e+00 +/- 0.000000e+00) [K]
Framework-molecule
    Van der Waals/kʙ        0.000000e+00 ( 0.000000e+00 +/- 0.000000e+00) [K]
    Van der Waals (Tail)/kʙ 0.000000e+00 ( 0.000000e+00 +/- 0.000000e+00) [K]
    Coulombic Real/kʙ       0.000000e+00 ( 0.000000e+00 +/- 0.000000e+00) [K]
    Coulombic Fourier/kʙ    0.000000e+00 ( 0.000000e+00 +/- 0.000000e+00) [K]
Molecule-molecule
    Van der Waals/kʙ       -4.091774e+03 (-2.235467e+03 +/- 0.000000e+00) [K]
    Van der Waals (Tail)/kʙ-6.724814e+01 (-4.485476e+01 +/- 0.000000e+00) [K]
    Coulombic Real/kʙ      -6.744655e+02 (-5.659392e+02 +/- 0.000000e+00) [K]
    Coulombic Fourier/kʙ   -3.311155e+02 (-1.141809e+02 +/- 0.000000e+00) [K]
    Molecule Intra/kʙ       0.000000e+00 ( 0.000000e+00 +/- 0.000000e+00) [K]

Current cycle: 200 out of 6000
===============================================================================

Box:      33.25451   0.00000   0.00000  Average:  33.42388   0.00000   0.00000
           0.00000  33.25451   0.00000             0.00000  33.42388   0.00000
           0.00000   0.00000  33.25451             0.00000   0.00000  33.42388
Lengths:  33.25451  33.25451  33.25451  Average:  33.42388  33.42388  33.42388
Angles:   90.00000  90.00000  90.00000  Average:  90.00000  90.00000  90.00000
Rectangular boundary conditions

net charge:   0.00000000

component 0 (CO2) lambda:  0 occupancy:  1 (1.000000)
    net charge:   0.00000000 [e]

Amount of molecules per component :
-------------------------------------------------------------------------------
Component 0 (CO2)
    molecules:      2.400000e+01 molecules  (3.099005e+01 +/- 0.000000e+00)
    number density: 6.526191e-04 molec./A^3 (8.295362e-04 +/- 0.000000e+00)
    density:        4.768147e+01 kg/m^3     (6.060734e+01 +/- 0.000000e+00)

Average pressure tensor: 
-------------------------------------------------------------------------------
 2.3798e+01  2.6950e-01 -2.1456e-01 +/- 0.0000e+00 0.0000e+00 0.0000e+00 [bar]
 2.6950e-01  2.4584e+01 -5.2716e-01 +/- 0.0000e+00 0.0000e+00 0.0000e+00 [bar]
-2.1456e-01 -5.2716e-01  2.1264e+01 +/- 0.0000e+00 0.0000e+00 0.0000e+00 [bar]
Ideal-gas pressure:   3.092309e+01 +/ 0.000000e+00 [bar]
Excess pressure:     -7.707812e+00 +/ 0.000000e+00 [bar]
Pressure:             2.321527e+01 +/ 0.000000e+00 [bar]

Total potential energy/kʙ  -1.563652e+03 (-3.083409e+03 +/- 0.000000e+00) [K]
-------------------------------------------------------------------------------
ExternalField-molecule
    Van der Waals/kʙ        0.000000e+00 ( 0.000000e+00 +/- 0.000000e+00) [K]
Framework-molecule
    Van der Waals/kʙ        0.000000e+00 ( 0.000000e+00 +/- 0.000000e+00) [K]
    Van der Waals (Tail)/kʙ 0.000000e+00 ( 0.000000e+00 +/- 0.000000e+00) [K]
    Coulombic Real/kʙ       0.000000e+00 ( 0.000000e+00 +/- 0.000000e+00) [K]
    Coulombic Fourier/kʙ    0.000000e+00 ( 0.000000e+00 +/- 0.000000e+00) [K]
Molecule-molecule
    Van der Waals/kʙ       -1.013835e+03 (-2.260736e+03 +/- 0.000000e+00) [K]
    Van der Waals (Tail)/kʙ-2.908756e+01 (-4.560252e+01 +/- 0.000000e+00) [K]
    Coulombic Real/kʙ      -4.609598e+02 (-6.657976e+02 +/- 0.000000e+00) [K]
    Coulombic Fourier/kʙ   -5.977017e+01 (-1.112729e+02 +/- 0.000000e+00) [K]
    Molecule Intra/kʙ       0.000000e+00 ( 0.000000e+00 +/- 0.000000e+00) [K]

Current cycle: 300 out of 6000
===============================================================================

Box:      33.10988   0.00000   0.00000  Average:  33.37180   0.00000   0.00000
           0.00000  33.10988   0.00000             0.00000  33.37180   0.00000
           0.00000   0.00000  33.10988             0.00000   0.00000  33.37180
Lengths:  33.10988  33.10988  33.10988  Average:  33.37180  33.37180  33.37180
Angles:   90.00000  90.00000  90.00000  Average:  90.00000  90.00000  90.00000
Rectangular boundary conditions

net charge:   0.00000000

component 0 (CO2) lambda:  0 occupancy:  1 (1.000000)
    net charge:   0.00000000 [e]

Amount of molecules per component :
-------------------------------------------------------------------------------
Component 0 (CO2)
    molecules:      2.400000e+01 molecules  (2.996013e+01 +/- 0.000000e+00)
    number density: 6.612087e-04 molec./A^3 (8.054931e-04 +/- 0.000000e+00)
    density:        4.830904e+01 kg/m^3     (5.885070e+01 +/- 0.000000e+00)

Average pressure tensor: 
-------------------------------------------------------------------------------
 2.3853e+01  1.3579e-02  4.0623e-02 +/- 0.0000e+00 0.0000e+00 0.0000e+00 [bar]
 1.3579e-02  2.4780e+01  4.0676e-01 +/- 0.0000e+00 0.0000e+00 0.0000e+00 [bar]
 4.0623e-02  4.0676e-01  2.2837e+01 +/- 0.0000e+00 0.0000e+00 0.0000e+00 [bar]
Ideal-gas pressure:   3.002682e+01 +/ 0.000000e+00 [bar]
Excess pressure:     -6.203607e+00 +/ 0.000000e+00 [bar]
Pressure:             2.382321e+01 +/ 0.000000e+00 [bar]

Total potential energy/kʙ  -2.773091e+03 (-2.962166e+03 +/- 0.000000e+00) [K]
-------------------------------------------------------------------------------
ExternalField-molecule
    Van der Waals/kʙ        0.000000e+00 ( 0.000000e+00 +/- 0.000000e+00) [K]
Framework-molecule
    Van der Waals/kʙ        0.000000e+00 ( 0.000000e+00 +/- 0.000000e+00) [K]
    Van der Waals (Tail)/kʙ 0.000000e+00 ( 0.000000e+00 +/- 0.000000e+00) [K]
    Coulombic Real/kʙ       0.000000e+00 ( 0.000000e+00 +/- 0.000000e+00) [K]
    Coulombic Fourier/kʙ    0.000000e+00 ( 0.000000e+00 +/- 0.000000e+00) [K]
Molecule-molecule
    Van der Waals/kʙ       -1.567386e+03 (-2.204347e+03 +/- 0.000000e+00) [K]
    Van der Waals (Tail)/kʙ-2.947040e+01 (-4.271688e+01 +/- 0.000000e+00) [K]
    Coulombic Real/kʙ      -1.034686e+03 (-6.145943e+02 +/- 0.000000e+00) [K]
    Coulombic Fourier/kʙ   -1.415494e+02 (-1.005081e+02 +/- 0.000000e+00) [K]
    Molecule Intra/kʙ       0.000000e+00 ( 0.000000e+00 +/- 0.000000e+00) [K]

Current cycle: 400 out of 6000
===============================================================================

Box:      32.82418   0.00000   0.00000  Average:  33.27621   0.00000   0.00000
           0.00000  32.82418   0.00000             0.00000  33.27621   0.00000
           0.00000   0.00000  32.82418             0.00000   0.00000  33.27621
Lengths:  32.82418  32.82418  32.82418  Average:  33.27621  33.27621  33.27621
Angles:   90.00000  90.00000  90.00000  Average:  90.00000  90.00000  90.00000
Rectangular boundary conditions

net charge:   0.00000000

component 0 (CO2) lambda:  0 occupancy:  1 (1.000000)
    net charge:   0.00000000 [e]

Amount of molecules per component :
-------------------------------------------------------------------------------
Component 0 (CO2)
    molecules:      1.900000e+01 molecules  (2.838404e+01 +/- 0.000000e+00)
    number density: 5.372444e-04 molec./A^3 (7.686708e-04 +/- 0.000000e+00)
    density:        3.925199e+01 kg/m^3     (5.616040e+01 +/- 0.000000e+00)

Average pressure tensor: 
-------------------------------------------------------------------------------
 2.3927e+01 -1.1279e+00  2.2787e+00 +/- 0.0000e+00 0.0000e+00 0.0000e+00 [bar]
-1.1279e+00  2.4918e+01  4.7297e-01 +/- 0.0000e+00 0.0000e+00 0.0000e+00 [bar]
 2.2787e+00  4.7297e-01  2.3271e+01 +/- 0.0000e+00 0.0000e+00 0.0000e+00 [bar]
Ideal-gas pressure:   2.865417e+01 +/ 0.000000e+00 [bar]
Excess pressure:     -4.615686e+00 +/ 0.000000e+00 [bar]
Pressure:             2.403848e+01 +/ 0.000000e+00 [bar]

Total potential energy/kʙ  -1.322249e+03 (-2.904742e+03 +/- 0.000000e+00) [K]
-------------------------------------------------------------------------------
ExternalField-molecule
    Van der Waals/kʙ        0.000000e+00 ( 0.000000e+00 +/- 0.000000e+00) [K]
Framework-molecule
    Van der Waals/kʙ        0.000000e+00 ( 0.000000e+00 +/- 0.000000e+00) [K]
    Van der Waals (Tail)/kʙ 0.000000e+00 ( 0.000000e+00 +/- 0.000000e+00) [K]
    Coulombic Real/kʙ       0.000000e+00 ( 0.000000e+00 +/- 0.000000e+00) [K]
    Coulombic Fourier/kʙ    0.000000e+00 ( 0.000000e+00 +/- 0.000000e+00) [K]
Molecule-molecule
    Van der Waals/kʙ       -8.530317e+02 (-2.132959e+03 +/- 0.000000e+00) [K]
    Van der Waals (Tail)/kʙ-1.895665e+01 (-4.058142e+01 +/- 0.000000e+00) [K]
    Coulombic Real/kʙ      -4.991568e+02 (-6.388492e+02 +/- 0.000000e+00) [K]
    Coulombic Fourier/kʙ    4.889600e+01 (-9.235294e+01 +/- 0.000000e+00) [K]
    Molecule Intra/kʙ       0.000000e+00 ( 0.000000e+00 +/- 0.000000e+00) [K]

Current cycle: 500 out of 6000
===============================================================================

Box:      33.26959   0.00000   0.00000  Average:  33.26523   0.00000   0.00000
           0.00000  33.26959   0.00000             0.00000  33.26523   0.00000
           0.00000   0.00000  33.26959             0.00000   0.00000  33.26523
Lengths:  33.26959  33.26959  33.26959  Average:  33.26523  33.26523  33.26523
Angles:   90.00000  90.00000  90.00000  Average:  90.00000  90.00000  90.00000
Rectangular boundary conditions

net charge:   0.00000000

component 0 (CO2) lambda:  0 occupancy:  1 (1.000000)
    net charge:   0.00000000 [e]

Amount of molecules per component :
-------------------------------------------------------------------------------
Component 0 (CO2)
    molecules:      3.100000e+01 molecules  (2.818164e+01 +/- 0.000000e+00)
    number density: 8.418202e-04 molec./A^3 (7.641769e-04 +/- 0.000000e+00)
    density:        6.150482e+01 kg/m^3     (5.583207e+01 +/- 0.000000e+00)

Average pressure tensor: 
-------------------------------------------------------------------------------
 2.4012e+01 -1.1423e+00  1.9666e+00 +/- 0.0000e+00 0.0000e+00 0.0000e+00 [bar]
-1.1423e+00  2.4780e+01 -3.7867e-01 +/- 0.0000e+00 0.0000e+00 0.0000e+00 [bar]
 1.9666e+00 -3.7867e-01  2.2668e+01 +/- 0.0000e+00 0.0000e+00 0.0000e+00 [bar]
Ideal-gas pressure:   2.848665e+01 +/ 0.000000e+00 [bar]
Excess pressure:     -4.666729e+00 +/ 0.000000e+00 [bar]
Pressure:             2.381992e+01 +/ 0.000000e+00 [bar]

Total potential energy/kʙ  -3.073191e+03 (-2.825652e+03 +/- 0.000000e+00) [K]
-------------------------------------------------------------------------------
ExternalField-molecule
    Van der Waals/kʙ        0.000000e+00 ( 0.000000e+00 +/- 0.000000e+00) [K]
Framework-molecule
    Van der Waals/kʙ        0.000000e+00 ( 0.000000e+00 +/- 0.000000e+00) [K]
    Van der Waals (Tail)/kʙ 0.000000e+00 ( 0.000000e+00 +/- 0.000000e+00) [K]
    Coulombic Real/kʙ       0.000000e+00 ( 0.000000e+00 +/- 0.000000e+00) [K]
    Coulombic Fourier/kʙ    0.000000e+00 ( 0.000000e+00 +/- 0.000000e+00) [K]
Molecule-molecule
    Van der Waals/kʙ       -1.511456e+03 (-2.061035e+03 +/- 0.000000e+00) [K]
    Van der Waals (Tail)/kʙ-4.846378e+01 (-4.006784e+01 +/- 0.000000e+00) [K]
    Coulombic Real/kʙ      -1.424731e+03 (-6.334969e+02 +/- 0.000000e+00) [K]
    Coulombic Fourier/kʙ   -8.853996e+01 (-9.105234e+01 +/- 0.000000e+00) [K]
    Molecule Intra/kʙ       0.000000e+00 ( 0.000000e+00 +/- 0.000000e+00) [K]

Current cycle: 600 out of 6000
===============================================================================

Box:      33.61405   0.00000   0.00000  Average:  33.29210   0.00000   0.00000
           0.00000  33.61405   0.00000             0.00000  33.29210   0.00000
           0.00000   0.00000  33.61405             0.00000   0.00000  33.29210
Lengths:  33.61405  33.61405  33.61405  Average:  33.29210  33.29210  33.29210
Angles:   90.00000  90.00000  90.00000  Average:  90.00000  90.00000  90.00000
Rectangular boundary conditions

net charge:   0.00000000

component 0 (CO2) lambda:  0 occupancy:  1 (1.000000)
    net charge:   0.00000000 [e]

Amount of molecules per component :
-------------------------------------------------------------------------------
Component 0 (CO2)
    molecules:      3.300000e+01 molecules  (2.862396e+01 +/- 0.000000e+00)
    number density: 8.688633e-04 molec./A^3 (7.743336e-04 +/- 0.000000e+00)
    density:        6.348064e+01 kg/m^3     (5.657414e+01 +/- 0.000000e+00)

Average pressure tensor: 
-------------------------------------------------------------------------------
 2.3379e+01 -1.2108e+00  1.4768e+00 +/- 0.0000e+00 0.0000e+00 0.0000e+00 [bar]
-1.2108e+00  2.4324e+01 -2.6540e-01 +/- 0.0000e+00 0.0000e+00 0.0000e+00 [bar]
 1.4768e+00 -2.6540e-01  2.2165e+01 +/- 0.0000e+00 0.0000e+00 0.0000e+00 [bar]
Ideal-gas pressure:   2.886527e+01 +/ 0.000000e+00 [bar]
Excess pressure:     -5.575896e+00 +/ 0.000000e+00 [bar]
Pressure:             2.328937e+01 +/ 0.000000e+00 [bar]

Total potential energy/kʙ  -3.965393e+03 (-2.884692e+03 +/- 0.000000e+00) [K]
-------------------------------------------------------------------------------
ExternalField-molecule
    Van der Waals/kʙ        0.000000e+00 ( 0.000000e+00 +/- 0.000000e+00) [K]
Framework-molecule
    Van der Waals/kʙ        0.000000e+00 ( 0.000000e+00 +/- 0.000000e+00) [K]
    Van der Waals (Tail)/kʙ 0.000000e+00 ( 0.000000e+00 +/- 0.000000e+00) [K]
    Coulombic Real/kʙ       0.000000e+00 ( 0.000000e+00 +/- 0.000000e+00) [K]
    Coulombic Fourier/kʙ    0.000000e+00 ( 0.000000e+00 +/- 0.000000e+00) [K]
Molecule-molecule
    Van der Waals/kʙ       -3.488871e+03 (-2.133168e+03 +/- 0.000000e+00) [K]
    Van der Waals (Tail)/kʙ-5.324779e+01 (-4.167475e+01 +/- 0.000000e+00) [K]
    Coulombic Real/kʙ      -3.078461e+02 (-6.205611e+02 +/- 0.000000e+00) [K]
    Coulombic Fourier/kʙ   -1.154282e+02 (-8.928813e+01 +/- 0.000000e+00) [K]
    Molecule Intra/kʙ       0.000000e+00 ( 0.000000e+00 +/- 0.000000e+00) [K]

Current cycle: 700 out of 6000
===============================================================================

Box:      33.75260   0.00000   0.00000  Average:  33.33899   0.00000   0.00000
           0.00000  33.75260   0.00000             0.00000  33.33899   0.00000
           0.00000   0.00000  33.75260             0.00000   0.00000  33.33899
Lengths:  33.75260  33.75260  33.75260  Average:  33.33899  33.33899  33.33899
Angles:   90.00000  90.00000  90.00000  Average:  90.00000  90.00000  90.00000
Rectangular boundary conditions

net charge:   0.00000000

component 0 (CO2) lambda:  0 occupancy:  1 (1.000000)
    net charge:   0.00000000 [e]

Amount of molecules per component :
-------------------------------------------------------------------------------
Component 0 (CO2)
    molecules:      4.300000e+01 molecules  (3.012411e+01 +/- 0.000000e+00)
    number density: 1.118270e-03 molec./A^3 (8.107865e-04 +/- 0.000000e+00)
    density:        8.170274e+01 kg/m^3     (5.923745e+01 +/- 0.000000e+00)

Average pressure tensor: 
-------------------------------------------------------------------------------
 2.3333e+01 -1.8974e+00  1.2198e+00 +/- 0.0000e+00 0.0000e+00 0.0000e+00 [bar]
-1.8974e+00  2.4124e+01 -5.9248e-01 +/- 0.0000e+00 0.0000e+00 0.0000e+00 [bar]
 1.2198e+00 -5.9248e-01  2.2719e+01 +/- 0.0000e+00 0.0000e+00 0.0000e+00 [bar]
Ideal-gas pressure:   3.022414e+01 +/ 0.000000e+00 [bar]
Excess pressure:     -6.832275e+00 +/ 0.000000e+00 [bar]
Pressure:             2.339186e+01 +/ 0.000000e+00 [bar]

Total potential energy/kʙ  -6.689937e+03 (-3.375629e+03 +/- 0.000000e+00) [K]
-------------------------------------------------------------------------------
ExternalField-molecule
    Van der Waals/kʙ        0.000000e+00 ( 0.000000e+00 +/- 0.000000e+00) [K]
Framework-molecule
    Van der Waals/kʙ        0.000000e+00 ( 0.000000e+00 +/- 0.000000e+00) [K]
    Van der Waals (Tail)/kʙ 0.000000e+00 ( 0.000000e+00 +/- 0.000000e+00) [K]
    Coulombic Real/kʙ       0.000000e+00 ( 0.000000e+00 +/- 0.000000e+00) [K]
    Coulombic Fourier/kʙ    0.000000e+00 ( 0.000000e+00 +/- 0.000000e+00) [K]
Molecule-molecule
    Van der Waals/kʙ       -4.776733e+03 (-2.497347e+03 +/- 0.000000e+00) [K]
    Van der Waals (Tail)/kʙ-8.930000e+01 (-4.758630e+01 +/- 0.000000e+00) [K]
    Coulombic Real/kʙ      -1.800797e+03 (-7.336125e+02 +/- 0.000000e+00) [K]
    Coulombic Fourier/kʙ   -2.310662e+01 (-9.708313e+01 +/- 0.000000e+00) [K]
    Molecule Intra/kʙ       0.000000e+00 ( 0.000000e+00 +/- 0.000000e+00) [K]

Current cycle: 800 out of 6000
===============================================================================

Box:      33.54780   0.00000   0.00000  Average:  33.38689   0.00000   0.00000
           0.00000  33.54780   0.00000             0.00000  33.38689   0.00000
           0.00000   0.00000  33.54780             0.00000   0.00000  33.38689
Lengths:  33.54780  33.54780  33.54780  Average:  33.38689  33.38689  33.38689
Angles:   90.00000  90.00000  90.00000  Average:  90.00000  90.00000  90.00000
Rectangular boundary conditions

net charge:   0.00000000

component 0 (CO2) lambda:  0 occupancy:  1 (1.000000)
    net charge:   0.00000000 [e]

Amount of molecules per component :
-------------------------------------------------------------------------------
Component 0 (CO2)
    molecules:      4.000000e+01 molecules  (3.153059e+01 +/- 0.000000e+00)
    number density: 1.059419e-03 molec./A^3 (8.442566e-04 +/- 0.000000e+00)
    density:        7.740299e+01 kg/m^3     (6.168283e+01 +/- 0.000000e+00)

Average pressure tensor: 
-------------------------------------------------------------------------------
 2.4040e+01 -1.3203e+00  1.1539e+00 +/- 0.0000e+00 0.0000e+00 0.0000e+00 [bar]
-1.3203e+00  2.4563e+01  1.4224e-01 +/- 0.0000e+00 0.0000e+00 0.0000e+00 [bar]
 1.1539e+00  1.4224e-01  2.3904e+01 +/- 0.0000e+00 0.0000e+00 0.0000e+00 [bar]
Ideal-gas pressure:   3.147183e+01 +/ 0.000000e+00 [bar]
Excess pressure:     -7.302941e+00 +/ 0.000000e+00 [bar]
Pressure:             2.416889e+01 +/ 0.000000e+00 [bar]

Total potential energy/kʙ  -4.828601e+03 (-3.653624e+03 +/- 0.000000e+00) [K]
-------------------------------------------------------------------------------
ExternalField-molecule
    Van der Waals/kʙ        0.000000e+00 ( 0.000000e+00 +/- 0.000000e+00) [K]
Framework-molecule
    Van der Waals/kʙ        0.000000e+00 ( 0.000000e+00 +/- 0.000000e+00) [K]
    Van der Waals (Tail)/kʙ 0.000000e+00 ( 0.000000e+00 +/- 0.000000e+00) [K]
    Coulombic Real/kʙ       0.000000e+00 ( 0.000000e+00 +/- 0.000000e+00) [K]
    Coulombic Fourier/kʙ    0.000000e+00 ( 0.000000e+00 +/- 0.000000e+00) [K]
Molecule-molecule
    Van der Waals/kʙ       -3.625489e+03 (-2.718204e+03 +/- 0.000000e+00) [K]
    Van der Waals (Tail)/kʙ-7.869807e+01 (-5.210038e+01 +/- 0.000000e+00) [K]
    Coulombic Real/kʙ      -1.013439e+03 (-7.839468e+02 +/- 0.000000e+00) [K]
    Coulombic Fourier/kʙ   -1.109740e+02 (-9.937266e+01 +/- 0.000000e+00) [K]
    Molecule Intra/kʙ       0.000000e+00 ( 0.000000e+00 +/- 0.000000e+00) [K]

Current cycle: 900 out of 6000
===============================================================================

Box:      33.69141   0.00000   0.00000  Average:  33.41525   0.00000   0.00000
           0.00000  33.69141   0.00000             0.00000  33.41525   0.00000
           0.00000   0.00000  33.69141             0.00000   0.00000  33.41525
Lengths:  33.69141  33.69141  33.69141  Average:  33.41525  33.41525  33.41525
Angles:   90.00000  90.00000  90.00000  Average:  90.00000  90.00000  90.00000
Rectangular boundary conditions

net charge:   0.00000000

component 0 (CO2) lambda:  0 occupancy:  1 (1.000000)
    net charge:   0.00000000 [e]

Amount of molecules per component :
-------------------------------------------------------------------------------
Component 0 (CO2)
    molecules:      5.700000e+01 molecules  (3.271254e+01 +/- 0.000000e+00)
    number density: 1.490450e-03 molec./A^3 (8.734828e-04 +/- 0.000000e+00)
    density:        1.088948e+02 kg/m^3     (6.381815e+01 +/- 0.000000e+00)

Average pressure tensor: 
-------------------------------------------------------------------------------
 2.4386e+01 -9.3298e-01  1.2863e+00 +/- 0.0000e+00 0.0000e+00 0.0000e+00 [bar]
-9.3298e-01  2.4614e+01  9.3983e-02 +/- 0.0000e+00 0.0000e+00 0.0000e+00 [bar]
 1.2863e+00  9.3983e-02  2.4274e+01 +/- 0.0000e+00 0.0000e+00 0.0000e+00 [bar]
Ideal-gas pressure:   3.256131e+01 +/ 0.000000e+00 [bar]
Excess pressure:     -8.136440e+00 +/ 0.000000e+00 [bar]
Pressure:             2.442487e+01 +/ 0.000000e+00 [bar]

Total potential energy/kʙ  -1.053395e+04 (-4.082140e+03 +/- 0.000000e+00) [K]
-------------------------------------------------------------------------------
ExternalField-molecule
    Van der Waals/kʙ        0.000000e+00 ( 0.000000e+00 +/- 0.000000e+00) [K]
Framework-molecule
    Van der Waals/kʙ        0.000000e+00 ( 0.000000e+00 +/- 0.000000e+00) [K]
    Van der Waals (Tail)/kʙ 0.000000e+00 ( 0.000000e+00 +/- 0.000000e+00) [K]
    Coulombic Real/kʙ       0.000000e+00 ( 0.000000e+00 +/- 0.000000e+00) [K]
    Coulombic Fourier/kʙ    0.000000e+00 ( 0.000000e+00 +/- 0.000000e+00) [K]
Molecule-molecule
    Van der Waals/kʙ       -8.381052e+03 (-3.042352e+03 +/- 0.000000e+00) [K]
    Van der Waals (Tail)/kʙ-1.577714e+02 (-5.748530e+01 +/- 0.000000e+00) [K]
    Coulombic Real/kʙ      -1.860265e+03 (-8.726288e+02 +/- 0.000000e+00) [K]
    Coulombic Fourier/kʙ   -1.348600e+02 (-1.096741e+02 +/- 0.000000e+00) [K]
    Molecule Intra/kʙ       0.000000e+00 ( 0.000000e+00 +/- 0.000000e+00) [K]

Current cycle: 1000 out of 6000
===============================================================================

Box:      33.39362   0.00000   0.00000  Average:  33.42057   0.00000   0.00000
           0.00000  33.39362   0.00000             0.00000  33.42057   0.00000
           0.00000   0.00000  33.39362             0.00000   0.00000  33.42057
Lengths:  33.39362  33.39362  33.39362  Average:  33.42057  33.42057  33.42057
Angles:   90.00000  90.00000  90.00000  Average:  90.00000  90.00000  90.00000
Rectangular boundary conditions

net charge:   0.00000000

component 0 (CO2) lambda:  0 occupancy:  1 (1.000000)
    net charge:   0.00000000 [e]

Amount of molecules per component :
-------------------------------------------------------------------------------
Component 0 (CO2)
    molecules:      3.200000e+01 molecules  (3.310989e+01 +/- 0.000000e+00)
    number density: 8.593292e-04 molec./A^3 (8.839417e-04 +/- 0.000000e+00)
    density:        6.278406e+01 kg/m^3     (6.458230e+01 +/- 0.000000e+00)

Average pressure tensor: 
-------------------------------------------------------------------------------
 2.4769e+01 -2.2624e-01  9.6279e-01 +/- 0.0000e+00 0.0000e+00 0.0000e+00 [bar]
-2.2624e-01  2.4702e+01 -3.4848e-01 +/- 0.0000e+00 0.0000e+00 0.0000e+00 [bar]
 9.6279e-01 -3.4848e-01  2.4521e+01 +/- 0.0000e+00 0.0000e+00 0.0000e+00 [bar]
Ideal-gas pressure:   3.295119e+01 +/ 0.000000e+00 [bar]
Excess pressure:     -8.286957e+00 +/ 0.000000e+00 [bar]
Pressure:             2.466423e+01 +/ 0.000000e+00 [bar]

Total potential energy/kʙ  -4.988877e+03 (-4.106422e+03 +/- 0.000000e+00) [K]
-------------------------------------------------------------------------------
ExternalField-molecule
    Van der Waals/kʙ        0.000000e+00 ( 0.000000e+00 +/- 0.000000e+00) [K]
Framework-molecule
    Van der Waals/kʙ        0.000000e+00 ( 0.000000e+00 +/- 0.000000e+00) [K]
    Van der Waals (Tail)/kʙ 0.000000e+00 ( 0.000000e+00 +/- 0.000000e+00) [K]
    Coulombic Real/kʙ       0.000000e+00 ( 0.000000e+00 +/- 0.000000e+00) [K]
    Coulombic Fourier/kʙ    0.000000e+00 ( 0.000000e+00 +/- 0.000000e+00) [K]
Molecule-molecule
    Van der Waals/kʙ       -3.638786e+03 (-3.060365e+03 +/- 0.000000e+00) [K]
    Van der Waals (Tail)/kʙ-5.106764e+01 (-5.825708e+01 +/- 0.000000e+00) [K]
    Coulombic Real/kʙ      -1.285432e+03 (-8.769425e+02 +/- 0.000000e+00) [K]
    Coulombic Fourier/kʙ   -1.359171e+01 (-1.108573e+02 +/- 0.000000e+00) [K]
    Molecule Intra/kʙ       0.000000e+00 ( 0.000000e+00 +/- 0.000000e+00) [K]

Current cycle: 1100 out of 6000
===============================================================================

Box:      33.39033   0.00000   0.00000  Average:  33.39737   0.00000   0.00000
           0.00000  33.39033   0.00000             0.00000  33.39737   0.00000
           0.00000   0.00000  33.39033             0.00000   0.00000  33.39737
Lengths:  33.39033  33.39033  33.39033  Average:  33.39737  33.39737  33.39737
Angles:   90.00000  90.00000  90.00000  Average:  90.00000  90.00000  90.00000
Rectangular boundary conditions

net charge:   0.00000000

component 0 (CO2) lambda:  0 occupancy:  1 (1.000000)
    net charge:   0.00000000 [e]

Amount of molecules per component :
-------------------------------------------------------------------------------
Component 0 (CO2)
    molecules:      2.500000e+01 molecules  (3.289555e+01 +/- 0.000000e+00)
    number density: 6.715490e-04 molec./A^3 (8.802357e-04 +/- 0.000000e+00)
    density:        4.906452e+01 kg/m^3     (6.431152e+01 +/- 0.000000e+00)

Average pressure tensor: 
-------------------------------------------------------------------------------
 2.4500e+01 -1.2265e-01  8.4125e-01 +/- 0.0000e+00 0.0000e+00 0.0000e+00 [bar]
-1.2265e-01  2.4943e+01 -6.4124e-01 +/- 0.0000e+00 0.0000e+00 0.0000e+00 [bar]
 8.4125e-01 -6.4124e-01  2.4320e+01 +/- 0.0000e+00 0.0000e+00 0.0000e+00 [bar]
Ideal-gas pressure:   3.281304e+01 +/ 0.000000e+00 [bar]
Excess pressure:     -8.225290e+00 +/ 0.000000e+00 [bar]
Pressure:             2.458775e+01 +/ 0.000000e+00 [bar]

Total potential energy/kʙ  -2.532444e+03 (-4.055801e+03 +/- 0.000000e+00) [K]
-------------------------------------------------------------------------------
ExternalField-molecule
    Van der Waals/kʙ        0.000000e+00 ( 0.000000e+00 +/- 0.000000e+00) [K]
Framework-molecule
    Van der Waals/kʙ        0.000000e+00 ( 0.000000e+00 +/- 0.000000e+00) [K]
    Van der Waals (Tail)/kʙ 0.000000e+00 ( 0.000000e+00 +/- 0.000000e+00) [K]
    Coulombic Real/kʙ       0.000000e+00 ( 0.000000e+00 +/- 0.000000e+00) [K]
    Coulombic Fourier/kʙ    0.000000e+00 ( 0.000000e+00 +/- 0.000000e+00) [K]
Molecule-molecule
    Van der Waals/kʙ       -1.779193e+03 (-3.039429e+03 +/- 0.000000e+00) [K]
    Van der Waals (Tail)/kʙ-3.117841e+01 (-5.741927e+01 +/- 0.000000e+00) [K]
    Coulombic Real/kʙ      -6.571066e+02 (-8.488266e+02 +/- 0.000000e+00) [K]
    Coulombic Fourier/kʙ   -6.496607e+01 (-1.101262e+02 +/- 0.000000e+00) [K]
    Molecule Intra/kʙ       0.000000e+00 ( 0.000000e+00 +/- 0.000000e+00) [K]

Current cycle: 1200 out of 6000
===============================================================================

Box:      33.31467   0.00000   0.00000  Average:  33.38395   0.00000   0.00000
           0.00000  33.31467   0.00000             0.00000  33.38395   0.00000
           0.00000   0.00000  33.31467             0.00000   0.00000  33.38395
Lengths:  33.31467  33.31467  33.31467  Average:  33.38395  33.38395  33.38395
Angles:   90.00000  90.00000  90.00000  Average:  90.00000  90.00000  90.00000
Rectangular boundary conditions

net charge:   0.00000000

component 0 (CO2) lambda:  0 occupancy:  1 (1.000000)
    net charge:   0.00000000 [e]

Amount of molecules per component :
-------------------------------------------------------------------------------
Component 0 (CO2)
    molecules:      2.700000e+01 molecules  (3.261699e+01 +/- 0.000000e+00)
    number density: 7.302259e-04 molec./A^3 (8.739285e-04 +/- 0.000000e+00)
    density:        5.335155e+01 kg/m^3     (6.385071e+01 +/- 0.000000e+00)

Average pressure tensor: 
-------------------------------------------------------------------------------
 2.4460e+01  8.8859e-02  9.2468e-01 +/- 0.0000e+00 0.0000e+00 0.0000e+00 [bar]
 8.8859e-02  2.5066e+01 -7.0696e-01 +/- 0.0000e+00 0.0000e+00 0.0000e+00 [bar]
 9.2468e-01 -7.0696e-01  2.4133e+01 +/- 0.0000e+00 0.0000e+00 0.0000e+00 [bar]
Ideal-gas pressure:   3.257792e+01 +/ 0.000000e+00 [bar]
Excess pressure:     -8.024653e+00 +/ 0.000000e+00 [bar]
Pressure:             2.455327e+01 +/ 0.000000e+00 [bar]

Total potential energy/kʙ  -4.570066e+03 (-4.030616e+03 +/- 0.000000e+00) [K]
-------------------------------------------------------------------------------
ExternalField-molecule
    Van der Waals/kʙ        0.000000e+00 ( 0.000000e+00 +/- 0.000000e+00) [K]
Framework-molecule
    Van der Waals/kʙ        0.000000e+00 ( 0.000000e+00 +/- 0.000000e+00) [K]
    Van der Waals (Tail)/kʙ 0.000000e+00 ( 0.000000e+00 +/- 0.000000e+00) [K]
    Coulombic Real/kʙ       0.000000e+00 ( 0.000000e+00 +/- 0.000000e+00) [K]
    Coulombic Fourier/kʙ    0.000000e+00 ( 0.000000e+00 +/- 0.000000e+00) [K]
Molecule-molecule
    Van der Waals/kʙ       -3.811100e+03 (-3.014734e+03 +/- 0.000000e+00) [K]
    Van der Waals (Tail)/kʙ-3.661484e+01 (-5.649796e+01 +/- 0.000000e+00) [K]
    Coulombic Real/kʙ      -5.947607e+02 (-8.537987e+02 +/- 0.000000e+00) [K]
    Coulombic Fourier/kʙ   -1.275911e+02 (-1.055861e+02 +/- 0.000000e+00) [K]
    Molecule Intra/kʙ       0.000000e+00 ( 0.000000e+00 +/- 0.000000e+00) [K]

Current cycle: 1300 out of 6000
===============================================================================

Box:      33.17755   0.00000   0.00000  Average:  33.36148   0.00000   0.00000
           0.00000  33.17755   0.00000             0.00000  33.36148   0.00000
           0.00000   0.00000  33.17755             0.00000   0.00000  33.36148
Lengths:  33.17755  33.17755  33.17755  Average:  33.36148  33.36148  33.36148
Angles:   90.00000  90.00000  90.00000  Average:  90.00000  90.00000  90.00000
Rectangular boundary conditions

net charge:   0.00000000

component 0 (CO2) lambda:  0 occupancy:  1 (1.000000)
    net charge:   0.00000000 [e]

Amount of molecules per component :
-------------------------------------------------------------------------------
Component 0 (CO2)
    molecules:      2.100000e+01 molecules  (3.238970e+01 +/- 0.000000e+00)
    number density: 5.750245e-04 molec./A^3 (8.696723e-04 +/- 0.000000e+00)
    density:        4.201227e+01 kg/m^3     (6.353974e+01 +/- 0.000000e+00)

Average pressure tensor: 
-------------------------------------------------------------------------------
 2.4194e+01  1.9379e-02  7.5551e-01 +/- 0.0000e+00 0.0000e+00 0.0000e+00 [bar]
 1.9379e-02  2.4336e+01 -8.6877e-01 +/- 0.0000e+00 0.0000e+00 0.0000e+00 [bar]
 7.5551e-01 -8.6877e-01  2.3541e+01 +/- 0.0000e+00 0.0000e+00 0.0000e+00 [bar]
Ideal-gas pressure:   3.241926e+01 +/ 0.000000e+00 [bar]
Excess pressure:     -8.395461e+00 +/ 0.000000e+00 [bar]
Pressure:             2.402380e+01 +/ 0.000000e+00 [bar]

Total potential energy/kʙ  -9.003617e+02 (-3.969618e+03 +/- 0.000000e+00) [K]
-------------------------------------------------------------------------------
ExternalField-molecule
    Van der Waals/kʙ        0.000000e+00 ( 0.000000e+00 +/- 0.000000e+00) [K]
Framework-molecule
    Van der Waals/kʙ        0.000000e+00 ( 0.000000e+00 +/- 0.000000e+00) [K]
    Van der Waals (Tail)/kʙ 0.000000e+00 ( 0.000000e+00 +/- 0.000000e+00) [K]
    Coulombic Real/kʙ       0.000000e+00 ( 0.000000e+00 +/- 0.000000e+00) [K]
    Coulombic Fourier/kʙ    0.000000e+00 ( 0.000000e+00 +/- 0.000000e+00) [K]
Molecule-molecule
    Van der Waals/kʙ       -6.873192e+02 (-2.974531e+03 +/- 0.000000e+00) [K]
    Van der Waals (Tail)/kʙ-2.242549e+01 (-5.566871e+01 +/- 0.000000e+00) [K]
    Coulombic Real/kʙ      -1.303842e+02 (-8.351435e+02 +/- 0.000000e+00) [K]
    Coulombic Fourier/kʙ   -6.023281e+01 (-1.042753e+02 +/- 0.000000e+00) [K]
    Molecule Intra/kʙ       0.000000e+00 ( 0.000000e+00 +/- 0.000000e+00) [K]

Current cycle: 1400 out of 6000
===============================================================================

Box:      33.01762   0.00000   0.00000  Average:  33.34238   0.00000   0.00000
           0.00000  33.01762   0.00000             0.00000  33.34238   0.00000
           0.00000   0.00000  33.01762             0.00000   0.00000  33.34238
Lengths:  33.01762  33.01762  33.01762  Average:  33.34238  33.34238  33.34238
Angles:   90.00000  90.00000  90.00000  Average:  90.00000  90.00000  90.00000
Rectangular boundary conditions

net charge:   0.00000000

component 0 (CO2) lambda:  0 occupancy:  1 (1.000000)
    net charge:   0.00000000 [e]

Amount of molecules per component :
-------------------------------------------------------------------------------
Component 0 (CO2)
    molecules:      3.300000e+01 molecules  (3.213490e+01 +/- 0.000000e+00)
    number density: 9.168043e-04 molec./A^3 (8.643757e-04 +/- 0.000000e+00)
    density:        6.698329e+01 kg/m^3     (6.315277e+01 +/- 0.000000e+00)

Average pressure tensor: 
-------------------------------------------------------------------------------
 2.4583e+01  6.9645e-02  2.4734e-01 +/- 0.0000e+00 0.0000e+00 0.0000e+00 [bar]
 6.9645e-02  2.4168e+01 -8.9913e-01 +/- 0.0000e+00 0.0000e+00 0.0000e+00 [bar]
 2.4734e-01 -8.9913e-01  2.3897e+01 +/- 0.0000e+00 0.0000e+00 0.0000e+00 [bar]
Ideal-gas pressure:   3.222182e+01 +/ 0.000000e+00 [bar]
Excess pressure:     -8.005732e+00 +/ 0.000000e+00 [bar]
Pressure:             2.421608e+01 +/ 0.000000e+00 [bar]

Total potential energy/kʙ  -3.362356e+03 (-3.948542e+03 +/- 0.000000e+00) [K]
-------------------------------------------------------------------------------
ExternalField-molecule
    Van der Waals/kʙ        0.000000e+00 ( 0.000000e+00 +/- 0.000000e+00) [K]
Framework-molecule
    Van der Waals/kʙ        0.000000e+00 ( 0.000000e+00 +/- 0.000000e+00) [K]
    Van der Waals (Tail)/kʙ 0.000000e+00 ( 0.000000e+00 +/- 0.000000e+00) [K]
    Coulombic Real/kʙ       0.000000e+00 ( 0.000000e+00 +/- 0.000000e+00) [K]
    Coulombic Fourier/kʙ    0.000000e+00 ( 0.000000e+00 +/- 0.000000e+00) [K]
Molecule-molecule
    Van der Waals/kʙ       -2.860395e+03 (-2.956156e+03 +/- 0.000000e+00) [K]
    Van der Waals (Tail)/kʙ-5.618583e+01 (-5.496141e+01 +/- 0.000000e+00) [K]
    Coulombic Real/kʙ      -3.928564e+02 (-8.356465e+02 +/- 0.000000e+00) [K]
    Coulombic Fourier/kʙ   -5.291901e+01 (-1.017780e+02 +/- 0.000000e+00) [K]
    Molecule Intra/kʙ       0.000000e+00 ( 0.000000e+00 +/- 0.000000e+00) [K]

Current cycle: 1500 out of 6000
===============================================================================

Box:      33.25306   0.00000   0.00000  Average:  33.33759   0.00000   0.00000
           0.00000  33.25306   0.00000             0.00000  33.33759   0.00000
           0.00000   0.00000  33.25306             0.00000   0.00000  33.33759
[...]
    number density: 6.395583e-04 molec./A^3 (9.762899e-04 +/- 1.161255e-04)
    density:        4.672722e+01 kg/m^3     (7.132941e+01 +/- 8.484329e+00)

Average pressure tensor: 
-------------------------------------------------------------------------------
 2.9086e+01 -1.2187e-01 -2.4770e-01 +/- 5.0705e+00 5.1150e-01 1.1887e+00 [bar]
-1.2187e-01  2.7386e+01 -1.5893e-01 +/- 5.1150e-01 3.3094e+00 4.6152e-01 [bar]
-2.4770e-01 -1.5893e-01  2.7701e+01 +/- 1.1887e+00 4.6152e-01 4.4933e+00 [bar]
Ideal-gas pressure:   3.639370e+01 +/ 4.328876e+00 [bar]
Excess pressure:     -8.335964e+00 +/ 1.161320e+00 [bar]
Pressure:             2.805774e+01 +/ 4.225089e+00 [bar]

Total potential energy/kʙ  -1.811665e+03 (-5.139022e+03 +/- 1.262899e+03) [K]
-------------------------------------------------------------------------------
ExternalField-molecule
    Van der Waals/kʙ        0.000000e+00 ( 0.000000e+00 +/- 0.000000e+00) [K]
Framework-molecule
    Van der Waals/kʙ        0.000000e+00 ( 0.000000e+00 +/- 0.000000e+00) [K]
    Van der Waals (Tail)/kʙ 0.000000e+00 ( 0.000000e+00 +/- 0.000000e+00) [K]
    Coulombic Real/kʙ       0.000000e+00 ( 0.000000e+00 +/- 0.000000e+00) [K]
    Coulombic Fourier/kʙ    0.000000e+00 ( 0.000000e+00 +/- 0.000000e+00) [K]
Molecule-molecule
    Van der Waals/kʙ       -1.631858e+03 (-3.822541e+03 +/- 9.317372e+02) [K]
    Van der Waals (Tail)/kʙ-2.850543e+01 (-7.003439e+01 +/- 1.664487e+01) [K]
    Coulombic Real/kʙ      -1.158049e+02 (-1.135493e+03 +/- 3.005207e+02) [K]
    Coulombic Fourier/kʙ   -3.549706e+01 (-1.109541e+02 +/- 2.734033e+01) [K]
    Molecule Intra/kʙ       0.000000e+00 ( 0.000000e+00 +/- 0.000000e+00) [K]

Current cycle: 5800 out of 6000
===============================================================================

Box:      33.47911   0.00000   0.00000  Average:  33.53144   0.00000   0.00000
           0.00000  33.47911   0.00000             0.00000  33.53144   0.00000
           0.00000   0.00000  33.47911             0.00000   0.00000  33.53144
Lengths:  33.47911  33.47911  33.47911  Average:  33.53144  33.53144  33.53144
Angles:   90.00000  90.00000  90.00000  Average:  90.00000  90.00000  90.00000
Rectangular boundary conditions

net charge:   0.00000000

component 0 (CO2) lambda:  0 occupancy:  1 (1.000000)
    net charge:   0.00000000 [e]

Amount of molecules per component :
-------------------------------------------------------------------------------
Component 0 (CO2)
    molecules:      3.000000e+01 molecules  (3.683555e+01 +/- 4.794766e+00)
    number density: 7.994652e-04 molec./A^3 (9.740350e-04 +/- 1.147331e-04)
    density:        5.841030e+01 kg/m^3     (7.116467e+01 +/- 8.382594e+00)

Average pressure tensor: 
-------------------------------------------------------------------------------
 2.9153e+01 -1.3311e-01 -2.9022e-01 +/- 5.0776e+00 4.6145e-01 1.2301e+00 [bar]
-1.3311e-01  2.7380e+01 -1.4613e-01 +/- 4.6145e-01 3.2895e+00 4.7157e-01 [bar]
-2.9022e-01 -1.4613e-01  2.7758e+01 +/- 1.2301e+00 4.7157e-01 4.5142e+00 [bar]
Ideal-gas pressure:   3.630965e+01 +/ 4.276969e+00 [bar]
Excess pressure:     -8.212677e+00 +/ 1.194501e+00 [bar]
Pressure:             2.809697e+01 +/ 4.236451e+00 [bar]

Total potential energy/kʙ  -2.422437e+03 (-5.102108e+03 +/- 1.265261e+03) [K]
-------------------------------------------------------------------------------
ExternalField-molecule
    Van der Waals/kʙ        0.000000e+00 ( 0.000000e+00 +/- 0.000000e+00) [K]
Framework-molecule
    Van der Waals/kʙ        0.000000e+00 ( 0.000000e+00 +/- 0.000000e+00) [K]
    Van der Waals (Tail)/kʙ 0.000000e+00 ( 0.000000e+00 +/- 0.000000e+00) [K]
    Coulombic Real/kʙ       0.000000e+00 ( 0.000000e+00 +/- 0.000000e+00) [K]
    Coulombic Fourier/kʙ    0.000000e+00 ( 0.000000e+00 +/- 0.000000e+00) [K]
Molecule-molecule
    Van der Waals/kʙ       -2.087767e+03 (-3.795701e+03 +/- 9.371100e+02) [K]
    Van der Waals (Tail)/kʙ-4.454070e+01 (-6.969766e+01 +/- 1.666716e+01) [K]
    Coulombic Real/kʙ      -1.522575e+02 (-1.126656e+03 +/- 2.972903e+02) [K]
    Coulombic Fourier/kʙ   -1.378715e+02 (-1.100536e+02 +/- 2.666529e+01) [K]
    Molecule Intra/kʙ       0.000000e+00 ( 0.000000e+00 +/- 0.000000e+00) [K]

Current cycle: 5900 out of 6000
===============================================================================

Box:      33.51340   0.00000   0.00000  Average:  33.53103   0.00000   0.00000
           0.00000  33.51340   0.00000             0.00000  33.53103   0.00000
           0.00000   0.00000  33.51340             0.00000   0.00000  33.53103
Lengths:  33.51340  33.51340  33.51340  Average:  33.53103  33.53103  33.53103
Angles:   90.00000  90.00000  90.00000  Average:  90.00000  90.00000  90.00000
Rectangular boundary conditions

net charge:   0.00000000

component 0 (CO2) lambda:  0 occupancy:  1 (1.000000)
    net charge:   0.00000000 [e]

Amount of molecules per component :
-------------------------------------------------------------------------------
Component 0 (CO2)
    molecules:      4.300000e+01 molecules  (3.682274e+01 +/- 4.789431e+00)
    number density: 1.142386e-03 molec./A^3 (9.737753e-04 +/- 1.145484e-04)
    density:        8.346469e+01 kg/m^3     (7.114569e+01 +/- 8.369101e+00)

Average pressure tensor: 
-------------------------------------------------------------------------------
 2.9261e+01 -1.3725e-01 -2.7824e-01 +/- 5.1029e+00 4.3738e-01 1.1952e+00 [bar]
-1.3725e-01  2.7415e+01 -9.9900e-02 +/- 4.3738e-01 3.3000e+00 5.3172e-01 [bar]
-2.7824e-01 -9.9900e-02  2.7836e+01 +/- 1.1952e+00 5.3172e-01 4.5546e+00 [bar]
Ideal-gas pressure:   3.629997e+01 +/ 4.270084e+00 [bar]
Excess pressure:     -8.129495e+00 +/ 1.269600e+00 [bar]
Pressure:             2.817047e+01 +/ 4.268571e+00 [bar]

Total potential energy/kʙ  -8.096608e+03 (-5.104720e+03 +/- 1.264383e+03) [K]
-------------------------------------------------------------------------------
ExternalField-molecule
    Van der Waals/kʙ        0.000000e+00 ( 0.000000e+00 +/- 0.000000e+00) [K]
Framework-molecule
    Van der Waals/kʙ        0.000000e+00 ( 0.000000e+00 +/- 0.000000e+00) [K]
    Van der Waals (Tail)/kʙ 0.000000e+00 ( 0.000000e+00 +/- 0.000000e+00) [K]
    Coulombic Real/kʙ       0.000000e+00 ( 0.000000e+00 +/- 0.000000e+00) [K]
    Coulombic Fourier/kʙ    0.000000e+00 ( 0.000000e+00 +/- 0.000000e+00) [K]
Molecule-molecule
    Van der Waals/kʙ       -6.081027e+03 (-3.793815e+03 +/- 9.368796e+02) [K]
    Van der Waals (Tail)/kʙ-9.122579e+01 (-6.962951e+01 +/- 1.667484e+01) [K]
    Coulombic Real/kʙ      -1.709643e+03 (-1.130358e+03 +/- 2.979147e+02) [K]
    Coulombic Fourier/kʙ   -2.147121e+02 (-1.109180e+02 +/- 2.706095e+01) [K]
    Molecule Intra/kʙ       0.000000e+00 ( 0.000000e+00 +/- 0.000000e+00) [K]


Energy statistics             |  Energy [K]   | Recomputed [K]|  Drift [K]    |
===============================================================================
Total potential energy/kʙ     | -7.688841e+03 | -7.634411e+03 | -5.443053e+01 |
    external field VDW/kʙ     |  0.000000e+00 |  0.000000e+00 |  0.000000e+00 |
    external field Real/kʙ    |  0.000000e+00 |  0.000000e+00 |  0.000000e+00 |
    framework-molecule VDW/kʙ |  0.000000e+00 |  0.000000e+00 |  0.000000e+00 |
    framework-molecule Real/kʙ|  0.000000e+00 |  0.000000e+00 |  0.000000e+00 |
    molecule-molecule VDW/kʙ  | -5.997213e+03 | -5.941798e+03 | -5.541494e+01 |
    molecule-molecule Real/kʙ | -1.214515e+03 | -1.215500e+03 |  9.844109e-01 |
    Van der Waals (Tail)/kʙ   | -1.314820e+02 | -1.314820e+02 | -2.563761e-13 |
    Ewald Fourier/kʙ          |  2.712262e+03 |  2.712262e+03 | -5.469357e-12 |
    Ewald self/kʙ             | -9.550727e+05 | -9.550727e+05 |  0.000000e+00 |
    Ewald exclusion/kʙ        |  9.520148e+05 |  9.520148e+05 | -1.400155e-10 |
    intra VDW/kʙ              |  0.000000e+00 |  0.000000e+00 |  0.000000e+00 |
    intra Coulombic/kʙ        |  0.000000e+00 |  0.000000e+00 |  0.000000e+00 |
    polarization/kʙ           |  0.000000e+00 |  0.000000e+00 |  0.000000e+00 |
    dU/dlambda VDW/kʙ         |  0.000000e+00 |  0.000000e+00 |  0.000000e+00 |
    dU/dlambda Real/kʙ        |  0.000000e+00 |  0.000000e+00 |  0.000000e+00 |
    dU/dlambda Ewald/kʙ       |  0.000000e+00 |  0.000000e+00 |  0.000000e+00 |
-------------------------------------------------------------------------------


Monte-Carlo moves statistics
===============================================================================

    Gibbs volume         all:                3097
    Gibbs volume         total:              6090
    Gibbs volume         constructed:        6090
    Gibbs volume         accepted:           4708
    Gibbs volume         fraction:       0.773071
    Gibbs volume         max-change:     0.037500

Component 0 [CO2]
    Reinsertion (CBMC)   all:              148977
    Reinsertion (CBMC)   total:            148977
    Reinsertion (CBMC)   constructed:      148977
    Reinsertion (CBMC)   accepted:          98801
    Reinsertion (CBMC)   fraction:       0.663196
    Reinsertion (CBMC)   max-change:     0.000000

    Gibbs swap (CBMC)    all:              299037
    Gibbs swap (CBMC)    total:            598969
    Gibbs swap (CBMC)    constructed:      586310
    Gibbs swap (CBMC)    accepted:          77852
    Gibbs swap (CBMC)    fraction:       0.129977
    Gibbs swap (CBMC)    max-change:     0.000000

    Translation          all:              149440
    Translation          total:             49650      49978      49812
    Translation          constructed:       49557      49871      49716
    Translation          accepted:          41363      41500      41281
    Translation          fraction:       0.833092   0.830365   0.828736
    Translation          max-change:     1.500000   1.500000   1.500000

    Rotation             all:              148964
    Rotation             total:             49677      49609      49678
    Rotation             constructed:       49643      49591      49655
    Rotation             accepted:          41139      41141      41200
    Rotation             fraction:       0.828130   0.829305   0.829341
    Rotation             max-change:     1.500000   1.500000   1.500000



Production run counting of the MC moves summed over systems and components
===============================================================================

Reinsertion (CBMC)                   297614 (19.8409 [%])
Gibbs volume                           6090 (0.4060 [%])
Gibbs swap (CBMC)                    598969 (39.9313 [%])
Translation                          299123 (19.9415 [%])
Rotation                             298204 (19.8803 [%])

Production count MC-steps:          1500000 [-]
               All summed:          1500000 [-]
               difference:                0 [-]


Production run CPU timings of the MC moves
===============================================================================

Component 0 CO2

Rotation                              8.266017 [s]
    Ewald                             5.993775 [s]
    ExternalField-Molecule            0.005859 [s]
    Framework-Molecule                0.004947 [s]
    Molecule-Molecule                 1.422777 [s]
    Overhead                          0.838659 [s]

Reinsertion (CBMC)                   21.787190 [s]
    Ewald                             6.027045 [s]
    NonEwald                         15.079328 [s]
    Overhead                          0.680817 [s]

Translation                           8.277284 [s]
    Ewald                             6.006140 [s]
    ExternalField-Molecule            0.005379 [s]
    Framework-Molecule                0.010531 [s]
    Molecule-Molecule                 1.428898 [s]
    Overhead                          0.826336 [s]



Gibbs swap (CBMC)                   170.664810 [s]
    Ewald                            27.409845 [s]
    NonEwald                        140.341069 [s]
    Tail                              1.486056 [s]

Gibbs volume                         21.962869 [s]
    Ewald                            10.301886 [s]
    NonEwald                         10.709270 [s]
    Tail                              0.770278 [s]

Property sampling                     0.239036 [s]
Energy/pressure sampling:             0.625220 [s]


Production run CPU timings of the MC moves summed over systems and components
===============================================================================


Translation                          29.932611 [s]
    Ewald                            17.301553 [s]
    ExternalField-Molecule            0.010852 [s]
    Framework-Molecule                0.021263 [s]
    Molecule-Molecule                10.798407 [s]
    Overhead                          1.800536 [s]

Rotation                             29.777649 [s]
    Ewald                            17.259153 [s]
    ExternalField-Molecule            0.011798 [s]
    Framework-Molecule                0.009873 [s]
    Molecule-Molecule                10.726253 [s]
    Overhead                          1.770572 [s]

Reinsertion (CBMC)                  101.281566 [s]
    Ewald                            16.819612 [s]
    NonEwald                         83.528581 [s]
    Overhead                          0.933373 [s]

Gibbs volume                         43.221772 [s]
    Ewald                            20.271627 [s]
    NonEwald                         21.068793 [s]
    Tail                              1.518599 [s]
    Overhead                          0.362753 [s]

Gibbs swap (CBMC)                   292.561913 [s]
    Ewald                            53.666485 [s]
    NonEwald                        233.293703 [s]
    Tail                              2.821304 [s]
    Overhead                          2.780421 [s]

Property sampling:                    0.548997 [s]
Energy/pressure sampling:             9.431884 [s]

Production simulation time:         508.394844 [s]
                All summed:         506.756392 [s]
                  Overhead:           1.638452 [s]


Initalization simulation time:      158.906030 [s]
Equilibration simulation time:        0.000000 [s]
Production simulation time:         508.394844 [s]
Total simulation time:              667.300874 [s]


Energy averages and statistics:
===============================================================================

Framework-molecule energy:
-------------------------------------------------------------------------------



Framework-molecule energy contributions per energy type:
-------------------------------------------------------------------------------



Inter-molecular energy:
-------------------------------------------------------------------------------

    Inter-molecular energy/kʙ 0-0 [CO2-CO2]:
    ---------------------------------------------------------------------------
        Block[  0] -4.026121e+03
        Block[  1] -5.514253e+03
        Block[  2] -6.608557e+03
        Block[  3] -4.366046e+03
        Block[  4] -5.101331e+03
        -----------------------------------------------------------------------
        Average  -5.123261e+03 +/-  1.262477e+03 [K]



Inter-molecular energy contributions per energy type:
-------------------------------------------------------------------------------

    Van der Waals energy/kʙ 0-0 [CO2-CO2]:
    ---------------------------------------------------------------------------
        Block[  0] -3.008097e+03
        Block[  1] -4.166139e+03
        Block[  2] -4.889622e+03
        Block[  3] -3.246024e+03
        Block[  4] -3.747206e+03
        -----------------------------------------------------------------------
        Average  -3.811418e+03 +/-  9.326426e+02 [K]

    VDW Tail-Correction energy/kʙ 0-0 [CO2-CO2]:
    ---------------------------------------------------------------------------
        Block[  0] -5.666365e+01
        Block[  1] -7.273047e+01
        Block[  2] -9.071905e+01
        Block[  3] -5.978557e+01
        Block[  4] -7.017579e+01
        -----------------------------------------------------------------------
        Average  -7.001490e+01 +/-  1.664393e+01 [K]

    Coulomb Real energy/kʙ 0-0 [CO2-CO2]:
    ---------------------------------------------------------------------------
        Block[  0] -8.559574e+02
        Block[  1] -1.182268e+03
        Block[  2] -1.483459e+03
        Block[  3] -9.676638e+02
        Block[  4] -1.163026e+03
        -----------------------------------------------------------------------
        Average  -1.130475e+03 +/-  2.978268e+02 [K]

    Coulomb Fourier energy/kʙ 0-0 [CO2-CO2]:
    ---------------------------------------------------------------------------
        Block[  0] -1.054028e+02
        Block[  1] -9.311562e+01
        Block[  2] -1.447570e+02
        Block[  3] -9.257217e+01
        Block[  4] -1.209233e+02
        -----------------------------------------------------------------------
        Average  -1.113542e+02 +/-  2.725676e+01 [K]


Total energy/kʙ
-------------------------------------------------------------------------------
    Block[  0] -4.026121e+03
    Block[  1] -5.514253e+03
    Block[  2] -6.608557e+03
    Block[  3] -4.366046e+03
    Block[  4] -5.101331e+03
    ---------------------------------------------------------------------------
    Average  -5.123261e+03 +/-  1.262477e+03 [K]

Pressure averages and statistics:
===============================================================================

Average pressure tensor: 
-------------------------------------------------------------------------------
 2.9132e+01 -1.3185e-01 -3.8960e-01 +/- 5.0733e+00 4.3495e-01 1.3328e+00 [bar]
-1.3185e-01  2.7328e+01 -1.1329e-01 +/- 4.3495e-01 3.2461e+00 5.0069e-01 [bar]
-3.8960e-01 -1.1329e-01  2.7880e+01 +/- 1.3328e+00 5.0069e-01 4.5617e+00 [bar]

    Block[  0]  3.258239e+06
    Block[  1]  3.680323e+06
    Block[  2]  4.145929e+06
    Block[  3]  3.379777e+06
    Block[  4]  3.739327e+06
    ---------------------------------------------------------------------------
    Ideal gas pressure   3.640719e+06 +/-  2.592314e-02 [Pa]
                         3.640719e+01 +/-  4.304642e+00 [bar]


    Block[  0] -8.024499e+05
    Block[  1] -9.847755e+05
    Block[  2] -8.004828e+05
    Block[  3] -7.345114e+05
    Block[  4] -8.246840e+05
    ---------------------------------------------------------------------------
    Excess pressure  -8.293807e+05 +/-  1.156799e+05 [Pa]
                     -8.293807e+00 +/-  1.156799e+00 [bar]


    Block[  0]  2.455789e+06
    Block[  1]  2.695548e+06
    Block[  2]  3.345446e+06
    Block[  3]  2.645266e+06
    Block[  4]  2.914643e+06
    ---------------------------------------------------------------------------
    Pressure average   2.811338e+06 +/-  4.225299e+05 [Pa]
                       2.811338e+01 +/-  4.225299e+00 [bar]


Enthalpy of adsorption
===============================================================================

Component 0 [CO2]
-------------------------------------------------------------------------------
    Block[  0] -5.062753e+02
    Block[  1] -5.183080e+02
    Block[  2] -5.694311e+02
    Block[  3] -5.252941e+02
    Block[  4] -5.713749e+02
    ---------------------------------------------------------------------------
    Enthalpy of adsorption: -5.381367e+02 +/-  3.753960e+01 [K]
                            -4.474319e+00 +/-  3.121217e-01 [kJ/mol]
    Warning: need to subtract the ideal-gas energy.


Densities
===============================================================================

Component 0 (CO2)
    Block[  0] 32.62166666666667
    Block[  1] 37.32666666666667
    Block[  2] 42.69583333333333
    Block[  3] 34.196666666666665
    Block[  4] 37.85583333333334
    -----------------------------------------------------------------------
    Density average   3.693933e+01 +/-  4.819849e+00 [molecules]
    Density average   9.766517e-04 +/-  1.154754e-04 [molec/A^3]
    Density average   7.135584e+01 +/-  8.436832e+00 [kg.m⁻³]

