Compiler and run-time data
===============================================================================
RASPA 3.0.4

Random seed: 965236858

Compiled as a 64-bits application
Compiler: gcc Ubuntu Clang 18.1.3 (1ubuntu1)
Compile Date = Mar 15 2025, Compile Time = 19:39:45

2025-06-03 11:00:36.158938
Simulation started on Tue, Jun 03
The start time was 11:00:00

Hostname:    c061
OS type:     Linux on x86_64
OS release:  6.8.0-58-generic
OS version:  #60-Ubuntu SMP PREEMPT_DYNAMIC Fri Mar 14 18:29:48 UTC 2025


Mutual consistent basic set of units:
===============================================================================

Unit of temperature: 1 [K]
Unit of length:      1e-10 [m]
Unit of time:        1e-12 [s]
Unit of mass:        1.6605402e-27 [kg]
Unit of charge:      1.60217733e-19 [C/particle]


Boltzmann constant (internal units):          0.8314464919307584 [-]
represents conversion from energy (internal units) to temperature (in Kelvin)

Derived units and their conversion factors:
===============================================================================

Unit of energy:                           1.6605402000000002e-23 [J]
Unit of energy:                           10.000008872307538 [J.mol⁻¹]
Unit of velocity:                         100 [m.s⁻¹]
Unit of force:                            1.6605402000000002e-13 [N]
Unit of diffusion:                        1.0000000000000002e-08 [m².s⁻¹]
Unit of acceleration:                     1.0000000000000002e-08 [m².s⁻¹]
Unit of torque:                           1.6605402000000002e-23 [N.m]
Unit of pressure:                         16605402 [Pa]
Unit of volume:                           1e-30 [m³]
Unit of density:                          1660.5402 [kg.m⁻³]
Unit of dynamic viscosity:                1.6605401999999997e-05 [N.s.m⁻²]
Unit of enthalpy:                         1.6605402000000002e-23 [J]
Unit of polarizability:                   1.5458657349975198e-35 [-]
Unit of Coulomb potential:                167101.08000665612 [K]
Unit of dielectric constant:              1.5458657349975193e-05 [s².C².kg⁻¹.m⁻³]
Unit of dipole moment:                    1.60217733e-29 [C.m]
Unit of Debye:                            4.803206799099162 [C.m]
Unit of electric potential:               0.00010364272224473431 [V]
Unit of electric field:                   1036427.222447343 [V.m⁻¹]
Unit of isothermal compressibility:       6.02213665167516e-08 [Pa⁻¹]
Unit of heat capacity:                    10.000008872307538 [J.mol⁻¹.K⁻¹]
Unit of volumetric expansion coefficient: 1 [K⁻¹]


Internal conversion factors:
===============================================================================

Energy (internal units) to Kelvin:      1.202724284692786 [-]
Kelvin to energy (internal units):      0.8314457542157567 [-]


System definitions
===============================================================================

Temperature:          270 [K]
Beta:                 0.004454530435389873 [-]
Pressure:             0 [Pa]
Helium void fraction: 1 [-]

Box:      30.00000   0.00000   0.00000
           0.00000  30.00000   0.00000
           0.00000   0.00000  30.00000
Lengths:  30.00000  30.00000  30.00000
Angles:   90.00000  90.00000  90.00000
Rectangular boundary conditions



Property measurement settings
===============================================================================




Pseudo-atoms
===============================================================================

  0 - C_co2    framework-atom: false
  1 - O_co2    framework-atom: false

  0 - C_co2    mass: 12.00000, charge:  0.70000
  1 - O_co2    mass: 15.99940, charge: -0.35000

  0 - C_co2    polarizability:  0.00000
  1 - O_co2    polarizability:  0.00000

  0 - J. J. Potoff et al., AIChE J. 2001, 47, 1676–1682.
  1 - J. J. Potoff et al., AIChE J. 2001, 47, 1676–1682.

Force field status
===============================================================================

Cutoff Framework-Molecule VDW:  10.00000 [Å]
Cutoff Molecule-Molecule VDW:   10.00000 [Å]
Cutoff Coulomb:                 10.00000 [Å]

Overlap-criteria VDW:           1.000000e+05 [K]

C_co2    - C_co2    Lennard-Jones p₀/kʙ:  27.00000 [K], p₁:  2.80000 [Å]
                                  shift:   0.00000 [K], tailcorrections: true
C_co2    - O_co2    Lennard-Jones p₀/kʙ:  46.18441 [K], p₁:  2.92500 [Å]
                                  shift:   0.00000 [K], tailcorrections: true
O_co2    - O_co2    Lennard-Jones p₀/kʙ:  79.00000 [K], p₁:  3.05000 [Å]
                                  shift:   0.00000 [K], tailcorrections: true

Ewald precision: 1e-06
Ewald alpha: 0.32079885109097883
Ewald k-vectors: 10 10 10


Component definitions
===============================================================================

Component 0 [CO2]

    Type: Adsorbate

    Critical temperature:  304.1282 [K]
    Critical pressure:     7377300 [Pa]
    Acentric factor:       0.22394 [-]

    Mol-fraction:                 1 [-]
    Swappable:                   true

    Mass:                         43.9988 [-]
    Fugacity coefficient:         -nan [-]
    Bulk fluid density:           0 [-]
    Compressibility:              1 [-]
    Excess molecules:             0 [-]

    Number Of Atoms:    3
    CBMC starting bead: 0
      0: O_co2  position  0.00000 -0.00000  1.16000, charge -0.35000
      1: C_co2  position  0.00000 -0.00000  0.00000, charge  0.70000
      2: O_co2  position  0.00000 -0.00000 -1.16000, charge -0.35000
    Diagonalized inertia-vector:      43.05758528 43.05758528 0.00000000
    Translational degrees of freedom: 3
    Rotational degrees of freedom:    2
    Shape of the molecule is: 'Linear'
    Net-charge:        0.00000000 [e]

    Move probabilities:
    Translation:                   0.199203 [-]
    Random translation:            0.000000 [-]
    Rotation:                      0.199203 [-]
    Random rotation:               0.000000 [-]
    Volume change:                 0.000000 [-]
    Reinsertion (CBMC):            0.199203 [-]
    Identity change (CBMC):        0.000000 [-]
    Swap:                          0.000000 [-]
    Swap (CBMC):                   0.000000 [-]
    Swap (CFCMC):                  0.000000 [-]
    Swap (CB/CFCMC):               0.000000 [-]
    Gibbs volume:                  0.003984 [-]
    Gibbs swap (CBMC):             0.398406 [-]
    Gibbs swap (CFCMC):            0.000000 [-]
    Widom:                         0.000000 [-]
    Widom (CFCMC):                 0.000000 [-]
    Widom (CB/CFCMC):              0.000000 [-]
    Parallel tempering:            0.000000 [-]
    Hybrid MC:                     0.000000 [-]

    number of blocking-pockets: 0

    number of bonds: 0





Number of pseudo-atoms
===============================================================================

Component   0 (CO2)
-------------------------------------------------------------------------------
    index   0 (C_co2): 210 atoms
    index   1 (O_co2): 420 atoms

Total number of pseudo-atoms:
-------------------------------------------------------------------------------
    index   0 (C_co2): 210 atoms
    index   1 (O_co2): 420 atoms




Energy status Recomputed from scratch
===============================================================================

Total potential energy/kʙ       -1.030563e+05 [K]
    external field VDW/kʙ        0.000000e+00 [K]
    external field Real/kʙ       0.000000e+00 [K]
    framework-molecule VDW/kʙ    0.000000e+00 [K]
    framework-molecule Real/kʙ   0.000000e+00 [K]
    molecule-molecule VDW/kʙ    -7.558911e+04 [K]
    molecule-molecule Real/kʙ   -1.782330e+04 [K]
    Van der Waals (Tail)/kʙ     -5.240630e+03 [K]
    Ewald Fourier/kʙ             2.611155e+04 [K]
    Ewald self/kʙ               -4.668139e+06 [K]
    Ewald exclusion/kʙ           4.637624e+06 [K]
    intra VDW/kʙ                 0.000000e+00 [K]
    intra Coulombic/kʙ           0.000000e+00 [K]
    polarization/kʙ              0.000000e+00 [K]
    dU/dlambda VDW/kʙ            0.000000e+00 [K]
    dU/dlambda Real/kʙ           0.000000e+00 [K]
    dU/dlambda Ewald/kʙ          0.000000e+00 [K]





Initialization: Current cycle: 0 out of 2000
===============================================================================

Box:      30.23211   0.00000   0.00000
           0.00000  30.23211   0.00000
           0.00000   0.00000  30.23211
Lengths:  30.23211  30.23211  30.23211
Angles:   90.00000  90.00000  90.00000
Rectangular boundary conditions

net charge:   0.00000000

component   0 (CO2) lambda:  0 occupancy:  0 (0.000000)
    net charge:   0.00000000 [e]

Amount of molecules per component :
-------------------------------------------------------------------------------
Component 0 (CO2)
    molecules:         2.100000e+02 molecules
    number density:    7.600003e-03 molec/A^3
    density:           5.552693e+02 kg/m^3

Total potential energy/kʙ       -1.414442e+05 [K]
-------------------------------------------------------------------------------
    external field VDW/kʙ        0.000000e+00 [K]
    external field Real/kʙ       0.000000e+00 [K]
    framework-molecule VDW/kʙ    0.000000e+00 [K]
    framework-molecule Real/kʙ   0.000000e+00 [K]
    molecule-molecule VDW/kʙ    -1.078677e+05 [K]
    molecule-molecule Real/kʙ   -2.281703e+04 [K]
    Van der Waals (Tail)/kʙ     -5.120847e+03 [K]
    Ewald Fourier/kʙ             2.487614e+04 [K]
    Ewald self/kʙ               -4.668139e+06 [K]
    Ewald exclusion/kʙ           4.637624e+06 [K]
    intra VDW/kʙ                 0.000000e+00 [K]
    intra Coulombic/kʙ           0.000000e+00 [K]
    polarization/kʙ              0.000000e+00 [K]
    dU/dlambda VDW/kʙ            0.000000e+00 [K]
    dU/dlambda Real/kʙ           0.000000e+00 [K]
    dU/dlambda Ewald/kʙ          0.000000e+00 [K]


Initialization: Current cycle: 100 out of 2000
===============================================================================

Box:      31.66411   0.00000   0.00000
           0.00000  31.66411   0.00000
           0.00000   0.00000  31.66411
Lengths:  31.66411  31.66411  31.66411
Angles:   90.00000  90.00000  90.00000
Rectangular boundary conditions

net charge:   0.00000000

component   0 (CO2) lambda:  0 occupancy:  0 (0.000000)
    net charge:   0.00000000 [e]

Amount of molecules per component :
-------------------------------------------------------------------------------
Component 0 (CO2)
    molecules:         2.180000e+02 molecules
    number density:    6.866807e-03 molec/A^3
    density:           5.017007e+02 kg/m^3

Total potential energy/kʙ       -1.843221e+05 [K]
-------------------------------------------------------------------------------
    external field VDW/kʙ        0.000000e+00 [K]
    external field Real/kʙ       0.000000e+00 [K]
    framework-molecule VDW/kʙ    0.000000e+00 [K]
    framework-molecule Real/kʙ   0.000000e+00 [K]
    molecule-molecule VDW/kʙ    -1.371536e+05 [K]
    molecule-molecule Real/kʙ   -3.317895e+04 [K]
    Van der Waals (Tail)/kʙ     -4.803082e+03 [K]
    Ewald Fourier/kʙ             2.249080e+04 [K]
    Ewald self/kʙ               -4.845973e+06 [K]
    Ewald exclusion/kʙ           4.814295e+06 [K]
    intra VDW/kʙ                 0.000000e+00 [K]
    intra Coulombic/kʙ           0.000000e+00 [K]
    polarization/kʙ              0.000000e+00 [K]
    dU/dlambda VDW/kʙ            0.000000e+00 [K]
    dU/dlambda Real/kʙ           0.000000e+00 [K]
    dU/dlambda Ewald/kʙ          0.000000e+00 [K]


Initialization: Current cycle: 200 out of 2000
===============================================================================

Box:      31.50681   0.00000   0.00000
           0.00000  31.50681   0.00000
           0.00000   0.00000  31.50681
Lengths:  31.50681  31.50681  31.50681
Angles:   90.00000  90.00000  90.00000
Rectangular boundary conditions

net charge:   0.00000000

component   0 (CO2) lambda:  0 occupancy:  0 (0.000000)
    net charge:   0.00000000 [e]

Amount of molecules per component :
-------------------------------------------------------------------------------
Component 0 (CO2)
    molecules:         2.260000e+02 molecules
    number density:    7.225956e-03 molec/A^3
    density:           5.279407e+02 kg/m^3

Total potential energy/kʙ       -2.134283e+05 [K]
-------------------------------------------------------------------------------
    external field VDW/kʙ        0.000000e+00 [K]
    external field Real/kʙ       0.000000e+00 [K]
    framework-molecule VDW/kʙ    0.000000e+00 [K]
    framework-molecule Real/kʙ   0.000000e+00 [K]
    molecule-molecule VDW/kʙ    -1.577503e+05 [K]
    molecule-molecule Real/kʙ   -3.972416e+04 [K]
    Van der Waals (Tail)/kʙ     -5.239773e+03 [K]
    Ewald Fourier/kʙ             2.212566e+04 [K]
    Ewald self/kʙ               -5.023806e+06 [K]
    Ewald exclusion/kʙ           4.990967e+06 [K]
    intra VDW/kʙ                 0.000000e+00 [K]
    intra Coulombic/kʙ           0.000000e+00 [K]
    polarization/kʙ              0.000000e+00 [K]
    dU/dlambda VDW/kʙ            0.000000e+00 [K]
    dU/dlambda Real/kʙ           0.000000e+00 [K]
    dU/dlambda Ewald/kʙ          0.000000e+00 [K]


Initialization: Current cycle: 300 out of 2000
===============================================================================

Box:      30.96773   0.00000   0.00000
           0.00000  30.96773   0.00000
           0.00000   0.00000  30.96773
Lengths:  30.96773  30.96773  30.96773
Angles:   90.00000  90.00000  90.00000
Rectangular boundary conditions

net charge:   0.00000000

component   0 (CO2) lambda:  0 occupancy:  0 (0.000000)
    net charge:   0.00000000 [e]

Amount of molecules per component :
-------------------------------------------------------------------------------
Component 0 (CO2)
    molecules:         2.100000e+02 molecules
    number density:    7.071165e-03 molec/A^3
    density:           5.166314e+02 kg/m^3

Total potential energy/kʙ       -1.820664e+05 [K]
-------------------------------------------------------------------------------
    external field VDW/kʙ        0.000000e+00 [K]
    external field Real/kʙ       0.000000e+00 [K]
    framework-molecule VDW/kʙ    0.000000e+00 [K]
    framework-molecule Real/kʙ   0.000000e+00 [K]
    molecule-molecule VDW/kʙ    -1.344042e+05 [K]
    molecule-molecule Real/kʙ   -3.277757e+04 [K]
    Van der Waals (Tail)/kʙ     -4.764518e+03 [K]
    Ewald Fourier/kʙ             2.039470e+04 [K]
    Ewald self/kʙ               -4.668139e+06 [K]
    Ewald exclusion/kʙ           4.637624e+06 [K]
    intra VDW/kʙ                 0.000000e+00 [K]
    intra Coulombic/kʙ           0.000000e+00 [K]
    polarization/kʙ              0.000000e+00 [K]
    dU/dlambda VDW/kʙ            0.000000e+00 [K]
    dU/dlambda Real/kʙ           0.000000e+00 [K]
    dU/dlambda Ewald/kʙ          0.000000e+00 [K]


Initialization: Current cycle: 400 out of 2000
===============================================================================

Box:      29.89459   0.00000   0.00000
           0.00000  29.89459   0.00000
           0.00000   0.00000  29.89459
Lengths:  29.89459  29.89459  29.89459
Angles:   90.00000  90.00000  90.00000
Rectangular boundary conditions

net charge:   0.00000000

component   0 (CO2) lambda:  0 occupancy:  0 (0.000000)
    net charge:   0.00000000 [e]

Amount of molecules per component :
-------------------------------------------------------------------------------
Component 0 (CO2)
    molecules:         2.230000e+02 molecules
    number density:    8.346935e-03 molec/A^3
    density:           6.098414e+02 kg/m^3

Total potential energy/kʙ       -1.972725e+05 [K]
-------------------------------------------------------------------------------
    external field VDW/kʙ        0.000000e+00 [K]
    external field Real/kʙ       0.000000e+00 [K]
    framework-molecule VDW/kʙ    0.000000e+00 [K]
    framework-molecule Real/kʙ   0.000000e+00 [K]
    molecule-molecule VDW/kʙ    -1.468394e+05 [K]
    molecule-molecule Real/kʙ   -3.323293e+04 [K]
    Van der Waals (Tail)/kʙ     -5.972286e+03 [K]
    Ewald Fourier/kʙ             2.117584e+04 [K]
    Ewald self/kʙ               -4.957119e+06 [K]
    Ewald exclusion/kʙ           4.924715e+06 [K]
    intra VDW/kʙ                 0.000000e+00 [K]
    intra Coulombic/kʙ           0.000000e+00 [K]
    polarization/kʙ              0.000000e+00 [K]
    dU/dlambda VDW/kʙ            0.000000e+00 [K]
    dU/dlambda Real/kʙ           0.000000e+00 [K]
    dU/dlambda Ewald/kʙ          0.000000e+00 [K]


Initialization: Current cycle: 500 out of 2000
===============================================================================

Box:      28.74442   0.00000   0.00000
           0.00000  28.74442   0.00000
           0.00000   0.00000  28.74442
Lengths:  28.74442  28.74442  28.74442
Angles:   90.00000  90.00000  90.00000
Rectangular boundary conditions

net charge:   0.00000000

component   0 (CO2) lambda:  0 occupancy:  0 (0.000000)
    net charge:   0.00000000 [e]

Amount of molecules per component :
-------------------------------------------------------------------------------
Component 0 (CO2)
    molecules:         2.360000e+02 molecules
    number density:    9.936909e-03 molec/A^3
    density:           7.260076e+02 kg/m^3

Total potential energy/kʙ       -2.536423e+05 [K]
-------------------------------------------------------------------------------
    external field VDW/kʙ        0.000000e+00 [K]
    external field Real/kʙ       0.000000e+00 [K]
    framework-molecule VDW/kʙ    0.000000e+00 [K]
    framework-molecule Real/kʙ   0.000000e+00 [K]
    molecule-molecule VDW/kʙ    -1.830143e+05 [K]
    molecule-molecule Real/kʙ   -5.022370e+04 [K]
    Van der Waals (Tail)/kʙ     -7.524402e+03 [K]
    Ewald Fourier/kʙ             2.141291e+04 [K]
    Ewald self/kʙ               -5.246099e+06 [K]
    Ewald exclusion/kʙ           5.211806e+06 [K]
    intra VDW/kʙ                 0.000000e+00 [K]
    intra Coulombic/kʙ           0.000000e+00 [K]
    polarization/kʙ              0.000000e+00 [K]
    dU/dlambda VDW/kʙ            0.000000e+00 [K]
    dU/dlambda Real/kʙ           0.000000e+00 [K]
    dU/dlambda Ewald/kʙ          0.000000e+00 [K]


Initialization: Current cycle: 600 out of 2000
===============================================================================

Box:      28.81613   0.00000   0.00000
           0.00000  28.81613   0.00000
           0.00000   0.00000  28.81613
Lengths:  28.81613  28.81613  28.81613
Angles:   90.00000  90.00000  90.00000
Rectangular boundary conditions

net charge:   0.00000000

component   0 (CO2) lambda:  0 occupancy:  0 (0.000000)
    net charge:   0.00000000 [e]

Amount of molecules per component :
-------------------------------------------------------------------------------
Component 0 (CO2)
    molecules:         2.350000e+02 molecules
    number density:    9.821120e-03 molec/A^3
    density:           7.175478e+02 kg/m^3

Total potential energy/kʙ       -2.429240e+05 [K]
-------------------------------------------------------------------------------
    external field VDW/kʙ        0.000000e+00 [K]
    external field Real/kʙ       0.000000e+00 [K]
    framework-molecule VDW/kʙ    0.000000e+00 [K]
    framework-molecule Real/kʙ   0.000000e+00 [K]
    molecule-molecule VDW/kʙ    -1.757489e+05 [K]
    molecule-molecule Real/kʙ   -4.685311e+04 [K]
    Van der Waals (Tail)/kʙ     -7.405213e+03 [K]
    Ewald Fourier/kʙ             2.123073e+04 [K]
    Ewald self/kʙ               -5.223870e+06 [K]
    Ewald exclusion/kʙ           5.189722e+06 [K]
    intra VDW/kʙ                 0.000000e+00 [K]
    intra Coulombic/kʙ           0.000000e+00 [K]
    polarization/kʙ              0.000000e+00 [K]
    dU/dlambda VDW/kʙ            0.000000e+00 [K]
    dU/dlambda Real/kʙ           0.000000e+00 [K]
    dU/dlambda Ewald/kʙ          0.000000e+00 [K]


Initialization: Current cycle: 700 out of 2000
===============================================================================

Box:      27.75028   0.00000   0.00000
           0.00000  27.75028   0.00000
           0.00000   0.00000  27.75028
Lengths:  27.75028  27.75028  27.75028
Angles:   90.00000  90.00000  90.00000
Rectangular boundary conditions

net charge:   0.00000000

component   0 (CO2) lambda:  0 occupancy:  0 (0.000000)
    net charge:   0.00000000 [e]

Amount of molecules per component :
-------------------------------------------------------------------------------
Component 0 (CO2)
    molecules:         2.280000e+02 molecules
    number density:    1.066922e-02 molec/A^3
    density:           7.795112e+02 kg/m^3

Total potential energy/kʙ       -2.443587e+05 [K]
-------------------------------------------------------------------------------
    external field VDW/kʙ        0.000000e+00 [K]
    external field Real/kʙ       0.000000e+00 [K]
    framework-molecule VDW/kʙ    0.000000e+00 [K]
    framework-molecule Real/kʙ   0.000000e+00 [K]
    molecule-molecule VDW/kʙ    -1.797939e+05 [K]
    molecule-molecule Real/kʙ   -4.390114e+04 [K]
    Van der Waals (Tail)/kʙ     -7.805056e+03 [K]
    Ewald Fourier/kʙ             2.027181e+04 [K]
    Ewald self/kʙ               -5.068265e+06 [K]
    Ewald exclusion/kʙ           5.035135e+06 [K]
    intra VDW/kʙ                 0.000000e+00 [K]
    intra Coulombic/kʙ           0.000000e+00 [K]
    polarization/kʙ              0.000000e+00 [K]
    dU/dlambda VDW/kʙ            0.000000e+00 [K]
    dU/dlambda Real/kʙ           0.000000e+00 [K]
    dU/dlambda Ewald/kʙ          0.000000e+00 [K]


Initialization: Current cycle: 800 out of 2000
===============================================================================

Box:      27.02085   0.00000   0.00000
           0.00000  27.02085   0.00000
           0.00000   0.00000  27.02085
Lengths:  27.02085  27.02085  27.02085
Angles:   90.00000  90.00000  90.00000
Rectangular boundary conditions

net charge:   0.00000000

component   0 (CO2) lambda:  0 occupancy:  0 (0.000000)
    net charge:   0.00000000 [e]

Amount of molecules per component :
-------------------------------------------------------------------------------
Component 0 (CO2)
    molecules:         2.270000e+02 molecules
    number density:    1.150612e-02 molec/A^3
    density:           8.406569e+02 kg/m^3

Total potential energy/kʙ       -2.786612e+05 [K]
-------------------------------------------------------------------------------
    external field VDW/kʙ        0.000000e+00 [K]
    external field Real/kʙ       0.000000e+00 [K]
    framework-molecule VDW/kʙ    0.000000e+00 [K]
    framework-molecule Real/kʙ   0.000000e+00 [K]
    molecule-molecule VDW/kʙ    -1.988250e+05 [K]
    molecule-molecule Real/kʙ   -5.722536e+04 [K]
    Van der Waals (Tail)/kʙ     -8.380376e+03 [K]
    Ewald Fourier/kʙ             1.875451e+04 [K]
    Ewald self/kʙ               -5.046036e+06 [K]
    Ewald exclusion/kʙ           5.013051e+06 [K]
    intra VDW/kʙ                 0.000000e+00 [K]
    intra Coulombic/kʙ           0.000000e+00 [K]
    polarization/kʙ              0.000000e+00 [K]
    dU/dlambda VDW/kʙ            0.000000e+00 [K]
    dU/dlambda Real/kʙ           0.000000e+00 [K]
    dU/dlambda Ewald/kʙ          0.000000e+00 [K]


Initialization: Current cycle: 900 out of 2000
===============================================================================

Box:      26.52766   0.00000   0.00000
           0.00000  26.52766   0.00000
           0.00000   0.00000  26.52766
Lengths:  26.52766  26.52766  26.52766
Angles:   90.00000  90.00000  90.00000
Rectangular boundary conditions

net charge:   0.00000000

component   0 (CO2) lambda:  0 occupancy:  0 (0.000000)
    net charge:   0.00000000 [e]

Amount of molecules per component :
-------------------------------------------------------------------------------
Component 0 (CO2)
    molecules:         2.250000e+02 molecules
    number density:    1.205274e-02 molec/A^3
    density:           8.805937e+02 kg/m^3

Total potential energy/kʙ       -2.777618e+05 [K]
-------------------------------------------------------------------------------
    external field VDW/kʙ        0.000000e+00 [K]
    external field Real/kʙ       0.000000e+00 [K]
    framework-molecule VDW/kʙ    0.000000e+00 [K]
    framework-molecule Real/kʙ   0.000000e+00 [K]
    molecule-molecule VDW/kʙ    -2.023498e+05 [K]
    molecule-molecule Real/kʙ   -5.305893e+04 [K]
    Van der Waals (Tail)/kʙ     -8.701156e+03 [K]
    Ewald Fourier/kʙ             1.904258e+04 [K]
    Ewald self/kʙ               -5.001577e+06 [K]
    Ewald exclusion/kʙ           4.968883e+06 [K]
    intra VDW/kʙ                 0.000000e+00 [K]
    intra Coulombic/kʙ           0.000000e+00 [K]
    polarization/kʙ              0.000000e+00 [K]
    dU/dlambda VDW/kʙ            0.000000e+00 [K]
    dU/dlambda Real/kʙ           0.000000e+00 [K]
    dU/dlambda Ewald/kʙ          0.000000e+00 [K]


Initialization: Current cycle: 1000 out of 2000
===============================================================================

Box:      26.17331   0.00000   0.00000
           0.00000  26.17331   0.00000
           0.00000   0.00000  26.17331
Lengths:  26.17331  26.17331  26.17331
Angles:   90.00000  90.00000  90.00000
Rectangular boundary conditions

net charge:   0.00000000

component   0 (CO2) lambda:  0 occupancy:  0 (0.000000)
    net charge:   0.00000000 [e]

Amount of molecules per component :
-------------------------------------------------------------------------------
Component 0 (CO2)
    molecules:         2.190000e+02 molecules
    number density:    1.221429e-02 molec/A^3
    density:           8.923971e+02 kg/m^3

Total potential energy/kʙ       -2.777778e+05 [K]
-------------------------------------------------------------------------------
    external field VDW/kʙ        0.000000e+00 [K]
    external field Real/kʙ       0.000000e+00 [K]
    framework-molecule VDW/kʙ    0.000000e+00 [K]
    framework-molecule Real/kʙ   0.000000e+00 [K]
    molecule-molecule VDW/kʙ    -2.027179e+05 [K]
    molecule-molecule Real/kʙ   -5.266284e+04 [K]
    Van der Waals (Tail)/kʙ     -8.582644e+03 [K]
    Ewald Fourier/kʙ             1.800808e+04 [K]
    Ewald self/kʙ               -4.868202e+06 [K]
    Ewald exclusion/kʙ           4.836379e+06 [K]
    intra VDW/kʙ                 0.000000e+00 [K]
    intra Coulombic/kʙ           0.000000e+00 [K]
    polarization/kʙ              0.000000e+00 [K]
    dU/dlambda VDW/kʙ            0.000000e+00 [K]
    dU/dlambda Real/kʙ           0.000000e+00 [K]
    dU/dlambda Ewald/kʙ          0.000000e+00 [K]


Initialization: Current cycle: 1100 out of 2000
===============================================================================

Box:      25.69610   0.00000   0.00000
           0.00000  25.69610   0.00000
           0.00000   0.00000  25.69610
Lengths:  25.69610  25.69610  25.69610
Angles:   90.00000  90.00000  90.00000
Rectangular boundary conditions

net charge:   0.00000000

component   0 (CO2) lambda:  0 occupancy:  0 (0.000000)
    net charge:   0.00000000 [e]

Amount of molecules per component :
-------------------------------------------------------------------------------
Component 0 (CO2)
    molecules:         2.180000e+02 molecules
    number density:    1.284857e-02 molec/A^3
    density:           9.387385e+02 kg/m^3

Total potential energy/kʙ       -2.837553e+05 [K]
-------------------------------------------------------------------------------
    external field VDW/kʙ        0.000000e+00 [K]
    external field Real/kʙ       0.000000e+00 [K]
    framework-molecule VDW/kʙ    0.000000e+00 [K]
    framework-molecule Real/kʙ   0.000000e+00 [K]
    molecule-molecule VDW/kʙ    -2.074387e+05 [K]
    molecule-molecule Real/kʙ   -5.342679e+04 [K]
    Van der Waals (Tail)/kʙ     -8.987108e+03 [K]
    Ewald Fourier/kʙ             1.777460e+04 [K]
    Ewald self/kʙ               -4.845973e+06 [K]
    Ewald exclusion/kʙ           4.814295e+06 [K]
    intra VDW/kʙ                 0.000000e+00 [K]
    intra Coulombic/kʙ           0.000000e+00 [K]
    polarization/kʙ              0.000000e+00 [K]
    dU/dlambda VDW/kʙ            0.000000e+00 [K]
    dU/dlambda Real/kʙ           0.000000e+00 [K]
    dU/dlambda Ewald/kʙ          0.000000e+00 [K]


Initialization: Current cycle: 1200 out of 2000
===============================================================================

Box:      25.95470   0.00000   0.00000
           0.00000  25.95470   0.00000
           0.00000   0.00000  25.95470
Lengths:  25.95470  25.95470  25.95470
Angles:   90.00000  90.00000  90.00000
Rectangular boundary conditions

net charge:   0.00000000

component   0 (CO2) lambda:  0 occupancy:  0 (0.000000)
    net charge:   0.00000000 [e]

Amount of molecules per component :
-------------------------------------------------------------------------------
Component 0 (CO2)
    molecules:         2.290000e+02 molecules
    number density:    1.309748e-02 molec/A^3
    density:           9.569241e+02 kg/m^3

Total potential energy/kʙ       -3.108571e+05 [K]
-------------------------------------------------------------------------------
    external field VDW/kʙ        0.000000e+00 [K]
    external field Real/kʙ       0.000000e+00 [K]
    framework-molecule VDW/kʙ    0.000000e+00 [K]
    framework-molecule Real/kʙ   0.000000e+00 [K]
    molecule-molecule VDW/kʙ    -2.281273e+05 [K]
    molecule-molecule Real/kʙ   -5.748995e+04 [K]
    Van der Waals (Tail)/kʙ     -9.623473e+03 [K]
    Ewald Fourier/kʙ             1.765918e+04 [K]
    Ewald self/kʙ               -5.090494e+06 [K]
    Ewald exclusion/kʙ           5.057219e+06 [K]
    intra VDW/kʙ                 0.000000e+00 [K]
    intra Coulombic/kʙ           0.000000e+00 [K]
    polarization/kʙ              0.000000e+00 [K]
    dU/dlambda VDW/kʙ            0.000000e+00 [K]
    dU/dlambda Real/kʙ           0.000000e+00 [K]
    dU/dlambda Ewald/kʙ          0.000000e+00 [K]


Initialization: Current cycle: 1300 out of 2000
===============================================================================

Box:      25.78603   0.00000   0.00000
           0.00000  25.78603   0.00000
           0.00000   0.00000  25.78603
Lengths:  25.78603  25.78603  25.78603
Angles:   90.00000  90.00000  90.00000
Rectangular boundary conditions

net charge:   0.00000000

component   0 (CO2) lambda:  0 occupancy:  0 (0.000000)
    net charge:   0.00000000 [e]

Amount of molecules per component :
-------------------------------------------------------------------------------
Component 0 (CO2)
    molecules:         2.160000e+02 molecules
    number density:    1.259796e-02 molec/A^3
    density:           9.204282e+02 kg/m^3

Total potential energy/kʙ       -2.824173e+05 [K]
-------------------------------------------------------------------------------
    external field VDW/kʙ        0.000000e+00 [K]
    external field Real/kʙ       0.000000e+00 [K]
    framework-molecule VDW/kʙ    0.000000e+00 [K]
    framework-molecule Real/kʙ   0.000000e+00 [K]
    molecule-molecule VDW/kʙ    -2.032240e+05 [K]
    molecule-molecule Real/kʙ   -5.698715e+04 [K]
    Van der Waals (Tail)/kʙ     -8.730971e+03 [K]
    Ewald Fourier/kʙ             1.791139e+04 [K]
    Ewald self/kʙ               -4.801514e+06 [K]
    Ewald exclusion/kʙ           4.770128e+06 [K]
    intra VDW/kʙ                 0.000000e+00 [K]
    intra Coulombic/kʙ           0.000000e+00 [K]
    polarization/kʙ              0.000000e+00 [K]
    dU/dlambda VDW/kʙ            0.000000e+00 [K]
    dU/dlambda Real/kʙ           0.000000e+00 [K]
    dU/dlambda Ewald/kʙ          0.000000e+00 [K]


Initialization: Current cycle: 1400 out of 2000
===============================================================================

Box:      25.17881   0.00000   0.00000
           0.00000  25.17881   0.00000
           0.00000   0.00000  25.17881
Lengths:  25.17881  25.17881  25.17881
Angles:   90.00000  90.00000  90.00000
Rectangular boundary conditions

net charge:   0.00000000

component   0 (CO2) lambda:  0 occupancy:  0 (0.000000)
    net charge:   0.00000000 [e]

Amount of molecules per component :
-------------------------------------------------------------------------------
Component 0 (CO2)
    molecules:         2.040000e+02 molecules
    number density:    1.277981e-02 molec/A^3
    density:           9.337149e+02 kg/m^3

Total potential energy/kʙ       -2.689357e+05 [K]
-------------------------------------------------------------------------------
    external field VDW/kʙ        0.000000e+00 [K]
    external field Real/kʙ       0.000000e+00 [K]
    framework-molecule VDW/kʙ    0.000000e+00 [K]
    framework-molecule Real/kʙ   0.000000e+00 [K]
    molecule-molecule VDW/kʙ    -1.932480e+05 [K]
    molecule-molecule Real/kʙ   -5.379936e+04 [K]
    Van der Waals (Tail)/kʙ     -8.364949e+03 [K]
    Ewald Fourier/kʙ             1.611958e+04 [K]
    Ewald self/kʙ               -4.534763e+06 [K]
    Ewald exclusion/kʙ           4.505120e+06 [K]
    intra VDW/kʙ                 0.000000e+00 [K]
    intra Coulombic/kʙ           0.000000e+00 [K]
    polarization/kʙ              0.000000e+00 [K]
    dU/dlambda VDW/kʙ            0.000000e+00 [K]
    dU/dlambda Real/kʙ           0.000000e+00 [K]
    dU/dlambda Ewald/kʙ          0.000000e+00 [K]


Initialization: Current cycle: 1500 out of 2000
===============================================================================

Box:      25.07046   0.00000   0.00000
           0.00000  25.07046   0.00000
           0.00000   0.00000  25.07046
Lengths:  25.07046  25.07046  25.07046
Angles:   90.00000  90.00000  90.00000
Rectangular boundary conditions

net charge:   0.00000000

component   0 (CO2) lambda:  0 occupancy:  0 (0.000000)
    net charge:   0.00000000 [e]

Amount of molecules per component :
-------------------------------------------------------------------------------
Component 0 (CO2)
    molecules:         2.090000e+02 molecules
    number density:    1.326353e-02 molec/A^3
    density:           9.690564e+02 kg/m^3

Total potential energy/kʙ       -2.839242e+05 [K]
-------------------------------------------------------------------------------
    external field VDW/kʙ        0.000000e+00 [K]
    external field Real/kʙ       0.000000e+00 [K]
    framework-molecule VDW/kʙ    0.000000e+00 [K]
    framework-molecule Real/kʙ   0.000000e+00 [K]
    molecule-molecule VDW/kʙ    -2.059792e+05 [K]
    molecule-molecule Real/kʙ   -5.532256e+04 [K]
    Van der Waals (Tail)/kʙ     -8.894350e+03 [K]
    Ewald Fourier/kʙ             1.664137e+04 [K]
    Ewald self/kʙ               -4.645910e+06 [K]
    Ewald exclusion/kʙ           4.615540e+06 [K]
    intra VDW/kʙ                 0.000000e+00 [K]
    intra Coulombic/kʙ           0.000000e+00 [K]
    polarization/kʙ              0.000000e+00 [K]
    dU/dlambda VDW/kʙ            0.000000e+00 [K]
    dU/dlambda Real/kʙ           0.000000e+00 [K]
    dU/dlambda Ewald/kʙ          0.000000e+00 [K]


Initialization: Current cycle: 1600 out of 2000
===============================================================================

Box:      25.46387   0.00000   0.00000
           0.00000  25.46387   0.00000
           0.00000   0.00000  25.46387
Lengths:  25.46387  25.46387  25.46387
Angles:   90.00000  90.00000  90.00000
Rectangular boundary conditions

net charge:   0.00000000

component   0 (CO2) lambda:  0 occupancy:  0 (0.000000)
    net charge:   0.00000000 [e]

Amount of molecules per component :
-------------------------------------------------------------------------------
Component 0 (CO2)
    molecules:         2.070000e+02 molecules
    number density:    1.253711e-02 molec/A^3
    density:           9.159824e+02 kg/m^3

Total potential energy/kʙ       -2.716049e+05 [K]
-------------------------------------------------------------------------------
    external field VDW/kʙ        0.000000e+00 [K]
    external field Real/kʙ       0.000000e+00 [K]
    framework-molecule VDW/kʙ    0.000000e+00 [K]
    framework-molecule Real/kʙ   0.000000e+00 [K]
    molecule-molecule VDW/kʙ    -1.998545e+05 [K]
    molecule-molecule Real/kʙ   -5.003018e+04 [K]
    Van der Waals (Tail)/kʙ     -8.326765e+03 [K]
    Ewald Fourier/kʙ             1.668542e+04 [K]
    Ewald self/kʙ               -4.601451e+06 [K]
    Ewald exclusion/kʙ           4.571372e+06 [K]
    intra VDW/kʙ                 0.000000e+00 [K]
    intra Coulombic/kʙ           0.000000e+00 [K]
    polarization/kʙ              0.000000e+00 [K]
    dU/dlambda VDW/kʙ            0.000000e+00 [K]
    dU/dlambda Real/kʙ           0.000000e+00 [K]
    dU/dlambda Ewald/kʙ          0.000000e+00 [K]


Initialization: Current cycle: 1700 out of 2000
===============================================================================

Box:      25.57425   0.00000   0.00000
           0.00000  25.57425   0.00000
           0.00000   0.00000  25.57425
Lengths:  25.57425  25.57425  25.57425
Angles:   90.00000  90.00000  90.00000
Rectangular boundary conditions

net charge:   0.00000000

component   0 (CO2) lambda:  0 occupancy:  0 (0.000000)
    net charge:   0.00000000 [e]

Amount of molecules per component :
-------------------------------------------------------------------------------
Component 0 (CO2)
    molecules:         2.090000e+02 molecules
    number density:    1.249504e-02 molec/A^3
    density:           9.129089e+02 kg/m^3

Total potential energy/kʙ       -2.711849e+05 [K]
-------------------------------------------------------------------------------
    external field VDW/kʙ        0.000000e+00 [K]
    external field Real/kʙ       0.000000e+00 [K]
    framework-molecule VDW/kʙ    0.000000e+00 [K]
    framework-molecule Real/kʙ   0.000000e+00 [K]
    molecule-molecule VDW/kʙ    -1.929288e+05 [K]
    molecule-molecule Real/kʙ   -5.638722e+04 [K]
    Van der Waals (Tail)/kʙ     -8.379007e+03 [K]
    Ewald Fourier/kʙ             1.687957e+04 [K]
    Ewald self/kʙ               -4.645910e+06 [K]
    Ewald exclusion/kʙ           4.615540e+06 [K]
    intra VDW/kʙ                 0.000000e+00 [K]
    intra Coulombic/kʙ           0.000000e+00 [K]
    polarization/kʙ              0.000000e+00 [K]
    dU/dlambda VDW/kʙ            0.000000e+00 [K]
    dU/dlambda Real/kʙ           0.000000e+00 [K]
    dU/dlambda Ewald/kʙ          0.000000e+00 [K]


Initialization: Current cycle: 1800 out of 2000
===============================================================================

Box:      25.23901   0.00000   0.00000
           0.00000  25.23901   0.00000
           0.00000   0.00000  25.23901
Lengths:  25.23901  25.23901  25.23901
Angles:   90.00000  90.00000  90.00000
Rectangular boundary conditions

net charge:   0.00000000

component   0 (CO2) lambda:  0 occupancy:  0 (0.000000)
    net charge:   0.00000000 [e]

Amount of molecules per component :
-------------------------------------------------------------------------------
Component 0 (CO2)
    molecules:         2.120000e+02 molecules
    number density:    1.318617e-02 molec/A^3
    density:           9.634044e+02 kg/m^3

Total potential energy/kʙ       -2.817086e+05 [K]
-------------------------------------------------------------------------------
    external field VDW/kʙ        0.000000e+00 [K]
    external field Real/kʙ       0.000000e+00 [K]
    framework-molecule VDW/kʙ    0.000000e+00 [K]
    framework-molecule Real/kʙ   0.000000e+00 [K]
    molecule-molecule VDW/kʙ    -2.031499e+05 [K]
    molecule-molecule Real/kʙ   -5.603297e+04 [K]
    Van der Waals (Tail)/kʙ     -8.969399e+03 [K]
    Ewald Fourier/kʙ             1.724900e+04 [K]
    Ewald self/kʙ               -4.712597e+06 [K]
    Ewald exclusion/kʙ           4.681792e+06 [K]
    intra VDW/kʙ                 0.000000e+00 [K]
    intra Coulombic/kʙ           0.000000e+00 [K]
    polarization/kʙ              0.000000e+00 [K]
    dU/dlambda VDW/kʙ            0.000000e+00 [K]
    dU/dlambda Real/kʙ           0.000000e+00 [K]
    dU/dlambda Ewald/kʙ          0.000000e+00 [K]


Initialization: Current cycle: 1900 out of 2000
===============================================================================

Box:      25.34119   0.00000   0.00000
           0.00000  25.34119   0.00000
           0.00000   0.00000  25.34119
Lengths:  25.34119  25.34119  25.34119
Angles:   90.00000  90.00000  90.00000
Rectangular boundary conditions

net charge:   0.00000000

component   0 (CO2) lambda:  0 occupancy:  0 (0.000000)
    net charge:   0.00000000 [e]

Amount of molecules per component :
-------------------------------------------------------------------------------
Component 0 (CO2)
    molecules:         2.170000e+02 molecules
    number density:    1.333457e-02 molec/A^3
    density:           9.742463e+02 kg/m^3

Total potential energy/kʙ       -2.883948e+05 [K]
-------------------------------------------------------------------------------
    external field VDW/kʙ        0.000000e+00 [K]
    external field Real/kʙ       0.000000e+00 [K]
    framework-molecule VDW/kʙ    0.000000e+00 [K]
    framework-molecule Real/kʙ   0.000000e+00 [K]
    molecule-molecule VDW/kʙ    -2.062694e+05 [K]
    molecule-molecule Real/kʙ   -5.769349e+04 [K]
    Van der Waals (Tail)/kʙ     -9.284261e+03 [K]
    Ewald Fourier/kʙ             1.638429e+04 [K]
    Ewald self/kʙ               -4.823743e+06 [K]
    Ewald exclusion/kʙ           4.792211e+06 [K]
    intra VDW/kʙ                 0.000000e+00 [K]
    intra Coulombic/kʙ           0.000000e+00 [K]
    polarization/kʙ              0.000000e+00 [K]
    dU/dlambda VDW/kʙ            0.000000e+00 [K]
    dU/dlambda Real/kʙ           0.000000e+00 [K]
    dU/dlambda Ewald/kʙ          0.000000e+00 [K]


Current cycle: 0 out of 6000
===============================================================================

Box:      25.62471   0.00000   0.00000  Average:  25.62471   0.00000   0.00000
           0.00000  25.62471   0.00000             0.00000  25.62471   0.00000
           0.00000   0.00000  25.62471             0.00000   0.00000  25.62471
Lengths:  25.62471  25.62471  25.62471  Average:  25.62471  25.62471  25.62471
Angles:   90.00000  90.00000  90.00000  Average:  90.00000  90.00000  90.00000
Rectangular boundary conditions

net charge:   0.00000000

component 0 (CO2) lambda:  0 occupancy:  0 (0.000000)
    net charge:   0.00000000 [e]

Amount of molecules per component :
-------------------------------------------------------------------------------
Component 0 (CO2)
    molecules:      2.200000e+02 molecules  (2.200000e+02 +/- 0.000000e+00)
    number density: 1.307513e-02 molec./A^3 (1.307513e-02 +/- 0.000000e+00)
    density:        9.552914e+02 kg/m^3     (9.552914e+02 +/- 0.000000e+00)

Average pressure tensor: 
-------------------------------------------------------------------------------
 4.8741e+02  0.0000e+00  0.0000e+00 +/- 0.0000e+00 0.0000e+00 0.0000e+00 [bar]
 0.0000e+00  4.8741e+02  0.0000e+00 +/- 0.0000e+00 0.0000e+00 0.0000e+00 [bar]
 0.0000e+00  0.0000e+00  4.8741e+02 +/- 0.0000e+00 0.0000e+00 0.0000e+00 [bar]
Ideal-gas pressure:   4.874090e+02 +/ 0.000000e+00 [bar]
Excess pressure:      0.000000e+00 +/ 0.000000e+00 [bar]
Pressure:             4.874090e+02 +/ 0.000000e+00 [bar]

Total potential energy/kʙ  -2.993019e+05 (-2.993019e+05 +/- 0.000000e+00) [K]
-------------------------------------------------------------------------------
ExternalField-molecule
    Van der Waals/kʙ        0.000000e+00 ( 0.000000e+00 +/- 0.000000e+00) [K]
Framework-molecule
    Van der Waals/kʙ        0.000000e+00 ( 0.000000e+00 +/- 0.000000e+00) [K]
    Van der Waals (Tail)/kʙ 0.000000e+00 ( 0.000000e+00 +/- 0.000000e+00) [K]
    Coulombic Real/kʙ       0.000000e+00 ( 0.000000e+00 +/- 0.000000e+00) [K]
    Coulombic Fourier/kʙ    0.000000e+00 ( 0.000000e+00 +/- 0.000000e+00) [K]
Molecule-molecule
    Van der Waals/kʙ       -2.147130e+05 (-2.147130e+05 +/- 0.000000e+00) [K]
    Van der Waals (Tail)/kʙ-9.229484e+03 (-9.229484e+03 +/- 0.000000e+00) [K]
    Coulombic Real/kʙ      -6.036969e+04 (-6.036969e+04 +/- 0.000000e+00) [K]
    Coulombic Fourier/kʙ   -1.498972e+04 (-1.498972e+04 +/- 0.000000e+00) [K]
    Molecule Intra/kʙ       0.000000e+00 ( 0.000000e+00 +/- 0.000000e+00) [K]

Current cycle: 100 out of 6000
===============================================================================

Box:      25.29992   0.00000   0.00000  Average:  25.51393   0.00000   0.00000
           0.00000  25.29992   0.00000             0.00000  25.51393   0.00000
           0.00000   0.00000  25.29992             0.00000   0.00000  25.51393
Lengths:  25.29992  25.29992  25.29992  Average:  25.51393  25.51393  25.51393
Angles:   90.00000  90.00000  90.00000  Average:  90.00000  90.00000  90.00000
Rectangular boundary conditions

net charge:   0.00000000

component 0 (CO2) lambda:  0 occupancy:  0 (0.000000)
    net charge:   0.00000000 [e]

Amount of molecules per component :
-------------------------------------------------------------------------------
Component 0 (CO2)
    molecules:      2.130000e+02 molecules  (2.187624e+02 +/- 0.000000e+00)
    number density: 1.315292e-02 molec./A^3 (1.317359e-02 +/- 0.000000e+00)
    density:        9.609750e+02 kg/m^3     (9.624850e+02 +/- 0.000000e+00)

Average pressure tensor: 
-------------------------------------------------------------------------------
 5.0993e+01  5.4793e+01 -5.3097e+01 +/- 0.0000e+00 0.0000e+00 0.0000e+00 [bar]
 5.4793e+01  3.2422e+02 -6.4134e+00 +/- 0.0000e+00 0.0000e+00 0.0000e+00 [bar]
-5.3097e+01 -6.4134e+00  2.3994e+01 +/- 0.0000e+00 0.0000e+00 0.0000e+00 [bar]
Ideal-gas pressure:   4.910793e+02 +/ 0.000000e+00 [bar]
Excess pressure:     -3.580089e+02 +/ 0.000000e+00 [bar]
Pressure:             1.330703e+02 +/ 0.000000e+00 [bar]

Total potential energy/kʙ  -2.928715e+05 (-2.989889e+05 +/- 0.000000e+00) [K]
-------------------------------------------------------------------------------
ExternalField-molecule
    Van der Waals/kʙ        0.000000e+00 ( 0.000000e+00 +/- 0.000000e+00) [K]
Framework-molecule
    Van der Waals/kʙ        0.000000e+00 ( 0.000000e+00 +/- 0.000000e+00) [K]
    Van der Waals (Tail)/kʙ 0.000000e+00 ( 0.000000e+00 +/- 0.000000e+00) [K]
    Coulombic Real/kʙ       0.000000e+00 ( 0.000000e+00 +/- 0.000000e+00) [K]
    Coulombic Fourier/kʙ    0.000000e+00 ( 0.000000e+00 +/- 0.000000e+00) [K]
Molecule-molecule
    Van der Waals/kʙ       -2.083376e+05 (-2.159009e+05 +/- 0.000000e+00) [K]
    Van der Waals (Tail)/kʙ-8.988983e+03 (-9.365290e+03 +/- 0.000000e+00) [K]
    Coulombic Real/kʙ      -6.097388e+04 (-5.847788e+04 +/- 0.000000e+00) [K]
    Coulombic Fourier/kʙ   -1.457105e+04 (-1.524482e+04 +/- 0.000000e+00) [K]
    Molecule Intra/kʙ       0.000000e+00 ( 0.000000e+00 +/- 0.000000e+00) [K]

Current cycle: 200 out of 6000
===============================================================================

Box:      25.82581   0.00000   0.00000  Average:  25.53842   0.00000   0.00000
           0.00000  25.82581   0.00000             0.00000  25.53842   0.00000
           0.00000   0.00000  25.82581             0.00000   0.00000  25.53842
Lengths:  25.82581  25.82581  25.82581  Average:  25.53842  25.53842  25.53842
Angles:   90.00000  90.00000  90.00000  Average:  90.00000  90.00000  90.00000
Rectangular boundary conditions

net charge:   0.00000000

component 0 (CO2) lambda:  0 occupancy:  0 (0.000000)
    net charge:   0.00000000 [e]

Amount of molecules per component :
-------------------------------------------------------------------------------
Component 0 (CO2)
    molecules:      2.260000e+02 molecules  (2.190100e+02 +/- 0.000000e+00)
    number density: 1.312039e-02 molec./A^3 (1.315059e-02 +/- 0.000000e+00)
    density:        9.585979e+02 kg/m^3     (9.608044e+02 +/- 0.000000e+00)

Average pressure tensor: 
-------------------------------------------------------------------------------
-9.6128e+01  2.7011e+01 -6.4413e+01 +/- 0.0000e+00 0.0000e+00 0.0000e+00 [bar]
 2.7011e+01  1.1882e+02  2.6781e+01 +/- 0.0000e+00 0.0000e+00 0.0000e+00 [bar]
-6.4413e+01  2.6781e+01  4.3412e+01 +/- 0.0000e+00 0.0000e+00 0.0000e+00 [bar]
Ideal-gas pressure:   4.902218e+02 +/ 0.000000e+00 [bar]
Excess pressure:     -4.681882e+02 +/ 0.000000e+00 [bar]
Pressure:             2.203359e+01 +/ 0.000000e+00 [bar]

Total potential energy/kʙ  -3.034644e+05 (-3.000128e+05 +/- 0.000000e+00) [K]
-------------------------------------------------------------------------------
ExternalField-molecule
    Van der Waals/kʙ        0.000000e+00 ( 0.000000e+00 +/- 0.000000e+00) [K]
Framework-molecule
    Van der Waals/kʙ        0.000000e+00 ( 0.000000e+00 +/- 0.000000e+00) [K]
    Van der Waals (Tail)/kʙ 0.000000e+00 ( 0.000000e+00 +/- 0.000000e+00) [K]
    Coulombic Real/kʙ       0.000000e+00 ( 0.000000e+00 +/- 0.000000e+00) [K]
    Coulombic Fourier/kʙ    0.000000e+00 ( 0.000000e+00 +/- 0.000000e+00) [K]
Molecule-molecule
    Van der Waals/kʙ       -2.200926e+05 (-2.159772e+05 +/- 0.000000e+00) [K]
    Van der Waals (Tail)/kʙ-9.514013e+03 (-9.294398e+03 +/- 0.000000e+00) [K]
    Coulombic Real/kʙ      -5.869201e+04 (-5.942283e+04 +/- 0.000000e+00) [K]
    Coulombic Fourier/kʙ   -1.516585e+04 (-1.531835e+04 +/- 0.000000e+00) [K]
    Molecule Intra/kʙ       0.000000e+00 ( 0.000000e+00 +/- 0.000000e+00) [K]

Current cycle: 300 out of 6000
===============================================================================

Box:      26.06239   0.00000   0.00000  Average:  25.62633   0.00000   0.00000
           0.00000  26.06239   0.00000             0.00000  25.62633   0.00000
           0.00000   0.00000  26.06239             0.00000   0.00000  25.62633
Lengths:  26.06239  26.06239  26.06239  Average:  25.62633  25.62633  25.62633
Angles:   90.00000  90.00000  90.00000  Average:  90.00000  90.00000  90.00000
Rectangular boundary conditions

net charge:   0.00000000

component 0 (CO2) lambda:  0 occupancy:  0 (0.000000)
    net charge:   0.00000000 [e]

Amount of molecules per component :
-------------------------------------------------------------------------------
Component 0 (CO2)
    molecules:      2.260000e+02 molecules  (2.200399e+02 +/- 0.000000e+00)
    number density: 1.276632e-02 molec./A^3 (1.307749e-02 +/- 0.000000e+00)
    density:        9.327290e+02 kg/m^3     (9.554642e+02 +/- 0.000000e+00)

Average pressure tensor: 
-------------------------------------------------------------------------------
-4.4434e+01  2.4234e-01 -5.0974e+01 +/- 0.0000e+00 0.0000e+00 0.0000e+00 [bar]
 2.4234e-01  6.2393e+01 -1.6291e+01 +/- 0.0000e+00 0.0000e+00 0.0000e+00 [bar]
-5.0974e+01 -1.6291e+01  1.8997e+01 +/- 0.0000e+00 0.0000e+00 0.0000e+00 [bar]
Ideal-gas pressure:   4.874971e+02 +/ 0.000000e+00 [bar]
Excess pressure:     -4.751786e+02 +/ 0.000000e+00 [bar]
Pressure:             1.231850e+01 +/ 0.000000e+00 [bar]

Total potential energy/kʙ  -2.954181e+05 (-3.001807e+05 +/- 0.000000e+00) [K]
-------------------------------------------------------------------------------
ExternalField-molecule
    Van der Waals/kʙ        0.000000e+00 ( 0.000000e+00 +/- 0.000000e+00) [K]
Framework-molecule
    Van der Waals/kʙ        0.000000e+00 ( 0.000000e+00 +/- 0.000000e+00) [K]
    Van der Waals (Tail)/kʙ 0.000000e+00 ( 0.000000e+00 +/- 0.000000e+00) [K]
    Coulombic Real/kʙ       0.000000e+00 ( 0.000000e+00 +/- 0.000000e+00) [K]
    Coulombic Fourier/kʙ    0.000000e+00 ( 0.000000e+00 +/- 0.000000e+00) [K]
Molecule-molecule
    Van der Waals/kʙ       -2.124212e+05 (-2.162583e+05 +/- 0.000000e+00) [K]
    Van der Waals (Tail)/kʙ-9.257266e+03 (-9.303712e+03 +/- 0.000000e+00) [K]
    Coulombic Real/kʙ      -5.762827e+04 (-5.919386e+04 +/- 0.000000e+00) [K]
    Coulombic Fourier/kʙ   -1.611138e+04 (-1.542481e+04 +/- 0.000000e+00) [K]
    Molecule Intra/kʙ       0.000000e+00 ( 0.000000e+00 +/- 0.000000e+00) [K]

Current cycle: 400 out of 6000
===============================================================================

Box:      26.51173   0.00000   0.00000  Average:  25.78270   0.00000   0.00000
           0.00000  26.51173   0.00000             0.00000  25.78270   0.00000
           0.00000   0.00000  26.51173             0.00000   0.00000  25.78270
Lengths:  26.51173  26.51173  26.51173  Average:  25.78270  25.78270  25.78270
Angles:   90.00000  90.00000  90.00000  Average:  90.00000  90.00000  90.00000
Rectangular boundary conditions

net charge:   0.00000000

component 0 (CO2) lambda:  0 occupancy:  0 (0.000000)
    net charge:   0.00000000 [e]

Amount of molecules per component :
-------------------------------------------------------------------------------
Component 0 (CO2)
    molecules:      2.310000e+02 molecules  (2.216160e+02 +/- 0.000000e+00)
    number density: 1.239647e-02 molec./A^3 (1.293646e-02 +/- 0.000000e+00)
    density:        9.057070e+02 kg/m^3     (9.451602e+02 +/- 0.000000e+00)

Average pressure tensor: 
-------------------------------------------------------------------------------
-7.7212e+01  7.4316e+00 -6.5375e+01 +/- 0.0000e+00 0.0000e+00 0.0000e+00 [bar]
 7.4316e+00  2.1630e+01 -2.1329e+01 +/- 0.0000e+00 0.0000e+00 0.0000e+00 [bar]
-6.5375e+01 -2.1329e+01  4.6584e+00 +/- 0.0000e+00 0.0000e+00 0.0000e+00 [bar]
Ideal-gas pressure:   4.822398e+02 +/ 0.000000e+00 [bar]
Excess pressure:     -4.992144e+02 +/ 0.000000e+00 [bar]
Pressure:            -1.697460e+01 +/ 0.000000e+00 [bar]

Total potential energy/kʙ  -2.918325e+05 (-2.979469e+05 +/- 0.000000e+00) [K]
-------------------------------------------------------------------------------
ExternalField-molecule
    Van der Waals/kʙ        0.000000e+00 ( 0.000000e+00 +/- 0.000000e+00) [K]
Framework-molecule
    Van der Waals/kʙ        0.000000e+00 ( 0.000000e+00 +/- 0.000000e+00) [K]
    Van der Waals (Tail)/kʙ 0.000000e+00 ( 0.000000e+00 +/- 0.000000e+00) [K]
    Coulombic Real/kʙ       0.000000e+00 ( 0.000000e+00 +/- 0.000000e+00) [K]
    Coulombic Fourier/kʙ    0.000000e+00 ( 0.000000e+00 +/- 0.000000e+00) [K]
Molecule-molecule
    Van der Waals/kʙ       -2.113569e+05 (-2.147511e+05 +/- 0.000000e+00) [K]
    Van der Waals (Tail)/kʙ-9.187949e+03 (-9.213273e+03 +/- 0.000000e+00) [K]
    Coulombic Real/kʙ      -5.586853e+04 (-5.867018e+04 +/- 0.000000e+00) [K]
    Coulombic Fourier/kʙ   -1.541912e+04 (-1.531236e+04 +/- 0.000000e+00) [K]
    Molecule Intra/kʙ       0.000000e+00 ( 0.000000e+00 +/- 0.000000e+00) [K]

Current cycle: 500 out of 6000
===============================================================================

Box:      25.80076   0.00000   0.00000  Average:  25.80167   0.00000   0.00000
           0.00000  25.80076   0.00000             0.00000  25.80167   0.00000
           0.00000   0.00000  25.80076             0.00000   0.00000  25.80167
Lengths:  25.80076  25.80076  25.80076  Average:  25.80167  25.80167  25.80167
Angles:   90.00000  90.00000  90.00000  Average:  90.00000  90.00000  90.00000
Rectangular boundary conditions

net charge:   0.00000000

component 0 (CO2) lambda:  0 occupancy:  0 (0.000000)
    net charge:   0.00000000 [e]

Amount of molecules per component :
-------------------------------------------------------------------------------
Component 0 (CO2)
    molecules:      2.190000e+02 molecules  (2.218184e+02 +/- 0.000000e+00)
    number density: 1.275107e-02 molec./A^3 (1.291949e-02 +/- 0.000000e+00)
    density:        9.316147e+02 kg/m^3     (9.439200e+02 +/- 0.000000e+00)

Average pressure tensor: 
-------------------------------------------------------------------------------
-7.8651e+00  8.9215e+00 -5.4624e+01 +/- 0.0000e+00 0.0000e+00 0.0000e+00 [bar]
 8.9215e+00  5.7827e+01 -3.7858e+01 +/- 0.0000e+00 0.0000e+00 0.0000e+00 [bar]
-5.4624e+01 -3.7858e+01  1.4068e+01 +/- 0.0000e+00 0.0000e+00 0.0000e+00 [bar]
Ideal-gas pressure:   4.816070e+02 +/ 0.000000e+00 [bar]
Excess pressure:     -4.602635e+02 +/ 0.000000e+00 [bar]
Pressure:             2.134353e+01 +/ 0.000000e+00 [bar]

Total potential energy/kʙ  -2.954614e+05 (-2.974978e+05 +/- 0.000000e+00) [K]
-------------------------------------------------------------------------------
ExternalField-molecule
    Van der Waals/kʙ        0.000000e+00 ( 0.000000e+00 +/- 0.000000e+00) [K]
Framework-molecule
    Van der Waals/kʙ        0.000000e+00 ( 0.000000e+00 +/- 0.000000e+00) [K]
    Van der Waals (Tail)/kʙ 0.000000e+00 ( 0.000000e+00 +/- 0.000000e+00) [K]
    Coulombic Real/kʙ       0.000000e+00 ( 0.000000e+00 +/- 0.000000e+00) [K]
    Coulombic Fourier/kʙ    0.000000e+00 ( 0.000000e+00 +/- 0.000000e+00) [K]
Molecule-molecule
    Van der Waals/kʙ       -2.132151e+05 (-2.143514e+05 +/- 0.000000e+00) [K]
    Van der Waals (Tail)/kʙ-8.959820e+03 (-9.225245e+03 +/- 0.000000e+00) [K]
    Coulombic Real/kʙ      -5.748773e+04 (-5.863994e+04 +/- 0.000000e+00) [K]
    Coulombic Fourier/kʙ   -1.579868e+04 (-1.528118e+04 +/- 0.000000e+00) [K]
    Molecule Intra/kʙ       0.000000e+00 ( 0.000000e+00 +/- 0.000000e+00) [K]

Current cycle: 600 out of 6000
===============================================================================

Box:      25.20857   0.00000   0.00000  Average:  25.75712   0.00000   0.00000
           0.00000  25.20857   0.00000             0.00000  25.75712   0.00000
           0.00000   0.00000  25.20857             0.00000   0.00000  25.75712
Lengths:  25.20857  25.20857  25.20857  Average:  25.75712  25.75712  25.75712
Angles:   90.00000  90.00000  90.00000  Average:  90.00000  90.00000  90.00000
Rectangular boundary conditions

net charge:   0.00000000

component 0 (CO2) lambda:  0 occupancy:  0 (0.000000)
    net charge:   0.00000000 [e]

Amount of molecules per component :
-------------------------------------------------------------------------------
Component 0 (CO2)
    molecules:      2.170000e+02 molecules  (2.213760e+02 +/- 0.000000e+00)
    number density: 1.354612e-02 molec./A^3 (1.296038e-02 +/- 0.000000e+00)
    density:        9.897030e+02 kg/m^3     (9.469076e+02 +/- 0.000000e+00)

Average pressure tensor: 
-------------------------------------------------------------------------------
-1.6715e+01 -1.3321e+01 -4.3856e+01 +/- 0.0000e+00 0.0000e+00 0.0000e+00 [bar]
-1.3321e+01  4.8176e+01 -3.6631e+01 +/- 0.0000e+00 0.0000e+00 0.0000e+00 [bar]
-4.3856e+01 -3.6631e+01  1.2004e+01 +/- 0.0000e+00 0.0000e+00 0.0000e+00 [bar]
Ideal-gas pressure:   4.831313e+02 +/ 0.000000e+00 [bar]
Excess pressure:     -4.686432e+02 +/ 0.000000e+00 [bar]
Pressure:             1.448810e+01 +/ 0.000000e+00 [bar]

Total potential energy/kʙ  -2.980016e+05 (-2.974516e+05 +/- 0.000000e+00) [K]
-------------------------------------------------------------------------------
ExternalField-molecule
    Van der Waals/kʙ        0.000000e+00 ( 0.000000e+00 +/- 0.000000e+00) [K]
Framework-molecule
    Van der Waals/kʙ        0.000000e+00 ( 0.000000e+00 +/- 0.000000e+00) [K]
    Van der Waals (Tail)/kʙ 0.000000e+00 ( 0.000000e+00 +/- 0.000000e+00) [K]
    Coulombic Real/kʙ       0.000000e+00 ( 0.000000e+00 +/- 0.000000e+00) [K]
    Coulombic Fourier/kʙ    0.000000e+00 ( 0.000000e+00 +/- 0.000000e+00) [K]
Molecule-molecule
    Van der Waals/kʙ       -2.173588e+05 (-2.146011e+05 +/- 0.000000e+00) [K]
    Van der Waals (Tail)/kʙ-9.431559e+03 (-9.234670e+03 +/- 0.000000e+00) [K]
    Coulombic Real/kʙ      -5.701076e+04 (-5.836303e+04 +/- 0.000000e+00) [K]
    Coulombic Fourier/kʙ   -1.420050e+04 (-1.525278e+04 +/- 0.000000e+00) [K]
    Molecule Intra/kʙ       0.000000e+00 ( 0.000000e+00 +/- 0.000000e+00) [K]

Current cycle: 700 out of 6000
===============================================================================

Box:      24.95874   0.00000   0.00000  Average:  25.67697   0.00000   0.00000
           0.00000  24.95874   0.00000             0.00000  25.67697   0.00000
           0.00000   0.00000  24.95874             0.00000   0.00000  25.67697
Lengths:  24.95874  24.95874  24.95874  Average:  25.67697  25.67697  25.67697
Angles:   90.00000  90.00000  90.00000  Average:  90.00000  90.00000  90.00000
Rectangular boundary conditions

net charge:   0.00000000

component 0 (CO2) lambda:  0 occupancy:  0 (0.000000)
    net charge:   0.00000000 [e]

Amount of molecules per component :
-------------------------------------------------------------------------------
Component 0 (CO2)
    molecules:      2.070000e+02 molecules  (2.198759e+02 +/- 0.000000e+00)
    number density: 1.331382e-02 molec./A^3 (1.299259e-02 +/- 0.000000e+00)
    density:        9.727303e+02 kg/m^3     (9.492606e+02 +/- 0.000000e+00)

Average pressure tensor: 
-------------------------------------------------------------------------------
-2.9050e+01 -3.1200e+00 -3.1425e+01 +/- 0.0000e+00 0.0000e+00 0.0000e+00 [bar]
-3.1200e+00  7.1011e+01 -3.1747e+01 +/- 0.0000e+00 0.0000e+00 0.0000e+00 [bar]
-3.1425e+01 -3.1747e+01  2.3574e+01 +/- 0.0000e+00 0.0000e+00 0.0000e+00 [bar]
Ideal-gas pressure:   4.843319e+02 +/ 0.000000e+00 [bar]
Excess pressure:     -4.624867e+02 +/ 0.000000e+00 [bar]
Pressure:             2.184519e+01 +/ 0.000000e+00 [bar]

Total potential energy/kʙ  -2.769644e+05 (-2.945991e+05 +/- 0.000000e+00) [K]
-------------------------------------------------------------------------------
ExternalField-molecule
    Van der Waals/kʙ        0.000000e+00 ( 0.000000e+00 +/- 0.000000e+00) [K]
Framework-molecule
    Van der Waals/kʙ        0.000000e+00 ( 0.000000e+00 +/- 0.000000e+00) [K]
    Van der Waals (Tail)/kʙ 0.000000e+00 ( 0.000000e+00 +/- 0.000000e+00) [K]
    Coulombic Real/kʙ       0.000000e+00 ( 0.000000e+00 +/- 0.000000e+00) [K]
    Coulombic Fourier/kʙ    0.000000e+00 ( 0.000000e+00 +/- 0.000000e+00) [K]
Molecule-molecule
    Van der Waals/kʙ       -2.002959e+05 (-2.128503e+05 +/- 0.000000e+00) [K]
    Van der Waals (Tail)/kʙ-8.842634e+03 (-9.165137e+03 +/- 0.000000e+00) [K]
    Coulombic Real/kʙ      -5.315867e+04 (-5.749621e+04 +/- 0.000000e+00) [K]
    Coulombic Fourier/kʙ   -1.466720e+04 (-1.508748e+04 +/- 0.000000e+00) [K]
    Molecule Intra/kʙ       0.000000e+00 ( 0.000000e+00 +/- 0.000000e+00) [K]

Current cycle: 800 out of 6000
===============================================================================

Box:      25.32559   0.00000   0.00000  Average:  25.59396   0.00000   0.00000
           0.00000  25.32559   0.00000             0.00000  25.59396   0.00000
           0.00000   0.00000  25.32559             0.00000   0.00000  25.59396
Lengths:  25.32559  25.32559  25.32559  Average:  25.59396  25.59396  25.59396
Angles:   90.00000  90.00000  90.00000  Average:  90.00000  90.00000  90.00000
Rectangular boundary conditions

net charge:   0.00000000

component 0 (CO2) lambda:  0 occupancy:  0 (0.000000)
    net charge:   0.00000000 [e]

Amount of molecules per component :
-------------------------------------------------------------------------------
Component 0 (CO2)
    molecules:      2.100000e+02 molecules  (2.184694e+02 +/- 0.000000e+00)
    number density: 1.292827e-02 molec./A^3 (1.303495e-02 +/- 0.000000e+00)
    density:        9.445618e+02 kg/m^3     (9.523556e+02 +/- 0.000000e+00)

Average pressure tensor: 
-------------------------------------------------------------------------------
-3.6457e+01 -2.0578e+01 -1.0568e+01 +/- 0.0000e+00 0.0000e+00 0.0000e+00 [bar]
-2.0578e+01  9.3749e+01 -4.8530e+01 +/- 0.0000e+00 0.0000e+00 0.0000e+00 [bar]
-1.0568e+01 -4.8530e+01  2.4677e+01 +/- 0.0000e+00 0.0000e+00 0.0000e+00 [bar]
Ideal-gas pressure:   4.859110e+02 +/ 0.000000e+00 [bar]
Excess pressure:     -4.585878e+02 +/ 0.000000e+00 [bar]
Pressure:             2.732320e+01 +/ 0.000000e+00 [bar]

Total potential energy/kʙ  -2.780131e+05 (-2.931179e+05 +/- 0.000000e+00) [K]
-------------------------------------------------------------------------------
ExternalField-molecule
    Van der Waals/kʙ        0.000000e+00 ( 0.000000e+00 +/- 0.000000e+00) [K]
Framework-molecule
    Van der Waals/kʙ        0.000000e+00 ( 0.000000e+00 +/- 0.000000e+00) [K]
    Van der Waals (Tail)/kʙ 0.000000e+00 ( 0.000000e+00 +/- 0.000000e+00) [K]
    Coulombic Real/kʙ       0.000000e+00 ( 0.000000e+00 +/- 0.000000e+00) [K]
    Coulombic Fourier/kʙ    0.000000e+00 ( 0.000000e+00 +/- 0.000000e+00) [K]
Molecule-molecule
    Van der Waals/kʙ       -2.025027e+05 (-2.119306e+05 +/- 0.000000e+00) [K]
    Van der Waals (Tail)/kʙ-8.711010e+03 (-9.130329e+03 +/- 0.000000e+00) [K]
    Coulombic Real/kʙ      -5.178632e+04 (-5.704092e+04 +/- 0.000000e+00) [K]
    Coulombic Fourier/kʙ   -1.501304e+04 (-1.501611e+04 +/- 0.000000e+00) [K]
    Molecule Intra/kʙ       0.000000e+00 ( 0.000000e+00 +/- 0.000000e+00) [K]

Current cycle: 900 out of 6000
===============================================================================

Box:      25.06994   0.00000   0.00000  Average:  25.54549   0.00000   0.00000
           0.00000  25.06994   0.00000             0.00000  25.54549   0.00000
           0.00000   0.00000  25.06994             0.00000   0.00000  25.54549
Lengths:  25.06994  25.06994  25.06994  Average:  25.54549  25.54549  25.54549
Angles:   90.00000  90.00000  90.00000  Average:  90.00000  90.00000  90.00000
Rectangular boundary conditions

net charge:   0.00000000

component 0 (CO2) lambda:  0 occupancy:  0 (0.000000)
    net charge:   0.00000000 [e]

Amount of molecules per component :
-------------------------------------------------------------------------------
Component 0 (CO2)
    molecules:      1.930000e+02 molecules  (2.172875e+02 +/- 0.000000e+00)
    number density: 1.224891e-02 molec./A^3 (1.303698e-02 +/- 0.000000e+00)
    density:        8.949260e+02 kg/m^3     (9.525040e+02 +/- 0.000000e+00)

Average pressure tensor: 
-------------------------------------------------------------------------------
-4.9053e+01 -5.3738e+00 -4.2771e+00 +/- 0.0000e+00 0.0000e+00 0.0000e+00 [bar]
-5.3738e+00  8.2509e+01 -4.5999e+01 +/- 0.0000e+00 0.0000e+00 0.0000e+00 [bar]
-4.2771e+00 -4.5999e+01  6.1511e+00 +/- 0.0000e+00 0.0000e+00 0.0000e+00 [bar]
Ideal-gas pressure:   4.859868e+02 +/ 0.000000e+00 [bar]
Excess pressure:     -4.727844e+02 +/ 0.000000e+00 [bar]
Pressure:             1.320240e+01 +/ 0.000000e+00 [bar]

Total potential energy/kʙ  -2.421450e+05 (-2.906898e+05 +/- 0.000000e+00) [K]
-------------------------------------------------------------------------------
ExternalField-molecule
    Van der Waals/kʙ        0.000000e+00 ( 0.000000e+00 +/- 0.000000e+00) [K]
Framework-molecule
    Van der Waals/kʙ        0.000000e+00 ( 0.000000e+00 +/- 0.000000e+00) [K]
    Van der Waals (Tail)/kʙ 0.000000e+00 ( 0.000000e+00 +/- 0.000000e+00) [K]
    Coulombic Real/kʙ       0.000000e+00 ( 0.000000e+00 +/- 0.000000e+00) [K]
    Coulombic Fourier/kʙ    0.000000e+00 ( 0.000000e+00 +/- 0.000000e+00) [K]
Molecule-molecule
    Van der Waals/kʙ       -1.717344e+05 (-2.102978e+05 +/- 0.000000e+00) [K]
    Van der Waals (Tail)/kʙ-7.585134e+03 (-9.057636e+03 +/- 0.000000e+00) [K]
    Coulombic Real/kʙ      -4.885565e+04 (-5.642593e+04 +/- 0.000000e+00) [K]
    Coulombic Fourier/kʙ   -1.396984e+04 (-1.490845e+04 +/- 0.000000e+00) [K]
    Molecule Intra/kʙ       0.000000e+00 ( 0.000000e+00 +/- 0.000000e+00) [K]

Current cycle: 1000 out of 6000
===============================================================================

Box:      25.59208   0.00000   0.00000  Average:  25.53726   0.00000   0.00000
           0.00000  25.59208   0.00000             0.00000  25.53726   0.00000
           0.00000   0.00000  25.59208             0.00000   0.00000  25.53726
Lengths:  25.59208  25.59208  25.59208  Average:  25.53726  25.53726  25.53726
Angles:   90.00000  90.00000  90.00000  Average:  90.00000  90.00000  90.00000
Rectangular boundary conditions

net charge:   0.00000000

component 0 (CO2) lambda:  0 occupancy:  0 (0.000000)
    net charge:   0.00000000 [e]

Amount of molecules per component :
-------------------------------------------------------------------------------
Component 0 (CO2)
    molecules:      2.180000e+02 molecules  (2.168901e+02 +/- 0.000000e+00)
    number density: 1.300588e-02 molec./A^3 (1.302520e-02 +/- 0.000000e+00)
    density:        9.502316e+02 kg/m^3     (9.516434e+02 +/- 0.000000e+00)

Average pressure tensor: 
-------------------------------------------------------------------------------
-2.9008e+01 -1.3121e+01  4.0675e-02 +/- 0.0000e+00 0.0000e+00 0.0000e+00 [bar]
-1.3121e+01  7.4766e+01 -3.1502e+01 +/- 0.0000e+00 0.0000e+00 0.0000e+00 [bar]
 4.0675e-02 -3.1502e+01  3.2924e+01 +/- 0.0000e+00 0.0000e+00 0.0000e+00 [bar]
Ideal-gas pressure:   4.855477e+02 +/ 0.000000e+00 [bar]
Excess pressure:     -4.593204e+02 +/ 0.000000e+00 [bar]
Pressure:             2.622725e+01 +/ 0.000000e+00 [bar]

Total potential energy/kʙ  -2.916174e+05 (-2.898081e+05 +/- 0.000000e+00) [K]
-------------------------------------------------------------------------------
ExternalField-molecule
    Van der Waals/kʙ        0.000000e+00 ( 0.000000e+00 +/- 0.000000e+00) [K]
Framework-molecule
    Van der Waals/kʙ        0.000000e+00 ( 0.000000e+00 +/- 0.000000e+00) [K]
    Van der Waals (Tail)/kʙ 0.000000e+00 ( 0.000000e+00 +/- 0.000000e+00) [K]
    Coulombic Real/kʙ       0.000000e+00 ( 0.000000e+00 +/- 0.000000e+00) [K]
    Coulombic Fourier/kʙ    0.000000e+00 ( 0.000000e+00 +/- 0.000000e+00) [K]
Molecule-molecule
    Van der Waals/kʙ       -2.064383e+05 (-2.096182e+05 +/- 0.000000e+00) [K]
    Van der Waals (Tail)/kʙ-9.097139e+03 (-9.040911e+03 +/- 0.000000e+00) [K]
    Coulombic Real/kʙ      -6.110567e+04 (-5.631200e+04 +/- 0.000000e+00) [K]
    Coulombic Fourier/kʙ   -1.497631e+04 (-1.483701e+04 +/- 0.000000e+00) [K]
    Molecule Intra/kʙ       0.000000e+00 ( 0.000000e+00 +/- 0.000000e+00) [K]

Current cycle: 1100 out of 6000
===============================================================================

Box:      25.59767   0.00000   0.00000  Average:  25.57659   0.00000   0.00000
           0.00000  25.59767   0.00000             0.00000  25.57659   0.00000
           0.00000   0.00000  25.59767             0.00000   0.00000  25.57659
Lengths:  25.59767  25.59767  25.59767  Average:  25.57659  25.57659  25.57659
Angles:   90.00000  90.00000  90.00000  Average:  90.00000  90.00000  90.00000
Rectangular boundary conditions

net charge:   0.00000000

component 0 (CO2) lambda:  0 occupancy:  0 (0.000000)
    net charge:   0.00000000 [e]

Amount of molecules per component :
-------------------------------------------------------------------------------
Component 0 (CO2)
    molecules:      2.250000e+02 molecules  (2.171045e+02 +/- 0.000000e+00)
    number density: 1.341471e-02 molec./A^3 (1.297952e-02 +/- 0.000000e+00)
    density:        9.801016e+02 kg/m^3     (9.483062e+02 +/- 0.000000e+00)

Average pressure tensor: 
-------------------------------------------------------------------------------
-2.0916e+01 -1.2795e+00  7.4156e+00 +/- 0.0000e+00 0.0000e+00 0.0000e+00 [bar]
-1.2795e+00  7.7376e+01 -2.5967e+01 +/- 0.0000e+00 0.0000e+00 0.0000e+00 [bar]
 7.4156e+00 -2.5967e+01  3.9245e+01 +/- 0.0000e+00 0.0000e+00 0.0000e+00 [bar]
Ideal-gas pressure:   4.838449e+02 +/ 0.000000e+00 [bar]
Excess pressure:     -4.519433e+02 +/ 0.000000e+00 [bar]
Pressure:             3.190166e+01 +/ 0.000000e+00 [bar]

Total potential energy/kʙ  -3.109139e+05 (-2.893157e+05 +/- 0.000000e+00) [K]
-------------------------------------------------------------------------------
ExternalField-molecule
    Van der Waals/kʙ        0.000000e+00 ( 0.000000e+00 +/- 0.000000e+00) [K]
Framework-molecule
    Van der Waals/kʙ        0.000000e+00 ( 0.000000e+00 +/- 0.000000e+00) [K]
    Van der Waals (Tail)/kʙ 0.000000e+00 ( 0.000000e+00 +/- 0.000000e+00) [K]
    Coulombic Real/kʙ       0.000000e+00 ( 0.000000e+00 +/- 0.000000e+00) [K]
    Coulombic Fourier/kʙ    0.000000e+00 ( 0.000000e+00 +/- 0.000000e+00) [K]
Molecule-molecule
    Van der Waals/kʙ       -2.249013e+05 (-2.092458e+05 +/- 0.000000e+00) [K]
    Van der Waals (Tail)/kʙ-9.684394e+03 (-9.024756e+03 +/- 0.000000e+00) [K]
    Coulombic Real/kʙ      -6.082396e+04 (-5.625012e+04 +/- 0.000000e+00) [K]
    Coulombic Fourier/kʙ   -1.550417e+04 (-1.479509e+04 +/- 0.000000e+00) [K]
    Molecule Intra/kʙ       0.000000e+00 ( 0.000000e+00 +/- 0.000000e+00) [K]

Current cycle: 1200 out of 6000
===============================================================================

Box:      25.72548   0.00000   0.00000  Average:  25.59974   0.00000   0.00000
           0.00000  25.72548   0.00000             0.00000  25.59974   0.00000
           0.00000   0.00000  25.72548             0.00000   0.00000  25.59974
Lengths:  25.72548  25.72548  25.72548  Average:  25.59974  25.59974  25.59974
Angles:   90.00000  90.00000  90.00000  Average:  90.00000  90.00000  90.00000
Rectangular boundary conditions

net charge:   0.00000000

component 0 (CO2) lambda:  0 occupancy:  0 (0.000000)
    net charge:   0.00000000 [e]

Amount of molecules per component :
-------------------------------------------------------------------------------
Component 0 (CO2)
    molecules:      2.230000e+02 molecules  (2.173830e+02 +/- 0.000000e+00)
    number density: 1.309828e-02 molec./A^3 (1.296096e-02 +/- 0.000000e+00)
    density:        9.569826e+02 kg/m^3     (9.469498e+02 +/- 0.000000e+00)

Average pressure tensor: 
-------------------------------------------------------------------------------
-1.8984e+01 -4.4046e+00  7.2985e+00 +/- 0.0000e+00 0.0000e+00 0.0000e+00 [bar]
-4.4046e+00  6.4522e+01 -2.1554e+01 +/- 0.0000e+00 0.0000e+00 0.0000e+00 [bar]
 7.2985e+00 -2.1554e+01  4.0694e+01 +/- 0.0000e+00 0.0000e+00 0.0000e+00 [bar]
Ideal-gas pressure:   4.831529e+02 +/ 0.000000e+00 [bar]
Excess pressure:     -4.544089e+02 +/ 0.000000e+00 [bar]
Pressure:             2.874399e+01 +/ 0.000000e+00 [bar]

Total potential energy/kʙ  -2.925847e+05 (-2.893738e+05 +/- 0.000000e+00) [K]
-------------------------------------------------------------------------------
ExternalField-molecule
    Van der Waals/kʙ        0.000000e+00 ( 0.000000e+00 +/- 0.000000e+00) [K]
Framework-molecule
    Van der Waals/kʙ        0.000000e+00 ( 0.000000e+00 +/- 0.000000e+00) [K]
    Van der Waals (Tail)/kʙ 0.000000e+00 ( 0.000000e+00 +/- 0.000000e+00) [K]
    Coulombic Real/kʙ       0.000000e+00 ( 0.000000e+00 +/- 0.000000e+00) [K]
    Coulombic Fourier/kʙ    0.000000e+00 ( 0.000000e+00 +/- 0.000000e+00) [K]
Molecule-molecule
    Van der Waals/kʙ       -2.103716e+05 (-2.092132e+05 +/- 0.000000e+00) [K]
    Van der Waals (Tail)/kʙ-9.371902e+03 (-9.022147e+03 +/- 0.000000e+00) [K]
    Coulombic Real/kʙ      -5.669082e+04 (-5.630999e+04 +/- 0.000000e+00) [K]
    Coulombic Fourier/kʙ   -1.615038e+04 (-1.482846e+04 +/- 0.000000e+00) [K]
    Molecule Intra/kʙ       0.000000e+00 ( 0.000000e+00 +/- 0.000000e+00) [K]

Current cycle: 1300 out of 6000
===============================================================================

Box:      25.95249   0.00000   0.00000  Average:  25.63740   0.00000   0.00000
           0.00000  25.95249   0.00000             0.00000  25.63740   0.00000
           0.00000   0.00000  25.95249             0.00000   0.00000  25.63740
Lengths:  25.95249  25.95249  25.95249  Average:  25.63740  25.63740  25.63740
Angles:   90.00000  90.00000  90.00000  Average:  90.00000  90.00000  90.00000
Rectangular boundary conditions

net charge:   0.00000000

component 0 (CO2) lambda:  0 occupancy:  0 (0.000000)
    net charge:   0.00000000 [e]

Amount of molecules per component :
-------------------------------------------------------------------------------
Component 0 (CO2)
    molecules:      2.290000e+02 molecules  (2.176103e+02 +/- 0.000000e+00)
    number density: 1.310082e-02 molec./A^3 (1.291873e-02 +/- 0.000000e+00)
    density:        9.571686e+02 kg/m^3     (9.438643e+02 +/- 0.000000e+00)

Average pressure tensor: 
-------------------------------------------------------------------------------
-1.7476e+01 -7.5193e+00  1.0491e+01 +/- 0.0000e+00 0.0000e+00 0.0000e+00 [bar]
-7.5193e+00  6.6955e+01 -2.8105e+01 +/- 0.0000e+00 0.0000e+00 0.0000e+00 [bar]
 1.0491e+01 -2.8105e+01  4.9690e+01 +/- 0.0000e+00 0.0000e+00 0.0000e+00 [bar]
Ideal-gas pressure:   4.815786e+02 +/ 0.000000e+00 [bar]
Excess pressure:     -4.485221e+02 +/ 0.000000e+00 [bar]
Pressure:             3.305652e+01 +/ 0.000000e+00 [bar]

Total potential energy/kʙ  -3.070928e+05 (-2.886243e+05 +/- 0.000000e+00) [K]
-------------------------------------------------------------------------------
ExternalField-molecule
    Van der Waals/kʙ        0.000000e+00 ( 0.000000e+00 +/- 0.000000e+00) [K]
Framework-molecule
    Van der Waals/kʙ        0.000000e+00 ( 0.000000e+00 +/- 0.000000e+00) [K]
    Van der Waals (Tail)/kʙ 0.000000e+00 ( 0.000000e+00 +/- 0.000000e+00) [K]
    Coulombic Real/kʙ       0.000000e+00 ( 0.000000e+00 +/- 0.000000e+00) [K]
    Coulombic Fourier/kʙ    0.000000e+00 ( 0.000000e+00 +/- 0.000000e+00) [K]
Molecule-molecule
    Van der Waals/kʙ       -2.215419e+05 (-2.087892e+05 +/- 0.000000e+00) [K]
    Van der Waals (Tail)/kʙ-9.625932e+03 (-9.005097e+03 +/- 0.000000e+00) [K]
    Coulombic Real/kʙ      -6.026357e+04 (-5.603929e+04 +/- 0.000000e+00) [K]
    Coulombic Fourier/kʙ   -1.566141e+04 (-1.479077e+04 +/- 0.000000e+00) [K]
    Molecule Intra/kʙ       0.000000e+00 ( 0.000000e+00 +/- 0.000000e+00) [K]

Current cycle: 1400 out of 6000
===============================================================================

Box:      26.21004   0.00000   0.00000  Average:  25.66952   0.00000   0.00000
           0.00000  26.21004   0.00000             0.00000  25.66952   0.00000
           0.00000   0.00000  26.21004             0.00000   0.00000  25.66952
Lengths:  26.21004  26.21004  26.21004  Average:  25.66952  25.66952  25.66952
Angles:   90.00000  90.00000  90.00000  Average:  90.00000  90.00000  90.00000
Rectangular boundary conditions

net charge:   0.00000000

component 0 (CO2) lambda:  0 occupancy:  0 (0.000000)
    net charge:   0.00000000 [e]

Amount of molecules per component :
-------------------------------------------------------------------------------
Component 0 (CO2)
    molecules:      2.170000e+02 molecules  (2.178651e+02 +/- 0.000000e+00)
    number density: 1.205194e-02 molec./A^3 (1.288605e-02 +/- 0.000000e+00)
    density:        8.805352e+02 kg/m^3     (9.414770e+02 +/- 0.000000e+00)

Average pressure tensor: 
-------------------------------------------------------------------------------
-1.3551e+01 -8.3070e+00  1.0487e+01 +/- 0.0000e+00 0.0000e+00 0.0000e+00 [bar]
-8.3070e+00  7.4902e+01 -2.4190e+01 +/- 0.0000e+00 0.0000e+00 0.0000e+00 [bar]
 1.0487e+01 -2.4190e+01  5.7659e+01 +/- 0.0000e+00 0.0000e+00 0.0000e+00 [bar]
Ideal-gas pressure:   4.803605e+02 +/ 0.000000e+00 [bar]
Excess pressure:     -4.406905e+02 +/ 0.000000e+00 [bar]
Pressure:             3.967007e+01 +/ 0.000000e+00 [bar]

Total potential energy/kʙ  -2.668031e+05 (-2.878198e+05 +/- 0.000000e+00) [K]
-------------------------------------------------------------------------------
ExternalField-molecule
    Van der Waals/kʙ        0.000000e+00 ( 0.000000e+00 +/- 0.000000e+00) [K]
Framework-molecule
    Van der Waals/kʙ        0.000000e+00 ( 0.000000e+00 +/- 0.000000e+00) [K]
    Van der Waals (Tail)/kʙ 0.000000e+00 ( 0.000000e+00 +/- 0.000000e+00) [K]
    Coulombic Real/kʙ       0.000000e+00 ( 0.000000e+00 +/- 0.000000e+00) [K]
    Coulombic Fourier/kʙ    0.000000e+00 ( 0.000000e+00 +/- 0.000000e+00) [K]
Molecule-molecule
    Van der Waals/kʙ       -1.942829e+05 (-2.082829e+05 +/- 0.000000e+00) [K]
    Van der Waals (Tail)/kʙ-8.391224e+03 (-8.989666e+03 +/- 0.000000e+00) [K]
    Coulombic Real/kʙ      -4.987156e+04 (-5.577366e+04 +/- 0.000000e+00) [K]
    Coulombic Fourier/kʙ   -1.425734e+04 (-1.477366e+04 +/- 0.000000e+00) [K]
    Molecule Intra/kʙ       0.000000e+00 ( 0.000000e+00 +/- 0.000000e+00) [K]

Current cycle: 1500 out of 6000
===============================================================================

Box:      25.82821   0.00000   0.00000  Average:  25.67810   0.00000   0.00000
           0.00000  25.82821   0.00000             0.00000  25.67810   0.00000
           0.00000   0.00000  25.82821             0.00000   0.00000  25.67810
[...]
    number density: 1.371850e-02 molec./A^3 (1.309798e-02 +/- 1.469807e-04)
    density:        1.002297e+03 kg/m^3     (9.569608e+02 +/- 1.073866e+01)

Average pressure tensor: 
-------------------------------------------------------------------------------
 5.4262e+01  1.6813e-01 -1.3737e+01 +/- 7.0465e+01 1.9666e+01 2.1995e+01 [bar]
 1.6813e-01  3.4867e+01  9.4571e+00 +/- 1.9666e+01 4.6799e+01 3.6196e+01 [bar]
-1.3737e+01  9.4571e+00  2.2868e+01 +/- 2.1995e+01 3.6196e+01 2.4282e+01 [bar]
Ideal-gas pressure:   4.882607e+02 +/ 5.479083e+00 [bar]
Excess pressure:     -4.509282e+02 +/ 9.211549e+00 [bar]
Pressure:             3.733249e+01 +/ 8.742249e+00 [bar]

Total potential energy/kʙ  -3.208452e+05 (-2.869355e+05 +/- 5.887819e+03) [K]
-------------------------------------------------------------------------------
ExternalField-molecule
    Van der Waals/kʙ        0.000000e+00 ( 0.000000e+00 +/- 0.000000e+00) [K]
Framework-molecule
    Van der Waals/kʙ        0.000000e+00 ( 0.000000e+00 +/- 0.000000e+00) [K]
    Van der Waals (Tail)/kʙ 0.000000e+00 ( 0.000000e+00 +/- 0.000000e+00) [K]
    Coulombic Real/kʙ       0.000000e+00 ( 0.000000e+00 +/- 0.000000e+00) [K]
    Coulombic Fourier/kʙ    0.000000e+00 ( 0.000000e+00 +/- 0.000000e+00) [K]
Molecule-molecule
    Van der Waals/kʙ       -2.327088e+05 (-2.077189e+05 +/- 3.865791e+03) [K]
    Van der Waals (Tail)/kʙ-9.947728e+03 (-8.954471e+03 +/- 1.625184e+02) [K]
    Coulombic Real/kʙ      -6.190171e+04 (-5.558084e+04 +/- 1.615177e+03) [K]
    Coulombic Fourier/kʙ   -1.628698e+04 (-1.468129e+04 +/- 3.600335e+02) [K]
    Molecule Intra/kʙ       0.000000e+00 ( 0.000000e+00 +/- 0.000000e+00) [K]

Current cycle: 5800 out of 6000
===============================================================================

Box:      25.44531   0.00000   0.00000  Average:  25.34397   0.00000   0.00000
           0.00000  25.44531   0.00000             0.00000  25.34397   0.00000
           0.00000   0.00000  25.44531             0.00000   0.00000  25.34397
Lengths:  25.44531  25.44531  25.44531  Average:  25.34397  25.34397  25.34397
Angles:   90.00000  90.00000  90.00000  Average:  90.00000  90.00000  90.00000
Rectangular boundary conditions

net charge:   0.00000000

component 0 (CO2) lambda:  0 occupancy:  0 (0.000000)
    net charge:   0.00000000 [e]

Amount of molecules per component :
-------------------------------------------------------------------------------
Component 0 (CO2)
    molecules:      2.200000e+02 molecules  (2.131645e+02 +/- 4.794766e+00)
    number density: 1.335364e-02 molec./A^3 (1.309902e-02 +/- 1.440830e-04)
    density:        9.756395e+02 kg/m^3     (9.570369e+02 +/- 1.052695e+01)

Average pressure tensor: 
-------------------------------------------------------------------------------
 5.3078e+01  2.5633e-01 -1.4818e+01 +/- 6.8594e+01 1.9679e+01 2.2795e+01 [bar]
 2.5633e-01  3.3213e+01  8.3638e+00 +/- 1.9679e+01 4.8230e+01 3.3404e+01 [bar]
-1.4818e+01  8.3638e+00  2.2077e+01 +/- 2.2795e+01 3.3404e+01 2.2916e+01 [bar]
Ideal-gas pressure:   4.882995e+02 +/ 5.371061e+00 [bar]
Excess pressure:     -4.521767e+02 +/ 4.558792e+00 [bar]
Pressure:             3.612285e+01 +/ 5.807375e+00 [bar]

Total potential energy/kʙ  -3.025018e+05 (-2.871680e+05 +/- 5.789771e+03) [K]
-------------------------------------------------------------------------------
ExternalField-molecule
    Van der Waals/kʙ        0.000000e+00 ( 0.000000e+00 +/- 0.000000e+00) [K]
Framework-molecule
    Van der Waals/kʙ        0.000000e+00 ( 0.000000e+00 +/- 0.000000e+00) [K]
    Van der Waals (Tail)/kʙ 0.000000e+00 ( 0.000000e+00 +/- 0.000000e+00) [K]
    Coulombic Real/kʙ       0.000000e+00 ( 0.000000e+00 +/- 0.000000e+00) [K]
    Coulombic Fourier/kʙ    0.000000e+00 ( 0.000000e+00 +/- 0.000000e+00) [K]
Molecule-molecule
    Van der Waals/kʙ       -2.181625e+05 (-2.078600e+05 +/- 3.780629e+03) [K]
    Van der Waals (Tail)/kʙ-9.426075e+03 (-8.958991e+03 +/- 1.606372e+02) [K]
    Coulombic Real/kʙ      -6.014727e+04 (-5.566231e+04 +/- 1.603240e+03) [K]
    Coulombic Fourier/kʙ   -1.476598e+04 (-1.468669e+04 +/- 3.610191e+02) [K]
    Molecule Intra/kʙ       0.000000e+00 ( 0.000000e+00 +/- 0.000000e+00) [K]

Current cycle: 5900 out of 6000
===============================================================================

Box:      25.38575   0.00000   0.00000  Average:  25.34484   0.00000   0.00000
           0.00000  25.38575   0.00000             0.00000  25.34484   0.00000
           0.00000   0.00000  25.38575             0.00000   0.00000  25.34484
Lengths:  25.38575  25.38575  25.38575  Average:  25.34484  25.34484  25.34484
Angles:   90.00000  90.00000  90.00000  Average:  90.00000  90.00000  90.00000
Rectangular boundary conditions

net charge:   0.00000000

component 0 (CO2) lambda:  0 occupancy:  0 (0.000000)
    net charge:   0.00000000 [e]

Amount of molecules per component :
-------------------------------------------------------------------------------
Component 0 (CO2)
    molecules:      2.070000e+02 molecules  (2.131773e+02 +/- 4.789431e+00)
    number density: 1.265321e-02 molec./A^3 (1.309841e-02 +/- 1.434948e-04)
    density:        9.244649e+02 kg/m^3     (9.569923e+02 +/- 1.048397e+01)

Average pressure tensor: 
-------------------------------------------------------------------------------
 4.9814e+01 -1.3074e+00 -1.6440e+01 +/- 6.6408e+01 1.9864e+01 2.4497e+01 [bar]
-1.3074e+00  3.3576e+01  9.1936e+00 +/- 1.9864e+01 4.7302e+01 3.4017e+01 [bar]
-1.6440e+01  9.1936e+00  2.0058e+01 +/- 2.4497e+01 3.4017e+01 2.1688e+01 [bar]
Ideal-gas pressure:   4.882768e+02 +/ 5.349135e+00 [bar]
Excess pressure:     -4.537941e+02 +/ 1.883721e+00 [bar]
Pressure:             3.448269e+01 +/ 5.856393e+00 [bar]

Total potential energy/kʙ  -2.725477e+05 (-2.872697e+05 +/- 5.784077e+03) [K]
-------------------------------------------------------------------------------
ExternalField-molecule
    Van der Waals/kʙ        0.000000e+00 ( 0.000000e+00 +/- 0.000000e+00) [K]
Framework-molecule
    Van der Waals/kʙ        0.000000e+00 ( 0.000000e+00 +/- 0.000000e+00) [K]
    Van der Waals (Tail)/kʙ 0.000000e+00 ( 0.000000e+00 +/- 0.000000e+00) [K]
    Coulombic Real/kʙ       0.000000e+00 ( 0.000000e+00 +/- 0.000000e+00) [K]
    Coulombic Fourier/kʙ    0.000000e+00 ( 0.000000e+00 +/- 0.000000e+00) [K]
Molecule-molecule
    Van der Waals/kʙ       -1.996527e+05 (-2.078800e+05 +/- 3.773535e+03) [K]
    Van der Waals (Tail)/kʙ-8.403876e+03 (-8.959306e+03 +/- 1.605441e+02) [K]
    Coulombic Real/kʙ      -5.025498e+04 (-5.573384e+04 +/- 1.625400e+03) [K]
    Coulombic Fourier/kʙ   -1.423613e+04 (-1.469647e+04 +/- 3.642097e+02) [K]
    Molecule Intra/kʙ       0.000000e+00 ( 0.000000e+00 +/- 0.000000e+00) [K]


Energy statistics             |  Energy [K]   | Recomputed [K]|  Drift [K]    |
===============================================================================
Total potential energy/kʙ     | -2.477131e+05 | -2.480724e+05 |  3.593378e+02 |
    external field VDW/kʙ     |  0.000000e+00 |  0.000000e+00 |  0.000000e+00 |
    external field Real/kʙ    |  0.000000e+00 |  0.000000e+00 |  0.000000e+00 |
    framework-molecule VDW/kʙ |  0.000000e+00 |  0.000000e+00 |  0.000000e+00 |
    framework-molecule Real/kʙ|  0.000000e+00 |  0.000000e+00 |  0.000000e+00 |
    molecule-molecule VDW/kʙ  | -1.838065e+05 | -1.841658e+05 |  3.593287e+02 |
    molecule-molecule Real/kʙ | -4.331716e+04 | -4.331717e+04 |  9.064281e-03 |
    Van der Waals (Tail)/kʙ   | -7.957426e+03 | -7.957426e+03 |  2.844066e-11 |
    Ewald Fourier/kʙ          |  1.613908e+04 |  1.613908e+04 |  2.187743e-11 |
    Ewald self/kʙ             | -4.401388e+06 | -4.401388e+06 | -5.600621e-10 |
    Ewald exclusion/kʙ        |  4.372617e+06 |  4.372617e+06 |  0.000000e+00 |
    intra VDW/kʙ              |  0.000000e+00 |  0.000000e+00 |  0.000000e+00 |
    intra Coulombic/kʙ        |  0.000000e+00 |  0.000000e+00 |  0.000000e+00 |
    polarization/kʙ           |  0.000000e+00 |  0.000000e+00 |  0.000000e+00 |
    dU/dlambda VDW/kʙ         |  0.000000e+00 |  0.000000e+00 |  0.000000e+00 |
    dU/dlambda Real/kʙ        |  0.000000e+00 |  0.000000e+00 |  0.000000e+00 |
    dU/dlambda Ewald/kʙ       |  0.000000e+00 |  0.000000e+00 |  0.000000e+00 |
-------------------------------------------------------------------------------


Monte-Carlo moves statistics
===============================================================================

    Gibbs volume         all:                2993
    Gibbs volume         total:              6090
    Gibbs volume         constructed:        6090
    Gibbs volume         accepted:           4708
    Gibbs volume         fraction:       0.773071
    Gibbs volume         max-change:     0.037500

Component 0 [CO2]
    Reinsertion (CBMC)   all:              148637
    Reinsertion (CBMC)   total:            148637
    Reinsertion (CBMC)   constructed:      142662
    Reinsertion (CBMC)   accepted:           7721
    Reinsertion (CBMC)   fraction:       0.051945
    Reinsertion (CBMC)   max-change:     0.000000

    Gibbs swap (CBMC)    all:              299932
    Gibbs swap (CBMC)    total:            598969
    Gibbs swap (CBMC)    constructed:      586310
    Gibbs swap (CBMC)    accepted:          77852
    Gibbs swap (CBMC)    fraction:       0.129977
    Gibbs swap (CBMC)    max-change:     0.000000

    Translation          all:              149683
    Translation          total:             49780      50159      49744
    Translation          constructed:       49780      50159      49697
    Translation          accepted:          23589      29553      20349
    Translation          fraction:       0.473865   0.589186   0.409074
    Translation          max-change:     0.800273   0.683912   0.867502

    Rotation             all:              149240
    Rotation             total:             49774      49774      49692
    Rotation             constructed:       49697      49774      49688
    Rotation             accepted:          19572      25751      23255
    Rotation             fraction:       0.393217   0.517358   0.467983
    Rotation             max-change:     0.940924   0.778049   0.845202



Production run counting of the MC moves summed over systems and components
===============================================================================

Reinsertion (CBMC)                   297614 (19.8409 [%])
Gibbs volume                           6090 (0.4060 [%])
Gibbs swap (CBMC)                    598969 (39.9313 [%])
Translation                          299123 (19.9415 [%])
Rotation                             298204 (19.8803 [%])

Production count MC-steps:          1500000 [-]
               All summed:          1500000 [-]
               difference:                0 [-]


Production run CPU timings of the MC moves
===============================================================================

Component 0 CO2

Rotation                             21.511632 [s]
    Ewald                            11.265378 [s]
    ExternalField-Molecule            0.005939 [s]
    Framework-Molecule                0.004926 [s]
    Molecule-Molecule                 9.303476 [s]
    Overhead                          0.931913 [s]

Reinsertion (CBMC)                   79.494376 [s]
    Ewald                            10.792567 [s]
    NonEwald                         68.449253 [s]
    Overhead                          0.252556 [s]

Translation                          21.655327 [s]
    Ewald                            11.295413 [s]
    ExternalField-Molecule            0.005473 [s]
    Framework-Molecule                0.010732 [s]
    Molecule-Molecule                 9.369509 [s]
    Overhead                          0.974200 [s]



Gibbs swap (CBMC)                   121.897103 [s]
    Ewald                            26.256640 [s]
    NonEwald                         92.952634 [s]
    Tail                              1.335248 [s]

Gibbs volume                         21.258903 [s]
    Ewald                             9.969741 [s]
    NonEwald                         10.359523 [s]
    Tail                              0.748321 [s]

Property sampling                     0.309961 [s]
Energy/pressure sampling:             8.806664 [s]


Production run CPU timings of the MC moves summed over systems and components
===============================================================================


Translation                          29.932611 [s]
    Ewald                            17.301553 [s]
    ExternalField-Molecule            0.010852 [s]
    Framework-Molecule                0.021263 [s]
    Molecule-Molecule                10.798407 [s]
    Overhead                          1.800536 [s]

Rotation                             29.777649 [s]
    Ewald                            17.259153 [s]
    ExternalField-Molecule            0.011798 [s]
    Framework-Molecule                0.009873 [s]
    Molecule-Molecule                10.726253 [s]
    Overhead                          1.770572 [s]

Reinsertion (CBMC)                  101.281566 [s]
    Ewald                            16.819612 [s]
    NonEwald                         83.528581 [s]
    Overhead                          0.933373 [s]

Gibbs volume                         43.221772 [s]
    Ewald                            20.271627 [s]
    NonEwald                         21.068793 [s]
    Tail                              1.518599 [s]
    Overhead                          0.362753 [s]

Gibbs swap (CBMC)                   292.561913 [s]
    Ewald                            53.666485 [s]
    NonEwald                        233.293703 [s]
    Tail                              2.821304 [s]
    Overhead                          2.780421 [s]

Property sampling:                    0.548997 [s]
Energy/pressure sampling:             9.431884 [s]

Production simulation time:         508.394844 [s]
                All summed:         506.756392 [s]
                  Overhead:           1.638452 [s]


Initalization simulation time:      158.906030 [s]
Equilibration simulation time:        0.000000 [s]
Production simulation time:         508.394844 [s]
Total simulation time:              667.300874 [s]


Energy averages and statistics:
===============================================================================

Framework-molecule energy:
-------------------------------------------------------------------------------



Framework-molecule energy contributions per energy type:
-------------------------------------------------------------------------------



Inter-molecular energy:
-------------------------------------------------------------------------------

    Inter-molecular energy/kʙ 0-0 [CO2-CO2]:
    ---------------------------------------------------------------------------
        Block[  0] -2.893471e+05
        Block[  1] -2.833385e+05
        Block[  2] -2.824359e+05
        Block[  3] -2.938792e+05
        Block[  4] -2.863159e+05
        -----------------------------------------------------------------------
        Average  -2.870633e+05 +/-  5.807001e+03 [K]



Inter-molecular energy contributions per energy type:
-------------------------------------------------------------------------------

    Van der Waals energy/kʙ 0-0 [CO2-CO2]:
    ---------------------------------------------------------------------------
        Block[  0] -2.092036e+05
        Block[  1] -2.060509e+05
        Block[  2] -2.043560e+05
        Block[  3] -2.122717e+05
        Block[  4] -2.069226e+05
        -----------------------------------------------------------------------
        Average  -2.077610e+05 +/-  3.808732e+03 [K]

    VDW Tail-Correction energy/kʙ 0-0 [CO2-CO2]:
    ---------------------------------------------------------------------------
        Block[  0] -9.019232e+03
        Block[  1] -8.874292e+03
        Block[  2] -8.811070e+03
        Block[  3] -9.143589e+03
        Block[  4] -8.924773e+03
        -----------------------------------------------------------------------
        Average  -8.954591e+03 +/-  1.616694e+02 [K]

    Coulomb Real energy/kʙ 0-0 [CO2-CO2]:
    ---------------------------------------------------------------------------
        Block[  0] -5.630682e+04
        Block[  1] -5.407762e+04
        Block[  2] -5.479028e+04
        Block[  3] -5.738653e+04
        Block[  4] -5.575887e+04
        -----------------------------------------------------------------------
        Average  -5.566403e+04 +/-  1.603046e+03 [K]

    Coulomb Fourier energy/kʙ 0-0 [CO2-CO2]:
    ---------------------------------------------------------------------------
        Block[  0] -1.481744e+04
        Block[  1] -1.433568e+04
        Block[  2] -1.447860e+04
        Block[  3] -1.507740e+04
        Block[  4] -1.470970e+04
        -----------------------------------------------------------------------
        Average  -1.468377e+04 +/-  3.602100e+02 [K]


Total energy/kʙ
-------------------------------------------------------------------------------
    Block[  0] -2.893471e+05
    Block[  1] -2.833385e+05
    Block[  2] -2.824359e+05
    Block[  3] -2.938792e+05
    Block[  4] -2.863159e+05
    ---------------------------------------------------------------------------
    Average  -2.870633e+05 +/-  5.807001e+03 [K]

Pressure averages and statistics:
===============================================================================

Average pressure tensor: 
-------------------------------------------------------------------------------
 4.6692e+01 -1.9043e+00 -1.6944e+01 +/- 6.5986e+01 2.0144e+01 2.4795e+01 [bar]
-1.9043e+00  3.3656e+01  9.6247e+00 +/- 2.0144e+01 4.6863e+01 3.4046e+01 [bar]
-1.6944e+01  9.6247e+00  2.1366e+01 +/- 2.4795e+01 3.4046e+01 2.2121e+01 [bar]

    Block[  0]  4.831486e+07
    Block[  1]  4.869317e+07
    Block[  2]  4.935613e+07
    Block[  3]  4.917471e+07
    Block[  4]  4.858951e+07
    ---------------------------------------------------------------------------
    Ideal gas pressure   4.882568e+07 +/-  3.210157e-02 [Pa]
                         4.882568e+02 +/-  5.330595e+00 [bar]


    Block[  0] -4.543131e+07
    Block[  1] -4.524447e+07
    Block[  2] -4.552409e+07
    Block[  3] -4.519752e+07
    Block[  4] -4.577843e+07
    ---------------------------------------------------------------------------
    Excess pressure  -4.543517e+07 +/-  2.902195e+05 [Pa]
                     -4.543517e+02 +/-  2.902195e+00 [bar]


    Block[  0]  2.883554e+06
    Block[  1]  3.448699e+06
    Block[  2]  3.832037e+06
    Block[  3]  3.977185e+06
    Block[  4]  2.811074e+06
    ---------------------------------------------------------------------------
    Pressure average   3.390510e+06 +/-  6.613845e+05 [Pa]
                       3.390510e+01 +/-  6.613845e+00 [bar]


Enthalpy of adsorption
===============================================================================

Component 0 [CO2]
-------------------------------------------------------------------------------
    Block[  0] -1.836056e+03
    Block[  1] -1.444877e+03
    Block[  2] -2.129484e+03
    Block[  3] -2.036424e+03
    Block[  4] -2.552626e+03
    ---------------------------------------------------------------------------
    Enthalpy of adsorption: -1.999893e+03 +/-  5.037227e+02 [K]
                            -1.662804e+01 +/-  4.188185e+00 [kJ/mol]
    Warning: need to subtract the ideal-gas energy.


Densities
===============================================================================

Component 0 (CO2)
    Block[  0] 217.37833333333336
    Block[  1] 212.67333333333335
    Block[  2] 207.30416666666667
    Block[  3] 215.80333333333334
    Block[  4] 212.14416666666668
    -----------------------------------------------------------------------
    Density average   2.130607e+02 +/-  4.819849e+00 [molecules]
    Density average   1.309787e-02 +/-  1.429974e-04 [molec/A^3]
    Density average   9.569531e+02 +/-  1.044764e+01 [kg.m⁻³]

