Compiler and run-time data
===============================================================================
RASPA 3.0.4

Random seed: 2369418571

Compiled as a 64-bits application
Compiler: gcc Ubuntu Clang 18.1.3 (1ubuntu1)
Compile Date = Mar 15 2025, Compile Time = 19:39:45

2025-06-03 11:00:36.154710
Simulation started on Tue, Jun 03
The start time was 11:00:00

Hostname:    c061
OS type:     Linux on x86_64
OS release:  6.8.0-58-generic
OS version:  #60-Ubuntu SMP PREEMPT_DYNAMIC Fri Mar 14 18:29:48 UTC 2025


Mutual consistent basic set of units:
===============================================================================

Unit of temperature: 1 [K]
Unit of length:      1e-10 [m]
Unit of time:        1e-12 [s]
Unit of mass:        1.6605402e-27 [kg]
Unit of charge:      1.60217733e-19 [C/particle]


Boltzmann constant (internal units):          0.8314464919307584 [-]
represents conversion from energy (internal units) to temperature (in Kelvin)

Derived units and their conversion factors:
===============================================================================

Unit of energy:                           1.6605402000000002e-23 [J]
Unit of energy:                           10.000008872307538 [J.mol⁻¹]
Unit of velocity:                         100 [m.s⁻¹]
Unit of force:                            1.6605402000000002e-13 [N]
Unit of diffusion:                        1.0000000000000002e-08 [m².s⁻¹]
Unit of acceleration:                     1.0000000000000002e-08 [m².s⁻¹]
Unit of torque:                           1.6605402000000002e-23 [N.m]
Unit of pressure:                         16605402 [Pa]
Unit of volume:                           1e-30 [m³]
Unit of density:                          1660.5402 [kg.m⁻³]
Unit of dynamic viscosity:                1.6605401999999997e-05 [N.s.m⁻²]
Unit of enthalpy:                         1.6605402000000002e-23 [J]
Unit of polarizability:                   1.5458657349975198e-35 [-]
Unit of Coulomb potential:                167101.08000665612 [K]
Unit of dielectric constant:              1.5458657349975193e-05 [s².C².kg⁻¹.m⁻³]
Unit of dipole moment:                    1.60217733e-29 [C.m]
Unit of Debye:                            4.803206799099162 [C.m]
Unit of electric potential:               0.00010364272224473431 [V]
Unit of electric field:                   1036427.222447343 [V.m⁻¹]
Unit of isothermal compressibility:       6.02213665167516e-08 [Pa⁻¹]
Unit of heat capacity:                    10.000008872307538 [J.mol⁻¹.K⁻¹]
Unit of volumetric expansion coefficient: 1 [K⁻¹]


Internal conversion factors:
===============================================================================

Energy (internal units) to Kelvin:      1.202724284692786 [-]
Kelvin to energy (internal units):      0.8314457542157567 [-]


System definitions
===============================================================================

Temperature:          250 [K]
Beta:                 0.0048108928702210625 [-]
Pressure:             0 [Pa]
Helium void fraction: 1 [-]

Box:      30.00000   0.00000   0.00000
           0.00000  30.00000   0.00000
           0.00000   0.00000  30.00000
Lengths:  30.00000  30.00000  30.00000
Angles:   90.00000  90.00000  90.00000
Rectangular boundary conditions



Property measurement settings
===============================================================================




Pseudo-atoms
===============================================================================

  0 - C_co2    framework-atom: false
  1 - O_co2    framework-atom: false

  0 - C_co2    mass: 12.00000, charge:  0.70000
  1 - O_co2    mass: 15.99940, charge: -0.35000

  0 - C_co2    polarizability:  0.00000
  1 - O_co2    polarizability:  0.00000

  0 - J. J. Potoff et al., AIChE J. 2001, 47, 1676–1682.
  1 - J. J. Potoff et al., AIChE J. 2001, 47, 1676–1682.

Force field status
===============================================================================

Cutoff Framework-Molecule VDW:  12.00000 [Å]
Cutoff Molecule-Molecule VDW:   12.00000 [Å]
Cutoff Coulomb:                 12.00000 [Å]

Overlap-criteria VDW:           1.000000e+05 [K]

C_co2    - C_co2    Lennard-Jones p₀/kʙ:  27.00000 [K], p₁:  2.80000 [Å]
                                  shift:   0.00000 [K], tailcorrections: true
C_co2    - O_co2    Lennard-Jones p₀/kʙ:  46.18441 [K], p₁:  2.92500 [Å]
                                  shift:   0.00000 [K], tailcorrections: true
O_co2    - O_co2    Lennard-Jones p₀/kʙ:  79.00000 [K], p₁:  3.05000 [Å]
                                  shift:   0.00000 [K], tailcorrections: true

Ewald precision: 1e-06
Ewald alpha: 0.26505830360350674
Ewald k-vectors: 8 8 8


Component definitions
===============================================================================

Component 0 [CO2]

    Type: Adsorbate

    Critical temperature:  304.1282 [K]
    Critical pressure:     7377300 [Pa]
    Acentric factor:       0.22394 [-]

    Mol-fraction:                 1 [-]
    Swappable:                   true

    Mass:                         43.9988 [-]
    Fugacity coefficient:         -nan [-]
    Bulk fluid density:           0 [-]
    Compressibility:              1 [-]
    Excess molecules:             0 [-]

    Number Of Atoms:    3
    CBMC starting bead: 0
      0: O_co2  position  0.00000 -0.00000  1.16000, charge -0.35000
      1: C_co2  position  0.00000 -0.00000  0.00000, charge  0.70000
      2: O_co2  position  0.00000 -0.00000 -1.16000, charge -0.35000
    Diagonalized inertia-vector:      43.05758528 43.05758528 0.00000000
    Translational degrees of freedom: 3
    Rotational degrees of freedom:    2
    Shape of the molecule is: 'Linear'
    Net-charge:        0.00000000 [e]

    Move probabilities:
    Translation:                   0.199203 [-]
    Random translation:            0.000000 [-]
    Rotation:                      0.199203 [-]
    Random rotation:               0.000000 [-]
    Volume change:                 0.000000 [-]
    Reinsertion (CBMC):            0.199203 [-]
    Identity change (CBMC):        0.000000 [-]
    Swap:                          0.000000 [-]
    Swap (CBMC):                   0.000000 [-]
    Swap (CFCMC):                  0.000000 [-]
    Swap (CB/CFCMC):               0.000000 [-]
    Gibbs volume:                  0.003984 [-]
    Gibbs swap (CBMC):             0.398406 [-]
    Gibbs swap (CFCMC):            0.000000 [-]
    Widom:                         0.000000 [-]
    Widom (CFCMC):                 0.000000 [-]
    Widom (CB/CFCMC):              0.000000 [-]
    Parallel tempering:            0.000000 [-]
    Hybrid MC:                     0.000000 [-]

    number of blocking-pockets: 0

    number of bonds: 0





Number of pseudo-atoms
===============================================================================

Component   0 (CO2)
-------------------------------------------------------------------------------
    index   0 (C_co2): 40 atoms
    index   1 (O_co2): 80 atoms

Total number of pseudo-atoms:
-------------------------------------------------------------------------------
    index   0 (C_co2): 40 atoms
    index   1 (O_co2): 80 atoms




Energy status Recomputed from scratch
===============================================================================

Total potential energy/kʙ       -7.659218e+03 [K]
    external field VDW/kʙ        0.000000e+00 [K]
    external field Real/kʙ       0.000000e+00 [K]
    framework-molecule VDW/kʙ    0.000000e+00 [K]
    framework-molecule Real/kʙ   0.000000e+00 [K]
    molecule-molecule VDW/kʙ    -5.733511e+03 [K]
    molecule-molecule Real/kʙ   -1.791780e+03 [K]
    Van der Waals (Tail)/kʙ     -1.100506e+02 [K]
    Ewald Fourier/kʙ             2.328349e+03 [K]
    Ewald self/kʙ               -7.346713e+05 [K]
    Ewald exclusion/kʙ           7.323191e+05 [K]
    intra VDW/kʙ                 0.000000e+00 [K]
    intra Coulombic/kʙ           0.000000e+00 [K]
    polarization/kʙ              0.000000e+00 [K]
    dU/dlambda VDW/kʙ            0.000000e+00 [K]
    dU/dlambda Real/kʙ           0.000000e+00 [K]
    dU/dlambda Ewald/kʙ          0.000000e+00 [K]





Initialization: Current cycle: 0 out of 2000
===============================================================================

Box:      29.53361   0.00000   0.00000
           0.00000  29.53361   0.00000
           0.00000   0.00000  29.53361
Lengths:  29.53361  29.53361  29.53361
Angles:   90.00000  90.00000  90.00000
Rectangular boundary conditions

net charge:   0.00000000

component   0 (CO2) lambda:  0 occupancy:  1 (1.000000)
    net charge:   0.00000000 [e]

Amount of molecules per component :
-------------------------------------------------------------------------------
Component 0 (CO2)
    molecules:         4.300000e+01 molecules
    number density:    1.669240e-03 molec/A^3
    density:           1.219575e+02 kg/m^3

Total potential energy/kʙ       -9.239110e+03 [K]
-------------------------------------------------------------------------------
    external field VDW/kʙ        0.000000e+00 [K]
    external field Real/kʙ       0.000000e+00 [K]
    framework-molecule VDW/kʙ    0.000000e+00 [K]
    framework-molecule Real/kʙ   0.000000e+00 [K]
    molecule-molecule VDW/kʙ    -6.160795e+03 [K]
    molecule-molecule Real/kʙ   -2.765140e+03 [K]
    Van der Waals (Tail)/kʙ     -1.332979e+02 [K]
    Ewald Fourier/kʙ             2.348766e+03 [K]
    Ewald self/kʙ               -7.897716e+05 [K]
    Ewald exclusion/kʙ           7.872430e+05 [K]
    intra VDW/kʙ                 0.000000e+00 [K]
    intra Coulombic/kʙ           0.000000e+00 [K]
    polarization/kʙ              0.000000e+00 [K]
    dU/dlambda VDW/kʙ            0.000000e+00 [K]
    dU/dlambda Real/kʙ           0.000000e+00 [K]
    dU/dlambda Ewald/kʙ          0.000000e+00 [K]


Initialization: Current cycle: 100 out of 2000
===============================================================================

Box:      30.12048   0.00000   0.00000
           0.00000  30.12048   0.00000
           0.00000   0.00000  30.12048
Lengths:  30.12048  30.12048  30.12048
Angles:   90.00000  90.00000  90.00000
Rectangular boundary conditions

net charge:   0.00000000

component   0 (CO2) lambda:  0 occupancy:  1 (1.000000)
    net charge:   0.00000000 [e]

Amount of molecules per component :
-------------------------------------------------------------------------------
Component 0 (CO2)
    molecules:         9.000000e+00 molecules
    number density:    3.293495e-04 molec/A^3
    density:           2.406284e+01 kg/m^3

Total potential energy/kʙ       -3.816273e+02 [K]
-------------------------------------------------------------------------------
    external field VDW/kʙ        0.000000e+00 [K]
    external field Real/kʙ       0.000000e+00 [K]
    framework-molecule VDW/kʙ    0.000000e+00 [K]
    framework-molecule Real/kʙ   0.000000e+00 [K]
    molecule-molecule VDW/kʙ    -5.217771e+02 [K]
    molecule-molecule Real/kʙ    1.213810e+02 [K]
    Van der Waals (Tail)/kʙ     -5.504726e+00 [K]
    Ewald Fourier/kʙ             5.535243e+02 [K]
    Ewald self/kʙ               -1.653010e+05 [K]
    Ewald exclusion/kʙ           1.647718e+05 [K]
    intra VDW/kʙ                 0.000000e+00 [K]
    intra Coulombic/kʙ           0.000000e+00 [K]
    polarization/kʙ              0.000000e+00 [K]
    dU/dlambda VDW/kʙ            0.000000e+00 [K]
    dU/dlambda Real/kʙ           0.000000e+00 [K]
    dU/dlambda Ewald/kʙ          0.000000e+00 [K]


Initialization: Current cycle: 200 out of 2000
===============================================================================

Box:      31.05573   0.00000   0.00000
           0.00000  31.05573   0.00000
           0.00000   0.00000  31.05573
Lengths:  31.05573  31.05573  31.05573
Angles:   90.00000  90.00000  90.00000
Rectangular boundary conditions

net charge:   0.00000000

component   0 (CO2) lambda:  0 occupancy:  1 (1.000000)
    net charge:   0.00000000 [e]

Amount of molecules per component :
-------------------------------------------------------------------------------
Component 0 (CO2)
    molecules:         1.500000e+01 molecules
    number density:    5.008020e-04 molec/A^3
    density:           3.658945e+01 kg/m^3

Total potential energy/kʙ       -5.042055e+02 [K]
-------------------------------------------------------------------------------
    external field VDW/kʙ        0.000000e+00 [K]
    external field Real/kʙ       0.000000e+00 [K]
    framework-molecule VDW/kʙ    0.000000e+00 [K]
    framework-molecule Real/kʙ   0.000000e+00 [K]
    molecule-molecule VDW/kʙ    -5.675059e+02 [K]
    molecule-molecule Real/kʙ    9.588127e+01 [K]
    Van der Waals (Tail)/kʙ     -1.395062e+01 [K]
    Ewald Fourier/kʙ             8.634543e+02 [K]
    Ewald self/kʙ               -2.755017e+05 [K]
    Ewald exclusion/kʙ           2.746196e+05 [K]
    intra VDW/kʙ                 0.000000e+00 [K]
    intra Coulombic/kʙ           0.000000e+00 [K]
    polarization/kʙ              0.000000e+00 [K]
    dU/dlambda VDW/kʙ            0.000000e+00 [K]
    dU/dlambda Real/kʙ           0.000000e+00 [K]
    dU/dlambda Ewald/kʙ          0.000000e+00 [K]


Initialization: Current cycle: 300 out of 2000
===============================================================================

Box:      32.15170   0.00000   0.00000
           0.00000  32.15170   0.00000
           0.00000   0.00000  32.15170
Lengths:  32.15170  32.15170  32.15170
Angles:   90.00000  90.00000  90.00000
Rectangular boundary conditions

net charge:   0.00000000

component   0 (CO2) lambda:  0 occupancy:  1 (1.000000)
    net charge:   0.00000000 [e]

Amount of molecules per component :
-------------------------------------------------------------------------------
Component 0 (CO2)
    molecules:         1.700000e+01 molecules
    number density:    5.114899e-04 molec/A^3
    density:           3.737033e+01 kg/m^3

Total potential energy/kʙ       -2.427995e+03 [K]
-------------------------------------------------------------------------------
    external field VDW/kʙ        0.000000e+00 [K]
    external field Real/kʙ       0.000000e+00 [K]
    framework-molecule VDW/kʙ    0.000000e+00 [K]
    framework-molecule Real/kʙ   0.000000e+00 [K]
    molecule-molecule VDW/kʙ    -1.644320e+03 [K]
    molecule-molecule Real/kʙ   -6.427712e+02 [K]
    Van der Waals (Tail)/kʙ     -1.614813e+01 [K]
    Ewald Fourier/kʙ             8.749404e+02 [K]
    Ewald self/kʙ               -3.122353e+05 [K]
    Ewald exclusion/kʙ           3.112356e+05 [K]
    intra VDW/kʙ                 0.000000e+00 [K]
    intra Coulombic/kʙ           0.000000e+00 [K]
    polarization/kʙ              0.000000e+00 [K]
    dU/dlambda VDW/kʙ            0.000000e+00 [K]
    dU/dlambda Real/kʙ           0.000000e+00 [K]
    dU/dlambda Ewald/kʙ          0.000000e+00 [K]


Initialization: Current cycle: 400 out of 2000
===============================================================================

Box:      32.77571   0.00000   0.00000
           0.00000  32.77571   0.00000
           0.00000   0.00000  32.77571
Lengths:  32.77571  32.77571  32.77571
Angles:   90.00000  90.00000  90.00000
Rectangular boundary conditions

net charge:   0.00000000

component   0 (CO2) lambda:  0 occupancy:  1 (1.000000)
    net charge:   0.00000000 [e]

Amount of molecules per component :
-------------------------------------------------------------------------------
Component 0 (CO2)
    molecules:         1.400000e+01 molecules
    number density:    3.976233e-04 molec/A^3
    density:           2.905104e+01 kg/m^3

Total potential energy/kʙ       -2.044325e+02 [K]
-------------------------------------------------------------------------------
    external field VDW/kʙ        0.000000e+00 [K]
    external field Real/kʙ       0.000000e+00 [K]
    framework-molecule VDW/kʙ    0.000000e+00 [K]
    framework-molecule Real/kʙ   0.000000e+00 [K]
    molecule-molecule VDW/kʙ    -2.923477e+02 [K]
    molecule-molecule Real/kʙ    1.196992e+02 [K]
    Van der Waals (Tail)/kʙ     -1.033799e+01 [K]
    Ewald Fourier/kʙ             8.018330e+02 [K]
    Ewald self/kʙ               -2.571349e+05 [K]
    Ewald exclusion/kʙ           2.563117e+05 [K]
    intra VDW/kʙ                 0.000000e+00 [K]
    intra Coulombic/kʙ           0.000000e+00 [K]
    polarization/kʙ              0.000000e+00 [K]
    dU/dlambda VDW/kʙ            0.000000e+00 [K]
    dU/dlambda Real/kʙ           0.000000e+00 [K]
    dU/dlambda Ewald/kʙ          0.000000e+00 [K]


Initialization: Current cycle: 500 out of 2000
===============================================================================

Box:      33.35660   0.00000   0.00000
           0.00000  33.35660   0.00000
           0.00000   0.00000  33.35660
Lengths:  33.35660  33.35660  33.35660
Angles:   90.00000  90.00000  90.00000
Rectangular boundary conditions

net charge:   0.00000000

component   0 (CO2) lambda:  0 occupancy:  1 (1.000000)
    net charge:   0.00000000 [e]

Amount of molecules per component :
-------------------------------------------------------------------------------
Component 0 (CO2)
    molecules:         2.000000e+01 molecules
    number density:    5.388706e-04 molec/A^3
    density:           3.937081e+01 kg/m^3

Total potential energy/kʙ       -2.688350e+03 [K]
-------------------------------------------------------------------------------
    external field VDW/kʙ        0.000000e+00 [K]
    external field Real/kʙ       0.000000e+00 [K]
    framework-molecule VDW/kʙ    0.000000e+00 [K]
    framework-molecule Real/kʙ   0.000000e+00 [K]
    molecule-molecule VDW/kʙ    -1.768172e+03 [K]
    molecule-molecule Real/kʙ   -7.704692e+02 [K]
    Van der Waals (Tail)/kʙ     -2.001478e+01 [K]
    Ewald Fourier/kʙ             1.046419e+03 [K]
    Ewald self/kʙ               -3.673356e+05 [K]
    Ewald exclusion/kʙ           3.661595e+05 [K]
    intra VDW/kʙ                 0.000000e+00 [K]
    intra Coulombic/kʙ           0.000000e+00 [K]
    polarization/kʙ              0.000000e+00 [K]
    dU/dlambda VDW/kʙ            0.000000e+00 [K]
    dU/dlambda Real/kʙ           0.000000e+00 [K]
    dU/dlambda Ewald/kʙ          0.000000e+00 [K]


Initialization: Current cycle: 600 out of 2000
===============================================================================

Box:      33.49670   0.00000   0.00000
           0.00000  33.49670   0.00000
           0.00000   0.00000  33.49670
Lengths:  33.49670  33.49670  33.49670
Angles:   90.00000  90.00000  90.00000
Rectangular boundary conditions

net charge:   0.00000000

component   0 (CO2) lambda:  0 occupancy:  1 (1.000000)
    net charge:   0.00000000 [e]

Amount of molecules per component :
-------------------------------------------------------------------------------
Component 0 (CO2)
    molecules:         1.600000e+01 molecules
    number density:    4.257102e-04 molec/A^3
    density:           3.110311e+01 kg/m^3

Total potential energy/kʙ       -4.669721e+02 [K]
-------------------------------------------------------------------------------
    external field VDW/kʙ        0.000000e+00 [K]
    external field Real/kʙ       0.000000e+00 [K]
    framework-molecule VDW/kʙ    0.000000e+00 [K]
    framework-molecule Real/kʙ   0.000000e+00 [K]
    molecule-molecule VDW/kʙ    -7.112304e+02 [K]
    molecule-molecule Real/kʙ    2.889720e+02 [K]
    Van der Waals (Tail)/kʙ     -1.264941e+01 [K]
    Ewald Fourier/kʙ             9.088260e+02 [K]
    Ewald self/kʙ               -2.938685e+05 [K]
    Ewald exclusion/kʙ           2.929276e+05 [K]
    intra VDW/kʙ                 0.000000e+00 [K]
    intra Coulombic/kʙ           0.000000e+00 [K]
    polarization/kʙ              0.000000e+00 [K]
    dU/dlambda VDW/kʙ            0.000000e+00 [K]
    dU/dlambda Real/kʙ           0.000000e+00 [K]
    dU/dlambda Ewald/kʙ          0.000000e+00 [K]


Initialization: Current cycle: 700 out of 2000
===============================================================================

Box:      33.45948   0.00000   0.00000
           0.00000  33.45948   0.00000
           0.00000   0.00000  33.45948
Lengths:  33.45948  33.45948  33.45948
Angles:   90.00000  90.00000  90.00000
Rectangular boundary conditions

net charge:   0.00000000

component   0 (CO2) lambda:  0 occupancy:  1 (1.000000)
    net charge:   0.00000000 [e]

Amount of molecules per component :
-------------------------------------------------------------------------------
Component 0 (CO2)
    molecules:         1.300000e+01 molecules
    number density:    3.470449e-04 molec/A^3
    density:           2.535569e+01 kg/m^3

Total potential energy/kʙ       -2.832047e+02 [K]
-------------------------------------------------------------------------------
    external field VDW/kʙ        0.000000e+00 [K]
    external field Real/kʙ       0.000000e+00 [K]
    framework-molecule VDW/kʙ    0.000000e+00 [K]
    framework-molecule Real/kʙ   0.000000e+00 [K]
    molecule-molecule VDW/kʙ    -2.650811e+02 [K]
    molecule-molecule Real/kʙ   -2.486957e+01 [K]
    Van der Waals (Tail)/kʙ     -8.378479e+00 [K]
    Ewald Fourier/kʙ             7.795978e+02 [K]
    Ewald self/kʙ               -2.387682e+05 [K]
    Ewald exclusion/kʙ           2.380037e+05 [K]
    intra VDW/kʙ                 0.000000e+00 [K]
    intra Coulombic/kʙ           0.000000e+00 [K]
    polarization/kʙ              0.000000e+00 [K]
    dU/dlambda VDW/kʙ            0.000000e+00 [K]
    dU/dlambda Real/kʙ           0.000000e+00 [K]
    dU/dlambda Ewald/kʙ          0.000000e+00 [K]


Initialization: Current cycle: 800 out of 2000
===============================================================================

Box:      33.33972   0.00000   0.00000
           0.00000  33.33972   0.00000
           0.00000   0.00000  33.33972
Lengths:  33.33972  33.33972  33.33972
Angles:   90.00000  90.00000  90.00000
Rectangular boundary conditions

net charge:   0.00000000

component   0 (CO2) lambda:  0 occupancy:  1 (1.000000)
    net charge:   0.00000000 [e]

Amount of molecules per component :
-------------------------------------------------------------------------------
Component 0 (CO2)
    molecules:         1.800000e+01 molecules
    number density:    4.857210e-04 molec/A^3
    density:           3.548760e+01 kg/m^3

Total potential energy/kʙ       -1.700514e+03 [K]
-------------------------------------------------------------------------------
    external field VDW/kʙ        0.000000e+00 [K]
    external field Real/kʙ       0.000000e+00 [K]
    framework-molecule VDW/kʙ    0.000000e+00 [K]
    framework-molecule Real/kʙ   0.000000e+00 [K]
    molecule-molecule VDW/kʙ    -1.214449e+03 [K]
    molecule-molecule Real/kʙ   -4.495595e+02 [K]
    Van der Waals (Tail)/kʙ     -1.623662e+01 [K]
    Ewald Fourier/kʙ             1.038233e+03 [K]
    Ewald self/kʙ               -3.306021e+05 [K]
    Ewald exclusion/kʙ           3.295436e+05 [K]
    intra VDW/kʙ                 0.000000e+00 [K]
    intra Coulombic/kʙ           0.000000e+00 [K]
    polarization/kʙ              0.000000e+00 [K]
    dU/dlambda VDW/kʙ            0.000000e+00 [K]
    dU/dlambda Real/kʙ           0.000000e+00 [K]
    dU/dlambda Ewald/kʙ          0.000000e+00 [K]


Initialization: Current cycle: 900 out of 2000
===============================================================================

Box:      33.59015   0.00000   0.00000
           0.00000  33.59015   0.00000
           0.00000   0.00000  33.59015
Lengths:  33.59015  33.59015  33.59015
Angles:   90.00000  90.00000  90.00000
Rectangular boundary conditions

net charge:   0.00000000

component   0 (CO2) lambda:  0 occupancy:  1 (1.000000)
    net charge:   0.00000000 [e]

Amount of molecules per component :
-------------------------------------------------------------------------------
Component 0 (CO2)
    molecules:         1.700000e+01 molecules
    number density:    4.485524e-04 molec/A^3
    density:           3.277200e+01 kg/m^3

Total potential energy/kʙ       -7.216365e+02 [K]
-------------------------------------------------------------------------------
    external field VDW/kʙ        0.000000e+00 [K]
    external field Real/kʙ       0.000000e+00 [K]
    framework-molecule VDW/kʙ    0.000000e+00 [K]
    framework-molecule Real/kʙ   0.000000e+00 [K]
    molecule-molecule VDW/kʙ    -4.754190e+02 [K]
    molecule-molecule Real/kʙ   -2.265406e+02 [K]
    Van der Waals (Tail)/kʙ     -1.416114e+01 [K]
    Ewald Fourier/kʙ             9.941801e+02 [K]
    Ewald self/kʙ               -3.122353e+05 [K]
    Ewald exclusion/kʙ           3.112356e+05 [K]
    intra VDW/kʙ                 0.000000e+00 [K]
    intra Coulombic/kʙ           0.000000e+00 [K]
    polarization/kʙ              0.000000e+00 [K]
    dU/dlambda VDW/kʙ            0.000000e+00 [K]
    dU/dlambda Real/kʙ           0.000000e+00 [K]
    dU/dlambda Ewald/kʙ          0.000000e+00 [K]


Initialization: Current cycle: 1000 out of 2000
===============================================================================

Box:      33.65438   0.00000   0.00000
           0.00000  33.65438   0.00000
           0.00000   0.00000  33.65438
Lengths:  33.65438  33.65438  33.65438
Angles:   90.00000  90.00000  90.00000
Rectangular boundary conditions

net charge:   0.00000000

component   0 (CO2) lambda:  0 occupancy:  1 (1.000000)
    net charge:   0.00000000 [e]

Amount of molecules per component :
-------------------------------------------------------------------------------
Component 0 (CO2)
    molecules:         2.500000e+01 molecules
    number density:    6.558663e-04 molec/A^3
    density:           4.791871e+01 kg/m^3

Total potential energy/kʙ       -2.771413e+03 [K]
-------------------------------------------------------------------------------
    external field VDW/kʙ        0.000000e+00 [K]
    external field Real/kʙ       0.000000e+00 [K]
    framework-molecule VDW/kʙ    0.000000e+00 [K]
    framework-molecule Real/kʙ   0.000000e+00 [K]
    molecule-molecule VDW/kʙ    -1.553642e+03 [K]
    molecule-molecule Real/kʙ   -1.102519e+03 [K]
    Van der Waals (Tail)/kʙ     -3.045030e+01 [K]
    Ewald Fourier/kʙ             1.385339e+03 [K]
    Ewald self/kʙ               -4.591696e+05 [K]
    Ewald exclusion/kʙ           4.576994e+05 [K]
    intra VDW/kʙ                 0.000000e+00 [K]
    intra Coulombic/kʙ           0.000000e+00 [K]
    polarization/kʙ              0.000000e+00 [K]
    dU/dlambda VDW/kʙ            0.000000e+00 [K]
    dU/dlambda Real/kʙ           0.000000e+00 [K]
    dU/dlambda Ewald/kʙ          0.000000e+00 [K]


Initialization: Current cycle: 1100 out of 2000
===============================================================================

Box:      33.58505   0.00000   0.00000
           0.00000  33.58505   0.00000
           0.00000   0.00000  33.58505
Lengths:  33.58505  33.58505  33.58505
Angles:   90.00000  90.00000  90.00000
Rectangular boundary conditions

net charge:   0.00000000

component   0 (CO2) lambda:  0 occupancy:  1 (1.000000)
    net charge:   0.00000000 [e]

Amount of molecules per component :
-------------------------------------------------------------------------------
Component 0 (CO2)
    molecules:         2.400000e+01 molecules
    number density:    6.335386e-04 molec/A^3
    density:           4.628741e+01 kg/m^3

Total potential energy/kʙ       -1.743385e+03 [K]
-------------------------------------------------------------------------------
    external field VDW/kʙ        0.000000e+00 [K]
    external field Real/kʙ       0.000000e+00 [K]
    framework-molecule VDW/kʙ    0.000000e+00 [K]
    framework-molecule Real/kʙ   0.000000e+00 [K]
    molecule-molecule VDW/kʙ    -1.924138e+03 [K]
    molecule-molecule Real/kʙ    1.153364e+02 [K]
    Van der Waals (Tail)/kʙ     -2.823713e+01 [K]
    Ewald Fourier/kʙ             1.504989e+03 [K]
    Ewald self/kʙ               -4.408028e+05 [K]
    Ewald exclusion/kʙ           4.393914e+05 [K]
    intra VDW/kʙ                 0.000000e+00 [K]
    intra Coulombic/kʙ           0.000000e+00 [K]
    polarization/kʙ              0.000000e+00 [K]
    dU/dlambda VDW/kʙ            0.000000e+00 [K]
    dU/dlambda Real/kʙ           0.000000e+00 [K]
    dU/dlambda Ewald/kʙ          0.000000e+00 [K]


Initialization: Current cycle: 1200 out of 2000
===============================================================================

Box:      33.60183   0.00000   0.00000
           0.00000  33.60183   0.00000
           0.00000   0.00000  33.60183
Lengths:  33.60183  33.60183  33.60183
Angles:   90.00000  90.00000  90.00000
Rectangular boundary conditions

net charge:   0.00000000

component   0 (CO2) lambda:  0 occupancy:  1 (1.000000)
    net charge:   0.00000000 [e]

Amount of molecules per component :
-------------------------------------------------------------------------------
Component 0 (CO2)
    molecules:         1.500000e+01 molecules
    number density:    3.953687e-04 molec/A^3
    density:           2.888632e+01 kg/m^3

Total potential energy/kʙ       -1.752267e+02 [K]
-------------------------------------------------------------------------------
    external field VDW/kʙ        0.000000e+00 [K]
    external field Real/kʙ       0.000000e+00 [K]
    framework-molecule VDW/kʙ    0.000000e+00 [K]
    framework-molecule Real/kʙ   0.000000e+00 [K]
    molecule-molecule VDW/kʙ    -2.981268e+01 [K]
    molecule-molecule Real/kʙ   -9.303449e+01 [K]
    Van der Waals (Tail)/kʙ     -1.101361e+01 [K]
    Ewald Fourier/kʙ             8.407187e+02 [K]
    Ewald self/kʙ               -2.755017e+05 [K]
    Ewald exclusion/kʙ           2.746196e+05 [K]
    intra VDW/kʙ                 0.000000e+00 [K]
    intra Coulombic/kʙ           0.000000e+00 [K]
    polarization/kʙ              0.000000e+00 [K]
    dU/dlambda VDW/kʙ            0.000000e+00 [K]
    dU/dlambda Real/kʙ           0.000000e+00 [K]
    dU/dlambda Ewald/kʙ          0.000000e+00 [K]


Initialization: Current cycle: 1300 out of 2000
===============================================================================

Box:      33.32690   0.00000   0.00000
           0.00000  33.32690   0.00000
           0.00000   0.00000  33.32690
Lengths:  33.32690  33.32690  33.32690
Angles:   90.00000  90.00000  90.00000
Rectangular boundary conditions

net charge:   0.00000000

component   0 (CO2) lambda:  0 occupancy:  1 (1.000000)
    net charge:   0.00000000 [e]

Amount of molecules per component :
-------------------------------------------------------------------------------
Component 0 (CO2)
    molecules:         1.800000e+01 molecules
    number density:    4.862815e-04 molec/A^3
    density:           3.552856e+01 kg/m^3

Total potential energy/kʙ       -8.167905e+02 [K]
-------------------------------------------------------------------------------
    external field VDW/kʙ        0.000000e+00 [K]
    external field Real/kʙ       0.000000e+00 [K]
    framework-molecule VDW/kʙ    0.000000e+00 [K]
    framework-molecule Real/kʙ   0.000000e+00 [K]
    molecule-molecule VDW/kʙ    -3.954965e+02 [K]
    molecule-molecule Real/kʙ   -4.111699e+02 [K]
    Van der Waals (Tail)/kʙ     -1.625535e+01 [K]
    Ewald Fourier/kʙ             1.064633e+03 [K]
    Ewald self/kʙ               -3.306021e+05 [K]
    Ewald exclusion/kʙ           3.295436e+05 [K]
    intra VDW/kʙ                 0.000000e+00 [K]
    intra Coulombic/kʙ           0.000000e+00 [K]
    polarization/kʙ              0.000000e+00 [K]
    dU/dlambda VDW/kʙ            0.000000e+00 [K]
    dU/dlambda Real/kʙ           0.000000e+00 [K]
    dU/dlambda Ewald/kʙ          0.000000e+00 [K]


Initialization: Current cycle: 1400 out of 2000
===============================================================================

Box:      33.36878   0.00000   0.00000
           0.00000  33.36878   0.00000
           0.00000   0.00000  33.36878
Lengths:  33.36878  33.36878  33.36878
Angles:   90.00000  90.00000  90.00000
Rectangular boundary conditions

net charge:   0.00000000

component   0 (CO2) lambda:  0 occupancy:  1 (1.000000)
    net charge:   0.00000000 [e]

Amount of molecules per component :
-------------------------------------------------------------------------------
Component 0 (CO2)
    molecules:         1.300000e+01 molecules
    number density:    3.498826e-04 molec/A^3
    density:           2.556302e+01 kg/m^3

Total potential energy/kʙ       -4.588168e+02 [K]
-------------------------------------------------------------------------------
    external field VDW/kʙ        0.000000e+00 [K]
    external field Real/kʙ       0.000000e+00 [K]
    framework-molecule VDW/kʙ    0.000000e+00 [K]
    framework-molecule Real/kʙ   0.000000e+00 [K]
    molecule-molecule VDW/kʙ    -3.589387e+02 [K]
    molecule-molecule Real/kʙ   -5.317765e+01 [K]
    Van der Waals (Tail)/kʙ     -8.446989e+00 [K]
    Ewald Fourier/kʙ             7.262199e+02 [K]
    Ewald self/kʙ               -2.387682e+05 [K]
    Ewald exclusion/kʙ           2.380037e+05 [K]
    intra VDW/kʙ                 0.000000e+00 [K]
    intra Coulombic/kʙ           0.000000e+00 [K]
    polarization/kʙ              0.000000e+00 [K]
    dU/dlambda VDW/kʙ            0.000000e+00 [K]
    dU/dlambda Real/kʙ           0.000000e+00 [K]
    dU/dlambda Ewald/kʙ          0.000000e+00 [K]


Initialization: Current cycle: 1500 out of 2000
===============================================================================

Box:      33.33224   0.00000   0.00000
           0.00000  33.33224   0.00000
           0.00000   0.00000  33.33224
Lengths:  33.33224  33.33224  33.33224
Angles:   90.00000  90.00000  90.00000
Rectangular boundary conditions

net charge:   0.00000000

component   0 (CO2) lambda:  0 occupancy:  1 (1.000000)
    net charge:   0.00000000 [e]

Amount of molecules per component :
-------------------------------------------------------------------------------
Component 0 (CO2)
    molecules:         1.300000e+01 molecules
    number density:    3.510344e-04 molec/A^3
    density:           2.564718e+01 kg/m^3

Total potential energy/kʙ       -8.572921e+02 [K]
-------------------------------------------------------------------------------
    external field VDW/kʙ        0.000000e+00 [K]
    external field Real/kʙ       0.000000e+00 [K]
    framework-molecule VDW/kʙ    0.000000e+00 [K]
    framework-molecule Real/kʙ   0.000000e+00 [K]
    molecule-molecule VDW/kʙ    -5.370611e+02 [K]
    molecule-molecule Real/kʙ   -3.118807e+02 [K]
    Van der Waals (Tail)/kʙ     -8.474796e+00 [K]
    Ewald Fourier/kʙ             7.645978e+02 [K]
    Ewald self/kʙ               -2.387682e+05 [K]
    Ewald exclusion/kʙ           2.380037e+05 [K]
    intra VDW/kʙ                 0.000000e+00 [K]
    intra Coulombic/kʙ           0.000000e+00 [K]
    polarization/kʙ              0.000000e+00 [K]
    dU/dlambda VDW/kʙ            0.000000e+00 [K]
    dU/dlambda Real/kʙ           0.000000e+00 [K]
    dU/dlambda Ewald/kʙ          0.000000e+00 [K]


Initialization: Current cycle: 1600 out of 2000
===============================================================================

Box:      33.43628   0.00000   0.00000
           0.00000  33.43628   0.00000
           0.00000   0.00000  33.43628
Lengths:  33.43628  33.43628  33.43628
Angles:   90.00000  90.00000  90.00000
Rectangular boundary conditions

net charge:   0.00000000

component   0 (CO2) lambda:  0 occupancy:  1 (1.000000)
    net charge:   0.00000000 [e]

Amount of molecules per component :
-------------------------------------------------------------------------------
Component 0 (CO2)
    molecules:         1.400000e+01 molecules
    number density:    3.745192e-04 molec/A^3
    density:           2.736301e+01 kg/m^3

Total potential energy/kʙ       -1.988264e+03 [K]
-------------------------------------------------------------------------------
    external field VDW/kʙ        0.000000e+00 [K]
    external field Real/kʙ       0.000000e+00 [K]
    framework-molecule VDW/kʙ    0.000000e+00 [K]
    framework-molecule Real/kʙ   0.000000e+00 [K]
    molecule-molecule VDW/kʙ    -1.246688e+03 [K]
    molecule-molecule Real/kʙ   -7.478981e+02 [K]
    Van der Waals (Tail)/kʙ     -9.737295e+00 [K]
    Ewald Fourier/kʙ             8.393376e+02 [K]
    Ewald self/kʙ               -2.571349e+05 [K]
    Ewald exclusion/kʙ           2.563117e+05 [K]
    intra VDW/kʙ                 0.000000e+00 [K]
    intra Coulombic/kʙ           0.000000e+00 [K]
    polarization/kʙ              0.000000e+00 [K]
    dU/dlambda VDW/kʙ            0.000000e+00 [K]
    dU/dlambda Real/kʙ           0.000000e+00 [K]
    dU/dlambda Ewald/kʙ          0.000000e+00 [K]


Initialization: Current cycle: 1700 out of 2000
===============================================================================

Box:      33.40237   0.00000   0.00000
           0.00000  33.40237   0.00000
           0.00000   0.00000  33.40237
Lengths:  33.40237  33.40237  33.40237
Angles:   90.00000  90.00000  90.00000
Rectangular boundary conditions

net charge:   0.00000000

component   0 (CO2) lambda:  0 occupancy:  1 (1.000000)
    net charge:   0.00000000 [e]

Amount of molecules per component :
-------------------------------------------------------------------------------
Component 0 (CO2)
    molecules:         2.200000e+01 molecules
    number density:    5.903246e-04 molec/A^3
    density:           4.313013e+01 kg/m^3

Total potential energy/kʙ       -1.414045e+03 [K]
-------------------------------------------------------------------------------
    external field VDW/kʙ        0.000000e+00 [K]
    external field Real/kʙ       0.000000e+00 [K]
    framework-molecule VDW/kʙ    0.000000e+00 [K]
    framework-molecule Real/kʙ   0.000000e+00 [K]
    molecule-molecule VDW/kʙ    -9.802919e+02 [K]
    molecule-molecule Real/kʙ   -4.734998e+02 [K]
    Van der Waals (Tail)/kʙ     -2.411847e+01 [K]
    Ewald Fourier/kʙ             1.357590e+03 [K]
    Ewald self/kʙ               -4.040692e+05 [K]
    Ewald exclusion/kʙ           4.027755e+05 [K]
    intra VDW/kʙ                 0.000000e+00 [K]
    intra Coulombic/kʙ           0.000000e+00 [K]
    polarization/kʙ              0.000000e+00 [K]
    dU/dlambda VDW/kʙ            0.000000e+00 [K]
    dU/dlambda Real/kʙ           0.000000e+00 [K]
    dU/dlambda Ewald/kʙ          0.000000e+00 [K]


Initialization: Current cycle: 1800 out of 2000
===============================================================================

Box:      33.40419   0.00000   0.00000
           0.00000  33.40419   0.00000
           0.00000   0.00000  33.40419
Lengths:  33.40419  33.40419  33.40419
Angles:   90.00000  90.00000  90.00000
Rectangular boundary conditions

net charge:   0.00000000

component   0 (CO2) lambda:  0 occupancy:  1 (1.000000)
    net charge:   0.00000000 [e]

Amount of molecules per component :
-------------------------------------------------------------------------------
Component 0 (CO2)
    molecules:         1.600000e+01 molecules
    number density:    4.292567e-04 molec/A^3
    density:           3.136223e+01 kg/m^3

Total potential energy/kʙ       -1.991101e+02 [K]
-------------------------------------------------------------------------------
    external field VDW/kʙ        0.000000e+00 [K]
    external field Real/kʙ       0.000000e+00 [K]
    framework-molecule VDW/kʙ    0.000000e+00 [K]
    framework-molecule Real/kʙ   0.000000e+00 [K]
    molecule-molecule VDW/kʙ    -1.257001e+02 [K]
    molecule-molecule Real/kʙ   -1.235244e+01 [K]
    Van der Waals (Tail)/kʙ     -1.275479e+01 [K]
    Ewald Fourier/kʙ             8.925876e+02 [K]
    Ewald self/kʙ               -2.938685e+05 [K]
    Ewald exclusion/kʙ           2.929276e+05 [K]
    intra VDW/kʙ                 0.000000e+00 [K]
    intra Coulombic/kʙ           0.000000e+00 [K]
    polarization/kʙ              0.000000e+00 [K]
    dU/dlambda VDW/kʙ            0.000000e+00 [K]
    dU/dlambda Real/kʙ           0.000000e+00 [K]
    dU/dlambda Ewald/kʙ          0.000000e+00 [K]


Initialization: Current cycle: 1900 out of 2000
===============================================================================

Box:      33.62077   0.00000   0.00000
           0.00000  33.62077   0.00000
           0.00000   0.00000  33.62077
Lengths:  33.62077  33.62077  33.62077
Angles:   90.00000  90.00000  90.00000
Rectangular boundary conditions

net charge:   0.00000000

component   0 (CO2) lambda:  0 occupancy:  1 (1.000000)
    net charge:   0.00000000 [e]

Amount of molecules per component :
-------------------------------------------------------------------------------
Component 0 (CO2)
    molecules:         1.800000e+01 molecules
    number density:    4.736411e-04 molec/A^3
    density:           3.460503e+01 kg/m^3

Total potential energy/kʙ       -5.767493e+02 [K]
-------------------------------------------------------------------------------
    external field VDW/kʙ        0.000000e+00 [K]
    external field Real/kʙ       0.000000e+00 [K]
    framework-molecule VDW/kʙ    0.000000e+00 [K]
    framework-molecule Real/kʙ   0.000000e+00 [K]
    molecule-molecule VDW/kʙ    -6.088047e+02 [K]
    molecule-molecule Real/kʙ    3.746252e+01 [K]
    Van der Waals (Tail)/kʙ     -1.583281e+01 [K]
    Ewald Fourier/kʙ             1.068927e+03 [K]
    Ewald self/kʙ               -3.306021e+05 [K]
    Ewald exclusion/kʙ           3.295436e+05 [K]
    intra VDW/kʙ                 0.000000e+00 [K]
    intra Coulombic/kʙ           0.000000e+00 [K]
    polarization/kʙ              0.000000e+00 [K]
    dU/dlambda VDW/kʙ            0.000000e+00 [K]
    dU/dlambda Real/kʙ           0.000000e+00 [K]
    dU/dlambda Ewald/kʙ          0.000000e+00 [K]


Current cycle: 0 out of 6000
===============================================================================

Box:      33.56229   0.00000   0.00000  Average:  33.56229   0.00000   0.00000
           0.00000  33.56229   0.00000             0.00000  33.56229   0.00000
           0.00000   0.00000  33.56229             0.00000   0.00000  33.56229
Lengths:  33.56229  33.56229  33.56229  Average:  33.56229  33.56229  33.56229
Angles:   90.00000  90.00000  90.00000  Average:  90.00000  90.00000  90.00000
Rectangular boundary conditions

net charge:   0.00000000

component 0 (CO2) lambda:  0 occupancy:  1 (1.000000)
    net charge:   0.00000000 [e]

Amount of molecules per component :
-------------------------------------------------------------------------------
Component 0 (CO2)
    molecules:      9.000000e+00 molecules  (9.000000e+00 +/- 0.000000e+00)
    number density: 2.380606e-04 molec./A^3 (2.380606e-04 +/- 0.000000e+00)
    density:        1.739312e+01 kg/m^3     (1.739312e+01 +/- 0.000000e+00)

Average pressure tensor: 
-------------------------------------------------------------------------------
 8.2170e+00  0.0000e+00  0.0000e+00 +/- 0.0000e+00 0.0000e+00 0.0000e+00 [bar]
 0.0000e+00  8.2170e+00  0.0000e+00 +/- 0.0000e+00 0.0000e+00 0.0000e+00 [bar]
 0.0000e+00  0.0000e+00  8.2170e+00 +/- 0.0000e+00 0.0000e+00 0.0000e+00 [bar]
Ideal-gas pressure:   8.216962e+00 +/ 0.000000e+00 [bar]
Excess pressure:      0.000000e+00 +/ 0.000000e+00 [bar]
Pressure:             8.216962e+00 +/ 0.000000e+00 [bar]

Total potential energy/kʙ  -2.915004e+02 (-2.915004e+02 +/- 0.000000e+00) [K]
-------------------------------------------------------------------------------
ExternalField-molecule
    Van der Waals/kʙ        0.000000e+00 ( 0.000000e+00 +/- 0.000000e+00) [K]
Framework-molecule
    Van der Waals/kʙ        0.000000e+00 ( 0.000000e+00 +/- 0.000000e+00) [K]
    Van der Waals (Tail)/kʙ 0.000000e+00 ( 0.000000e+00 +/- 0.000000e+00) [K]
    Coulombic Real/kʙ       0.000000e+00 ( 0.000000e+00 +/- 0.000000e+00) [K]
    Coulombic Fourier/kʙ    0.000000e+00 ( 0.000000e+00 +/- 0.000000e+00) [K]
Molecule-molecule
    Van der Waals/kʙ       -1.920622e+02 (-1.920622e+02 +/- 0.000000e+00) [K]
    Van der Waals (Tail)/kʙ-3.978930e+00 (-3.978930e+00 +/- 0.000000e+00) [K]
    Coulombic Real/kʙ      -5.017650e+01 (-5.017650e+01 +/- 0.000000e+00) [K]
    Coulombic Fourier/kʙ   -4.528269e+01 (-4.528269e+01 +/- 0.000000e+00) [K]
    Molecule Intra/kʙ       0.000000e+00 ( 0.000000e+00 +/- 0.000000e+00) [K]

Current cycle: 100 out of 6000
===============================================================================

Box:      33.64838   0.00000   0.00000  Average:  33.67730   0.00000   0.00000
           0.00000  33.64838   0.00000             0.00000  33.67730   0.00000
           0.00000   0.00000  33.64838             0.00000   0.00000  33.67730
Lengths:  33.64838  33.64838  33.64838  Average:  33.67730  33.67730  33.67730
Angles:   90.00000  90.00000  90.00000  Average:  90.00000  90.00000  90.00000
Rectangular boundary conditions

net charge:   0.00000000

component 0 (CO2) lambda:  0 occupancy:  1 (1.000000)
    net charge:   0.00000000 [e]

Amount of molecules per component :
-------------------------------------------------------------------------------
Component 0 (CO2)
    molecules:      1.300000e+01 molecules  (1.423762e+01 +/- 0.000000e+00)
    number density: 3.412329e-04 molec./A^3 (3.724258e-04 +/- 0.000000e+00)
    density:        2.493106e+01 kg/m^3     (2.721007e+01 +/- 0.000000e+00)

Average pressure tensor: 
-------------------------------------------------------------------------------
 1.1326e+01 -1.5271e+00 -8.4943e-01 +/- 0.0000e+00 0.0000e+00 0.0000e+00 [bar]
-1.5271e+00  1.1912e+01 -1.1316e-01 +/- 0.0000e+00 0.0000e+00 0.0000e+00 [bar]
-8.4943e-01 -1.1316e-01  1.0901e+01 +/- 0.0000e+00 0.0000e+00 0.0000e+00 [bar]
Ideal-gas pressure:   1.285475e+01 +/ 0.000000e+00 [bar]
Excess pressure:     -1.475461e+00 +/ 0.000000e+00 [bar]
Pressure:             1.137929e+01 +/ 0.000000e+00 [bar]

Total potential energy/kʙ  -9.929534e+02 (-7.363448e+02 +/- 0.000000e+00) [K]
-------------------------------------------------------------------------------
ExternalField-molecule
    Van der Waals/kʙ        0.000000e+00 ( 0.000000e+00 +/- 0.000000e+00) [K]
Framework-molecule
    Van der Waals/kʙ        0.000000e+00 ( 0.000000e+00 +/- 0.000000e+00) [K]
    Van der Waals (Tail)/kʙ 0.000000e+00 ( 0.000000e+00 +/- 0.000000e+00) [K]
    Coulombic Real/kʙ       0.000000e+00 ( 0.000000e+00 +/- 0.000000e+00) [K]
    Coulombic Fourier/kʙ    0.000000e+00 ( 0.000000e+00 +/- 0.000000e+00) [K]
Molecule-molecule
    Van der Waals/kʙ       -6.143199e+02 (-5.225217e+02 +/- 0.000000e+00) [K]
    Van der Waals (Tail)/kʙ-8.238164e+00 (-9.886110e+00 +/- 0.000000e+00) [K]
    Coulombic Real/kʙ      -4.284834e+02 (-1.956151e+02 +/- 0.000000e+00) [K]
    Coulombic Fourier/kʙ    5.808807e+01 (-8.321915e+00 +/- 0.000000e+00) [K]
    Molecule Intra/kʙ       0.000000e+00 ( 0.000000e+00 +/- 0.000000e+00) [K]

Current cycle: 200 out of 6000
===============================================================================

Box:      33.60693   0.00000   0.00000  Average:  33.68699   0.00000   0.00000
           0.00000  33.60693   0.00000             0.00000  33.68699   0.00000
           0.00000   0.00000  33.60693             0.00000   0.00000  33.68699
Lengths:  33.60693  33.60693  33.60693  Average:  33.68699  33.68699  33.68699
Angles:   90.00000  90.00000  90.00000  Average:  90.00000  90.00000  90.00000
Rectangular boundary conditions

net charge:   0.00000000

component 0 (CO2) lambda:  0 occupancy:  1 (1.000000)
    net charge:   0.00000000 [e]

Amount of molecules per component :
-------------------------------------------------------------------------------
Component 0 (CO2)
    molecules:      2.300000e+01 molecules  (1.679104e+01 +/- 0.000000e+00)
    number density: 6.059564e-04 molec./A^3 (4.389335e-04 +/- 0.000000e+00)
    density:        4.427221e+01 kg/m^3     (3.206923e+01 +/- 0.000000e+00)

Average pressure tensor: 
-------------------------------------------------------------------------------
 1.4073e+01 -5.0078e-01 -9.7649e-01 +/- 0.0000e+00 0.0000e+00 0.0000e+00 [bar]
-5.0078e-01  1.2613e+01 -1.6071e+00 +/- 0.0000e+00 0.0000e+00 0.0000e+00 [bar]
-9.7649e-01 -1.6071e+00  1.3591e+01 +/- 0.0000e+00 0.0000e+00 0.0000e+00 [bar]
Ideal-gas pressure:   1.515034e+01 +/ 0.000000e+00 [bar]
Excess pressure:     -1.724711e+00 +/ 0.000000e+00 [bar]
Pressure:             1.342563e+01 +/ 0.000000e+00 [bar]

Total potential energy/kʙ  -2.600085e+03 (-1.147376e+03 +/- 0.000000e+00) [K]
-------------------------------------------------------------------------------
ExternalField-molecule
    Van der Waals/kʙ        0.000000e+00 ( 0.000000e+00 +/- 0.000000e+00) [K]
Framework-molecule
    Van der Waals/kʙ        0.000000e+00 ( 0.000000e+00 +/- 0.000000e+00) [K]
    Van der Waals (Tail)/kʙ 0.000000e+00 ( 0.000000e+00 +/- 0.000000e+00) [K]
    Coulombic Real/kʙ       0.000000e+00 ( 0.000000e+00 +/- 0.000000e+00) [K]
    Coulombic Fourier/kʙ    0.000000e+00 ( 0.000000e+00 +/- 0.000000e+00) [K]
Molecule-molecule
    Van der Waals/kʙ       -1.724748e+03 (-7.967027e+02 +/- 0.000000e+00) [K]
    Van der Waals (Tail)/kʙ-2.588245e+01 (-1.546249e+01 +/- 0.000000e+00) [K]
    Coulombic Real/kʙ      -7.802073e+02 (-3.008059e+02 +/- 0.000000e+00) [K]
    Coulombic Fourier/kʙ   -6.924803e+01 (-3.440532e+01 +/- 0.000000e+00) [K]
    Molecule Intra/kʙ       0.000000e+00 ( 0.000000e+00 +/- 0.000000e+00) [K]

Current cycle: 300 out of 6000
===============================================================================

Box:      33.52107   0.00000   0.00000  Average:  33.67721   0.00000   0.00000
           0.00000  33.52107   0.00000             0.00000  33.67721   0.00000
           0.00000   0.00000  33.52107             0.00000   0.00000  33.67721
Lengths:  33.52107  33.52107  33.52107  Average:  33.67721  33.67721  33.67721
Angles:   90.00000  90.00000  90.00000  Average:  90.00000  90.00000  90.00000
Rectangular boundary conditions

net charge:   0.00000000

component 0 (CO2) lambda:  0 occupancy:  1 (1.000000)
    net charge:   0.00000000 [e]

Amount of molecules per component :
-------------------------------------------------------------------------------
Component 0 (CO2)
    molecules:      2.100000e+01 molecules  (1.760465e+01 +/- 0.000000e+00)
    number density: 5.575265e-04 molec./A^3 (4.607421e-04 +/- 0.000000e+00)
    density:        4.073384e+01 kg/m^3     (3.366261e+01 +/- 0.000000e+00)

Average pressure tensor: 
-------------------------------------------------------------------------------
 1.3107e+01  1.3063e-01 -2.7918e-01 +/- 0.0000e+00 0.0000e+00 0.0000e+00 [bar]
 1.3063e-01  1.2237e+01 -4.1894e-01 +/- 0.0000e+00 0.0000e+00 0.0000e+00 [bar]
-2.7918e-01 -4.1894e-01  1.4564e+01 +/- 0.0000e+00 0.0000e+00 0.0000e+00 [bar]
Ideal-gas pressure:   1.590309e+01 +/ 0.000000e+00 [bar]
Excess pressure:     -2.600097e+00 +/ 0.000000e+00 [bar]
Pressure:             1.330300e+01 +/ 0.000000e+00 [bar]

Total potential energy/kʙ  -2.297664e+03 (-1.259720e+03 +/- 0.000000e+00) [K]
-------------------------------------------------------------------------------
ExternalField-molecule
    Van der Waals/kʙ        0.000000e+00 ( 0.000000e+00 +/- 0.000000e+00) [K]
Framework-molecule
    Van der Waals/kʙ        0.000000e+00 ( 0.000000e+00 +/- 0.000000e+00) [K]
    Van der Waals (Tail)/kʙ 0.000000e+00 ( 0.000000e+00 +/- 0.000000e+00) [K]
    Coulombic Real/kʙ       0.000000e+00 ( 0.000000e+00 +/- 0.000000e+00) [K]
    Coulombic Fourier/kʙ    0.000000e+00 ( 0.000000e+00 +/- 0.000000e+00) [K]
Molecule-molecule
    Van der Waals/kʙ       -1.164383e+03 (-8.815278e+02 +/- 0.000000e+00) [K]
    Van der Waals (Tail)/kʙ-2.174308e+01 (-1.680285e+01 +/- 0.000000e+00) [K]
    Coulombic Real/kʙ      -9.910075e+02 (-3.242108e+02 +/- 0.000000e+00) [K]
    Coulombic Fourier/kʙ   -1.205312e+02 (-3.717838e+01 +/- 0.000000e+00) [K]
    Molecule Intra/kʙ       0.000000e+00 ( 0.000000e+00 +/- 0.000000e+00) [K]

Current cycle: 400 out of 6000
===============================================================================

Box:      33.57997   0.00000   0.00000  Average:  33.66514   0.00000   0.00000
           0.00000  33.57997   0.00000             0.00000  33.66514   0.00000
           0.00000   0.00000  33.57997             0.00000   0.00000  33.66514
Lengths:  33.57997  33.57997  33.57997  Average:  33.66514  33.66514  33.66514
Angles:   90.00000  90.00000  90.00000  Average:  90.00000  90.00000  90.00000
Rectangular boundary conditions

net charge:   0.00000000

component 0 (CO2) lambda:  0 occupancy:  1 (1.000000)
    net charge:   0.00000000 [e]

Amount of molecules per component :
-------------------------------------------------------------------------------
Component 0 (CO2)
    molecules:      1.800000e+01 molecules  (1.789277e+01 +/- 0.000000e+00)
    number density: 4.753700e-04 molec./A^3 (4.688263e-04 +/- 0.000000e+00)
    density:        3.473135e+01 kg/m^3     (3.425325e+01 +/- 0.000000e+00)

Average pressure tensor: 
-------------------------------------------------------------------------------
 1.2628e+01  6.0673e-01 -1.0469e-01 +/- 0.0000e+00 0.0000e+00 0.0000e+00 [bar]
 6.0673e-01  1.1892e+01 -5.2134e-01 +/- 0.0000e+00 0.0000e+00 0.0000e+00 [bar]
-1.0469e-01 -5.2134e-01  1.4677e+01 +/- 0.0000e+00 0.0000e+00 0.0000e+00 [bar]
Ideal-gas pressure:   1.618213e+01 +/ 0.000000e+00 [bar]
Excess pressure:     -3.116548e+00 +/ 0.000000e+00 [bar]
Pressure:             1.306558e+01 +/ 0.000000e+00 [bar]

Total potential energy/kʙ  -3.508082e+03 (-1.275649e+03 +/- 0.000000e+00) [K]
-------------------------------------------------------------------------------
ExternalField-molecule
    Van der Waals/kʙ        0.000000e+00 ( 0.000000e+00 +/- 0.000000e+00) [K]
Framework-molecule
    Van der Waals/kʙ        0.000000e+00 ( 0.000000e+00 +/- 0.000000e+00) [K]
    Van der Waals (Tail)/kʙ 0.000000e+00 ( 0.000000e+00 +/- 0.000000e+00) [K]
    Coulombic Real/kʙ       0.000000e+00 ( 0.000000e+00 +/- 0.000000e+00) [K]
    Coulombic Fourier/kʙ    0.000000e+00 ( 0.000000e+00 +/- 0.000000e+00) [K]
Molecule-molecule
    Van der Waals/kʙ       -2.283847e+03 (-9.112504e+02 +/- 0.000000e+00) [K]
    Van der Waals (Tail)/kʙ-1.589061e+01 (-1.682569e+01 +/- 0.000000e+00) [K]
    Coulombic Real/kʙ      -1.212958e+03 (-3.141370e+02 +/- 0.000000e+00) [K]
    Coulombic Fourier/kʙ    4.613380e+00 (-3.343609e+01 +/- 0.000000e+00) [K]
    Molecule Intra/kʙ       0.000000e+00 ( 0.000000e+00 +/- 0.000000e+00) [K]

Current cycle: 500 out of 6000
===============================================================================

Box:      33.71300   0.00000   0.00000  Average:  33.66807   0.00000   0.00000
           0.00000  33.71300   0.00000             0.00000  33.66807   0.00000
           0.00000   0.00000  33.71300             0.00000   0.00000  33.66807
Lengths:  33.71300  33.71300  33.71300  Average:  33.66807  33.66807  33.66807
Angles:   90.00000  90.00000  90.00000  Average:  90.00000  90.00000  90.00000
Rectangular boundary conditions

net charge:   0.00000000

component 0 (CO2) lambda:  0 occupancy:  1 (1.000000)
    net charge:   0.00000000 [e]

Amount of molecules per component :
-------------------------------------------------------------------------------
Component 0 (CO2)
    molecules:      2.400000e+01 molecules  (1.873852e+01 +/- 0.000000e+00)
    number density: 6.263529e-04 molec./A^3 (4.908803e-04 +/- 0.000000e+00)
    density:        4.576241e+01 kg/m^3     (3.586455e+01 +/- 0.000000e+00)

Average pressure tensor: 
-------------------------------------------------------------------------------
 1.3199e+01  5.7105e-01 -4.9664e-01 +/- 0.0000e+00 0.0000e+00 0.0000e+00 [bar]
 5.7105e-01  1.2469e+01 -3.1727e-01 +/- 0.0000e+00 0.0000e+00 0.0000e+00 [bar]
-4.9664e-01 -3.1727e-01  1.4911e+01 +/- 0.0000e+00 0.0000e+00 0.0000e+00 [bar]
Ideal-gas pressure:   1.694335e+01 +/ 0.000000e+00 [bar]
Excess pressure:     -3.417169e+00 +/ 0.000000e+00 [bar]
Pressure:             1.352618e+01 +/ 0.000000e+00 [bar]

Total potential energy/kʙ  -2.263905e+03 (-1.473558e+03 +/- 0.000000e+00) [K]
-------------------------------------------------------------------------------
ExternalField-molecule
    Van der Waals/kʙ        0.000000e+00 ( 0.000000e+00 +/- 0.000000e+00) [K]
Framework-molecule
    Van der Waals/kʙ        0.000000e+00 ( 0.000000e+00 +/- 0.000000e+00) [K]
    Van der Waals (Tail)/kʙ 0.000000e+00 ( 0.000000e+00 +/- 0.000000e+00) [K]
    Coulombic Real/kʙ       0.000000e+00 ( 0.000000e+00 +/- 0.000000e+00) [K]
    Coulombic Fourier/kʙ    0.000000e+00 ( 0.000000e+00 +/- 0.000000e+00) [K]
Molecule-molecule
    Van der Waals/kʙ       -2.073419e+03 (-1.091470e+03 +/- 0.000000e+00) [K]
    Van der Waals (Tail)/kʙ-2.791686e+01 (-1.885585e+01 +/- 0.000000e+00) [K]
    Coulombic Real/kʙ      -2.079487e+02 (-3.284729e+02 +/- 0.000000e+00) [K]
    Coulombic Fourier/kʙ    4.537908e+01 (-3.475838e+01 +/- 0.000000e+00) [K]
    Molecule Intra/kʙ       0.000000e+00 ( 0.000000e+00 +/- 0.000000e+00) [K]

Current cycle: 600 out of 6000
===============================================================================

Box:      33.76989   0.00000   0.00000  Average:  33.67767   0.00000   0.00000
           0.00000  33.76989   0.00000             0.00000  33.67767   0.00000
           0.00000   0.00000  33.76989             0.00000   0.00000  33.67767
Lengths:  33.76989  33.76989  33.76989  Average:  33.67767  33.67767  33.67767
Angles:   90.00000  90.00000  90.00000  Average:  90.00000  90.00000  90.00000
Rectangular boundary conditions

net charge:   0.00000000

component 0 (CO2) lambda:  0 occupancy:  1 (1.000000)
    net charge:   0.00000000 [e]

Amount of molecules per component :
-------------------------------------------------------------------------------
Component 0 (CO2)
    molecules:      2.300000e+01 molecules  (1.915807e+01 +/- 0.000000e+00)
    number density: 5.972265e-04 molec./A^3 (5.014220e-04 +/- 0.000000e+00)
    density:        4.363439e+01 kg/m^3     (3.663475e+01 +/- 0.000000e+00)

Average pressure tensor: 
-------------------------------------------------------------------------------
 1.3706e+01  6.8467e-01 -3.1385e-01 +/- 0.0000e+00 0.0000e+00 0.0000e+00 [bar]
 6.8467e-01  1.3024e+01 -8.5660e-02 +/- 0.0000e+00 0.0000e+00 0.0000e+00 [bar]
-3.1385e-01 -8.5660e-02  1.4545e+01 +/- 0.0000e+00 0.0000e+00 0.0000e+00 [bar]
Ideal-gas pressure:   1.730721e+01 +/ 0.000000e+00 [bar]
Excess pressure:     -3.548732e+00 +/ 0.000000e+00 [bar]
Pressure:             1.375848e+01 +/ 0.000000e+00 [bar]

Total potential energy/kʙ  -2.932300e+03 (-1.537407e+03 +/- 0.000000e+00) [K]
-------------------------------------------------------------------------------
ExternalField-molecule
    Van der Waals/kʙ        0.000000e+00 ( 0.000000e+00 +/- 0.000000e+00) [K]
Framework-molecule
    Van der Waals/kʙ        0.000000e+00 ( 0.000000e+00 +/- 0.000000e+00) [K]
    Van der Waals (Tail)/kʙ 0.000000e+00 ( 0.000000e+00 +/- 0.000000e+00) [K]
    Coulombic Real/kʙ       0.000000e+00 ( 0.000000e+00 +/- 0.000000e+00) [K]
    Coulombic Fourier/kʙ    0.000000e+00 ( 0.000000e+00 +/- 0.000000e+00) [K]
Molecule-molecule
    Van der Waals/kʙ       -1.148734e+03 (-1.140355e+03 +/- 0.000000e+00) [K]
    Van der Waals (Tail)/kʙ-2.550957e+01 (-1.933634e+01 +/- 0.000000e+00) [K]
    Coulombic Real/kʙ      -1.605743e+03 (-3.489519e+02 +/- 0.000000e+00) [K]
    Coulombic Fourier/kʙ   -1.523135e+02 (-2.876406e+01 +/- 0.000000e+00) [K]
    Molecule Intra/kʙ       0.000000e+00 ( 0.000000e+00 +/- 0.000000e+00) [K]

Current cycle: 700 out of 6000
===============================================================================

Box:      33.75273   0.00000   0.00000  Average:  33.67360   0.00000   0.00000
           0.00000  33.75273   0.00000             0.00000  33.67360   0.00000
           0.00000   0.00000  33.75273             0.00000   0.00000  33.67360
Lengths:  33.75273  33.75273  33.75273  Average:  33.67360  33.67360  33.67360
Angles:   90.00000  90.00000  90.00000  Average:  90.00000  90.00000  90.00000
Rectangular boundary conditions

net charge:   0.00000000

component 0 (CO2) lambda:  0 occupancy:  1 (1.000000)
    net charge:   0.00000000 [e]

Amount of molecules per component :
-------------------------------------------------------------------------------
Component 0 (CO2)
    molecules:      2.600000e+01 molecules  (1.972896e+01 +/- 0.000000e+00)
    number density: 6.761558e-04 molec./A^3 (5.166134e-04 +/- 0.000000e+00)
    density:        4.940110e+01 kg/m^3     (3.774466e+01 +/- 0.000000e+00)

Average pressure tensor: 
-------------------------------------------------------------------------------
 1.4918e+01  1.5644e-01 -5.6180e-01 +/- 0.0000e+00 0.0000e+00 0.0000e+00 [bar]
 1.5644e-01  1.3129e+01  3.3875e-02 +/- 0.0000e+00 0.0000e+00 0.0000e+00 [bar]
-5.6180e-01  3.3875e-02  1.4742e+01 +/- 0.0000e+00 0.0000e+00 0.0000e+00 [bar]
Ideal-gas pressure:   1.783156e+01 +/ 0.000000e+00 [bar]
Excess pressure:     -3.568695e+00 +/ 0.000000e+00 [bar]
Pressure:             1.426287e+01 +/ 0.000000e+00 [bar]

Total potential energy/kʙ  -3.454179e+03 (-1.635663e+03 +/- 0.000000e+00) [K]
-------------------------------------------------------------------------------
ExternalField-molecule
    Van der Waals/kʙ        0.000000e+00 ( 0.000000e+00 +/- 0.000000e+00) [K]
Framework-molecule
    Van der Waals/kʙ        0.000000e+00 ( 0.000000e+00 +/- 0.000000e+00) [K]
    Van der Waals (Tail)/kʙ 0.000000e+00 ( 0.000000e+00 +/- 0.000000e+00) [K]
    Coulombic Real/kʙ       0.000000e+00 ( 0.000000e+00 +/- 0.000000e+00) [K]
    Coulombic Fourier/kʙ    0.000000e+00 ( 0.000000e+00 +/- 0.000000e+00) [K]
Molecule-molecule
    Van der Waals/kʙ       -2.616185e+03 (-1.229202e+03 +/- 0.000000e+00) [K]
    Van der Waals (Tail)/kʙ-3.264798e+01 (-2.063808e+01 +/- 0.000000e+00) [K]
    Coulombic Real/kʙ      -8.252381e+02 (-3.508940e+02 +/- 0.000000e+00) [K]
    Coulombic Fourier/kʙ    1.989262e+01 (-3.492916e+01 +/- 0.000000e+00) [K]
    Molecule Intra/kʙ       0.000000e+00 ( 0.000000e+00 +/- 0.000000e+00) [K]

Current cycle: 800 out of 6000
===============================================================================

Box:      33.52252   0.00000   0.00000  Average:  33.66724   0.00000   0.00000
           0.00000  33.52252   0.00000             0.00000  33.66724   0.00000
           0.00000   0.00000  33.52252             0.00000   0.00000  33.66724
Lengths:  33.52252  33.52252  33.52252  Average:  33.66724  33.66724  33.66724
Angles:   90.00000  90.00000  90.00000  Average:  90.00000  90.00000  90.00000
Rectangular boundary conditions

net charge:   0.00000000

component 0 (CO2) lambda:  0 occupancy:  1 (1.000000)
    net charge:   0.00000000 [e]

Amount of molecules per component :
-------------------------------------------------------------------------------
Component 0 (CO2)
    molecules:      2.200000e+01 molecules  (2.008739e+01 +/- 0.000000e+00)
    number density: 5.840001e-04 molec./A^3 (5.263269e-04 +/- 0.000000e+00)
    density:        4.266804e+01 kg/m^3     (3.845435e+01 +/- 0.000000e+00)

Average pressure tensor: 
-------------------------------------------------------------------------------
 1.4770e+01  2.2029e-01 -5.3987e-01 +/- 0.0000e+00 0.0000e+00 0.0000e+00 [bar]
 2.2029e-01  1.3387e+01  1.6091e-01 +/- 0.0000e+00 0.0000e+00 0.0000e+00 [bar]
-5.3987e-01  1.6091e-01  1.4983e+01 +/- 0.0000e+00 0.0000e+00 0.0000e+00 [bar]
Ideal-gas pressure:   1.816684e+01 +/ 0.000000e+00 [bar]
Excess pressure:     -3.786880e+00 +/ 0.000000e+00 [bar]
Pressure:             1.437996e+01 +/ 0.000000e+00 [bar]

Total potential energy/kʙ  -1.596771e+03 (-1.755520e+03 +/- 0.000000e+00) [K]
-------------------------------------------------------------------------------
ExternalField-molecule
    Van der Waals/kʙ        0.000000e+00 ( 0.000000e+00 +/- 0.000000e+00) [K]
Framework-molecule
    Van der Waals/kʙ        0.000000e+00 ( 0.000000e+00 +/- 0.000000e+00) [K]
    Van der Waals (Tail)/kʙ 0.000000e+00 ( 0.000000e+00 +/- 0.000000e+00) [K]
    Coulombic Real/kʙ       0.000000e+00 ( 0.000000e+00 +/- 0.000000e+00) [K]
    Coulombic Fourier/kʙ    0.000000e+00 ( 0.000000e+00 +/- 0.000000e+00) [K]
Molecule-molecule
    Van der Waals/kʙ       -1.299422e+03 (-1.302191e+03 +/- 0.000000e+00) [K]
    Van der Waals (Tail)/kʙ-2.386007e+01 (-2.141807e+01 +/- 0.000000e+00) [K]
    Coulombic Real/kʙ      -3.107035e+02 (-3.957031e+02 +/- 0.000000e+00) [K]
    Coulombic Fourier/kʙ    3.721522e+01 (-3.620844e+01 +/- 0.000000e+00) [K]
    Molecule Intra/kʙ       0.000000e+00 ( 0.000000e+00 +/- 0.000000e+00) [K]

Current cycle: 900 out of 6000
===============================================================================

Box:      33.49118   0.00000   0.00000  Average:  33.65724   0.00000   0.00000
           0.00000  33.49118   0.00000             0.00000  33.65724   0.00000
           0.00000   0.00000  33.49118             0.00000   0.00000  33.65724
Lengths:  33.49118  33.49118  33.49118  Average:  33.65724  33.65724  33.65724
Angles:   90.00000  90.00000  90.00000  Average:  90.00000  90.00000  90.00000
Rectangular boundary conditions

net charge:   0.00000000

component 0 (CO2) lambda:  0 occupancy:  1 (1.000000)
    net charge:   0.00000000 [e]

Amount of molecules per component :
-------------------------------------------------------------------------------
Component 0 (CO2)
    molecules:      1.400000e+01 molecules  (1.972586e+01 +/- 0.000000e+00)
    number density: 3.726806e-04 molec./A^3 (5.172468e-04 +/- 0.000000e+00)
    density:        2.722868e+01 kg/m^3     (3.779094e+01 +/- 0.000000e+00)

Average pressure tensor: 
-------------------------------------------------------------------------------
 1.4465e+01  3.4285e-01 -4.5665e-01 +/- 0.0000e+00 0.0000e+00 0.0000e+00 [bar]
 3.4285e-01  1.3237e+01 -3.4968e-02 +/- 0.0000e+00 0.0000e+00 0.0000e+00 [bar]
-4.5665e-01 -3.4968e-02  1.4686e+01 +/- 0.0000e+00 0.0000e+00 0.0000e+00 [bar]
Ideal-gas pressure:   1.785343e+01 +/ 0.000000e+00 [bar]
Excess pressure:     -3.724016e+00 +/ 0.000000e+00 [bar]
Pressure:             1.412941e+01 +/ 0.000000e+00 [bar]

Total potential energy/kʙ  -5.196165e+02 (-1.657510e+03 +/- 0.000000e+00) [K]
-------------------------------------------------------------------------------
ExternalField-molecule
    Van der Waals/kʙ        0.000000e+00 ( 0.000000e+00 +/- 0.000000e+00) [K]
Framework-molecule
    Van der Waals/kʙ        0.000000e+00 ( 0.000000e+00 +/- 0.000000e+00) [K]
    Van der Waals (Tail)/kʙ 0.000000e+00 ( 0.000000e+00 +/- 0.000000e+00) [K]
    Coulombic Real/kʙ       0.000000e+00 ( 0.000000e+00 +/- 0.000000e+00) [K]
    Coulombic Fourier/kʙ    0.000000e+00 ( 0.000000e+00 +/- 0.000000e+00) [K]
Molecule-molecule
    Van der Waals/kʙ       -3.813554e+02 (-1.241779e+03 +/- 0.000000e+00) [K]
    Van der Waals (Tail)/kʙ-9.689491e+00 (-2.068482e+01 +/- 0.000000e+00) [K]
    Coulombic Real/kʙ      -9.771402e+01 (-3.620530e+02 +/- 0.000000e+00) [K]
    Coulombic Fourier/kʙ   -3.085760e+01 (-3.299327e+01 +/- 0.000000e+00) [K]
    Molecule Intra/kʙ       0.000000e+00 ( 0.000000e+00 +/- 0.000000e+00) [K]

Current cycle: 1000 out of 6000
===============================================================================

Box:      33.68165   0.00000   0.00000  Average:  33.65350   0.00000   0.00000
           0.00000  33.68165   0.00000             0.00000  33.65350   0.00000
           0.00000   0.00000  33.68165             0.00000   0.00000  33.65350
Lengths:  33.68165  33.68165  33.68165  Average:  33.65350  33.65350  33.65350
Angles:   90.00000  90.00000  90.00000  Average:  90.00000  90.00000  90.00000
Rectangular boundary conditions

net charge:   0.00000000

component 0 (CO2) lambda:  0 occupancy:  1 (1.000000)
    net charge:   0.00000000 [e]

Amount of molecules per component :
-------------------------------------------------------------------------------
Component 0 (CO2)
    molecules:      2.100000e+01 molecules  (1.968631e+01 +/- 0.000000e+00)
    number density: 5.495906e-04 molec./A^3 (5.163519e-04 +/- 0.000000e+00)
    density:        4.015403e+01 kg/m^3     (3.772556e+01 +/- 0.000000e+00)

Average pressure tensor: 
-------------------------------------------------------------------------------
 1.4700e+01  4.7095e-01 -2.1583e-01 +/- 0.0000e+00 0.0000e+00 0.0000e+00 [bar]
 4.7095e-01  1.3553e+01  3.7895e-02 +/- 0.0000e+00 0.0000e+00 0.0000e+00 [bar]
-2.1583e-01  3.7895e-02  1.5571e+01 +/- 0.0000e+00 0.0000e+00 0.0000e+00 [bar]
Ideal-gas pressure:   1.782254e+01 +/ 0.000000e+00 [bar]
Excess pressure:     -3.214597e+00 +/ 0.000000e+00 [bar]
Pressure:             1.460794e+01 +/ 0.000000e+00 [bar]

Total potential energy/kʙ  -5.340402e+02 (-1.670193e+03 +/- 0.000000e+00) [K]
-------------------------------------------------------------------------------
ExternalField-molecule
    Van der Waals/kʙ        0.000000e+00 ( 0.000000e+00 +/- 0.000000e+00) [K]
Framework-molecule
    Van der Waals/kʙ        0.000000e+00 ( 0.000000e+00 +/- 0.000000e+00) [K]
    Van der Waals (Tail)/kʙ 0.000000e+00 ( 0.000000e+00 +/- 0.000000e+00) [K]
    Coulombic Real/kʙ       0.000000e+00 ( 0.000000e+00 +/- 0.000000e+00) [K]
    Coulombic Fourier/kʙ    0.000000e+00 ( 0.000000e+00 +/- 0.000000e+00) [K]
Molecule-molecule
    Van der Waals/kʙ       -1.476350e+02 (-1.246699e+03 +/- 0.000000e+00) [K]
    Van der Waals (Tail)/kʙ-2.143358e+01 (-2.064503e+01 +/- 0.000000e+00) [K]
    Coulombic Real/kʙ      -3.657324e+02 (-3.674452e+02 +/- 0.000000e+00) [K]
    Coulombic Fourier/kʙ    7.607952e-01 (-3.540411e+01 +/- 0.000000e+00) [K]
    Molecule Intra/kʙ       0.000000e+00 ( 0.000000e+00 +/- 0.000000e+00) [K]

Current cycle: 1100 out of 6000
===============================================================================

Box:      33.76501   0.00000   0.00000  Average:  33.65535   0.00000   0.00000
           0.00000  33.76501   0.00000             0.00000  33.65535   0.00000
           0.00000   0.00000  33.76501             0.00000   0.00000  33.65535
Lengths:  33.76501  33.76501  33.76501  Average:  33.65535  33.65535  33.65535
Angles:   90.00000  90.00000  90.00000  Average:  90.00000  90.00000  90.00000
Rectangular boundary conditions

net charge:   0.00000000

component 0 (CO2) lambda:  0 occupancy:  1 (1.000000)
    net charge:   0.00000000 [e]

Amount of molecules per component :
-------------------------------------------------------------------------------
Component 0 (CO2)
    molecules:      2.700000e+01 molecules  (2.015350e+01 +/- 0.000000e+00)
    number density: 7.013957e-04 molec./A^3 (5.285035e-04 +/- 0.000000e+00)
    density:        5.124517e+01 kg/m^3     (3.861337e+01 +/- 0.000000e+00)

Average pressure tensor: 
-------------------------------------------------------------------------------
 1.5270e+01  2.0197e-01  1.9825e-02 +/- 0.0000e+00 0.0000e+00 0.0000e+00 [bar]
 2.0197e-01  1.3979e+01  4.4679e-02 +/- 0.0000e+00 0.0000e+00 0.0000e+00 [bar]
 1.9825e-02  4.4679e-02  1.5923e+01 +/- 0.0000e+00 0.0000e+00 0.0000e+00 [bar]
Ideal-gas pressure:   1.824196e+01 +/ 0.000000e+00 [bar]
Excess pressure:     -3.184671e+00 +/ 0.000000e+00 [bar]
Pressure:             1.505729e+01 +/ 0.000000e+00 [bar]

Total potential energy/kʙ  -3.332249e+03 (-1.764171e+03 +/- 0.000000e+00) [K]
-------------------------------------------------------------------------------
ExternalField-molecule
    Van der Waals/kʙ        0.000000e+00 ( 0.000000e+00 +/- 0.000000e+00) [K]
Framework-molecule
    Van der Waals/kʙ        0.000000e+00 ( 0.000000e+00 +/- 0.000000e+00) [K]
    Van der Waals (Tail)/kʙ 0.000000e+00 ( 0.000000e+00 +/- 0.000000e+00) [K]
    Coulombic Real/kʙ       0.000000e+00 ( 0.000000e+00 +/- 0.000000e+00) [K]
    Coulombic Fourier/kʙ    0.000000e+00 ( 0.000000e+00 +/- 0.000000e+00) [K]
Molecule-molecule
    Van der Waals/kʙ       -2.535006e+03 (-1.309753e+03 +/- 0.000000e+00) [K]
    Van der Waals (Tail)/kʙ-3.516925e+01 (-2.140688e+01 +/- 0.000000e+00) [K]
    Coulombic Real/kʙ      -7.703381e+02 (-3.946420e+02 +/- 0.000000e+00) [K]
    Coulombic Fourier/kʙ    8.264723e+00 (-3.836855e+01 +/- 0.000000e+00) [K]
    Molecule Intra/kʙ       0.000000e+00 ( 0.000000e+00 +/- 0.000000e+00) [K]

Current cycle: 1200 out of 6000
===============================================================================

Box:      33.66479   0.00000   0.00000  Average:  33.65234   0.00000   0.00000
           0.00000  33.66479   0.00000             0.00000  33.65234   0.00000
           0.00000   0.00000  33.66479             0.00000   0.00000  33.65234
Lengths:  33.66479  33.66479  33.66479  Average:  33.65234  33.65234  33.65234
Angles:   90.00000  90.00000  90.00000  Average:  90.00000  90.00000  90.00000
Rectangular boundary conditions

net charge:   0.00000000

component 0 (CO2) lambda:  0 occupancy:  1 (1.000000)
    net charge:   0.00000000 [e]

Amount of molecules per component :
-------------------------------------------------------------------------------
Component 0 (CO2)
    molecules:      2.200000e+01 molecules  (2.026062e+01 +/- 0.000000e+00)
    number density: 5.766272e-04 molec./A^3 (5.314645e-04 +/- 0.000000e+00)
    density:        4.212937e+01 kg/m^3     (3.882971e+01 +/- 0.000000e+00)

Average pressure tensor: 
-------------------------------------------------------------------------------
 1.5271e+01  3.3105e-01  1.8405e-01 +/- 0.0000e+00 0.0000e+00 0.0000e+00 [bar]
 3.3105e-01  1.4130e+01 -2.1478e-02 +/- 0.0000e+00 0.0000e+00 0.0000e+00 [bar]
 1.8405e-01 -2.1478e-02  1.5737e+01 +/- 0.0000e+00 0.0000e+00 0.0000e+00 [bar]
Ideal-gas pressure:   1.834417e+01 +/ 0.000000e+00 [bar]
Excess pressure:     -3.298377e+00 +/ 0.000000e+00 [bar]
Pressure:             1.504579e+01 +/ 0.000000e+00 [bar]

Total potential energy/kʙ  -1.996131e+03 (-1.797118e+03 +/- 0.000000e+00) [K]
-------------------------------------------------------------------------------
ExternalField-molecule
    Van der Waals/kʙ        0.000000e+00 ( 0.000000e+00 +/- 0.000000e+00) [K]
Framework-molecule
    Van der Waals/kʙ        0.000000e+00 ( 0.000000e+00 +/- 0.000000e+00) [K]
    Van der Waals (Tail)/kʙ 0.000000e+00 ( 0.000000e+00 +/- 0.000000e+00) [K]
    Coulombic Real/kʙ       0.000000e+00 ( 0.000000e+00 +/- 0.000000e+00) [K]
    Coulombic Fourier/kʙ    0.000000e+00 ( 0.000000e+00 +/- 0.000000e+00) [K]
Molecule-molecule
    Van der Waals/kʙ       -7.262719e+02 (-1.336360e+03 +/- 0.000000e+00) [K]
    Van der Waals (Tail)/kʙ-2.355884e+01 (-2.161570e+01 +/- 0.000000e+00) [K]
    Coulombic Real/kʙ      -1.156957e+03 (-4.033552e+02 +/- 0.000000e+00) [K]
    Coulombic Fourier/kʙ   -8.934306e+01 (-3.578661e+01 +/- 0.000000e+00) [K]
    Molecule Intra/kʙ       0.000000e+00 ( 0.000000e+00 +/- 0.000000e+00) [K]

Current cycle: 1300 out of 6000
===============================================================================

Box:      33.50260   0.00000   0.00000  Average:  33.64869   0.00000   0.00000
           0.00000  33.50260   0.00000             0.00000  33.64869   0.00000
           0.00000   0.00000  33.50260             0.00000   0.00000  33.64869
Lengths:  33.50260  33.50260  33.50260  Average:  33.64869  33.64869  33.64869
Angles:   90.00000  90.00000  90.00000  Average:  90.00000  90.00000  90.00000
Rectangular boundary conditions

net charge:   0.00000000

component 0 (CO2) lambda:  0 occupancy:  1 (1.000000)
    net charge:   0.00000000 [e]

Amount of molecules per component :
-------------------------------------------------------------------------------
Component 0 (CO2)
    molecules:      1.500000e+01 molecules  (2.005304e+01 +/- 0.000000e+00)
    number density: 3.988923e-04 molec./A^3 (5.261783e-04 +/- 0.000000e+00)
    density:        2.914375e+01 kg/m^3     (3.844349e+01 +/- 0.000000e+00)

Average pressure tensor: 
-------------------------------------------------------------------------------
 1.5449e+01  2.0877e-01  1.4129e-01 +/- 0.0000e+00 0.0000e+00 0.0000e+00 [bar]
 2.0877e-01  1.4056e+01 -1.7882e-01 +/- 0.0000e+00 0.0000e+00 0.0000e+00 [bar]
 1.4129e-01 -1.7882e-01  1.5833e+01 +/- 0.0000e+00 0.0000e+00 0.0000e+00 [bar]
Ideal-gas pressure:   1.816171e+01 +/ 0.000000e+00 [bar]
Excess pressure:     -3.049023e+00 +/ 0.000000e+00 [bar]
Pressure:             1.511268e+01 +/ 0.000000e+00 [bar]

Total potential energy/kʙ  -2.863109e+02 (-1.738401e+03 +/- 0.000000e+00) [K]
-------------------------------------------------------------------------------
ExternalField-molecule
    Van der Waals/kʙ        0.000000e+00 ( 0.000000e+00 +/- 0.000000e+00) [K]
Framework-molecule
    Van der Waals/kʙ        0.000000e+00 ( 0.000000e+00 +/- 0.000000e+00) [K]
    Van der Waals (Tail)/kʙ 0.000000e+00 ( 0.000000e+00 +/- 0.000000e+00) [K]
    Coulombic Real/kʙ       0.000000e+00 ( 0.000000e+00 +/- 0.000000e+00) [K]
    Coulombic Fourier/kʙ    0.000000e+00 ( 0.000000e+00 +/- 0.000000e+00) [K]
Molecule-molecule
    Van der Waals/kʙ       -2.887856e+02 (-1.290420e+03 +/- 0.000000e+00) [K]
    Van der Waals (Tail)/kʙ-1.111177e+01 (-2.109326e+01 +/- 0.000000e+00) [K]
    Coulombic Real/kʙ       4.275680e+01 (-3.925042e+02 +/- 0.000000e+00) [K]
    Coulombic Fourier/kʙ   -2.917033e+01 (-3.438418e+01 +/- 0.000000e+00) [K]
    Molecule Intra/kʙ       0.000000e+00 ( 0.000000e+00 +/- 0.000000e+00) [K]

Current cycle: 1400 out of 6000
===============================================================================

Box:      33.54015   0.00000   0.00000  Average:  33.63850   0.00000   0.00000
           0.00000  33.54015   0.00000             0.00000  33.63850   0.00000
           0.00000   0.00000  33.54015             0.00000   0.00000  33.63850
Lengths:  33.54015  33.54015  33.54015  Average:  33.63850  33.63850  33.63850
Angles:   90.00000  90.00000  90.00000  Average:  90.00000  90.00000  90.00000
Rectangular boundary conditions

net charge:   0.00000000

component 0 (CO2) lambda:  0 occupancy:  1 (1.000000)
    net charge:   0.00000000 [e]

Amount of molecules per component :
-------------------------------------------------------------------------------
Component 0 (CO2)
    molecules:      1.400000e+01 molecules  (1.987652e+01 +/- 0.000000e+00)
    number density: 3.710506e-04 molec./A^3 (5.219631e-04 +/- 0.000000e+00)
    density:        2.710959e+01 kg/m^3     (3.813552e+01 +/- 0.000000e+00)

Average pressure tensor: 
-------------------------------------------------------------------------------
 1.5339e+01  3.4089e-01  3.0043e-01 +/- 0.0000e+00 0.0000e+00 0.0000e+00 [bar]
 3.4089e-01  1.4221e+01 -1.8562e-01 +/- 0.0000e+00 0.0000e+00 0.0000e+00 [bar]
 3.0043e-01 -1.8562e-01  1.5793e+01 +/- 0.0000e+00 0.0000e+00 0.0000e+00 [bar]
Ideal-gas pressure:   1.801621e+01 +/ 0.000000e+00 [bar]
Excess pressure:     -2.898848e+00 +/ 0.000000e+00 [bar]
Pressure:             1.511737e+01 +/ 0.000000e+00 [bar]

Total potential energy/kʙ  -7.218019e+02 (-1.714180e+03 +/- 0.000000e+00) [K]
-------------------------------------------------------------------------------
ExternalField-molecule
    Van der Waals/kʙ        0.000000e+00 ( 0.000000e+00 +/- 0.000000e+00) [K]
Framework-molecule
    Van der Waals/kʙ        0.000000e+00 ( 0.000000e+00 +/- 0.000000e+00) [K]
    Van der Waals (Tail)/kʙ 0.000000e+00 ( 0.000000e+00 +/- 0.000000e+00) [K]
    Coulombic Real/kʙ       0.000000e+00 ( 0.000000e+00 +/- 0.000000e+00) [K]
    Coulombic Fourier/kʙ    0.000000e+00 ( 0.000000e+00 +/- 0.000000e+00) [K]
Molecule-molecule
    Van der Waals/kʙ       -5.019317e+02 (-1.275496e+03 +/- 0.000000e+00) [K]
    Van der Waals (Tail)/kʙ-9.647115e+00 (-2.070055e+01 +/- 0.000000e+00) [K]
    Coulombic Real/kʙ      -2.142959e+02 (-3.859655e+02 +/- 0.000000e+00) [K]
    Coulombic Fourier/kʙ    4.072884e+00 (-3.201834e+01 +/- 0.000000e+00) [K]
    Molecule Intra/kʙ       0.000000e+00 ( 0.000000e+00 +/- 0.000000e+00) [K]

Current cycle: 1500 out of 6000
===============================================================================

Box:      33.61354   0.00000   0.00000  Average:  33.63581   0.00000   0.00000
           0.00000  33.61354   0.00000             0.00000  33.63581   0.00000
           0.00000   0.00000  33.61354             0.00000   0.00000  33.63581
[...]
    molecules:      1.700000e+01 molecules  (1.781547e+01 +/- 2.380807e+00)
    number density: 4.558592e-04 molec./A^3 (4.728015e-04 +/- 5.860705e-05)
    density:        3.330585e+01 kg/m^3     (3.454368e+01 +/- 4.281931e+00)

Average pressure tensor: 
-------------------------------------------------------------------------------
 1.3745e+01  1.0574e-01  2.6713e-01 +/- 1.3758e+00 2.9546e-01 3.7463e-01 [bar]
 1.0574e-01  1.3840e+01  3.0721e-01 +/- 2.9546e-01 5.0839e-01 3.8557e-01 [bar]
 2.6713e-01  3.0721e-01  1.3971e+01 +/- 3.7463e-01 3.8557e-01 1.5580e+00 [bar]
Ideal-gas pressure:   1.631934e+01 +/ 2.022896e+00 [bar]
Excess pressure:     -2.467331e+00 +/ 1.142252e+00 [bar]
Pressure:             1.385201e+01 +/ 1.016426e+00 [bar]

Total potential energy/kʙ  -2.476696e+03 (-1.388177e+03 +/- 3.596056e+02) [K]
-------------------------------------------------------------------------------
ExternalField-molecule
    Van der Waals/kʙ        0.000000e+00 ( 0.000000e+00 +/- 0.000000e+00) [K]
Framework-molecule
    Van der Waals/kʙ        0.000000e+00 ( 0.000000e+00 +/- 0.000000e+00) [K]
    Van der Waals (Tail)/kʙ 0.000000e+00 ( 0.000000e+00 +/- 0.000000e+00) [K]
    Coulombic Real/kʙ       0.000000e+00 ( 0.000000e+00 +/- 0.000000e+00) [K]
    Coulombic Fourier/kʙ    0.000000e+00 ( 0.000000e+00 +/- 0.000000e+00) [K]
Molecule-molecule
    Van der Waals/kʙ       -1.721206e+03 (-1.022550e+03 +/- 2.726801e+02) [K]
    Van der Waals (Tail)/kʙ-1.439182e+01 (-1.687902e+01 +/- 4.424627e+00) [K]
    Coulombic Real/kʙ      -8.465175e+02 (-3.224128e+02 +/- 7.607040e+01) [K]
    Coulombic Fourier/kʙ    1.054196e+02 (-2.633522e+01 +/- 8.859357e+00) [K]
    Molecule Intra/kʙ       0.000000e+00 ( 0.000000e+00 +/- 0.000000e+00) [K]

Current cycle: 5800 out of 6000
===============================================================================

Box:      33.38902   0.00000   0.00000  Average:  33.50834   0.00000   0.00000
           0.00000  33.38902   0.00000             0.00000  33.50834   0.00000
           0.00000   0.00000  33.38902             0.00000   0.00000  33.50834
Lengths:  33.38902  33.38902  33.38902  Average:  33.50834  33.50834  33.50834
Angles:   90.00000  90.00000  90.00000  Average:  90.00000  90.00000  90.00000
Rectangular boundary conditions

net charge:   0.00000000

component 0 (CO2) lambda:  0 occupancy:  1 (1.000000)
    net charge:   0.00000000 [e]

Amount of molecules per component :
-------------------------------------------------------------------------------
Component 0 (CO2)
    molecules:      1.500000e+01 molecules  (1.777314e+01 +/- 2.402268e+00)
    number density: 4.029770e-04 molec./A^3 (4.717274e-04 +/- 5.912217e-05)
    density:        2.944219e+01 kg/m^3     (3.446521e+01 +/- 4.319567e+00)

Average pressure tensor: 
-------------------------------------------------------------------------------
 1.3745e+01  9.6295e-02  2.6533e-01 +/- 1.3720e+00 2.9636e-01 3.5154e-01 [bar]
 9.6295e-02  1.3806e+01  3.0386e-01 +/- 2.9636e-01 5.7109e-01 3.8526e-01 [bar]
 2.6533e-01  3.0386e-01  1.3955e+01 +/- 3.5154e-01 3.8526e-01 1.5547e+00 [bar]
Ideal-gas pressure:   1.628227e+01 +/ 2.040676e+00 [bar]
Excess pressure:     -2.447303e+00 +/ 1.139294e+00 [bar]
Pressure:             1.383496e+01 +/ 1.023472e+00 [bar]

Total potential energy/kʙ  -9.487422e+02 (-1.378429e+03 +/- 3.662753e+02) [K]
-------------------------------------------------------------------------------
ExternalField-molecule
    Van der Waals/kʙ        0.000000e+00 ( 0.000000e+00 +/- 0.000000e+00) [K]
Framework-molecule
    Van der Waals/kʙ        0.000000e+00 ( 0.000000e+00 +/- 0.000000e+00) [K]
    Van der Waals (Tail)/kʙ 0.000000e+00 ( 0.000000e+00 +/- 0.000000e+00) [K]
    Coulombic Real/kʙ       0.000000e+00 ( 0.000000e+00 +/- 0.000000e+00) [K]
    Coulombic Fourier/kʙ    0.000000e+00 ( 0.000000e+00 +/- 0.000000e+00) [K]
Molecule-molecule
    Van der Waals/kʙ       -5.920045e+02 (-1.015087e+03 +/- 2.775268e+02) [K]
    Van der Waals (Tail)/kʙ-1.122555e+01 (-1.676567e+01 +/- 4.497294e+00) [K]
    Coulombic Real/kʙ      -3.493179e+02 (-3.206229e+02 +/- 7.733417e+01) [K]
    Coulombic Fourier/kʙ    3.805762e+00 (-2.595321e+01 +/- 9.196011e+00) [K]
    Molecule Intra/kʙ       0.000000e+00 ( 0.000000e+00 +/- 0.000000e+00) [K]

Current cycle: 5900 out of 6000
===============================================================================

Box:      33.51258   0.00000   0.00000  Average:  33.50757   0.00000   0.00000
           0.00000  33.51258   0.00000             0.00000  33.50757   0.00000
           0.00000   0.00000  33.51258             0.00000   0.00000  33.50757
Lengths:  33.51258  33.51258  33.51258  Average:  33.50757  33.50757  33.50757
Angles:   90.00000  90.00000  90.00000  Average:  90.00000  90.00000  90.00000
Rectangular boundary conditions

net charge:   0.00000000

component 0 (CO2) lambda:  0 occupancy:  1 (1.000000)
    net charge:   0.00000000 [e]

Amount of molecules per component :
-------------------------------------------------------------------------------
Component 0 (CO2)
    molecules:      2.200000e+01 molecules  (1.778732e+01 +/- 2.381535e+00)
    number density: 5.845196e-04 molec./A^3 (4.721477e-04 +/- 5.865593e-05)
    density:        4.270600e+01 kg/m^3     (3.449592e+01 +/- 4.285503e+00)

Average pressure tensor: 
-------------------------------------------------------------------------------
 1.3812e+01  1.0112e-01  2.6728e-01 +/- 1.3503e+00 2.9548e-01 3.2306e-01 [bar]
 1.0112e-01  1.3803e+01  2.9160e-01 +/- 2.9548e-01 5.4587e-01 3.8667e-01 [bar]
 2.6728e-01  2.9160e-01  1.3945e+01 +/- 3.2306e-01 3.8667e-01 1.5448e+00 [bar]
Ideal-gas pressure:   1.629677e+01 +/ 2.024583e+00 [bar]
Excess pressure:     -2.443445e+00 +/ 1.139240e+00 [bar]
Pressure:             1.385333e+01 +/ 9.853268e-01 [bar]

Total potential energy/kʙ  -1.443943e+03 (-1.377055e+03 +/- 3.648072e+02) [K]
-------------------------------------------------------------------------------
ExternalField-molecule
    Van der Waals/kʙ        0.000000e+00 ( 0.000000e+00 +/- 0.000000e+00) [K]
Framework-molecule
    Van der Waals/kʙ        0.000000e+00 ( 0.000000e+00 +/- 0.000000e+00) [K]
    Van der Waals (Tail)/kʙ 0.000000e+00 ( 0.000000e+00 +/- 0.000000e+00) [K]
    Coulombic Real/kʙ       0.000000e+00 ( 0.000000e+00 +/- 0.000000e+00) [K]
    Coulombic Fourier/kʙ    0.000000e+00 ( 0.000000e+00 +/- 0.000000e+00) [K]
Molecule-molecule
    Van der Waals/kʙ       -1.522277e+03 (-1.015500e+03 +/- 2.754456e+02) [K]
    Van der Waals (Tail)/kʙ-2.388130e+01 (-1.681095e+01 +/- 4.433662e+00) [K]
    Coulombic Real/kʙ       9.782884e+01 (-3.187805e+02 +/- 7.861365e+01) [K]
    Coulombic Fourier/kʙ    4.386381e+00 (-2.596430e+01 +/- 9.085117e+00) [K]
    Molecule Intra/kʙ       0.000000e+00 ( 0.000000e+00 +/- 0.000000e+00) [K]


Energy statistics             |  Energy [K]   | Recomputed [K]|  Drift [K]    |
===============================================================================
Total potential energy/kʙ     | -1.094153e+03 | -1.092525e+03 | -1.628081e+00 |
    external field VDW/kʙ     |  0.000000e+00 |  0.000000e+00 |  0.000000e+00 |
    external field Real/kʙ    |  0.000000e+00 |  0.000000e+00 |  0.000000e+00 |
    framework-molecule VDW/kʙ |  0.000000e+00 |  0.000000e+00 |  0.000000e+00 |
    framework-molecule Real/kʙ|  0.000000e+00 |  0.000000e+00 |  0.000000e+00 |
    molecule-molecule VDW/kʙ  | -7.654234e+02 | -7.635545e+02 | -1.868931e+00 |
    molecule-molecule Real/kʙ | -3.157198e+02 | -3.159606e+02 |  2.408496e-01 |
    Van der Waals (Tail)/kʙ   | -9.703924e+00 | -9.703924e+00 |  0.000000e+00 |
    Ewald Fourier/kʙ          |  8.199729e+02 |  8.199729e+02 |  1.367339e-13 |
    Ewald self/kʙ             | -2.571349e+05 | -2.571349e+05 |  0.000000e+00 |
    Ewald exclusion/kʙ        |  2.563117e+05 |  2.563117e+05 |  0.000000e+00 |
    intra VDW/kʙ              |  0.000000e+00 |  0.000000e+00 |  0.000000e+00 |
    intra Coulombic/kʙ        |  0.000000e+00 |  0.000000e+00 |  0.000000e+00 |
    polarization/kʙ           |  0.000000e+00 |  0.000000e+00 |  0.000000e+00 |
    dU/dlambda VDW/kʙ         |  0.000000e+00 |  0.000000e+00 |  0.000000e+00 |
    dU/dlambda Real/kʙ        |  0.000000e+00 |  0.000000e+00 |  0.000000e+00 |
    dU/dlambda Ewald/kʙ       |  0.000000e+00 |  0.000000e+00 |  0.000000e+00 |
-------------------------------------------------------------------------------


Monte-Carlo moves statistics
===============================================================================

    Gibbs volume         all:                2839
    Gibbs volume         total:              5927
    Gibbs volume         constructed:        5927
    Gibbs volume         accepted:           3585
    Gibbs volume         fraction:       0.604859
    Gibbs volume         max-change:     0.049258

Component 0 [CO2]
    Reinsertion (CBMC)   all:              149689
    Reinsertion (CBMC)   total:            149689
    Reinsertion (CBMC)   constructed:      149689
    Reinsertion (CBMC)   accepted:         115622
    Reinsertion (CBMC)   fraction:       0.772415
    Reinsertion (CBMC)   max-change:     0.000000

    Gibbs swap (CBMC)    all:              298244
    Gibbs swap (CBMC)    total:            597151
    Gibbs swap (CBMC)    constructed:      569736
    Gibbs swap (CBMC)    accepted:          42128
    Gibbs swap (CBMC)    fraction:       0.070548
    Gibbs swap (CBMC)    max-change:     0.000000

    Translation          all:              149262
    Translation          total:             49912      49815      49535
    Translation          constructed:       49861      49767      49485
    Translation          accepted:          44767      44712      44444
    Translation          fraction:       0.896919   0.897561   0.897224
    Translation          max-change:     1.500000   1.500000   1.500000

    Rotation             all:              149598
    Rotation             total:             49839      49575      50184
    Rotation             constructed:       49828      49562      50176
    Rotation             accepted:          44694      44232      44727
    Rotation             fraction:       0.896768   0.892224   0.891260
    Rotation             max-change:     1.500000   1.500000   1.500000



Production run counting of the MC moves summed over systems and components
===============================================================================

Reinsertion (CBMC)                   299389 (19.9593 [%])
Gibbs volume                           5927 (0.3951 [%])
Gibbs swap (CBMC)                    597151 (39.8101 [%])
Translation                          298326 (19.8884 [%])
Rotation                             299207 (19.9471 [%])

Production count MC-steps:          1500000 [-]
               All summed:          1500000 [-]
               difference:                0 [-]


Production run CPU timings of the MC moves
===============================================================================

Component 0 CO2

Rotation                              7.629961 [s]
    Ewald                             6.023734 [s]
    ExternalField-Molecule            0.005620 [s]
    Framework-Molecule                0.005343 [s]
    Molecule-Molecule                 0.706345 [s]
    Overhead                          0.888919 [s]

Reinsertion (CBMC)                   15.635183 [s]
    Ewald                             6.042854 [s]
    NonEwald                          8.827400 [s]
    Overhead                          0.764929 [s]

Translation                           7.647629 [s]
    Ewald                             6.035408 [s]
    ExternalField-Molecule            0.004701 [s]
    Framework-Molecule                0.010675 [s]
    Molecule-Molecule                 0.710331 [s]
    Overhead                          0.886514 [s]



Gibbs swap (CBMC)                   171.487142 [s]
    Ewald                            27.227381 [s]
    NonEwald                        141.752431 [s]
    Tail                              1.498108 [s]

Gibbs volume                         21.598728 [s]
    Ewald                             9.737721 [s]
    NonEwald                         10.987385 [s]
    Tail                              0.733868 [s]

Property sampling                     0.226143 [s]
Energy/pressure sampling:             0.315141 [s]


Production run CPU timings of the MC moves summed over systems and components
===============================================================================


Translation                          30.143859 [s]
    Ewald                            17.296045 [s]
    ExternalField-Molecule            0.009598 [s]
    Framework-Molecule                0.021569 [s]
    Molecule-Molecule                10.856182 [s]
    Overhead                          1.960465 [s]

Rotation                             30.162632 [s]
    Ewald                            17.398862 [s]
    ExternalField-Molecule            0.010992 [s]
    Framework-Molecule                0.010764 [s]
    Molecule-Molecule                10.894533 [s]
    Overhead                          1.847481 [s]

Reinsertion (CBMC)                   96.547671 [s]
    Ewald                            16.380303 [s]
    NonEwald                         79.209103 [s]
    Overhead                          0.958265 [s]

Gibbs volume                         45.062481 [s]
    Ewald                            20.323020 [s]
    NonEwald                         22.911849 [s]
    Tail                              1.530255 [s]
    Overhead                          0.297357 [s]

Gibbs swap (CBMC)                   287.420094 [s]
    Ewald                            51.935802 [s]
    NonEwald                        230.792774 [s]
    Tail                              2.737923 [s]
    Overhead                          1.953595 [s]

Property sampling:                    0.549041 [s]
Energy/pressure sampling:            10.152026 [s]

Production simulation time:         501.388964 [s]
                All summed:         500.037804 [s]
                  Overhead:           1.351160 [s]


Initalization simulation time:      161.365922 [s]
Equilibration simulation time:        0.000000 [s]
Production simulation time:         501.388964 [s]
Total simulation time:              662.754886 [s]


Energy averages and statistics:
===============================================================================

Framework-molecule energy:
-------------------------------------------------------------------------------



Framework-molecule energy contributions per energy type:
-------------------------------------------------------------------------------



Inter-molecular energy:
-------------------------------------------------------------------------------

    Inter-molecular energy/kʙ 0-0 [CO2-CO2]:
    ---------------------------------------------------------------------------
        Block[  0] -1.795459e+03
        Block[  1] -1.536013e+03
        Block[  2] -1.280636e+03
        Block[  3] -1.046271e+03
        Block[  4] -1.240612e+03
        -----------------------------------------------------------------------
        Average  -1.379798e+03 +/-  3.606789e+02 [K]



Inter-molecular energy contributions per energy type:
-------------------------------------------------------------------------------

    Van der Waals energy/kʙ 0-0 [CO2-CO2]:
    ---------------------------------------------------------------------------
        Block[  0] -1.341444e+03
        Block[  1] -1.117379e+03
        Block[  2] -9.378716e+02
        Block[  3] -7.653909e+02
        Block[  4] -9.297528e+02
        -----------------------------------------------------------------------
        Average  -1.018368e+03 +/-  2.723533e+02 [K]

    VDW Tail-Correction energy/kʙ 0-0 [CO2-CO2]:
    ---------------------------------------------------------------------------
        Block[  0] -2.159951e+01
        Block[  1] -1.885543e+01
        Block[  2] -1.600651e+01
        Block[  3] -1.226055e+01
        Block[  4] -1.543617e+01
        -----------------------------------------------------------------------
        Average  -1.683163e+01 +/-  4.404634e+00 [K]

    Coulomb Real energy/kʙ 0-0 [CO2-CO2]:
    ---------------------------------------------------------------------------
        Block[  0] -3.970751e+02
        Block[  1] -3.715876e+02
        Block[  2] -2.983778e+02
        Block[  3] -2.523149e+02
        Block[  4] -2.744863e+02
        -----------------------------------------------------------------------
        Average  -3.187684e+02 +/-  7.781362e+01 [K]

    Coulomb Fourier energy/kʙ 0-0 [CO2-CO2]:
    ---------------------------------------------------------------------------
        Block[  0] -3.534031e+01
        Block[  1] -2.819118e+01
        Block[  2] -2.837994e+01
        Block[  3] -1.630490e+01
        Block[  4] -2.093702e+01
        -----------------------------------------------------------------------
        Average  -2.583067e+01 +/-  9.148008e+00 [K]


Total energy/kʙ
-------------------------------------------------------------------------------
    Block[  0] -1.795459e+03
    Block[  1] -1.536013e+03
    Block[  2] -1.280636e+03
    Block[  3] -1.046271e+03
    Block[  4] -1.240612e+03
    ---------------------------------------------------------------------------
    Average  -1.379798e+03 +/-  3.606789e+02 [K]

Pressure averages and statistics:
===============================================================================

Average pressure tensor: 
-------------------------------------------------------------------------------
 1.3798e+01  1.0012e-01  2.6882e-01 +/- 1.3515e+00 2.9555e-01 3.0103e-01 [bar]
 1.0012e-01  1.3790e+01  2.6053e-01 +/- 2.9555e-01 5.5128e-01 4.0267e-01 [bar]
 2.6882e-01  2.6053e-01  1.3907e+01 +/- 3.0103e-01 4.0267e-01 1.5717e+00 [bar]

    Block[  0]  1.834287e+06
    Block[  1]  1.716386e+06
    Block[  2]  1.621295e+06
    Block[  3]  1.397616e+06
    Block[  4]  1.586174e+06
    ---------------------------------------------------------------------------
    Ideal gas pressure   1.631152e+06 +/-  1.212376e-02 [Pa]
                         1.631152e+01 +/-  2.013199e+00 [bar]


    Block[  0] -3.297958e+05
    Block[  1] -3.177756e+05
    Block[  2] -2.297726e+05
    Block[  3] -1.002007e+05
    Block[  4] -2.624555e+05
    ---------------------------------------------------------------------------
    Excess pressure  -2.480000e+05 +/-  1.143648e+05 [Pa]
                     -2.480000e+00 +/-  1.143648e+00 [bar]


    Block[  0]  1.504491e+06
    Block[  1]  1.398610e+06
    Block[  2]  1.391522e+06
    Block[  3]  1.297416e+06
    Block[  4]  1.323719e+06
    ---------------------------------------------------------------------------
    Pressure average   1.383152e+06 +/-  9.992670e+04 [Pa]
                       1.383152e+01 +/-  9.992670e-01 [bar]


Enthalpy of adsorption
===============================================================================

Component 0 [CO2]
-------------------------------------------------------------------------------
    Block[  0] -4.043018e+02
    Block[  1] -4.111577e+02
    Block[  2] -3.903849e+02
    Block[  3] -3.812770e+02
    Block[  4] -3.909603e+02
    ---------------------------------------------------------------------------
    Enthalpy of adsorption: -3.956163e+02 +/-  1.484104e+01 [K]
                            -3.289338e+00 +/-  1.233953e-01 [kJ/mol]
    Warning: need to subtract the ideal-gas energy.


Densities
===============================================================================

Component 0 (CO2)
    Block[  0] 20.25916666666667
    Block[  1] 18.815
    Block[  2] 17.6175
    Block[  3] 15.15
    Block[  4] 17.17
    -----------------------------------------------------------------------
    Density average   1.780233e+01 +/-  2.366156e+00 [molecules]
    Density average   4.725749e-04 +/-  5.832611e-05 [molec/A^3]
    Density average   3.452713e+01 +/-  4.261406e+00 [kg.m⁻³]

