Compiler and run-time data
===============================================================================
RASPA 3.0.4

Random seed: 2369418571

Compiled as a 64-bits application
Compiler: gcc Ubuntu Clang 18.1.3 (1ubuntu1)
Compile Date = Mar 15 2025, Compile Time = 19:39:45

2025-06-03 11:00:36.155580
Simulation started on Tue, Jun 03
The start time was 11:00:00

Hostname:    c061
OS type:     Linux on x86_64
OS release:  6.8.0-58-generic
OS version:  #60-Ubuntu SMP PREEMPT_DYNAMIC Fri Mar 14 18:29:48 UTC 2025


Mutual consistent basic set of units:
===============================================================================

Unit of temperature: 1 [K]
Unit of length:      1e-10 [m]
Unit of time:        1e-12 [s]
Unit of mass:        1.6605402e-27 [kg]
Unit of charge:      1.60217733e-19 [C/particle]


Boltzmann constant (internal units):          0.8314464919307584 [-]
represents conversion from energy (internal units) to temperature (in Kelvin)

Derived units and their conversion factors:
===============================================================================

Unit of energy:                           1.6605402000000002e-23 [J]
Unit of energy:                           10.000008872307538 [J.mol⁻¹]
Unit of velocity:                         100 [m.s⁻¹]
Unit of force:                            1.6605402000000002e-13 [N]
Unit of diffusion:                        1.0000000000000002e-08 [m².s⁻¹]
Unit of acceleration:                     1.0000000000000002e-08 [m².s⁻¹]
Unit of torque:                           1.6605402000000002e-23 [N.m]
Unit of pressure:                         16605402 [Pa]
Unit of volume:                           1e-30 [m³]
Unit of density:                          1660.5402 [kg.m⁻³]
Unit of dynamic viscosity:                1.6605401999999997e-05 [N.s.m⁻²]
Unit of enthalpy:                         1.6605402000000002e-23 [J]
Unit of polarizability:                   1.5458657349975198e-35 [-]
Unit of Coulomb potential:                167101.08000665612 [K]
Unit of dielectric constant:              1.5458657349975193e-05 [s².C².kg⁻¹.m⁻³]
Unit of dipole moment:                    1.60217733e-29 [C.m]
Unit of Debye:                            4.803206799099162 [C.m]
Unit of electric potential:               0.00010364272224473431 [V]
Unit of electric field:                   1036427.222447343 [V.m⁻¹]
Unit of isothermal compressibility:       6.02213665167516e-08 [Pa⁻¹]
Unit of heat capacity:                    10.000008872307538 [J.mol⁻¹.K⁻¹]
Unit of volumetric expansion coefficient: 1 [K⁻¹]


Internal conversion factors:
===============================================================================

Energy (internal units) to Kelvin:      1.202724284692786 [-]
Kelvin to energy (internal units):      0.8314457542157567 [-]


System definitions
===============================================================================

Temperature:          250 [K]
Beta:                 0.0048108928702210625 [-]
Pressure:             0 [Pa]
Helium void fraction: 1 [-]

Box:      30.00000   0.00000   0.00000
           0.00000  30.00000   0.00000
           0.00000   0.00000  30.00000
Lengths:  30.00000  30.00000  30.00000
Angles:   90.00000  90.00000  90.00000
Rectangular boundary conditions



Property measurement settings
===============================================================================




Pseudo-atoms
===============================================================================

  0 - C_co2    framework-atom: false
  1 - O_co2    framework-atom: false

  0 - C_co2    mass: 12.00000, charge:  0.70000
  1 - O_co2    mass: 15.99940, charge: -0.35000

  0 - C_co2    polarizability:  0.00000
  1 - O_co2    polarizability:  0.00000

  0 - J. J. Potoff et al., AIChE J. 2001, 47, 1676–1682.
  1 - J. J. Potoff et al., AIChE J. 2001, 47, 1676–1682.

Force field status
===============================================================================

Cutoff Framework-Molecule VDW:  10.00000 [Å]
Cutoff Molecule-Molecule VDW:   10.00000 [Å]
Cutoff Coulomb:                 10.00000 [Å]

Overlap-criteria VDW:           1.000000e+05 [K]

C_co2    - C_co2    Lennard-Jones p₀/kʙ:  27.00000 [K], p₁:  2.80000 [Å]
                                  shift:   0.00000 [K], tailcorrections: true
C_co2    - O_co2    Lennard-Jones p₀/kʙ:  46.18441 [K], p₁:  2.92500 [Å]
                                  shift:   0.00000 [K], tailcorrections: true
O_co2    - O_co2    Lennard-Jones p₀/kʙ:  79.00000 [K], p₁:  3.05000 [Å]
                                  shift:   0.00000 [K], tailcorrections: true

Ewald precision: 1e-06
Ewald alpha: 0.32079885109097883
Ewald k-vectors: 10 10 10


Component definitions
===============================================================================

Component 0 [CO2]

    Type: Adsorbate

    Critical temperature:  304.1282 [K]
    Critical pressure:     7377300 [Pa]
    Acentric factor:       0.22394 [-]

    Mol-fraction:                 1 [-]
    Swappable:                   true

    Mass:                         43.9988 [-]
    Fugacity coefficient:         -nan [-]
    Bulk fluid density:           0 [-]
    Compressibility:              1 [-]
    Excess molecules:             0 [-]

    Number Of Atoms:    3
    CBMC starting bead: 0
      0: O_co2  position  0.00000 -0.00000  1.16000, charge -0.35000
      1: C_co2  position  0.00000 -0.00000  0.00000, charge  0.70000
      2: O_co2  position  0.00000 -0.00000 -1.16000, charge -0.35000
    Diagonalized inertia-vector:      43.05758528 43.05758528 0.00000000
    Translational degrees of freedom: 3
    Rotational degrees of freedom:    2
    Shape of the molecule is: 'Linear'
    Net-charge:        0.00000000 [e]

    Move probabilities:
    Translation:                   0.199203 [-]
    Random translation:            0.000000 [-]
    Rotation:                      0.199203 [-]
    Random rotation:               0.000000 [-]
    Volume change:                 0.000000 [-]
    Reinsertion (CBMC):            0.199203 [-]
    Identity change (CBMC):        0.000000 [-]
    Swap:                          0.000000 [-]
    Swap (CBMC):                   0.000000 [-]
    Swap (CFCMC):                  0.000000 [-]
    Swap (CB/CFCMC):               0.000000 [-]
    Gibbs volume:                  0.003984 [-]
    Gibbs swap (CBMC):             0.398406 [-]
    Gibbs swap (CFCMC):            0.000000 [-]
    Widom:                         0.000000 [-]
    Widom (CFCMC):                 0.000000 [-]
    Widom (CB/CFCMC):              0.000000 [-]
    Parallel tempering:            0.000000 [-]
    Hybrid MC:                     0.000000 [-]

    number of blocking-pockets: 0

    number of bonds: 0





Number of pseudo-atoms
===============================================================================

Component   0 (CO2)
-------------------------------------------------------------------------------
    index   0 (C_co2): 210 atoms
    index   1 (O_co2): 420 atoms

Total number of pseudo-atoms:
-------------------------------------------------------------------------------
    index   0 (C_co2): 210 atoms
    index   1 (O_co2): 420 atoms




Energy status Recomputed from scratch
===============================================================================

Total potential energy/kʙ       -1.085803e+05 [K]
    external field VDW/kʙ        0.000000e+00 [K]
    external field Real/kʙ       0.000000e+00 [K]
    framework-molecule VDW/kʙ    0.000000e+00 [K]
    framework-molecule Real/kʙ   0.000000e+00 [K]
    molecule-molecule VDW/kʙ    -8.432415e+04 [K]
    molecule-molecule Real/kʙ   -1.592874e+04 [K]
    Van der Waals (Tail)/kʙ     -5.240630e+03 [K]
    Ewald Fourier/kʙ             2.742801e+04 [K]
    Ewald self/kʙ               -4.668139e+06 [K]
    Ewald exclusion/kʙ           4.637624e+06 [K]
    intra VDW/kʙ                 0.000000e+00 [K]
    intra Coulombic/kʙ           0.000000e+00 [K]
    polarization/kʙ              0.000000e+00 [K]
    dU/dlambda VDW/kʙ            0.000000e+00 [K]
    dU/dlambda Real/kʙ           0.000000e+00 [K]
    dU/dlambda Ewald/kʙ          0.000000e+00 [K]





Initialization: Current cycle: 0 out of 2000
===============================================================================

Box:      30.45232   0.00000   0.00000
           0.00000  30.45232   0.00000
           0.00000   0.00000  30.45232
Lengths:  30.45232  30.45232  30.45232
Angles:   90.00000  90.00000  90.00000
Rectangular boundary conditions

net charge:   0.00000000

component   0 (CO2) lambda:  0 occupancy:  0 (0.000000)
    net charge:   0.00000000 [e]

Amount of molecules per component :
-------------------------------------------------------------------------------
Component 0 (CO2)
    molecules:         2.070000e+02 molecules
    number density:    7.330087e-03 molec/A^3
    density:           5.355487e+02 kg/m^3

Total potential energy/kʙ       -1.137400e+05 [K]
-------------------------------------------------------------------------------
    external field VDW/kʙ        0.000000e+00 [K]
    external field Real/kʙ       0.000000e+00 [K]
    framework-molecule VDW/kʙ    0.000000e+00 [K]
    framework-molecule Real/kʙ   0.000000e+00 [K]
    molecule-molecule VDW/kʙ    -8.613830e+04 [K]
    molecule-molecule Real/kʙ   -1.807342e+04 [K]
    Van der Waals (Tail)/kʙ     -4.868422e+03 [K]
    Ewald Fourier/kʙ             2.541896e+04 [K]
    Ewald self/kʙ               -4.601451e+06 [K]
    Ewald exclusion/kʙ           4.571372e+06 [K]
    intra VDW/kʙ                 0.000000e+00 [K]
    intra Coulombic/kʙ           0.000000e+00 [K]
    polarization/kʙ              0.000000e+00 [K]
    dU/dlambda VDW/kʙ            0.000000e+00 [K]
    dU/dlambda Real/kʙ           0.000000e+00 [K]
    dU/dlambda Ewald/kʙ          0.000000e+00 [K]


Initialization: Current cycle: 100 out of 2000
===============================================================================

Box:      29.87855   0.00000   0.00000
           0.00000  29.87855   0.00000
           0.00000   0.00000  29.87855
Lengths:  29.87855  29.87855  29.87855
Angles:   90.00000  90.00000  90.00000
Rectangular boundary conditions

net charge:   0.00000000

component   0 (CO2) lambda:  0 occupancy:  0 (0.000000)
    net charge:   0.00000000 [e]

Amount of molecules per component :
-------------------------------------------------------------------------------
Component 0 (CO2)
    molecules:         2.410000e+02 molecules
    number density:    9.035216e-03 molec/A^3
    density:           6.601284e+02 kg/m^3

Total potential energy/kʙ       -2.360968e+05 [K]
-------------------------------------------------------------------------------
    external field VDW/kʙ        0.000000e+00 [K]
    external field Real/kʙ       0.000000e+00 [K]
    framework-molecule VDW/kʙ    0.000000e+00 [K]
    framework-molecule Real/kʙ   0.000000e+00 [K]
    molecule-molecule VDW/kʙ    -1.705097e+05 [K]
    molecule-molecule Real/kʙ   -4.554574e+04 [K]
    Van der Waals (Tail)/kʙ     -6.986574e+03 [K]
    Ewald Fourier/kʙ             2.196458e+04 [K]
    Ewald self/kʙ               -5.357245e+06 [K]
    Ewald exclusion/kʙ           5.322226e+06 [K]
    intra VDW/kʙ                 0.000000e+00 [K]
    intra Coulombic/kʙ           0.000000e+00 [K]
    polarization/kʙ              0.000000e+00 [K]
    dU/dlambda VDW/kʙ            0.000000e+00 [K]
    dU/dlambda Real/kʙ           0.000000e+00 [K]
    dU/dlambda Ewald/kʙ          0.000000e+00 [K]


Initialization: Current cycle: 200 out of 2000
===============================================================================

Box:      28.86423   0.00000   0.00000
           0.00000  28.86423   0.00000
           0.00000   0.00000  28.86423
Lengths:  28.86423  28.86423  28.86423
Angles:   90.00000  90.00000  90.00000
Rectangular boundary conditions

net charge:   0.00000000

component   0 (CO2) lambda:  0 occupancy:  0 (0.000000)
    net charge:   0.00000000 [e]

Amount of molecules per component :
-------------------------------------------------------------------------------
Component 0 (CO2)
    molecules:         2.350000e+02 molecules
    number density:    9.772105e-03 molec/A^3
    density:           7.139667e+02 kg/m^3

Total potential energy/kʙ       -2.640414e+05 [K]
-------------------------------------------------------------------------------
    external field VDW/kʙ        0.000000e+00 [K]
    external field Real/kʙ       0.000000e+00 [K]
    framework-molecule VDW/kʙ    0.000000e+00 [K]
    framework-molecule Real/kʙ   0.000000e+00 [K]
    molecule-molecule VDW/kʙ    -1.823416e+05 [K]
    molecule-molecule Real/kʙ   -6.010341e+04 [K]
    Van der Waals (Tail)/kʙ     -7.368256e+03 [K]
    Ewald Fourier/kʙ             1.991934e+04 [K]
    Ewald self/kʙ               -5.223870e+06 [K]
    Ewald exclusion/kʙ           5.189722e+06 [K]
    intra VDW/kʙ                 0.000000e+00 [K]
    intra Coulombic/kʙ           0.000000e+00 [K]
    polarization/kʙ              0.000000e+00 [K]
    dU/dlambda VDW/kʙ            0.000000e+00 [K]
    dU/dlambda Real/kʙ           0.000000e+00 [K]
    dU/dlambda Ewald/kʙ          0.000000e+00 [K]


Initialization: Current cycle: 300 out of 2000
===============================================================================

Box:      27.48540   0.00000   0.00000
           0.00000  27.48540   0.00000
           0.00000   0.00000  27.48540
Lengths:  27.48540  27.48540  27.48540
Angles:   90.00000  90.00000  90.00000
Rectangular boundary conditions

net charge:   0.00000000

component   0 (CO2) lambda:  0 occupancy:  0 (0.000000)
    net charge:   0.00000000 [e]

Amount of molecules per component :
-------------------------------------------------------------------------------
Component 0 (CO2)
    molecules:         2.330000e+02 molecules
    number density:    1.122147e-02 molec/A^3
    density:           8.198600e+02 kg/m^3

Total potential energy/kʙ       -2.851752e+05 [K]
-------------------------------------------------------------------------------
    external field VDW/kʙ        0.000000e+00 [K]
    external field Real/kʙ       0.000000e+00 [K]
    framework-molecule VDW/kʙ    0.000000e+00 [K]
    framework-molecule Real/kʙ   0.000000e+00 [K]
    molecule-molecule VDW/kʙ    -2.000607e+05 [K]
    molecule-molecule Real/kʙ   -6.226579e+04 [K]
    Van der Waals (Tail)/kʙ     -8.389082e+03 [K]
    Ewald Fourier/kʙ             1.939722e+04 [K]
    Ewald self/kʙ               -5.179411e+06 [K]
    Ewald exclusion/kʙ           5.145554e+06 [K]
    intra VDW/kʙ                 0.000000e+00 [K]
    intra Coulombic/kʙ           0.000000e+00 [K]
    polarization/kʙ              0.000000e+00 [K]
    dU/dlambda VDW/kʙ            0.000000e+00 [K]
    dU/dlambda Real/kʙ           0.000000e+00 [K]
    dU/dlambda Ewald/kʙ          0.000000e+00 [K]


Initialization: Current cycle: 400 out of 2000
===============================================================================

Box:      26.58572   0.00000   0.00000
           0.00000  26.58572   0.00000
           0.00000   0.00000  26.58572
Lengths:  26.58572  26.58572  26.58572
Angles:   90.00000  90.00000  90.00000
Rectangular boundary conditions

net charge:   0.00000000

component   0 (CO2) lambda:  0 occupancy:  0 (0.000000)
    net charge:   0.00000000 [e]

Amount of molecules per component :
-------------------------------------------------------------------------------
Component 0 (CO2)
    molecules:         2.360000e+02 molecules
    number density:    1.255934e-02 molec/A^3
    density:           9.176068e+02 kg/m^3

Total potential energy/kʙ       -3.084762e+05 [K]
-------------------------------------------------------------------------------
    external field VDW/kʙ        0.000000e+00 [K]
    external field Real/kʙ       0.000000e+00 [K]
    framework-molecule VDW/kʙ    0.000000e+00 [K]
    framework-molecule Real/kʙ   0.000000e+00 [K]
    molecule-molecule VDW/kʙ    -2.214504e+05 [K]
    molecule-molecule Real/kʙ   -6.164428e+04 [K]
    Van der Waals (Tail)/kʙ     -9.510152e+03 [K]
    Ewald Fourier/kʙ             1.842147e+04 [K]
    Ewald self/kʙ               -5.246099e+06 [K]
    Ewald exclusion/kʙ           5.211806e+06 [K]
    intra VDW/kʙ                 0.000000e+00 [K]
    intra Coulombic/kʙ           0.000000e+00 [K]
    polarization/kʙ              0.000000e+00 [K]
    dU/dlambda VDW/kʙ            0.000000e+00 [K]
    dU/dlambda Real/kʙ           0.000000e+00 [K]
    dU/dlambda Ewald/kʙ          0.000000e+00 [K]


Initialization: Current cycle: 500 out of 2000
===============================================================================

Box:      25.65488   0.00000   0.00000
           0.00000  25.65488   0.00000
           0.00000   0.00000  25.65488
Lengths:  25.65488  25.65488  25.65488
Angles:   90.00000  90.00000  90.00000
Rectangular boundary conditions

net charge:   0.00000000

component   0 (CO2) lambda:  0 occupancy:  0 (0.000000)
    net charge:   0.00000000 [e]

Amount of molecules per component :
-------------------------------------------------------------------------------
Component 0 (CO2)
    molecules:         2.300000e+02 molecules
    number density:    1.362128e-02 molec/A^3
    density:           9.951942e+02 kg/m^3

Total potential energy/kʙ       -3.315448e+05 [K]
-------------------------------------------------------------------------------
    external field VDW/kʙ        0.000000e+00 [K]
    external field Real/kʙ       0.000000e+00 [K]
    framework-molecule VDW/kʙ    0.000000e+00 [K]
    framework-molecule Real/kʙ   0.000000e+00 [K]
    molecule-molecule VDW/kʙ    -2.380679e+05 [K]
    molecule-molecule Real/kʙ   -6.648385e+04 [K]
    Van der Waals (Tail)/kʙ     -1.005205e+04 [K]
    Ewald Fourier/kʙ             1.648000e+04 [K]
    Ewald self/kʙ               -5.112723e+06 [K]
    Ewald exclusion/kʙ           5.079302e+06 [K]
    intra VDW/kʙ                 0.000000e+00 [K]
    intra Coulombic/kʙ           0.000000e+00 [K]
    polarization/kʙ              0.000000e+00 [K]
    dU/dlambda VDW/kʙ            0.000000e+00 [K]
    dU/dlambda Real/kʙ           0.000000e+00 [K]
    dU/dlambda Ewald/kʙ          0.000000e+00 [K]


Initialization: Current cycle: 600 out of 2000
===============================================================================

Box:      25.41481   0.00000   0.00000
           0.00000  25.41481   0.00000
           0.00000   0.00000  25.41481
Lengths:  25.41481  25.41481  25.41481
Angles:   90.00000  90.00000  90.00000
Rectangular boundary conditions

net charge:   0.00000000

component   0 (CO2) lambda:  0 occupancy:  0 (0.000000)
    net charge:   0.00000000 [e]

Amount of molecules per component :
-------------------------------------------------------------------------------
Component 0 (CO2)
    molecules:         2.340000e+02 molecules
    number density:    1.425461e-02 molec/A^3
    density:           1.041466e+03 kg/m^3

Total potential energy/kʙ       -3.513227e+05 [K]
-------------------------------------------------------------------------------
    external field VDW/kʙ        0.000000e+00 [K]
    external field Real/kʙ       0.000000e+00 [K]
    framework-molecule VDW/kʙ    0.000000e+00 [K]
    framework-molecule Real/kʙ   0.000000e+00 [K]
    molecule-molecule VDW/kʙ    -2.470605e+05 [K]
    molecule-molecule Real/kʙ   -7.500314e+04 [K]
    Van der Waals (Tail)/kʙ     -1.070237e+04 [K]
    Ewald Fourier/kʙ             1.544551e+04 [K]
    Ewald self/kʙ               -5.201640e+06 [K]
    Ewald exclusion/kʙ           5.167638e+06 [K]
    intra VDW/kʙ                 0.000000e+00 [K]
    intra Coulombic/kʙ           0.000000e+00 [K]
    polarization/kʙ              0.000000e+00 [K]
    dU/dlambda VDW/kʙ            0.000000e+00 [K]
    dU/dlambda Real/kʙ           0.000000e+00 [K]
    dU/dlambda Ewald/kʙ          0.000000e+00 [K]


Initialization: Current cycle: 700 out of 2000
===============================================================================

Box:      25.47922   0.00000   0.00000
           0.00000  25.47922   0.00000
           0.00000   0.00000  25.47922
Lengths:  25.47922  25.47922  25.47922
Angles:   90.00000  90.00000  90.00000
Rectangular boundary conditions

net charge:   0.00000000

component   0 (CO2) lambda:  0 occupancy:  0 (0.000000)
    net charge:   0.00000000 [e]

Amount of molecules per component :
-------------------------------------------------------------------------------
Component 0 (CO2)
    molecules:         2.370000e+02 molecules
    number density:    1.432815e-02 molec/A^3
    density:           1.046839e+03 kg/m^3

Total potential energy/kʙ       -3.575854e+05 [K]
-------------------------------------------------------------------------------
    external field VDW/kʙ        0.000000e+00 [K]
    external field Real/kʙ       0.000000e+00 [K]
    framework-molecule VDW/kʙ    0.000000e+00 [K]
    framework-molecule Real/kʙ   0.000000e+00 [K]
    molecule-molecule VDW/kʙ    -2.550489e+05 [K]
    molecule-molecule Real/kʙ   -7.359702e+04 [K]
    Van der Waals (Tail)/kʙ     -1.089550e+04 [K]
    Ewald Fourier/kʙ             1.639419e+04 [K]
    Ewald self/kʙ               -5.268328e+06 [K]
    Ewald exclusion/kʙ           5.233890e+06 [K]
    intra VDW/kʙ                 0.000000e+00 [K]
    intra Coulombic/kʙ           0.000000e+00 [K]
    polarization/kʙ              0.000000e+00 [K]
    dU/dlambda VDW/kʙ            0.000000e+00 [K]
    dU/dlambda Real/kʙ           0.000000e+00 [K]
    dU/dlambda Ewald/kʙ          0.000000e+00 [K]


Initialization: Current cycle: 800 out of 2000
===============================================================================

Box:      25.68338   0.00000   0.00000
           0.00000  25.68338   0.00000
           0.00000   0.00000  25.68338
Lengths:  25.68338  25.68338  25.68338
Angles:   90.00000  90.00000  90.00000
Rectangular boundary conditions

net charge:   0.00000000

component   0 (CO2) lambda:  0 occupancy:  0 (0.000000)
    net charge:   0.00000000 [e]

Amount of molecules per component :
-------------------------------------------------------------------------------
Component 0 (CO2)
    molecules:         2.320000e+02 molecules
    number density:    1.369403e-02 molec/A^3
    density:           1.000509e+03 kg/m^3

Total potential energy/kʙ       -3.329639e+05 [K]
-------------------------------------------------------------------------------
    external field VDW/kʙ        0.000000e+00 [K]
    external field Real/kʙ       0.000000e+00 [K]
    framework-molecule VDW/kʙ    0.000000e+00 [K]
    framework-molecule Real/kʙ   0.000000e+00 [K]
    molecule-molecule VDW/kʙ    -2.418179e+05 [K]
    molecule-molecule Real/kʙ   -6.426521e+04 [K]
    Van der Waals (Tail)/kʙ     -1.019361e+04 [K]
    Ewald Fourier/kʙ             1.702437e+04 [K]
    Ewald self/kʙ               -5.157182e+06 [K]
    Ewald exclusion/kʙ           5.123470e+06 [K]
    intra VDW/kʙ                 0.000000e+00 [K]
    intra Coulombic/kʙ           0.000000e+00 [K]
    polarization/kʙ              0.000000e+00 [K]
    dU/dlambda VDW/kʙ            0.000000e+00 [K]
    dU/dlambda Real/kʙ           0.000000e+00 [K]
    dU/dlambda Ewald/kʙ          0.000000e+00 [K]


Initialization: Current cycle: 900 out of 2000
===============================================================================

Box:      25.25097   0.00000   0.00000
           0.00000  25.25097   0.00000
           0.00000   0.00000  25.25097
Lengths:  25.25097  25.25097  25.25097
Angles:   90.00000  90.00000  90.00000
Rectangular boundary conditions

net charge:   0.00000000

component   0 (CO2) lambda:  0 occupancy:  0 (0.000000)
    net charge:   0.00000000 [e]

Amount of molecules per component :
-------------------------------------------------------------------------------
Component 0 (CO2)
    molecules:         2.330000e+02 molecules
    number density:    1.447178e-02 molec/A^3
    density:           1.057333e+03 kg/m^3

Total potential energy/kʙ       -3.602169e+05 [K]
-------------------------------------------------------------------------------
    external field VDW/kʙ        0.000000e+00 [K]
    external field Real/kʙ       0.000000e+00 [K]
    framework-molecule VDW/kʙ    0.000000e+00 [K]
    framework-molecule Real/kʙ   0.000000e+00 [K]
    molecule-molecule VDW/kʙ    -2.516873e+05 [K]
    molecule-molecule Real/kʙ   -7.990616e+04 [K]
    Van der Waals (Tail)/kʙ     -1.081899e+04 [K]
    Ewald Fourier/kʙ             1.605242e+04 [K]
    Ewald self/kʙ               -5.179411e+06 [K]
    Ewald exclusion/kʙ           5.145554e+06 [K]
    intra VDW/kʙ                 0.000000e+00 [K]
    intra Coulombic/kʙ           0.000000e+00 [K]
    polarization/kʙ              0.000000e+00 [K]
    dU/dlambda VDW/kʙ            0.000000e+00 [K]
    dU/dlambda Real/kʙ           0.000000e+00 [K]
    dU/dlambda Ewald/kʙ          0.000000e+00 [K]


Initialization: Current cycle: 1000 out of 2000
===============================================================================

Box:      25.13657   0.00000   0.00000
           0.00000  25.13657   0.00000
           0.00000   0.00000  25.13657
Lengths:  25.13657  25.13657  25.13657
Angles:   90.00000  90.00000  90.00000
Rectangular boundary conditions

net charge:   0.00000000

component   0 (CO2) lambda:  0 occupancy:  0 (0.000000)
    net charge:   0.00000000 [e]

Amount of molecules per component :
-------------------------------------------------------------------------------
Component 0 (CO2)
    molecules:         2.250000e+02 molecules
    number density:    1.416656e-02 molec/A^3
    density:           1.035033e+03 kg/m^3

Total potential energy/kʙ       -3.400581e+05 [K]
-------------------------------------------------------------------------------
    external field VDW/kʙ        0.000000e+00 [K]
    external field Real/kʙ       0.000000e+00 [K]
    framework-molecule VDW/kʙ    0.000000e+00 [K]
    framework-molecule Real/kʙ   0.000000e+00 [K]
    molecule-molecule VDW/kʙ    -2.414768e+05 [K]
    molecule-molecule Real/kʙ   -7.162227e+04 [K]
    Van der Waals (Tail)/kʙ     -1.022717e+04 [K]
    Ewald Fourier/kʙ             1.596250e+04 [K]
    Ewald self/kʙ               -5.001577e+06 [K]
    Ewald exclusion/kʙ           4.968883e+06 [K]
    intra VDW/kʙ                 0.000000e+00 [K]
    intra Coulombic/kʙ           0.000000e+00 [K]
    polarization/kʙ              0.000000e+00 [K]
    dU/dlambda VDW/kʙ            0.000000e+00 [K]
    dU/dlambda Real/kʙ           0.000000e+00 [K]
    dU/dlambda Ewald/kʙ          0.000000e+00 [K]


Initialization: Current cycle: 1100 out of 2000
===============================================================================

Box:      25.25997   0.00000   0.00000
           0.00000  25.25997   0.00000
           0.00000   0.00000  25.25997
Lengths:  25.25997  25.25997  25.25997
Angles:   90.00000  90.00000  90.00000
Rectangular boundary conditions

net charge:   0.00000000

component   0 (CO2) lambda:  0 occupancy:  0 (0.000000)
    net charge:   0.00000000 [e]

Amount of molecules per component :
-------------------------------------------------------------------------------
Component 0 (CO2)
    molecules:         2.260000e+02 molecules
    number density:    1.402199e-02 molec/A^3
    density:           1.024471e+03 kg/m^3

Total potential energy/kʙ       -3.335613e+05 [K]
-------------------------------------------------------------------------------
    external field VDW/kʙ        0.000000e+00 [K]
    external field Real/kʙ       0.000000e+00 [K]
    framework-molecule VDW/kʙ    0.000000e+00 [K]
    framework-molecule Real/kʙ   0.000000e+00 [K]
    molecule-molecule VDW/kʙ    -2.319502e+05 [K]
    molecule-molecule Real/kʙ   -7.503978e+04 [K]
    Van der Waals (Tail)/kʙ     -1.016780e+04 [K]
    Ewald Fourier/kʙ             1.643618e+04 [K]
    Ewald self/kʙ               -5.023806e+06 [K]
    Ewald exclusion/kʙ           4.990967e+06 [K]
    intra VDW/kʙ                 0.000000e+00 [K]
    intra Coulombic/kʙ           0.000000e+00 [K]
    polarization/kʙ              0.000000e+00 [K]
    dU/dlambda VDW/kʙ            0.000000e+00 [K]
    dU/dlambda Real/kʙ           0.000000e+00 [K]
    dU/dlambda Ewald/kʙ          0.000000e+00 [K]


Initialization: Current cycle: 1200 out of 2000
===============================================================================

Box:      25.23026   0.00000   0.00000
           0.00000  25.23026   0.00000
           0.00000   0.00000  25.23026
Lengths:  25.23026  25.23026  25.23026
Angles:   90.00000  90.00000  90.00000
Rectangular boundary conditions

net charge:   0.00000000

component   0 (CO2) lambda:  0 occupancy:  0 (0.000000)
    net charge:   0.00000000 [e]

Amount of molecules per component :
-------------------------------------------------------------------------------
Component 0 (CO2)
    molecules:         2.350000e+02 molecules
    number density:    1.463196e-02 molec/A^3
    density:           1.069036e+03 kg/m^3

Total potential energy/kʙ       -3.550877e+05 [K]
-------------------------------------------------------------------------------
    external field VDW/kʙ        0.000000e+00 [K]
    external field Real/kʙ       0.000000e+00 [K]
    framework-molecule VDW/kʙ    0.000000e+00 [K]
    framework-molecule Real/kʙ   0.000000e+00 [K]
    molecule-molecule VDW/kʙ    -2.475244e+05 [K]
    molecule-molecule Real/kʙ   -7.765311e+04 [K]
    Van der Waals (Tail)/kʙ     -1.103263e+04 [K]
    Ewald Fourier/kʙ             1.526998e+04 [K]
    Ewald self/kʙ               -5.223870e+06 [K]
    Ewald exclusion/kʙ           5.189722e+06 [K]
    intra VDW/kʙ                 0.000000e+00 [K]
    intra Coulombic/kʙ           0.000000e+00 [K]
    polarization/kʙ              0.000000e+00 [K]
    dU/dlambda VDW/kʙ            0.000000e+00 [K]
    dU/dlambda Real/kʙ           0.000000e+00 [K]
    dU/dlambda Ewald/kʙ          0.000000e+00 [K]


Initialization: Current cycle: 1300 out of 2000
===============================================================================

Box:      25.70495   0.00000   0.00000
           0.00000  25.70495   0.00000
           0.00000   0.00000  25.70495
Lengths:  25.70495  25.70495  25.70495
Angles:   90.00000  90.00000  90.00000
Rectangular boundary conditions

net charge:   0.00000000

component   0 (CO2) lambda:  0 occupancy:  0 (0.000000)
    net charge:   0.00000000 [e]

Amount of molecules per component :
-------------------------------------------------------------------------------
Component 0 (CO2)
    molecules:         2.320000e+02 molecules
    number density:    1.365959e-02 molec/A^3
    density:           9.979933e+02 kg/m^3

Total potential energy/kʙ       -3.348791e+05 [K]
-------------------------------------------------------------------------------
    external field VDW/kʙ        0.000000e+00 [K]
    external field Real/kʙ       0.000000e+00 [K]
    framework-molecule VDW/kʙ    0.000000e+00 [K]
    framework-molecule Real/kʙ   0.000000e+00 [K]
    molecule-molecule VDW/kʙ    -2.432232e+05 [K]
    molecule-molecule Real/kʙ   -6.477051e+04 [K]
    Van der Waals (Tail)/kʙ     -1.016797e+04 [K]
    Ewald Fourier/kʙ             1.699412e+04 [K]
    Ewald self/kʙ               -5.157182e+06 [K]
    Ewald exclusion/kʙ           5.123470e+06 [K]
    intra VDW/kʙ                 0.000000e+00 [K]
    intra Coulombic/kʙ           0.000000e+00 [K]
    polarization/kʙ              0.000000e+00 [K]
    dU/dlambda VDW/kʙ            0.000000e+00 [K]
    dU/dlambda Real/kʙ           0.000000e+00 [K]
    dU/dlambda Ewald/kʙ          0.000000e+00 [K]


Initialization: Current cycle: 1400 out of 2000
===============================================================================

Box:      25.63427   0.00000   0.00000
           0.00000  25.63427   0.00000
           0.00000   0.00000  25.63427
Lengths:  25.63427  25.63427  25.63427
Angles:   90.00000  90.00000  90.00000
Rectangular boundary conditions

net charge:   0.00000000

component   0 (CO2) lambda:  0 occupancy:  0 (0.000000)
    net charge:   0.00000000 [e]

Amount of molecules per component :
-------------------------------------------------------------------------------
Component 0 (CO2)
    molecules:         2.370000e+02 molecules
    number density:    1.406972e-02 molec/A^3
    density:           1.027958e+03 kg/m^3

Total potential energy/kʙ       -3.518175e+05 [K]
-------------------------------------------------------------------------------
    external field VDW/kʙ        0.000000e+00 [K]
    external field Real/kʙ       0.000000e+00 [K]
    framework-molecule VDW/kʙ    0.000000e+00 [K]
    framework-molecule Real/kʙ   0.000000e+00 [K]
    molecule-molecule VDW/kʙ    -2.553614e+05 [K]
    molecule-molecule Real/kʙ   -6.919999e+04 [K]
    Van der Waals (Tail)/kʙ     -1.069898e+04 [K]
    Ewald Fourier/kʙ             1.788095e+04 [K]
    Ewald self/kʙ               -5.268328e+06 [K]
    Ewald exclusion/kʙ           5.233890e+06 [K]
    intra VDW/kʙ                 0.000000e+00 [K]
    intra Coulombic/kʙ           0.000000e+00 [K]
    polarization/kʙ              0.000000e+00 [K]
    dU/dlambda VDW/kʙ            0.000000e+00 [K]
    dU/dlambda Real/kʙ           0.000000e+00 [K]
    dU/dlambda Ewald/kʙ          0.000000e+00 [K]


Initialization: Current cycle: 1500 out of 2000
===============================================================================

Box:      25.69596   0.00000   0.00000
           0.00000  25.69596   0.00000
           0.00000   0.00000  25.69596
Lengths:  25.69596  25.69596  25.69596
Angles:   90.00000  90.00000  90.00000
Rectangular boundary conditions

net charge:   0.00000000

component   0 (CO2) lambda:  0 occupancy:  0 (0.000000)
    net charge:   0.00000000 [e]

Amount of molecules per component :
-------------------------------------------------------------------------------
Component 0 (CO2)
    molecules:         2.370000e+02 molecules
    number density:    1.396863e-02 molec/A^3
    density:           1.020572e+03 kg/m^3

Total potential energy/kʙ       -3.573591e+05 [K]
-------------------------------------------------------------------------------
    external field VDW/kʙ        0.000000e+00 [K]
    external field Real/kʙ       0.000000e+00 [K]
    framework-molecule VDW/kʙ    0.000000e+00 [K]
    framework-molecule Real/kʙ   0.000000e+00 [K]
    molecule-molecule VDW/kʙ    -2.536896e+05 [K]
    molecule-molecule Real/kʙ   -7.449118e+04 [K]
    Van der Waals (Tail)/kʙ     -1.062211e+04 [K]
    Ewald Fourier/kʙ             1.588198e+04 [K]
    Ewald self/kʙ               -5.268328e+06 [K]
    Ewald exclusion/kʙ           5.233890e+06 [K]
    intra VDW/kʙ                 0.000000e+00 [K]
    intra Coulombic/kʙ           0.000000e+00 [K]
    polarization/kʙ              0.000000e+00 [K]
    dU/dlambda VDW/kʙ            0.000000e+00 [K]
    dU/dlambda Real/kʙ           0.000000e+00 [K]
    dU/dlambda Ewald/kʙ          0.000000e+00 [K]


Initialization: Current cycle: 1600 out of 2000
===============================================================================

Box:      25.51914   0.00000   0.00000
           0.00000  25.51914   0.00000
           0.00000   0.00000  25.51914
Lengths:  25.51914  25.51914  25.51914
Angles:   90.00000  90.00000  90.00000
Rectangular boundary conditions

net charge:   0.00000000

component   0 (CO2) lambda:  0 occupancy:  0 (0.000000)
    net charge:   0.00000000 [e]

Amount of molecules per component :
-------------------------------------------------------------------------------
Component 0 (CO2)
    molecules:         2.360000e+02 molecules
    number density:    1.420084e-02 molec/A^3
    density:           1.037538e+03 kg/m^3

Total potential energy/kʙ       -3.576690e+05 [K]
-------------------------------------------------------------------------------
    external field VDW/kʙ        0.000000e+00 [K]
    external field Real/kʙ       0.000000e+00 [K]
    framework-molecule VDW/kʙ    0.000000e+00 [K]
    framework-molecule Real/kʙ   0.000000e+00 [K]
    molecule-molecule VDW/kʙ    -2.545552e+05 [K]
    molecule-molecule Real/kʙ   -7.429510e+04 [K]
    Van der Waals (Tail)/kʙ     -1.075312e+04 [K]
    Ewald Fourier/kʙ             1.622719e+04 [K]
    Ewald self/kʙ               -5.246099e+06 [K]
    Ewald exclusion/kʙ           5.211806e+06 [K]
    intra VDW/kʙ                 0.000000e+00 [K]
    intra Coulombic/kʙ           0.000000e+00 [K]
    polarization/kʙ              0.000000e+00 [K]
    dU/dlambda VDW/kʙ            0.000000e+00 [K]
    dU/dlambda Real/kʙ           0.000000e+00 [K]
    dU/dlambda Ewald/kʙ          0.000000e+00 [K]


Initialization: Current cycle: 1700 out of 2000
===============================================================================

Box:      25.57717   0.00000   0.00000
           0.00000  25.57717   0.00000
           0.00000   0.00000  25.57717
Lengths:  25.57717  25.57717  25.57717
Angles:   90.00000  90.00000  90.00000
Rectangular boundary conditions

net charge:   0.00000000

component   0 (CO2) lambda:  0 occupancy:  0 (0.000000)
    net charge:   0.00000000 [e]

Amount of molecules per component :
-------------------------------------------------------------------------------
Component 0 (CO2)
    molecules:         2.280000e+02 molecules
    number density:    1.362628e-02 molec/A^3
    density:           9.955596e+02 kg/m^3

Total potential energy/kʙ       -3.342824e+05 [K]
-------------------------------------------------------------------------------
    external field VDW/kʙ        0.000000e+00 [K]
    external field Real/kʙ       0.000000e+00 [K]
    framework-molecule VDW/kʙ    0.000000e+00 [K]
    framework-molecule Real/kʙ   0.000000e+00 [K]
    molecule-molecule VDW/kʙ    -2.384924e+05 [K]
    molecule-molecule Real/kʙ   -6.789637e+04 [K]
    Van der Waals (Tail)/kʙ     -9.968297e+03 [K]
    Ewald Fourier/kʙ             1.520502e+04 [K]
    Ewald self/kʙ               -5.068265e+06 [K]
    Ewald exclusion/kʙ           5.035135e+06 [K]
    intra VDW/kʙ                 0.000000e+00 [K]
    intra Coulombic/kʙ           0.000000e+00 [K]
    polarization/kʙ              0.000000e+00 [K]
    dU/dlambda VDW/kʙ            0.000000e+00 [K]
    dU/dlambda Real/kʙ           0.000000e+00 [K]
    dU/dlambda Ewald/kʙ          0.000000e+00 [K]


Initialization: Current cycle: 1800 out of 2000
===============================================================================

Box:      25.57406   0.00000   0.00000
           0.00000  25.57406   0.00000
           0.00000   0.00000  25.57406
Lengths:  25.57406  25.57406  25.57406
Angles:   90.00000  90.00000  90.00000
Rectangular boundary conditions

net charge:   0.00000000

component   0 (CO2) lambda:  0 occupancy:  0 (0.000000)
    net charge:   0.00000000 [e]

Amount of molecules per component :
-------------------------------------------------------------------------------
Component 0 (CO2)
    molecules:         2.340000e+02 molecules
    number density:    1.398997e-02 molec/A^3
    density:           1.022131e+03 kg/m^3

Total potential energy/kʙ       -3.472084e+05 [K]
-------------------------------------------------------------------------------
    external field VDW/kʙ        0.000000e+00 [K]
    external field Real/kʙ       0.000000e+00 [K]
    framework-molecule VDW/kʙ    0.000000e+00 [K]
    framework-molecule Real/kʙ   0.000000e+00 [K]
    molecule-molecule VDW/kʙ    -2.513410e+05 [K]
    molecule-molecule Real/kʙ   -6.695960e+04 [K]
    Van der Waals (Tail)/kʙ     -1.050368e+04 [K]
    Ewald Fourier/kʙ             1.559801e+04 [K]
    Ewald self/kʙ               -5.201640e+06 [K]
    Ewald exclusion/kʙ           5.167638e+06 [K]
    intra VDW/kʙ                 0.000000e+00 [K]
    intra Coulombic/kʙ           0.000000e+00 [K]
    polarization/kʙ              0.000000e+00 [K]
    dU/dlambda VDW/kʙ            0.000000e+00 [K]
    dU/dlambda Real/kʙ           0.000000e+00 [K]
    dU/dlambda Ewald/kʙ          0.000000e+00 [K]


Initialization: Current cycle: 1900 out of 2000
===============================================================================

Box:      25.19660   0.00000   0.00000
           0.00000  25.19660   0.00000
           0.00000   0.00000  25.19660
Lengths:  25.19660  25.19660  25.19660
Angles:   90.00000  90.00000  90.00000
Rectangular boundary conditions

net charge:   0.00000000

component   0 (CO2) lambda:  0 occupancy:  0 (0.000000)
    net charge:   0.00000000 [e]

Amount of molecules per component :
-------------------------------------------------------------------------------
Component 0 (CO2)
    molecules:         2.320000e+02 molecules
    number density:    1.450314e-02 molec/A^3
    density:           1.059624e+03 kg/m^3

Total potential energy/kʙ       -3.451721e+05 [K]
-------------------------------------------------------------------------------
    external field VDW/kʙ        0.000000e+00 [K]
    external field Real/kʙ       0.000000e+00 [K]
    framework-molecule VDW/kʙ    0.000000e+00 [K]
    framework-molecule Real/kʙ   0.000000e+00 [K]
    molecule-molecule VDW/kʙ    -2.441312e+05 [K]
    molecule-molecule Real/kʙ   -7.266830e+04 [K]
    Van der Waals (Tail)/kʙ     -1.079589e+04 [K]
    Ewald Fourier/kʙ             1.613495e+04 [K]
    Ewald self/kʙ               -5.157182e+06 [K]
    Ewald exclusion/kʙ           5.123470e+06 [K]
    intra VDW/kʙ                 0.000000e+00 [K]
    intra Coulombic/kʙ           0.000000e+00 [K]
    polarization/kʙ              0.000000e+00 [K]
    dU/dlambda VDW/kʙ            0.000000e+00 [K]
    dU/dlambda Real/kʙ           0.000000e+00 [K]
    dU/dlambda Ewald/kʙ          0.000000e+00 [K]


Current cycle: 0 out of 6000
===============================================================================

Box:      25.30012   0.00000   0.00000  Average:  25.30012   0.00000   0.00000
           0.00000  25.30012   0.00000             0.00000  25.30012   0.00000
           0.00000   0.00000  25.30012             0.00000   0.00000  25.30012
Lengths:  25.30012  25.30012  25.30012  Average:  25.30012  25.30012  25.30012
Angles:   90.00000  90.00000  90.00000  Average:  90.00000  90.00000  90.00000
Rectangular boundary conditions

net charge:   0.00000000

component 0 (CO2) lambda:  0 occupancy:  0 (0.000000)
    net charge:   0.00000000 [e]

Amount of molecules per component :
-------------------------------------------------------------------------------
Component 0 (CO2)
    molecules:      2.410000e+02 molecules  (2.410000e+02 +/- 0.000000e+00)
    number density: 1.488159e-02 molec./A^3 (1.488159e-02 +/- 0.000000e+00)
    density:        1.087274e+03 kg/m^3     (1.087274e+03 +/- 0.000000e+00)

Average pressure tensor: 
-------------------------------------------------------------------------------
 5.1366e+02  0.0000e+00  0.0000e+00 +/- 0.0000e+00 0.0000e+00 0.0000e+00 [bar]
 0.0000e+00  5.1366e+02  0.0000e+00 +/- 0.0000e+00 0.0000e+00 0.0000e+00 [bar]
 0.0000e+00  0.0000e+00  5.1366e+02 +/- 0.0000e+00 0.0000e+00 0.0000e+00 [bar]
Ideal-gas pressure:   5.136568e+02 +/ 0.000000e+00 [bar]
Excess pressure:      0.000000e+00 +/ 0.000000e+00 [bar]
Pressure:             5.136568e+02 +/ 0.000000e+00 [bar]

Total potential energy/kʙ  -3.877438e+05 (-3.877438e+05 +/- 0.000000e+00) [K]
-------------------------------------------------------------------------------
ExternalField-molecule
    Van der Waals/kʙ        0.000000e+00 ( 0.000000e+00 +/- 0.000000e+00) [K]
Framework-molecule
    Van der Waals/kʙ        0.000000e+00 ( 0.000000e+00 +/- 0.000000e+00) [K]
    Van der Waals (Tail)/kʙ 0.000000e+00 ( 0.000000e+00 +/- 0.000000e+00) [K]
    Coulombic Real/kʙ       0.000000e+00 ( 0.000000e+00 +/- 0.000000e+00) [K]
    Coulombic Fourier/kʙ    0.000000e+00 ( 0.000000e+00 +/- 0.000000e+00) [K]
Molecule-molecule
    Van der Waals/kʙ       -2.739052e+05 (-2.739052e+05 +/- 0.000000e+00) [K]
    Van der Waals (Tail)/kʙ-1.150734e+04 (-1.150734e+04 +/- 0.000000e+00) [K]
    Coulombic Real/kʙ      -8.166964e+04 (-8.166964e+04 +/- 0.000000e+00) [K]
    Coulombic Fourier/kʙ   -2.066158e+04 (-2.066158e+04 +/- 0.000000e+00) [K]
    Molecule Intra/kʙ       0.000000e+00 ( 0.000000e+00 +/- 0.000000e+00) [K]

Current cycle: 100 out of 6000
===============================================================================

Box:      25.14732   0.00000   0.00000  Average:  25.09472   0.00000   0.00000
           0.00000  25.14732   0.00000             0.00000  25.09472   0.00000
           0.00000   0.00000  25.14732             0.00000   0.00000  25.09472
Lengths:  25.14732  25.14732  25.14732  Average:  25.09472  25.09472  25.09472
Angles:   90.00000  90.00000  90.00000  Average:  90.00000  90.00000  90.00000
Rectangular boundary conditions

net charge:   0.00000000

component 0 (CO2) lambda:  0 occupancy:  0 (0.000000)
    net charge:   0.00000000 [e]

Amount of molecules per component :
-------------------------------------------------------------------------------
Component 0 (CO2)
    molecules:      2.370000e+02 molecules  (2.357624e+02 +/- 0.000000e+00)
    number density: 1.490299e-02 molec./A^3 (1.491829e-02 +/- 0.000000e+00)
    density:        1.088838e+03 kg/m^3     (1.089956e+03 +/- 0.000000e+00)

Average pressure tensor: 
-------------------------------------------------------------------------------
-1.2756e+02  1.1581e+02 -3.0921e+00 +/- 0.0000e+00 0.0000e+00 0.0000e+00 [bar]
 1.1581e+02  5.4521e+00  6.7378e+01 +/- 0.0000e+00 0.0000e+00 0.0000e+00 [bar]
-3.0921e+00  6.7378e+01  3.2435e+01 +/- 0.0000e+00 0.0000e+00 0.0000e+00 [bar]
Ideal-gas pressure:   5.149237e+02 +/ 0.000000e+00 [bar]
Excess pressure:     -5.448158e+02 +/ 0.000000e+00 [bar]
Pressure:            -2.989212e+01 +/ 0.000000e+00 [bar]

Total potential energy/kʙ  -3.835163e+05 (-3.800831e+05 +/- 0.000000e+00) [K]
-------------------------------------------------------------------------------
ExternalField-molecule
    Van der Waals/kʙ        0.000000e+00 ( 0.000000e+00 +/- 0.000000e+00) [K]
Framework-molecule
    Van der Waals/kʙ        0.000000e+00 ( 0.000000e+00 +/- 0.000000e+00) [K]
    Van der Waals (Tail)/kʙ 0.000000e+00 ( 0.000000e+00 +/- 0.000000e+00) [K]
    Coulombic Real/kʙ       0.000000e+00 ( 0.000000e+00 +/- 0.000000e+00) [K]
    Coulombic Fourier/kʙ    0.000000e+00 ( 0.000000e+00 +/- 0.000000e+00) [K]
Molecule-molecule
    Van der Waals/kʙ       -2.709885e+05 (-2.677206e+05 +/- 0.000000e+00) [K]
    Van der Waals (Tail)/kʙ-1.133262e+04 (-1.127860e+04 +/- 0.000000e+00) [K]
    Coulombic Real/kʙ      -8.235447e+04 (-8.181187e+04 +/- 0.000000e+00) [K]
    Coulombic Fourier/kʙ   -1.884068e+04 (-1.927206e+04 +/- 0.000000e+00) [K]
    Molecule Intra/kʙ       0.000000e+00 ( 0.000000e+00 +/- 0.000000e+00) [K]

Current cycle: 200 out of 6000
===============================================================================

Box:      25.22122   0.00000   0.00000  Average:  25.07730   0.00000   0.00000
           0.00000  25.22122   0.00000             0.00000  25.07730   0.00000
           0.00000   0.00000  25.22122             0.00000   0.00000  25.07730
Lengths:  25.22122  25.22122  25.22122  Average:  25.07730  25.07730  25.07730
Angles:   90.00000  90.00000  90.00000  Average:  90.00000  90.00000  90.00000
Rectangular boundary conditions

net charge:   0.00000000

component 0 (CO2) lambda:  0 occupancy:  0 (0.000000)
    net charge:   0.00000000 [e]

Amount of molecules per component :
-------------------------------------------------------------------------------
Component 0 (CO2)
    molecules:      2.270000e+02 molecules  (2.332090e+02 +/- 0.000000e+00)
    number density: 1.414906e-02 molec./A^3 (1.478755e-02 +/- 0.000000e+00)
    density:        1.033754e+03 kg/m^3     (1.080404e+03 +/- 0.000000e+00)

Average pressure tensor: 
-------------------------------------------------------------------------------
-1.3173e+02  3.0493e+01  4.0597e+01 +/- 0.0000e+00 0.0000e+00 0.0000e+00 [bar]
 3.0493e+01 -2.0742e+01  2.7130e+00 +/- 0.0000e+00 0.0000e+00 0.0000e+00 [bar]
 4.0597e+01  2.7130e+00  2.0459e+01 +/- 0.0000e+00 0.0000e+00 0.0000e+00 [bar]
Ideal-gas pressure:   5.104110e+02 +/ 0.000000e+00 [bar]
Excess pressure:     -5.544153e+02 +/ 0.000000e+00 [bar]
Pressure:            -4.400431e+01 +/ 0.000000e+00 [bar]

Total potential energy/kʙ  -3.466232e+05 (-3.692490e+05 +/- 0.000000e+00) [K]
-------------------------------------------------------------------------------
ExternalField-molecule
    Van der Waals/kʙ        0.000000e+00 ( 0.000000e+00 +/- 0.000000e+00) [K]
Framework-molecule
    Van der Waals/kʙ        0.000000e+00 ( 0.000000e+00 +/- 0.000000e+00) [K]
    Van der Waals (Tail)/kʙ 0.000000e+00 ( 0.000000e+00 +/- 0.000000e+00) [K]
    Coulombic Real/kʙ       0.000000e+00 ( 0.000000e+00 +/- 0.000000e+00) [K]
    Coulombic Fourier/kʙ    0.000000e+00 ( 0.000000e+00 +/- 0.000000e+00) [K]
Molecule-molecule
    Van der Waals/kʙ       -2.437417e+05 (-2.608357e+05 +/- 0.000000e+00) [K]
    Van der Waals (Tail)/kʙ-1.030533e+04 (-1.101083e+04 +/- 0.000000e+00) [K]
    Coulombic Real/kʙ      -7.510193e+04 (-7.910758e+04 +/- 0.000000e+00) [K]
    Coulombic Fourier/kʙ   -1.747431e+04 (-1.829488e+04 +/- 0.000000e+00) [K]
    Molecule Intra/kʙ       0.000000e+00 ( 0.000000e+00 +/- 0.000000e+00) [K]

Current cycle: 300 out of 6000
===============================================================================

Box:      25.37236   0.00000   0.00000  Average:  25.09491   0.00000   0.00000
           0.00000  25.37236   0.00000             0.00000  25.09491   0.00000
           0.00000   0.00000  25.37236             0.00000   0.00000  25.09491
Lengths:  25.37236  25.37236  25.37236  Average:  25.09491  25.09491  25.09491
Angles:   90.00000  90.00000  90.00000  Average:  90.00000  90.00000  90.00000
Rectangular boundary conditions

net charge:   0.00000000

component 0 (CO2) lambda:  0 occupancy:  0 (0.000000)
    net charge:   0.00000000 [e]

Amount of molecules per component :
-------------------------------------------------------------------------------
Component 0 (CO2)
    molecules:      2.290000e+02 molecules  (2.323953e+02 +/- 0.000000e+00)
    number density: 1.402015e-02 molec./A^3 (1.470572e-02 +/- 0.000000e+00)
    density:        1.024336e+03 kg/m^3     (1.074425e+03 +/- 0.000000e+00)

Average pressure tensor: 
-------------------------------------------------------------------------------
 5.6702e+01 -2.0845e+01  1.9742e+01 +/- 0.0000e+00 0.0000e+00 0.0000e+00 [bar]
-2.0845e+01  4.4327e+01  2.3617e+01 +/- 0.0000e+00 0.0000e+00 0.0000e+00 [bar]
 1.9742e+01  2.3617e+01  1.9237e+01 +/- 0.0000e+00 0.0000e+00 0.0000e+00 [bar]
Ideal-gas pressure:   5.075864e+02 +/ 0.000000e+00 [bar]
Excess pressure:     -4.674979e+02 +/ 0.000000e+00 [bar]
Pressure:             4.008854e+01 +/ 0.000000e+00 [bar]

Total potential energy/kʙ  -3.476715e+05 (-3.635989e+05 +/- 0.000000e+00) [K]
-------------------------------------------------------------------------------
ExternalField-molecule
    Van der Waals/kʙ        0.000000e+00 ( 0.000000e+00 +/- 0.000000e+00) [K]
Framework-molecule
    Van der Waals/kʙ        0.000000e+00 ( 0.000000e+00 +/- 0.000000e+00) [K]
    Van der Waals (Tail)/kʙ 0.000000e+00 ( 0.000000e+00 +/- 0.000000e+00) [K]
    Coulombic Real/kʙ       0.000000e+00 ( 0.000000e+00 +/- 0.000000e+00) [K]
    Coulombic Fourier/kʙ    0.000000e+00 ( 0.000000e+00 +/- 0.000000e+00) [K]
Molecule-molecule
    Van der Waals/kʙ       -2.504189e+05 (-2.572730e+05 +/- 0.000000e+00) [K]
    Van der Waals (Tail)/kʙ-1.030142e+04 (-1.091849e+04 +/- 0.000000e+00) [K]
    Coulombic Real/kʙ      -6.857128e+04 (-7.736626e+04 +/- 0.000000e+00) [K]
    Coulombic Fourier/kʙ   -1.837983e+04 (-1.804112e+04 +/- 0.000000e+00) [K]
    Molecule Intra/kʙ       0.000000e+00 ( 0.000000e+00 +/- 0.000000e+00) [K]

Current cycle: 400 out of 6000
===============================================================================

Box:      25.26897   0.00000   0.00000  Average:  25.11652   0.00000   0.00000
           0.00000  25.26897   0.00000             0.00000  25.11652   0.00000
           0.00000   0.00000  25.26897             0.00000   0.00000  25.11652
Lengths:  25.26897  25.26897  25.26897  Average:  25.11652  25.11652  25.11652
Angles:   90.00000  90.00000  90.00000  Average:  90.00000  90.00000  90.00000
Rectangular boundary conditions

net charge:   0.00000000

component 0 (CO2) lambda:  0 occupancy:  0 (0.000000)
    net charge:   0.00000000 [e]

Amount of molecules per component :
-------------------------------------------------------------------------------
Component 0 (CO2)
    molecules:      2.320000e+02 molecules  (2.321072e+02 +/- 0.000000e+00)
    number density: 1.437890e-02 molec./A^3 (1.465005e-02 +/- 0.000000e+00)
    density:        1.050547e+03 kg/m^3     (1.070358e+03 +/- 0.000000e+00)

Average pressure tensor: 
-------------------------------------------------------------------------------
 5.9892e+01 -5.7400e+01 -4.9573e+00 +/- 0.0000e+00 0.0000e+00 0.0000e+00 [bar]
-5.7400e+01  4.4468e+01 -3.8209e+01 +/- 0.0000e+00 0.0000e+00 0.0000e+00 [bar]
-4.9573e+00 -3.8209e+01  1.2447e+01 +/- 0.0000e+00 0.0000e+00 0.0000e+00 [bar]
Ideal-gas pressure:   5.056649e+02 +/ 0.000000e+00 [bar]
Excess pressure:     -4.667294e+02 +/ 0.000000e+00 [bar]
Pressure:             3.893556e+01 +/ 0.000000e+00 [bar]

Total potential energy/kʙ  -3.549630e+05 (-3.608185e+05 +/- 0.000000e+00) [K]
-------------------------------------------------------------------------------
ExternalField-molecule
    Van der Waals/kʙ        0.000000e+00 ( 0.000000e+00 +/- 0.000000e+00) [K]
Framework-molecule
    Van der Waals/kʙ        0.000000e+00 ( 0.000000e+00 +/- 0.000000e+00) [K]
    Van der Waals (Tail)/kʙ 0.000000e+00 ( 0.000000e+00 +/- 0.000000e+00) [K]
    Coulombic Real/kʙ       0.000000e+00 ( 0.000000e+00 +/- 0.000000e+00) [K]
    Coulombic Fourier/kʙ    0.000000e+00 ( 0.000000e+00 +/- 0.000000e+00) [K]
Molecule-molecule
    Van der Waals/kʙ       -2.582951e+05 (-2.560661e+05 +/- 0.000000e+00) [K]
    Van der Waals (Tail)/kʙ-1.070341e+04 (-1.088535e+04 +/- 0.000000e+00) [K]
    Coulombic Real/kʙ      -6.950303e+04 (-7.597254e+04 +/- 0.000000e+00) [K]
    Coulombic Fourier/kʙ   -1.646152e+04 (-1.789446e+04 +/- 0.000000e+00) [K]
    Molecule Intra/kʙ       0.000000e+00 ( 0.000000e+00 +/- 0.000000e+00) [K]

Current cycle: 500 out of 6000
===============================================================================

Box:      25.03086   0.00000   0.00000  Average:  25.11128   0.00000   0.00000
           0.00000  25.03086   0.00000             0.00000  25.11128   0.00000
           0.00000   0.00000  25.03086             0.00000   0.00000  25.11128
Lengths:  25.03086  25.03086  25.03086  Average:  25.11128  25.11128  25.11128
Angles:   90.00000  90.00000  90.00000  Average:  90.00000  90.00000  90.00000
Rectangular boundary conditions

net charge:   0.00000000

component 0 (CO2) lambda:  0 occupancy:  0 (0.000000)
    net charge:   0.00000000 [e]

Amount of molecules per component :
-------------------------------------------------------------------------------
Component 0 (CO2)
    molecules:      2.260000e+02 molecules  (2.312615e+02 +/- 0.000000e+00)
    number density: 1.441056e-02 molec./A^3 (1.460587e-02 +/- 0.000000e+00)
    density:        1.052860e+03 kg/m^3     (1.067130e+03 +/- 0.000000e+00)

Average pressure tensor: 
-------------------------------------------------------------------------------
 7.7212e+01 -8.9080e+01 -6.0352e+00 +/- 0.0000e+00 0.0000e+00 0.0000e+00 [bar]
-8.9080e+01  4.0463e+01 -4.0429e+01 +/- 0.0000e+00 0.0000e+00 0.0000e+00 [bar]
-6.0352e+00 -4.0429e+01  1.6136e+01 +/- 0.0000e+00 0.0000e+00 0.0000e+00 [bar]
Ideal-gas pressure:   5.041399e+02 +/ 0.000000e+00 [bar]
Excess pressure:     -4.595359e+02 +/ 0.000000e+00 [bar]
Pressure:             4.460405e+01 +/ 0.000000e+00 [bar]

Total potential energy/kʙ  -3.456629e+05 (-3.570690e+05 +/- 0.000000e+00) [K]
-------------------------------------------------------------------------------
ExternalField-molecule
    Van der Waals/kʙ        0.000000e+00 ( 0.000000e+00 +/- 0.000000e+00) [K]
Framework-molecule
    Van der Waals/kʙ        0.000000e+00 ( 0.000000e+00 +/- 0.000000e+00) [K]
    Van der Waals (Tail)/kʙ 0.000000e+00 ( 0.000000e+00 +/- 0.000000e+00) [K]
    Coulombic Real/kʙ       0.000000e+00 ( 0.000000e+00 +/- 0.000000e+00) [K]
    Coulombic Fourier/kʙ    0.000000e+00 ( 0.000000e+00 +/- 0.000000e+00) [K]
Molecule-molecule
    Van der Waals/kʙ       -2.471427e+05 (-2.539370e+05 +/- 0.000000e+00) [K]
    Van der Waals (Tail)/kʙ-1.044956e+04 (-1.080404e+04 +/- 0.000000e+00) [K]
    Coulombic Real/kʙ      -7.058072e+04 (-7.457257e+04 +/- 0.000000e+00) [K]
    Coulombic Fourier/kʙ   -1.748991e+04 (-1.775539e+04 +/- 0.000000e+00) [K]
    Molecule Intra/kʙ       0.000000e+00 ( 0.000000e+00 +/- 0.000000e+00) [K]

Current cycle: 600 out of 6000
===============================================================================

Box:      24.92706   0.00000   0.00000  Average:  25.09391   0.00000   0.00000
           0.00000  24.92706   0.00000             0.00000  25.09391   0.00000
           0.00000   0.00000  24.92706             0.00000   0.00000  25.09391
Lengths:  24.92706  24.92706  24.92706  Average:  25.09391  25.09391  25.09391
Angles:   90.00000  90.00000  90.00000  Average:  90.00000  90.00000  90.00000
Rectangular boundary conditions

net charge:   0.00000000

component 0 (CO2) lambda:  0 occupancy:  0 (0.000000)
    net charge:   0.00000000 [e]

Amount of molecules per component :
-------------------------------------------------------------------------------
Component 0 (CO2)
    molecules:      2.270000e+02 molecules  (2.308419e+02 +/- 0.000000e+00)
    number density: 1.465590e-02 molec./A^3 (1.460972e-02 +/- 0.000000e+00)
    density:        1.070785e+03 kg/m^3     (1.067411e+03 +/- 0.000000e+00)

Average pressure tensor: 
-------------------------------------------------------------------------------
 6.5350e+01 -1.0235e+02  9.9726e+00 +/- 0.0000e+00 0.0000e+00 0.0000e+00 [bar]
-1.0235e+02  1.5739e+01 -4.3786e+01 +/- 0.0000e+00 0.0000e+00 0.0000e+00 [bar]
 9.9726e+00 -4.3786e+01 -1.1736e+00 +/- 0.0000e+00 0.0000e+00 0.0000e+00 [bar]
Ideal-gas pressure:   5.042729e+02 +/ 0.000000e+00 [bar]
Excess pressure:     -4.776343e+02 +/ 0.000000e+00 [bar]
Pressure:             2.663853e+01 +/ 0.000000e+00 [bar]

Total potential energy/kʙ  -3.584284e+05 (-3.573346e+05 +/- 0.000000e+00) [K]
-------------------------------------------------------------------------------
ExternalField-molecule
    Van der Waals/kʙ        0.000000e+00 ( 0.000000e+00 +/- 0.000000e+00) [K]
Framework-molecule
    Van der Waals/kʙ        0.000000e+00 ( 0.000000e+00 +/- 0.000000e+00) [K]
    Van der Waals (Tail)/kʙ 0.000000e+00 ( 0.000000e+00 +/- 0.000000e+00) [K]
    Coulombic Real/kʙ       0.000000e+00 ( 0.000000e+00 +/- 0.000000e+00) [K]
    Coulombic Fourier/kʙ    0.000000e+00 ( 0.000000e+00 +/- 0.000000e+00) [K]
Molecule-molecule
    Van der Waals/kʙ       -2.498040e+05 (-2.535844e+05 +/- 0.000000e+00) [K]
    Van der Waals (Tail)/kʙ-1.067449e+04 (-1.079411e+04 +/- 0.000000e+00) [K]
    Coulombic Real/kʙ      -7.951764e+04 (-7.511637e+04 +/- 0.000000e+00) [K]
    Coulombic Fourier/kʙ   -1.843228e+04 (-1.783970e+04 +/- 0.000000e+00) [K]
    Molecule Intra/kʙ       0.000000e+00 ( 0.000000e+00 +/- 0.000000e+00) [K]

Current cycle: 700 out of 6000
===============================================================================

Box:      24.95850   0.00000   0.00000  Average:  25.10123   0.00000   0.00000
           0.00000  24.95850   0.00000             0.00000  25.10123   0.00000
           0.00000   0.00000  24.95850             0.00000   0.00000  25.10123
Lengths:  24.95850  24.95850  24.95850  Average:  25.10123  25.10123  25.10123
Angles:   90.00000  90.00000  90.00000  Average:  90.00000  90.00000  90.00000
Rectangular boundary conditions

net charge:   0.00000000

component 0 (CO2) lambda:  0 occupancy:  0 (0.000000)
    net charge:   0.00000000 [e]

Amount of molecules per component :
-------------------------------------------------------------------------------
Component 0 (CO2)
    molecules:      2.240000e+02 molecules  (2.302710e+02 +/- 0.000000e+00)
    number density: 1.440762e-02 molec./A^3 (1.456122e-02 +/- 0.000000e+00)
    density:        1.052646e+03 kg/m^3     (1.063867e+03 +/- 0.000000e+00)

Average pressure tensor: 
-------------------------------------------------------------------------------
 9.6921e+01 -9.9749e+01 -5.4227e+00 +/- 0.0000e+00 0.0000e+00 0.0000e+00 [bar]
-9.9749e+01  1.1972e+01 -4.3146e+01 +/- 0.0000e+00 0.0000e+00 0.0000e+00 [bar]
-5.4227e+00 -4.3146e+01 -4.3943e+00 +/- 0.0000e+00 0.0000e+00 0.0000e+00 [bar]
Ideal-gas pressure:   5.025987e+02 +/ 0.000000e+00 [bar]
Excess pressure:     -4.677659e+02 +/ 0.000000e+00 [bar]
Pressure:             3.483280e+01 +/ 0.000000e+00 [bar]

Total potential energy/kʙ  -3.392927e+05 (-3.544862e+05 +/- 0.000000e+00) [K]
-------------------------------------------------------------------------------
ExternalField-molecule
    Van der Waals/kʙ        0.000000e+00 ( 0.000000e+00 +/- 0.000000e+00) [K]
Framework-molecule
    Van der Waals/kʙ        0.000000e+00 ( 0.000000e+00 +/- 0.000000e+00) [K]
    Van der Waals (Tail)/kʙ 0.000000e+00 ( 0.000000e+00 +/- 0.000000e+00) [K]
    Coulombic Real/kʙ       0.000000e+00 ( 0.000000e+00 +/- 0.000000e+00) [K]
    Coulombic Fourier/kʙ    0.000000e+00 ( 0.000000e+00 +/- 0.000000e+00) [K]
Molecule-molecule
    Van der Waals/kʙ       -2.416217e+05 (-2.518223e+05 +/- 0.000000e+00) [K]
    Van der Waals (Tail)/kʙ-1.035498e+04 (-1.073023e+04 +/- 0.000000e+00) [K]
    Coulombic Real/kʙ      -7.046820e+04 (-7.418397e+04 +/- 0.000000e+00) [K]
    Coulombic Fourier/kʙ   -1.684787e+04 (-1.774972e+04 +/- 0.000000e+00) [K]
    Molecule Intra/kʙ       0.000000e+00 ( 0.000000e+00 +/- 0.000000e+00) [K]

Current cycle: 800 out of 6000
===============================================================================

Box:      25.36985   0.00000   0.00000  Average:  25.11262   0.00000   0.00000
           0.00000  25.36985   0.00000             0.00000  25.11262   0.00000
           0.00000   0.00000  25.36985             0.00000   0.00000  25.11262
Lengths:  25.36985  25.36985  25.36985  Average:  25.11262  25.11262  25.11262
Angles:   90.00000  90.00000  90.00000  Average:  90.00000  90.00000  90.00000
Rectangular boundary conditions

net charge:   0.00000000

component 0 (CO2) lambda:  0 occupancy:  0 (0.000000)
    net charge:   0.00000000 [e]

Amount of molecules per component :
-------------------------------------------------------------------------------
Component 0 (CO2)
    molecules:      2.280000e+02 molecules  (2.299126e+02 +/- 0.000000e+00)
    number density: 1.396308e-02 molec./A^3 (1.451905e-02 +/- 0.000000e+00)
    density:        1.020167e+03 kg/m^3     (1.060787e+03 +/- 0.000000e+00)

Average pressure tensor: 
-------------------------------------------------------------------------------
 8.6120e+01 -9.8155e+01 -6.7300e+00 +/- 0.0000e+00 0.0000e+00 0.0000e+00 [bar]
-9.8155e+01  2.7014e+01 -2.2899e+00 +/- 0.0000e+00 0.0000e+00 0.0000e+00 [bar]
-6.7300e+00 -2.2899e+00  2.4871e-02 +/- 0.0000e+00 0.0000e+00 0.0000e+00 [bar]
Ideal-gas pressure:   5.011433e+02 +/ 0.000000e+00 [bar]
Excess pressure:     -4.634237e+02 +/ 0.000000e+00 [bar]
Pressure:             3.771958e+01 +/ 0.000000e+00 [bar]

Total potential energy/kʙ  -3.330186e+05 (-3.523785e+05 +/- 0.000000e+00) [K]
-------------------------------------------------------------------------------
ExternalField-molecule
    Van der Waals/kʙ        0.000000e+00 ( 0.000000e+00 +/- 0.000000e+00) [K]
Framework-molecule
    Van der Waals/kʙ        0.000000e+00 ( 0.000000e+00 +/- 0.000000e+00) [K]
    Van der Waals (Tail)/kʙ 0.000000e+00 ( 0.000000e+00 +/- 0.000000e+00) [K]
    Coulombic Real/kʙ       0.000000e+00 ( 0.000000e+00 +/- 0.000000e+00) [K]
    Coulombic Fourier/kʙ    0.000000e+00 ( 0.000000e+00 +/- 0.000000e+00) [K]
Molecule-molecule
    Van der Waals/kʙ       -2.439291e+05 (-2.502671e+05 +/- 0.000000e+00) [K]
    Van der Waals (Tail)/kʙ-1.021468e+04 (-1.067584e+04 +/- 0.000000e+00) [K]
    Coulombic Real/kʙ      -6.284727e+04 (-7.377608e+04 +/- 0.000000e+00) [K]
    Coulombic Fourier/kʙ   -1.602755e+04 (-1.765944e+04 +/- 0.000000e+00) [K]
    Molecule Intra/kʙ       0.000000e+00 ( 0.000000e+00 +/- 0.000000e+00) [K]

Current cycle: 900 out of 6000
===============================================================================

Box:      25.42439   0.00000   0.00000  Average:  25.13047   0.00000   0.00000
           0.00000  25.42439   0.00000             0.00000  25.13047   0.00000
           0.00000   0.00000  25.42439             0.00000   0.00000  25.13047
Lengths:  25.42439  25.42439  25.42439  Average:  25.13047  25.13047  25.13047
Angles:   90.00000  90.00000  90.00000  Average:  90.00000  90.00000  90.00000
Rectangular boundary conditions

net charge:   0.00000000

component 0 (CO2) lambda:  0 occupancy:  0 (0.000000)
    net charge:   0.00000000 [e]

Amount of molecules per component :
-------------------------------------------------------------------------------
Component 0 (CO2)
    molecules:      2.360000e+02 molecules  (2.302741e+02 +/- 0.000000e+00)
    number density: 1.436020e-02 molec./A^3 (1.451080e-02 +/- 0.000000e+00)
    density:        1.049181e+03 kg/m^3     (1.060184e+03 +/- 0.000000e+00)

Average pressure tensor: 
-------------------------------------------------------------------------------
 4.3128e+01 -9.7813e+01  1.3820e+01 +/- 0.0000e+00 0.0000e+00 0.0000e+00 [bar]
-9.7813e+01 -1.0252e+01 -4.0710e+00 +/- 0.0000e+00 0.0000e+00 0.0000e+00 [bar]
 1.3820e+01 -4.0710e+00  3.6357e+00 +/- 0.0000e+00 0.0000e+00 0.0000e+00 [bar]
Ideal-gas pressure:   5.008584e+02 +/ 0.000000e+00 [bar]
Excess pressure:     -4.886877e+02 +/ 0.000000e+00 [bar]
Pressure:             1.217073e+01 +/ 0.000000e+00 [bar]

Total potential energy/kʙ  -3.639221e+05 (-3.530960e+05 +/- 0.000000e+00) [K]
-------------------------------------------------------------------------------
ExternalField-molecule
    Van der Waals/kʙ        0.000000e+00 ( 0.000000e+00 +/- 0.000000e+00) [K]
Framework-molecule
    Van der Waals/kʙ        0.000000e+00 ( 0.000000e+00 +/- 0.000000e+00) [K]
    Van der Waals (Tail)/kʙ 0.000000e+00 ( 0.000000e+00 +/- 0.000000e+00) [K]
    Coulombic Real/kʙ       0.000000e+00 ( 0.000000e+00 +/- 0.000000e+00) [K]
    Coulombic Fourier/kʙ    0.000000e+00 ( 0.000000e+00 +/- 0.000000e+00) [K]
Molecule-molecule
    Van der Waals/kʙ       -2.594360e+05 (-2.509533e+05 +/- 0.000000e+00) [K]
    Van der Waals (Tail)/kʙ-1.087379e+04 (-1.068847e+04 +/- 0.000000e+00) [K]
    Coulombic Real/kʙ      -7.568176e+04 (-7.377020e+04 +/- 0.000000e+00) [K]
    Coulombic Fourier/kʙ   -1.793052e+04 (-1.768397e+04 +/- 0.000000e+00) [K]
    Molecule Intra/kʙ       0.000000e+00 ( 0.000000e+00 +/- 0.000000e+00) [K]

Current cycle: 1000 out of 6000
===============================================================================

Box:      25.08755   0.00000   0.00000  Average:  25.13709   0.00000   0.00000
           0.00000  25.08755   0.00000             0.00000  25.13709   0.00000
           0.00000   0.00000  25.08755             0.00000   0.00000  25.13709
Lengths:  25.08755  25.08755  25.08755  Average:  25.13709  25.13709  25.13709
Angles:   90.00000  90.00000  90.00000  Average:  90.00000  90.00000  90.00000
Rectangular boundary conditions

net charge:   0.00000000

component 0 (CO2) lambda:  0 occupancy:  0 (0.000000)
    net charge:   0.00000000 [e]

Amount of molecules per component :
-------------------------------------------------------------------------------
Component 0 (CO2)
    molecules:      2.290000e+02 molecules  (2.303137e+02 +/- 0.000000e+00)
    number density: 1.450309e-02 molec./A^3 (1.450182e-02 +/- 0.000000e+00)
    density:        1.059621e+03 kg/m^3     (1.059527e+03 +/- 0.000000e+00)

Average pressure tensor: 
-------------------------------------------------------------------------------
 8.9272e+01 -9.4118e+01  2.7202e+01 +/- 0.0000e+00 0.0000e+00 0.0000e+00 [bar]
-9.4118e+01 -1.8351e+01 -3.0816e+00 +/- 0.0000e+00 0.0000e+00 0.0000e+00 [bar]
 2.7202e+01 -3.0816e+00  8.3580e+00 +/- 0.0000e+00 0.0000e+00 0.0000e+00 [bar]
Ideal-gas pressure:   5.005484e+02 +/ 0.000000e+00 [bar]
Excess pressure:     -4.741222e+02 +/ 0.000000e+00 [bar]
Pressure:             2.642622e+01 +/ 0.000000e+00 [bar]

Total potential energy/kʙ  -3.418869e+05 (-3.526523e+05 +/- 0.000000e+00) [K]
-------------------------------------------------------------------------------
ExternalField-molecule
    Van der Waals/kʙ        0.000000e+00 ( 0.000000e+00 +/- 0.000000e+00) [K]
Framework-molecule
    Van der Waals/kʙ        0.000000e+00 ( 0.000000e+00 +/- 0.000000e+00) [K]
    Van der Waals (Tail)/kʙ 0.000000e+00 ( 0.000000e+00 +/- 0.000000e+00) [K]
    Coulombic Real/kʙ       0.000000e+00 ( 0.000000e+00 +/- 0.000000e+00) [K]
    Coulombic Fourier/kʙ    0.000000e+00 ( 0.000000e+00 +/- 0.000000e+00) [K]
Molecule-molecule
    Van der Waals/kʙ       -2.459241e+05 (-2.506414e+05 +/- 0.000000e+00) [K]
    Van der Waals (Tail)/kʙ-1.065626e+04 (-1.068995e+04 +/- 0.000000e+00) [K]
    Coulombic Real/kʙ      -6.893370e+04 (-7.365143e+04 +/- 0.000000e+00) [K]
    Coulombic Fourier/kʙ   -1.637281e+04 (-1.766952e+04 +/- 0.000000e+00) [K]
    Molecule Intra/kʙ       0.000000e+00 ( 0.000000e+00 +/- 0.000000e+00) [K]

Current cycle: 1100 out of 6000
===============================================================================

Box:      24.93601   0.00000   0.00000  Average:  25.13382   0.00000   0.00000
           0.00000  24.93601   0.00000             0.00000  25.13382   0.00000
           0.00000   0.00000  24.93601             0.00000   0.00000  25.13382
Lengths:  24.93601  24.93601  24.93601  Average:  25.13382  25.13382  25.13382
Angles:   90.00000  90.00000  90.00000  Average:  90.00000  90.00000  90.00000
Rectangular boundary conditions

net charge:   0.00000000

component 0 (CO2) lambda:  0 occupancy:  0 (0.000000)
    net charge:   0.00000000 [e]

Amount of molecules per component :
-------------------------------------------------------------------------------
Component 0 (CO2)
    molecules:      2.230000e+02 molecules  (2.298465e+02 +/- 0.000000e+00)
    number density: 1.438215e-02 molec./A^3 (1.447783e-02 +/- 0.000000e+00)
    density:        1.050785e+03 kg/m^3     (1.057775e+03 +/- 0.000000e+00)

Average pressure tensor: 
-------------------------------------------------------------------------------
 7.2059e+01 -7.5382e+01  2.2740e+01 +/- 0.0000e+00 0.0000e+00 0.0000e+00 [bar]
-7.5382e+01 -7.5731e+00  9.4750e+00 +/- 0.0000e+00 0.0000e+00 0.0000e+00 [bar]
 2.2740e+01  9.4750e+00  1.3399e+01 +/- 0.0000e+00 0.0000e+00 0.0000e+00 [bar]
Ideal-gas pressure:   4.997205e+02 +/ 0.000000e+00 [bar]
Excess pressure:     -4.737589e+02 +/ 0.000000e+00 [bar]
Pressure:             2.596154e+01 +/ 0.000000e+00 [bar]

Total potential energy/kʙ  -3.335083e+05 (-3.511547e+05 +/- 0.000000e+00) [K]
-------------------------------------------------------------------------------
ExternalField-molecule
    Van der Waals/kʙ        0.000000e+00 ( 0.000000e+00 +/- 0.000000e+00) [K]
Framework-molecule
    Van der Waals/kʙ        0.000000e+00 ( 0.000000e+00 +/- 0.000000e+00) [K]
    Van der Waals (Tail)/kʙ 0.000000e+00 ( 0.000000e+00 +/- 0.000000e+00) [K]
    Coulombic Real/kʙ       0.000000e+00 ( 0.000000e+00 +/- 0.000000e+00) [K]
    Coulombic Fourier/kʙ    0.000000e+00 ( 0.000000e+00 +/- 0.000000e+00) [K]
Molecule-molecule
    Van der Waals/kʙ       -2.338755e+05 (-2.497556e+05 +/- 0.000000e+00) [K]
    Van der Waals (Tail)/kʙ-1.029052e+04 (-1.065670e+04 +/- 0.000000e+00) [K]
    Coulombic Real/kʙ      -7.234261e+04 (-7.315030e+04 +/- 0.000000e+00) [K]
    Coulombic Fourier/kʙ   -1.699966e+04 (-1.759202e+04 +/- 0.000000e+00) [K]
    Molecule Intra/kʙ       0.000000e+00 ( 0.000000e+00 +/- 0.000000e+00) [K]

Current cycle: 1200 out of 6000
===============================================================================

Box:      25.11790   0.00000   0.00000  Average:  25.13924   0.00000   0.00000
           0.00000  25.11790   0.00000             0.00000  25.13924   0.00000
           0.00000   0.00000  25.11790             0.00000   0.00000  25.13924
Lengths:  25.11790  25.11790  25.11790  Average:  25.13924  25.13924  25.13924
Angles:   90.00000  90.00000  90.00000  Average:  90.00000  90.00000  90.00000
Rectangular boundary conditions

net charge:   0.00000000

component 0 (CO2) lambda:  0 occupancy:  0 (0.000000)
    net charge:   0.00000000 [e]

Amount of molecules per component :
-------------------------------------------------------------------------------
Component 0 (CO2)
    molecules:      2.280000e+02 molecules  (2.297394e+02 +/- 0.000000e+00)
    number density: 1.438749e-02 molec./A^3 (1.446176e-02 +/- 0.000000e+00)
    density:        1.051175e+03 kg/m^3     (1.056601e+03 +/- 0.000000e+00)

Average pressure tensor: 
-------------------------------------------------------------------------------
 9.5592e+01 -5.4036e+01  2.5283e+01 +/- 0.0000e+00 0.0000e+00 0.0000e+00 [bar]
-5.4036e+01  3.3513e+00  1.9097e+00 +/- 0.0000e+00 0.0000e+00 0.0000e+00 [bar]
 2.5283e+01  1.9097e+00  1.8142e+01 +/- 0.0000e+00 0.0000e+00 0.0000e+00 [bar]
Ideal-gas pressure:   4.991660e+02 +/ 0.000000e+00 [bar]
Excess pressure:     -4.601375e+02 +/ 0.000000e+00 [bar]
Pressure:             3.902844e+01 +/ 0.000000e+00 [bar]

Total potential energy/kʙ  -3.509722e+05 (-3.504034e+05 +/- 0.000000e+00) [K]
-------------------------------------------------------------------------------
ExternalField-molecule
    Van der Waals/kʙ        0.000000e+00 ( 0.000000e+00 +/- 0.000000e+00) [K]
Framework-molecule
    Van der Waals/kʙ        0.000000e+00 ( 0.000000e+00 +/- 0.000000e+00) [K]
    Van der Waals (Tail)/kʙ 0.000000e+00 ( 0.000000e+00 +/- 0.000000e+00) [K]
    Coulombic Real/kʙ       0.000000e+00 ( 0.000000e+00 +/- 0.000000e+00) [K]
    Coulombic Fourier/kʙ    0.000000e+00 ( 0.000000e+00 +/- 0.000000e+00) [K]
Molecule-molecule
    Van der Waals/kʙ       -2.469525e+05 (-2.491721e+05 +/- 0.000000e+00) [K]
    Van der Waals (Tail)/kʙ-1.052516e+04 (-1.064042e+04 +/- 0.000000e+00) [K]
    Coulombic Real/kʙ      -7.649366e+04 (-7.307542e+04 +/- 0.000000e+00) [K]
    Coulombic Fourier/kʙ   -1.700088e+04 (-1.751543e+04 +/- 0.000000e+00) [K]
    Molecule Intra/kʙ       0.000000e+00 ( 0.000000e+00 +/- 0.000000e+00) [K]

Current cycle: 1300 out of 6000
===============================================================================

Box:      25.40454   0.00000   0.00000  Average:  25.14573   0.00000   0.00000
           0.00000  25.40454   0.00000             0.00000  25.14573   0.00000
           0.00000   0.00000  25.40454             0.00000   0.00000  25.14573
Lengths:  25.40454  25.40454  25.40454  Average:  25.14573  25.14573  25.14573
Angles:   90.00000  90.00000  90.00000  Average:  90.00000  90.00000  90.00000
Rectangular boundary conditions

net charge:   0.00000000

component 0 (CO2) lambda:  0 occupancy:  0 (0.000000)
    net charge:   0.00000000 [e]

Amount of molecules per component :
-------------------------------------------------------------------------------
Component 0 (CO2)
    molecules:      2.350000e+02 molecules  (2.299470e+02 +/- 0.000000e+00)
    number density: 1.433288e-02 molec./A^3 (1.446361e-02 +/- 0.000000e+00)
    density:        1.047185e+03 kg/m^3     (1.056736e+03 +/- 0.000000e+00)

Average pressure tensor: 
-------------------------------------------------------------------------------
 9.3948e+01 -4.3597e+01  2.9211e+01 +/- 0.0000e+00 0.0000e+00 0.0000e+00 [bar]
-4.3597e+01 -1.7003e+01  1.1063e+00 +/- 0.0000e+00 0.0000e+00 0.0000e+00 [bar]
 2.9211e+01  1.1063e+00  1.2663e+01 +/- 0.0000e+00 0.0000e+00 0.0000e+00 [bar]
Ideal-gas pressure:   4.992298e+02 +/ 0.000000e+00 [bar]
Excess pressure:     -4.693607e+02 +/ 0.000000e+00 [bar]
Pressure:             2.986909e+01 +/ 0.000000e+00 [bar]

Total potential energy/kʙ  -3.608141e+05 (-3.509932e+05 +/- 0.000000e+00) [K]
-------------------------------------------------------------------------------
ExternalField-molecule
    Van der Waals/kʙ        0.000000e+00 ( 0.000000e+00 +/- 0.000000e+00) [K]
Framework-molecule
    Van der Waals/kʙ        0.000000e+00 ( 0.000000e+00 +/- 0.000000e+00) [K]
    Van der Waals (Tail)/kʙ 0.000000e+00 ( 0.000000e+00 +/- 0.000000e+00) [K]
    Coulombic Real/kʙ       0.000000e+00 ( 0.000000e+00 +/- 0.000000e+00) [K]
    Coulombic Fourier/kʙ    0.000000e+00 ( 0.000000e+00 +/- 0.000000e+00) [K]
Molecule-molecule
    Van der Waals/kʙ       -2.565728e+05 (-2.496256e+05 +/- 0.000000e+00) [K]
    Van der Waals (Tail)/kʙ-1.080712e+04 (-1.065221e+04 +/- 0.000000e+00) [K]
    Coulombic Real/kʙ      -7.600774e+04 (-7.316328e+04 +/- 0.000000e+00) [K]
    Coulombic Fourier/kʙ   -1.742637e+04 (-1.755209e+04 +/- 0.000000e+00) [K]
    Molecule Intra/kʙ       0.000000e+00 ( 0.000000e+00 +/- 0.000000e+00) [K]

Current cycle: 1400 out of 6000
===============================================================================

Box:      25.33901   0.00000   0.00000  Average:  25.16375   0.00000   0.00000
           0.00000  25.33901   0.00000             0.00000  25.16375   0.00000
           0.00000   0.00000  25.33901             0.00000   0.00000  25.16375
Lengths:  25.33901  25.33901  25.33901  Average:  25.16375  25.16375  25.16375
Angles:   90.00000  90.00000  90.00000  Average:  90.00000  90.00000  90.00000
Rectangular boundary conditions

net charge:   0.00000000

component 0 (CO2) lambda:  0 occupancy:  0 (0.000000)
    net charge:   0.00000000 [e]

Amount of molecules per component :
-------------------------------------------------------------------------------
Component 0 (CO2)
    molecules:      2.360000e+02 molecules  (2.301235e+02 +/- 0.000000e+00)
    number density: 1.450585e-02 molec./A^3 (1.444384e-02 +/- 0.000000e+00)
    density:        1.059822e+03 kg/m^3     (1.055292e+03 +/- 0.000000e+00)

Average pressure tensor: 
-------------------------------------------------------------------------------
 9.1533e+01 -3.7526e+01  3.3036e+01 +/- 0.0000e+00 0.0000e+00 0.0000e+00 [bar]
-3.7526e+01 -1.3088e+01 -3.5585e+00 +/- 0.0000e+00 0.0000e+00 0.0000e+00 [bar]
 3.3036e+01 -3.5585e+00  1.9771e+01 +/- 0.0000e+00 0.0000e+00 0.0000e+00 [bar]
Ideal-gas pressure:   4.985475e+02 +/ 0.000000e+00 [bar]
Excess pressure:     -4.658089e+02 +/ 0.000000e+00 [bar]
Pressure:             3.273857e+01 +/ 0.000000e+00 [bar]

Total potential energy/kʙ  -3.617951e+05 (-3.508272e+05 +/- 0.000000e+00) [K]
-------------------------------------------------------------------------------
ExternalField-molecule
    Van der Waals/kʙ        0.000000e+00 ( 0.000000e+00 +/- 0.000000e+00) [K]
Framework-molecule
    Van der Waals/kʙ        0.000000e+00 ( 0.000000e+00 +/- 0.000000e+00) [K]
    Van der Waals (Tail)/kʙ 0.000000e+00 ( 0.000000e+00 +/- 0.000000e+00) [K]
    Coulombic Real/kʙ       0.000000e+00 ( 0.000000e+00 +/- 0.000000e+00) [K]
    Coulombic Fourier/kʙ    0.000000e+00 ( 0.000000e+00 +/- 0.000000e+00) [K]
Molecule-molecule
    Van der Waals/kʙ       -2.634661e+05 (-2.495052e+05 +/- 0.000000e+00) [K]
    Van der Waals (Tail)/kʙ-1.098408e+04 (-1.064653e+04 +/- 0.000000e+00) [K]
    Coulombic Real/kʙ      -6.993081e+04 (-7.313300e+04 +/- 0.000000e+00) [K]
    Coulombic Fourier/kʙ   -1.741408e+04 (-1.754254e+04 +/- 0.000000e+00) [K]
    Molecule Intra/kʙ       0.000000e+00 ( 0.000000e+00 +/- 0.000000e+00) [K]

Current cycle: 1500 out of 6000
===============================================================================

Box:      25.20948   0.00000   0.00000  Average:  25.16857   0.00000   0.00000
           0.00000  25.20948   0.00000             0.00000  25.16857   0.00000
           0.00000   0.00000  25.20948             0.00000   0.00000  25.16857
[...]
    number density: 1.394560e-02 molec./A^3 (1.418899e-02 +/- 2.464623e-04)
    density:        1.018889e+03 kg/m^3     (1.036672e+03 +/- 1.800696e+01)

Average pressure tensor: 
-------------------------------------------------------------------------------
 4.4029e+01 -6.0539e+00 -1.3229e+01 +/- 9.0130e+01 5.0898e+01 3.3467e+01 [bar]
-6.0539e+00  2.4386e+01 -3.4480e+01 +/- 5.0898e+01 4.3677e+01 3.1053e+01 [bar]
-1.3229e+01 -3.4480e+01 -3.7960e+00 +/- 3.3467e+01 3.1053e+01 4.2926e+01 [bar]
Ideal-gas pressure:   4.897509e+02 +/ 8.506956e+00 [bar]
Excess pressure:     -4.682114e+02 +/ 3.563592e+01 [bar]
Pressure:             2.153948e+01 +/ 3.744688e+01 [bar]

Total potential energy/kʙ  -3.476664e+05 (-3.472079e+05 +/- 5.710802e+03) [K]
-------------------------------------------------------------------------------
ExternalField-molecule
    Van der Waals/kʙ        0.000000e+00 ( 0.000000e+00 +/- 0.000000e+00) [K]
Framework-molecule
    Van der Waals/kʙ        0.000000e+00 ( 0.000000e+00 +/- 0.000000e+00) [K]
    Van der Waals (Tail)/kʙ 0.000000e+00 ( 0.000000e+00 +/- 0.000000e+00) [K]
    Coulombic Real/kʙ       0.000000e+00 ( 0.000000e+00 +/- 0.000000e+00) [K]
    Coulombic Fourier/kʙ    0.000000e+00 ( 0.000000e+00 +/- 0.000000e+00) [K]
Molecule-molecule
    Van der Waals/kʙ       -2.496621e+05 (-2.474107e+05 +/- 3.554189e+03) [K]
    Van der Waals (Tail)/kʙ-1.042561e+04 (-1.056961e+04 +/- 1.168228e+02) [K]
    Coulombic Real/kʙ      -6.980178e+04 (-7.171837e+04 +/- 1.896883e+03) [K]
    Coulombic Fourier/kʙ   -1.777692e+04 (-1.750921e+04 +/- 2.672511e+02) [K]
    Molecule Intra/kʙ       0.000000e+00 ( 0.000000e+00 +/- 0.000000e+00) [K]

Current cycle: 5800 out of 6000
===============================================================================

Box:      25.59991   0.00000   0.00000  Average:  25.39170   0.00000   0.00000
           0.00000  25.59991   0.00000             0.00000  25.39170   0.00000
           0.00000   0.00000  25.59991             0.00000   0.00000  25.39170
Lengths:  25.59991  25.59991  25.59991  Average:  25.39170  25.39170  25.39170
Angles:   90.00000  90.00000  90.00000  Average:  90.00000  90.00000  90.00000
Rectangular boundary conditions

net charge:   0.00000000

component 0 (CO2) lambda:  0 occupancy:  0 (0.000000)
    net charge:   0.00000000 [e]

Amount of molecules per component :
-------------------------------------------------------------------------------
Component 0 (CO2)
    molecules:      2.350000e+02 molecules  (2.322269e+02 +/- 2.402268e+00)
    number density: 1.400724e-02 molec./A^3 (1.418818e-02 +/- 2.387110e-04)
    density:        1.023393e+03 kg/m^3     (1.036613e+03 +/- 1.744063e+01)

Average pressure tensor: 
-------------------------------------------------------------------------------
 4.1311e+01 -9.2623e+00 -1.0413e+01 +/- 9.1283e+01 3.9916e+01 3.5654e+01 [bar]
-9.2623e+00  2.1057e+01 -3.3605e+01 +/- 3.9916e+01 4.9159e+01 2.8825e+01 [bar]
-1.0413e+01 -3.3605e+01  1.4679e+00 +/- 3.5654e+01 2.8825e+01 4.3215e+01 [bar]
Ideal-gas pressure:   4.897229e+02 +/ 8.239410e+00 [bar]
Excess pressure:     -4.684443e+02 +/ 3.563667e+01 [bar]
Pressure:             2.127856e+01 +/ 3.729453e+01 [bar]

Total potential energy/kʙ  -3.469809e+05 (-3.472738e+05 +/- 5.336101e+03) [K]
-------------------------------------------------------------------------------
ExternalField-molecule
    Van der Waals/kʙ        0.000000e+00 ( 0.000000e+00 +/- 0.000000e+00) [K]
Framework-molecule
    Van der Waals/kʙ        0.000000e+00 ( 0.000000e+00 +/- 0.000000e+00) [K]
    Van der Waals (Tail)/kʙ 0.000000e+00 ( 0.000000e+00 +/- 0.000000e+00) [K]
    Coulombic Real/kʙ       0.000000e+00 ( 0.000000e+00 +/- 0.000000e+00) [K]
    Coulombic Fourier/kʙ    0.000000e+00 ( 0.000000e+00 +/- 0.000000e+00) [K]
Molecule-molecule
    Van der Waals/kʙ       -2.523986e+05 (-2.474991e+05 +/- 3.196948e+03) [K]
    Van der Waals (Tail)/kʙ-1.056159e+04 (-1.057215e+04 +/- 1.030625e+02) [K]
    Coulombic Real/kʙ      -6.729402e+04 (-7.168861e+04 +/- 1.899814e+03) [K]
    Coulombic Fourier/kʙ   -1.672671e+04 (-1.751387e+04 +/- 2.369881e+02) [K]
    Molecule Intra/kʙ       0.000000e+00 ( 0.000000e+00 +/- 0.000000e+00) [K]

Current cycle: 5900 out of 6000
===============================================================================

Box:      25.38717   0.00000   0.00000  Average:  25.39307   0.00000   0.00000
           0.00000  25.38717   0.00000             0.00000  25.39307   0.00000
           0.00000   0.00000  25.38717             0.00000   0.00000  25.39307
Lengths:  25.38717  25.38717  25.38717  Average:  25.39307  25.39307  25.39307
Angles:   90.00000  90.00000  90.00000  Average:  90.00000  90.00000  90.00000
Rectangular boundary conditions

net charge:   0.00000000

component 0 (CO2) lambda:  0 occupancy:  0 (0.000000)
    net charge:   0.00000000 [e]

Amount of molecules per component :
-------------------------------------------------------------------------------
Component 0 (CO2)
    molecules:      2.280000e+02 molecules  (2.322127e+02 +/- 2.381535e+00)
    number density: 1.393451e-02 molec./A^3 (1.418501e-02 +/- 2.371857e-04)
    density:        1.018079e+03 kg/m^3     (1.036381e+03 +/- 1.732919e+01)

Average pressure tensor: 
-------------------------------------------------------------------------------
 3.7772e+01 -9.1230e+00 -1.0787e+01 +/- 9.3452e+01 3.8671e+01 3.4936e+01 [bar]
-9.1230e+00  1.8998e+01 -3.0229e+01 +/- 3.8671e+01 5.1657e+01 2.5727e+01 [bar]
-1.0787e+01 -3.0229e+01  4.3641e+00 +/- 3.4936e+01 2.5727e+01 4.5612e+01 [bar]
Ideal-gas pressure:   4.896135e+02 +/ 8.186761e+00 [bar]
Excess pressure:     -4.692355e+02 +/ 3.608336e+01 [bar]
Pressure:             2.037801e+01 +/ 3.792566e+01 [bar]

Total potential energy/kʙ  -3.359292e+05 (-3.471528e+05 +/- 5.398479e+03) [K]
-------------------------------------------------------------------------------
ExternalField-molecule
    Van der Waals/kʙ        0.000000e+00 ( 0.000000e+00 +/- 0.000000e+00) [K]
Framework-molecule
    Van der Waals/kʙ        0.000000e+00 ( 0.000000e+00 +/- 0.000000e+00) [K]
    Van der Waals (Tail)/kʙ 0.000000e+00 ( 0.000000e+00 +/- 0.000000e+00) [K]
    Coulombic Real/kʙ       0.000000e+00 ( 0.000000e+00 +/- 0.000000e+00) [K]
    Coulombic Fourier/kʙ    0.000000e+00 ( 0.000000e+00 +/- 0.000000e+00) [K]
Molecule-molecule
    Van der Waals/kʙ       -2.390877e+05 (-2.474284e+05 +/- 3.229232e+03) [K]
    Van der Waals (Tail)/kʙ-1.019378e+04 (-1.056807e+04 +/- 1.077580e+02) [K]
    Coulombic Real/kʙ      -6.888473e+04 (-7.164603e+04 +/- 1.925668e+03) [K]
    Coulombic Fourier/kʙ   -1.776301e+04 (-1.751028e+04 +/- 2.331584e+02) [K]
    Molecule Intra/kʙ       0.000000e+00 ( 0.000000e+00 +/- 0.000000e+00) [K]


Energy statistics             |  Energy [K]   | Recomputed [K]|  Drift [K]    |
===============================================================================
Total potential energy/kʙ     | -3.560250e+05 | -3.561071e+05 |  8.214793e+01 |
    external field VDW/kʙ     |  0.000000e+00 |  0.000000e+00 |  0.000000e+00 |
    external field Real/kʙ    |  0.000000e+00 |  0.000000e+00 |  0.000000e+00 |
    framework-molecule VDW/kʙ |  0.000000e+00 |  0.000000e+00 |  0.000000e+00 |
    framework-molecule Real/kʙ|  0.000000e+00 |  0.000000e+00 |  0.000000e+00 |
    molecule-molecule VDW/kʙ  | -2.577235e+05 | -2.578058e+05 |  8.232305e+01 |
    molecule-molecule Real/kʙ | -7.003018e+04 | -7.003000e+04 | -1.751200e-01 |
    Van der Waals (Tail)/kʙ   | -1.083695e+04 | -1.083695e+04 |  0.000000e+00 |
    Ewald Fourier/kʙ          |  1.685845e+04 |  1.685845e+04 |  6.125680e-11 |
    Ewald self/kʙ             | -5.246099e+06 | -5.246099e+06 |  0.000000e+00 |
    Ewald exclusion/kʙ        |  5.211806e+06 |  5.211806e+06 |  0.000000e+00 |
    intra VDW/kʙ              |  0.000000e+00 |  0.000000e+00 |  0.000000e+00 |
    intra Coulombic/kʙ        |  0.000000e+00 |  0.000000e+00 |  0.000000e+00 |
    polarization/kʙ           |  0.000000e+00 |  0.000000e+00 |  0.000000e+00 |
    dU/dlambda VDW/kʙ         |  0.000000e+00 |  0.000000e+00 |  0.000000e+00 |
    dU/dlambda Real/kʙ        |  0.000000e+00 |  0.000000e+00 |  0.000000e+00 |
    dU/dlambda Ewald/kʙ       |  0.000000e+00 |  0.000000e+00 |  0.000000e+00 |
-------------------------------------------------------------------------------


Monte-Carlo moves statistics
===============================================================================

    Gibbs volume         all:                3088
    Gibbs volume         total:              5927
    Gibbs volume         constructed:        5927
    Gibbs volume         accepted:           3585
    Gibbs volume         fraction:       0.604859
    Gibbs volume         max-change:     0.049258

Component 0 [CO2]
    Reinsertion (CBMC)   all:              149700
    Reinsertion (CBMC)   total:            149700
    Reinsertion (CBMC)   constructed:      136565
    Reinsertion (CBMC)   accepted:           2893
    Reinsertion (CBMC)   fraction:       0.019325
    Reinsertion (CBMC)   max-change:     0.000000

    Gibbs swap (CBMC)    all:              298907
    Gibbs swap (CBMC)    total:            597151
    Gibbs swap (CBMC)    constructed:      569736
    Gibbs swap (CBMC)    accepted:          42128
    Gibbs swap (CBMC)    fraction:       0.070548
    Gibbs swap (CBMC)    max-change:     0.000000

    Translation          all:              149064
    Translation          total:             49593      49987      49484
    Translation          constructed:       49593      49987      49484
    Translation          accepted:          25064      31289      27949
    Translation          fraction:       0.505394   0.625943   0.564809
    Translation          max-change:     0.672881   0.568241   0.622577

    Rotation             all:              149609
    Rotation             total:             49887      49908      49814
    Rotation             constructed:       49887      49906      49814
    Rotation             accepted:          25514      22470      24739
    Rotation             fraction:       0.511436   0.450228   0.496627
    Rotation             max-change:     0.684088   0.763327   0.705294



Production run counting of the MC moves summed over systems and components
===============================================================================

Reinsertion (CBMC)                   299389 (19.9593 [%])
Gibbs volume                           5927 (0.3951 [%])
Gibbs swap (CBMC)                    597151 (39.8101 [%])
Translation                          298326 (19.8884 [%])
Rotation                             299207 (19.9471 [%])

Production count MC-steps:          1500000 [-]
               All summed:          1500000 [-]
               difference:                0 [-]


Production run CPU timings of the MC moves
===============================================================================

Component 0 CO2

Rotation                             22.532671 [s]
    Ewald                            11.375128 [s]
    ExternalField-Molecule            0.005372 [s]
    Framework-Molecule                0.005421 [s]
    Molecule-Molecule                10.188188 [s]
    Overhead                          0.958562 [s]

Reinsertion (CBMC)                   80.912488 [s]
    Ewald                            10.337449 [s]
    NonEwald                         70.381703 [s]
    Overhead                          0.193336 [s]

Translation                          22.496230 [s]
    Ewald                            11.260637 [s]
    ExternalField-Molecule            0.004897 [s]
    Framework-Molecule                0.010894 [s]
    Molecule-Molecule                10.145851 [s]
    Overhead                          1.073951 [s]



Gibbs swap (CBMC)                   115.932952 [s]
    Ewald                            24.708421 [s]
    NonEwald                         89.040343 [s]
    Tail                              1.239815 [s]

Gibbs volume                         23.463753 [s]
    Ewald                            10.585299 [s]
    NonEwald                         11.924464 [s]
    Tail                              0.796387 [s]

Property sampling                     0.322898 [s]
Energy/pressure sampling:             9.836885 [s]


Production run CPU timings of the MC moves summed over systems and components
===============================================================================


Translation                          30.143859 [s]
    Ewald                            17.296045 [s]
    ExternalField-Molecule            0.009598 [s]
    Framework-Molecule                0.021569 [s]
    Molecule-Molecule                10.856182 [s]
    Overhead                          1.960465 [s]

Rotation                             30.162632 [s]
    Ewald                            17.398862 [s]
    ExternalField-Molecule            0.010992 [s]
    Framework-Molecule                0.010764 [s]
    Molecule-Molecule                10.894533 [s]
    Overhead                          1.847481 [s]

Reinsertion (CBMC)                   96.547671 [s]
    Ewald                            16.380303 [s]
    NonEwald                         79.209103 [s]
    Overhead                          0.958265 [s]

Gibbs volume                         45.062481 [s]
    Ewald                            20.323020 [s]
    NonEwald                         22.911849 [s]
    Tail                              1.530255 [s]
    Overhead                          0.297357 [s]

Gibbs swap (CBMC)                   287.420094 [s]
    Ewald                            51.935802 [s]
    NonEwald                        230.792774 [s]
    Tail                              2.737923 [s]
    Overhead                          1.953595 [s]

Property sampling:                    0.549041 [s]
Energy/pressure sampling:            10.152026 [s]

Production simulation time:         501.388964 [s]
                All summed:         500.037804 [s]
                  Overhead:           1.351160 [s]


Initalization simulation time:      161.365922 [s]
Equilibration simulation time:        0.000000 [s]
Production simulation time:         501.388964 [s]
Total simulation time:              662.754886 [s]


Energy averages and statistics:
===============================================================================

Framework-molecule energy:
-------------------------------------------------------------------------------



Framework-molecule energy contributions per energy type:
-------------------------------------------------------------------------------



Inter-molecular energy:
-------------------------------------------------------------------------------

    Inter-molecular energy/kʙ 0-0 [CO2-CO2]:
    ---------------------------------------------------------------------------
        Block[  0] -3.503987e+05
        Block[  1] -3.470724e+05
        Block[  2] -3.436723e+05
        Block[  3] -3.522627e+05
        Block[  4] -3.417913e+05
        -----------------------------------------------------------------------
        Average  -3.470395e+05 +/-  5.462728e+03 [K]



Inter-molecular energy contributions per energy type:
-------------------------------------------------------------------------------

    Van der Waals energy/kʙ 0-0 [CO2-CO2]:
    ---------------------------------------------------------------------------
        Block[  0] -2.491906e+05
        Block[  1] -2.477470e+05
        Block[  2] -2.452544e+05
        Block[  3] -2.504483e+05
        Block[  4] -2.441629e+05
        -----------------------------------------------------------------------
        Average  -2.473606e+05 +/-  3.266600e+03 [K]

    VDW Tail-Correction energy/kʙ 0-0 [CO2-CO2]:
    ---------------------------------------------------------------------------
        Block[  0] -1.064138e+04
        Block[  1] -1.057134e+04
        Block[  2] -1.052973e+04
        Block[  3] -1.064930e+04
        Block[  4] -1.043384e+04
        -----------------------------------------------------------------------
        Average  -1.056512e+04 +/-  1.100410e+02 [K]

    Coulomb Real energy/kʙ 0-0 [CO2-CO2]:
    ---------------------------------------------------------------------------
        Block[  0] -7.304693e+04
        Block[  1] -7.128861e+04
        Block[  2] -7.030774e+04
        Block[  3] -7.342550e+04
        Block[  4] -6.998183e+04
        -----------------------------------------------------------------------
        Average  -7.161012e+04 +/-  1.944287e+03 [K]

    Coulomb Fourier energy/kʙ 0-0 [CO2-CO2]:
    ---------------------------------------------------------------------------
        Block[  0] -1.751972e+04
        Block[  1] -1.746544e+04
        Block[  2] -1.758046e+04
        Block[  3] -1.773957e+04
        Block[  4] -1.721277e+04
        -----------------------------------------------------------------------
        Average  -1.750359e+04 +/-  2.387083e+02 [K]


Total energy/kʙ
-------------------------------------------------------------------------------
    Block[  0] -3.503987e+05
    Block[  1] -3.470724e+05
    Block[  2] -3.436723e+05
    Block[  3] -3.522627e+05
    Block[  4] -3.417913e+05
    ---------------------------------------------------------------------------
    Average  -3.470395e+05 +/-  5.462728e+03 [K]

Pressure averages and statistics:
===============================================================================

Average pressure tensor: 
-------------------------------------------------------------------------------
 3.5266e+01 -9.1833e+00 -9.3589e+00 +/- 9.5040e+01 3.7336e+01 3.6074e+01 [bar]
-9.1833e+00  1.6037e+01 -2.9521e+01 +/- 3.7336e+01 5.5927e+01 2.5641e+01 [bar]
-9.3589e+00 -2.9521e+01  5.4030e+00 +/- 3.6074e+01 2.5641e+01 4.6290e+01 [bar]

    Block[  0]  4.991681e+07
    Block[  1]  4.923957e+07
    Block[  2]  4.858986e+07
    Block[  3]  4.880122e+07
    Block[  4]  4.822412e+07
    ---------------------------------------------------------------------------
    Ideal gas pressure   4.895432e+07 +/-  4.869957e-02 [Pa]
                         4.895432e+02 +/-  8.086759e+00 [bar]


    Block[  0] -4.603466e+07
    Block[  1] -4.719672e+07
    Block[  2] -4.264362e+07
    Block[  3] -5.043565e+07
    Block[  4] -4.900992e+07
    ---------------------------------------------------------------------------
    Excess pressure  -4.706411e+07 +/-  3.712557e+06 [Pa]
                     -4.706411e+02 +/-  3.712557e+01 [bar]


    Block[  0]  3.882154e+06
    Block[  1]  2.042850e+06
    Block[  2]  5.946234e+06
    Block[  3] -1.634431e+06
    Block[  4] -7.857991e+05
    ---------------------------------------------------------------------------
    Pressure average   1.890202e+06 +/-  3.927161e+06 [Pa]
                       1.890202e+01 +/-  3.927161e+01 [bar]


Enthalpy of adsorption
===============================================================================

Component 0 [CO2]
-------------------------------------------------------------------------------
    Block[  0] -3.394631e+03
    Block[  1] -2.445876e+03
    Block[  2] -2.829322e+03
    Block[  3] -2.981421e+03
    Block[  4] -2.373990e+03
    ---------------------------------------------------------------------------
    Enthalpy of adsorption: -2.805048e+03 +/-  5.171561e+02 [K]
                            -2.332247e+01 +/-  4.299876e+00 [kJ/mol]
    Warning: need to subtract the ideal-gas energy.


Densities
===============================================================================

Component 0 (CO2)
    Block[  0] 229.74083333333334
    Block[  1] 231.185
    Block[  2] 232.38250000000002
    Block[  3] 234.85000000000002
    Block[  4] 232.83
    -----------------------------------------------------------------------
    Density average   2.321977e+02 +/-  2.366156e+00 [molecules]
    Density average   1.418297e-02 +/-  2.342884e-04 [molec/A^3]
    Density average   1.036232e+03 +/-  1.711751e+01 [kg.m⁻³]

