Compiler and run-time data
===============================================================================
RASPA 3.0.4

Random seed: 170488047

Compiled as a 64-bits application
Compiler: gcc Ubuntu Clang 18.1.3 (1ubuntu1)
Compile Date = Mar 15 2025, Compile Time = 19:39:45

2025-06-03 11:00:44.300761
Simulation started on Tue, Jun 03
The start time was 11:00:00

Hostname:    c108
OS type:     Linux on x86_64
OS release:  6.8.0-58-generic
OS version:  #60-Ubuntu SMP PREEMPT_DYNAMIC Fri Mar 14 18:29:48 UTC 2025


Mutual consistent basic set of units:
===============================================================================

Unit of temperature: 1 [K]
Unit of length:      1e-10 [m]
Unit of time:        1e-12 [s]
Unit of mass:        1.6605402e-27 [kg]
Unit of charge:      1.60217733e-19 [C/particle]


Boltzmann constant (internal units):          0.8314464919307584 [-]
represents conversion from energy (internal units) to temperature (in Kelvin)

Derived units and their conversion factors:
===============================================================================

Unit of energy:                           1.6605402000000002e-23 [J]
Unit of energy:                           10.000008872307538 [J.mol⁻¹]
Unit of velocity:                         100 [m.s⁻¹]
Unit of force:                            1.6605402000000002e-13 [N]
Unit of diffusion:                        1.0000000000000002e-08 [m².s⁻¹]
Unit of acceleration:                     1.0000000000000002e-08 [m².s⁻¹]
Unit of torque:                           1.6605402000000002e-23 [N.m]
Unit of pressure:                         16605402 [Pa]
Unit of volume:                           1e-30 [m³]
Unit of density:                          1660.5402 [kg.m⁻³]
Unit of dynamic viscosity:                1.6605401999999997e-05 [N.s.m⁻²]
Unit of enthalpy:                         1.6605402000000002e-23 [J]
Unit of polarizability:                   1.5458657349975198e-35 [-]
Unit of Coulomb potential:                167101.08000665612 [K]
Unit of dielectric constant:              1.5458657349975193e-05 [s².C².kg⁻¹.m⁻³]
Unit of dipole moment:                    1.60217733e-29 [C.m]
Unit of Debye:                            4.803206799099162 [C.m]
Unit of electric potential:               0.00010364272224473431 [V]
Unit of electric field:                   1036427.222447343 [V.m⁻¹]
Unit of isothermal compressibility:       6.02213665167516e-08 [Pa⁻¹]
Unit of heat capacity:                    10.000008872307538 [J.mol⁻¹.K⁻¹]
Unit of volumetric expansion coefficient: 1 [K⁻¹]


Internal conversion factors:
===============================================================================

Energy (internal units) to Kelvin:      1.202724284692786 [-]
Kelvin to energy (internal units):      0.8314457542157567 [-]


System definitions
===============================================================================

Temperature:          240 [K]
Beta:                 0.005011346739813608 [-]
Pressure:             0 [Pa]
Helium void fraction: 1 [-]

Box:      30.00000   0.00000   0.00000
           0.00000  30.00000   0.00000
           0.00000   0.00000  30.00000
Lengths:  30.00000  30.00000  30.00000
Angles:   90.00000  90.00000  90.00000
Rectangular boundary conditions



Property measurement settings
===============================================================================




Pseudo-atoms
===============================================================================

  0 - C_co2    framework-atom: false
  1 - O_co2    framework-atom: false

  0 - C_co2    mass: 12.00000, charge:  0.70000
  1 - O_co2    mass: 15.99940, charge: -0.35000

  0 - C_co2    polarizability:  0.00000
  1 - O_co2    polarizability:  0.00000

  0 - J. J. Potoff et al., AIChE J. 2001, 47, 1676–1682.
  1 - J. J. Potoff et al., AIChE J. 2001, 47, 1676–1682.

Force field status
===============================================================================

Cutoff Framework-Molecule VDW:  11.00000 [Å]
Cutoff Molecule-Molecule VDW:   11.00000 [Å]
Cutoff Coulomb:                 11.00000 [Å]

Overlap-criteria VDW:           1.000000e+05 [K]

C_co2    - C_co2    Lennard-Jones p₀/kʙ:  27.00000 [K], p₁:  2.80000 [Å]
                                  shift:   0.00000 [K], tailcorrections: true
C_co2    - O_co2    Lennard-Jones p₀/kʙ:  46.18441 [K], p₁:  2.92500 [Å]
                                  shift:   0.00000 [K], tailcorrections: true
O_co2    - O_co2    Lennard-Jones p₀/kʙ:  79.00000 [K], p₁:  3.05000 [Å]
                                  shift:   0.00000 [K], tailcorrections: true

Ewald precision: 1e-06
Ewald alpha: 0.2903408740940883
Ewald k-vectors: 9 9 9


Component definitions
===============================================================================

Component 0 [CO2]

    Type: Adsorbate

    Critical temperature:  304.1282 [K]
    Critical pressure:     7377300 [Pa]
    Acentric factor:       0.22394 [-]

    Mol-fraction:                 1 [-]
    Swappable:                   true

    Mass:                         43.9988 [-]
    Fugacity coefficient:         -nan [-]
    Bulk fluid density:           0 [-]
    Compressibility:              1 [-]
    Excess molecules:             0 [-]

    Number Of Atoms:    3
    CBMC starting bead: 0
      0: O_co2  position  0.00000 -0.00000  1.16000, charge -0.35000
      1: C_co2  position  0.00000 -0.00000  0.00000, charge  0.70000
      2: O_co2  position  0.00000 -0.00000 -1.16000, charge -0.35000
    Diagonalized inertia-vector:      43.05758528 43.05758528 0.00000000
    Translational degrees of freedom: 3
    Rotational degrees of freedom:    2
    Shape of the molecule is: 'Linear'
    Net-charge:        0.00000000 [e]

    Move probabilities:
    Translation:                   0.199203 [-]
    Random translation:            0.000000 [-]
    Rotation:                      0.199203 [-]
    Random rotation:               0.000000 [-]
    Volume change:                 0.000000 [-]
    Reinsertion (CBMC):            0.199203 [-]
    Identity change (CBMC):        0.000000 [-]
    Swap:                          0.000000 [-]
    Swap (CBMC):                   0.000000 [-]
    Swap (CFCMC):                  0.000000 [-]
    Swap (CB/CFCMC):               0.000000 [-]
    Gibbs volume:                  0.003984 [-]
    Gibbs swap (CBMC):             0.398406 [-]
    Gibbs swap (CFCMC):            0.000000 [-]
    Widom:                         0.000000 [-]
    Widom (CFCMC):                 0.000000 [-]
    Widom (CB/CFCMC):              0.000000 [-]
    Parallel tempering:            0.000000 [-]
    Hybrid MC:                     0.000000 [-]

    number of blocking-pockets: 0

    number of bonds: 0





Number of pseudo-atoms
===============================================================================

Component   0 (CO2)
-------------------------------------------------------------------------------
    index   0 (C_co2): 210 atoms
    index   1 (O_co2): 420 atoms

Total number of pseudo-atoms:
-------------------------------------------------------------------------------
    index   0 (C_co2): 210 atoms
    index   1 (O_co2): 420 atoms




Energy status Recomputed from scratch
===============================================================================

Total potential energy/kʙ       -9.259581e+04 [K]
    external field VDW/kʙ        0.000000e+00 [K]
    external field Real/kʙ       0.000000e+00 [K]
    framework-molecule VDW/kʙ    0.000000e+00 [K]
    framework-molecule Real/kʙ   0.000000e+00 [K]
    molecule-molecule VDW/kʙ    -6.972127e+04 [K]
    molecule-molecule Real/kʙ   -1.683138e+04 [K]
    Van der Waals (Tail)/kʙ     -3.937786e+03 [K]
    Ewald Fourier/kʙ             1.695537e+04 [K]
    Ewald self/kʙ               -4.224926e+06 [K]
    Ewald exclusion/kʙ           4.205866e+06 [K]
    intra VDW/kʙ                 0.000000e+00 [K]
    intra Coulombic/kʙ           0.000000e+00 [K]
    polarization/kʙ              0.000000e+00 [K]
    dU/dlambda VDW/kʙ            0.000000e+00 [K]
    dU/dlambda Real/kʙ           0.000000e+00 [K]
    dU/dlambda Ewald/kʙ          0.000000e+00 [K]





Initialization: Current cycle: 0 out of 2000
===============================================================================

Box:      30.00000   0.00000   0.00000
           0.00000  30.00000   0.00000
           0.00000   0.00000  30.00000
Lengths:  30.00000  30.00000  30.00000
Angles:   90.00000  90.00000  90.00000
Rectangular boundary conditions

net charge:   0.00000000

component   0 (CO2) lambda:  0 occupancy:  0 (0.000000)
    net charge:   0.00000000 [e]

Amount of molecules per component :
-------------------------------------------------------------------------------
Component 0 (CO2)
    molecules:         2.100000e+02 molecules
    number density:    7.777778e-03 molec/A^3
    density:           5.682578e+02 kg/m^3

Total potential energy/kʙ       -1.306052e+05 [K]
-------------------------------------------------------------------------------
    external field VDW/kʙ        0.000000e+00 [K]
    external field Real/kʙ       0.000000e+00 [K]
    framework-molecule VDW/kʙ    0.000000e+00 [K]
    framework-molecule Real/kʙ   0.000000e+00 [K]
    molecule-molecule VDW/kʙ    -1.019627e+05 [K]
    molecule-molecule Real/kʙ   -2.120102e+04 [K]
    Van der Waals (Tail)/kʙ     -3.937786e+03 [K]
    Ewald Fourier/kʙ             1.555701e+04 [K]
    Ewald self/kʙ               -4.224926e+06 [K]
    Ewald exclusion/kʙ           4.205866e+06 [K]
    intra VDW/kʙ                 0.000000e+00 [K]
    intra Coulombic/kʙ           0.000000e+00 [K]
    polarization/kʙ              0.000000e+00 [K]
    dU/dlambda VDW/kʙ            0.000000e+00 [K]
    dU/dlambda Real/kʙ           0.000000e+00 [K]
    dU/dlambda Ewald/kʙ          0.000000e+00 [K]


Initialization: Current cycle: 100 out of 2000
===============================================================================

Box:      28.42364   0.00000   0.00000
           0.00000  28.42364   0.00000
           0.00000   0.00000  28.42364
Lengths:  28.42364  28.42364  28.42364
Angles:   90.00000  90.00000  90.00000
Rectangular boundary conditions

net charge:   0.00000000

component   0 (CO2) lambda:  0 occupancy:  0 (0.000000)
    net charge:   0.00000000 [e]

Amount of molecules per component :
-------------------------------------------------------------------------------
Component 0 (CO2)
    molecules:         2.430000e+02 molecules
    number density:    1.058199e-02 molec/A^3
    density:           7.731384e+02 kg/m^3

Total potential energy/kʙ       -2.828589e+05 [K]
-------------------------------------------------------------------------------
    external field VDW/kʙ        0.000000e+00 [K]
    external field Real/kʙ       0.000000e+00 [K]
    framework-molecule VDW/kʙ    0.000000e+00 [K]
    framework-molecule Real/kʙ   0.000000e+00 [K]
    molecule-molecule VDW/kʙ    -2.017423e+05 [K]
    molecule-molecule Real/kʙ   -6.455429e+04 [K]
    Van der Waals (Tail)/kʙ     -6.199418e+03 [K]
    Ewald Fourier/kʙ             1.169314e+04 [K]
    Ewald self/kʙ               -4.888843e+06 [K]
    Ewald exclusion/kʙ           4.866787e+06 [K]
    intra VDW/kʙ                 0.000000e+00 [K]
    intra Coulombic/kʙ           0.000000e+00 [K]
    polarization/kʙ              0.000000e+00 [K]
    dU/dlambda VDW/kʙ            0.000000e+00 [K]
    dU/dlambda Real/kʙ           0.000000e+00 [K]
    dU/dlambda Ewald/kʙ          0.000000e+00 [K]


Initialization: Current cycle: 200 out of 2000
===============================================================================

Box:      26.78698   0.00000   0.00000
           0.00000  26.78698   0.00000
           0.00000   0.00000  26.78698
Lengths:  26.78698  26.78698  26.78698
Angles:   90.00000  90.00000  90.00000
Rectangular boundary conditions

net charge:   0.00000000

component   0 (CO2) lambda:  0 occupancy:  0 (0.000000)
    net charge:   0.00000000 [e]

Amount of molecules per component :
-------------------------------------------------------------------------------
Component 0 (CO2)
    molecules:         2.430000e+02 molecules
    number density:    1.264256e-02 molec/A^3
    density:           9.236873e+02 kg/m^3

Total potential energy/kʙ       -3.339376e+05 [K]
-------------------------------------------------------------------------------
    external field VDW/kʙ        0.000000e+00 [K]
    external field Real/kʙ       0.000000e+00 [K]
    framework-molecule VDW/kʙ    0.000000e+00 [K]
    framework-molecule Real/kʙ   0.000000e+00 [K]
    molecule-molecule VDW/kʙ    -2.422161e+05 [K]
    molecule-molecule Real/kʙ   -7.308463e+04 [K]
    Van der Waals (Tail)/kʙ     -7.406597e+03 [K]
    Ewald Fourier/kʙ             1.082574e+04 [K]
    Ewald self/kʙ               -4.888843e+06 [K]
    Ewald exclusion/kʙ           4.866787e+06 [K]
    intra VDW/kʙ                 0.000000e+00 [K]
    intra Coulombic/kʙ           0.000000e+00 [K]
    polarization/kʙ              0.000000e+00 [K]
    dU/dlambda VDW/kʙ            0.000000e+00 [K]
    dU/dlambda Real/kʙ           0.000000e+00 [K]
    dU/dlambda Ewald/kʙ          0.000000e+00 [K]


Initialization: Current cycle: 300 out of 2000
===============================================================================

Box:      26.32335   0.00000   0.00000
           0.00000  26.32335   0.00000
           0.00000   0.00000  26.32335
Lengths:  26.32335  26.32335  26.32335
Angles:   90.00000  90.00000  90.00000
Rectangular boundary conditions

net charge:   0.00000000

component   0 (CO2) lambda:  0 occupancy:  0 (0.000000)
    net charge:   0.00000000 [e]

Amount of molecules per component :
-------------------------------------------------------------------------------
Component 0 (CO2)
    molecules:         2.400000e+02 molecules
    number density:    1.315793e-02 molec/A^3
    density:           9.613409e+02 kg/m^3

Total potential energy/kʙ       -3.371168e+05 [K]
-------------------------------------------------------------------------------
    external field VDW/kʙ        0.000000e+00 [K]
    external field Real/kʙ       0.000000e+00 [K]
    framework-molecule VDW/kʙ    0.000000e+00 [K]
    framework-molecule Real/kʙ   0.000000e+00 [K]
    molecule-molecule VDW/kʙ    -2.459184e+05 [K]
    molecule-molecule Real/kʙ   -7.263337e+04 [K]
    Van der Waals (Tail)/kʙ     -7.613355e+03 [K]
    Ewald Fourier/kʙ             1.083207e+04 [K]
    Ewald self/kʙ               -4.828487e+06 [K]
    Ewald exclusion/kʙ           4.806703e+06 [K]
    intra VDW/kʙ                 0.000000e+00 [K]
    intra Coulombic/kʙ           0.000000e+00 [K]
    polarization/kʙ              0.000000e+00 [K]
    dU/dlambda VDW/kʙ            0.000000e+00 [K]
    dU/dlambda Real/kʙ           0.000000e+00 [K]
    dU/dlambda Ewald/kʙ          0.000000e+00 [K]


Initialization: Current cycle: 400 out of 2000
===============================================================================

Box:      26.31622   0.00000   0.00000
           0.00000  26.31622   0.00000
           0.00000   0.00000  26.31622
Lengths:  26.31622  26.31622  26.31622
Angles:   90.00000  90.00000  90.00000
Rectangular boundary conditions

net charge:   0.00000000

component   0 (CO2) lambda:  0 occupancy:  0 (0.000000)
    net charge:   0.00000000 [e]

Amount of molecules per component :
-------------------------------------------------------------------------------
Component 0 (CO2)
    molecules:         2.430000e+02 molecules
    number density:    1.333324e-02 molec/A^3
    density:           9.741496e+02 kg/m^3

Total potential energy/kʙ       -3.475897e+05 [K]
-------------------------------------------------------------------------------
    external field VDW/kʙ        0.000000e+00 [K]
    external field Real/kʙ       0.000000e+00 [K]
    framework-molecule VDW/kʙ    0.000000e+00 [K]
    framework-molecule Real/kʙ   0.000000e+00 [K]
    molecule-molecule VDW/kʙ    -2.517329e+05 [K]
    molecule-molecule Real/kʙ   -7.608282e+04 [K]
    Van der Waals (Tail)/kʙ     -7.811229e+03 [K]
    Ewald Fourier/kʙ             1.009333e+04 [K]
    Ewald self/kʙ               -4.888843e+06 [K]
    Ewald exclusion/kʙ           4.866787e+06 [K]
    intra VDW/kʙ                 0.000000e+00 [K]
    intra Coulombic/kʙ           0.000000e+00 [K]
    polarization/kʙ              0.000000e+00 [K]
    dU/dlambda VDW/kʙ            0.000000e+00 [K]
    dU/dlambda Real/kʙ           0.000000e+00 [K]
    dU/dlambda Ewald/kʙ          0.000000e+00 [K]


Initialization: Current cycle: 500 out of 2000
===============================================================================

Box:      25.73083   0.00000   0.00000
           0.00000  25.73083   0.00000
           0.00000   0.00000  25.73083
Lengths:  25.73083  25.73083  25.73083
Angles:   90.00000  90.00000  90.00000
Rectangular boundary conditions

net charge:   0.00000000

component   0 (CO2) lambda:  0 occupancy:  0 (0.000000)
    net charge:   0.00000000 [e]

Amount of molecules per component :
-------------------------------------------------------------------------------
Component 0 (CO2)
    molecules:         2.380000e+02 molecules
    number density:    1.397062e-02 molec/A^3
    density:           1.020717e+03 kg/m^3

Total potential energy/kʙ       -3.567621e+05 [K]
-------------------------------------------------------------------------------
    external field VDW/kʙ        0.000000e+00 [K]
    external field Real/kʙ       0.000000e+00 [K]
    framework-molecule VDW/kʙ    0.000000e+00 [K]
    framework-molecule Real/kʙ   0.000000e+00 [K]
    molecule-molecule VDW/kʙ    -2.598230e+05 [K]
    molecule-molecule Real/kʙ   -7.623850e+04 [K]
    Van der Waals (Tail)/kʙ     -8.016223e+03 [K]
    Ewald Fourier/kʙ             8.917833e+03 [K]
    Ewald self/kʙ               -4.788250e+06 [K]
    Ewald exclusion/kʙ           4.766648e+06 [K]
    intra VDW/kʙ                 0.000000e+00 [K]
    intra Coulombic/kʙ           0.000000e+00 [K]
    polarization/kʙ              0.000000e+00 [K]
    dU/dlambda VDW/kʙ            0.000000e+00 [K]
    dU/dlambda Real/kʙ           0.000000e+00 [K]
    dU/dlambda Ewald/kʙ          0.000000e+00 [K]


Initialization: Current cycle: 600 out of 2000
===============================================================================

Box:      25.35714   0.00000   0.00000
           0.00000  25.35714   0.00000
           0.00000   0.00000  25.35714
Lengths:  25.35714  25.35714  25.35714
Angles:   90.00000  90.00000  90.00000
Rectangular boundary conditions

net charge:   0.00000000

component   0 (CO2) lambda:  0 occupancy:  0 (0.000000)
    net charge:   0.00000000 [e]

Amount of molecules per component :
-------------------------------------------------------------------------------
Component 0 (CO2)
    molecules:         2.400000e+02 molecules
    number density:    1.472009e-02 molec/A^3
    density:           1.075475e+03 kg/m^3

Total potential energy/kʙ       -3.734723e+05 [K]
-------------------------------------------------------------------------------
    external field VDW/kʙ        0.000000e+00 [K]
    external field Real/kʙ       0.000000e+00 [K]
    framework-molecule VDW/kʙ    0.000000e+00 [K]
    framework-molecule Real/kʙ   0.000000e+00 [K]
    molecule-molecule VDW/kʙ    -2.629422e+05 [K]
    molecule-molecule Real/kʙ   -8.912386e+04 [K]
    Van der Waals (Tail)/kʙ     -8.517243e+03 [K]
    Ewald Fourier/kʙ             8.894756e+03 [K]
    Ewald self/kʙ               -4.828487e+06 [K]
    Ewald exclusion/kʙ           4.806703e+06 [K]
    intra VDW/kʙ                 0.000000e+00 [K]
    intra Coulombic/kʙ           0.000000e+00 [K]
    polarization/kʙ              0.000000e+00 [K]
    dU/dlambda VDW/kʙ            0.000000e+00 [K]
    dU/dlambda Real/kʙ           0.000000e+00 [K]
    dU/dlambda Ewald/kʙ          0.000000e+00 [K]


Initialization: Current cycle: 700 out of 2000
===============================================================================

Box:      25.21231   0.00000   0.00000
           0.00000  25.21231   0.00000
           0.00000   0.00000  25.21231
Lengths:  25.21231  25.21231  25.21231
Angles:   90.00000  90.00000  90.00000
Rectangular boundary conditions

net charge:   0.00000000

component   0 (CO2) lambda:  0 occupancy:  0 (0.000000)
    net charge:   0.00000000 [e]

Amount of molecules per component :
-------------------------------------------------------------------------------
Component 0 (CO2)
    molecules:         2.360000e+02 molecules
    number density:    1.472563e-02 molec/A^3
    density:           1.075880e+03 kg/m^3

Total potential energy/kʙ       -3.593051e+05 [K]
-------------------------------------------------------------------------------
    external field VDW/kʙ        0.000000e+00 [K]
    external field Real/kʙ       0.000000e+00 [K]
    framework-molecule VDW/kʙ    0.000000e+00 [K]
    framework-molecule Real/kʙ   0.000000e+00 [K]
    molecule-molecule VDW/kʙ    -2.590951e+05 [K]
    molecule-molecule Real/kʙ   -7.941999e+04 [K]
    Van der Waals (Tail)/kʙ     -8.378440e+03 [K]
    Ewald Fourier/kʙ             9.009131e+03 [K]
    Ewald self/kʙ               -4.748012e+06 [K]
    Ewald exclusion/kʙ           4.726592e+06 [K]
    intra VDW/kʙ                 0.000000e+00 [K]
    intra Coulombic/kʙ           0.000000e+00 [K]
    polarization/kʙ              0.000000e+00 [K]
    dU/dlambda VDW/kʙ            0.000000e+00 [K]
    dU/dlambda Real/kʙ           0.000000e+00 [K]
    dU/dlambda Ewald/kʙ          0.000000e+00 [K]


Initialization: Current cycle: 800 out of 2000
===============================================================================

Box:      25.48358   0.00000   0.00000
           0.00000  25.48358   0.00000
           0.00000   0.00000  25.48358
Lengths:  25.48358  25.48358  25.48358
Angles:   90.00000  90.00000  90.00000
Rectangular boundary conditions

net charge:   0.00000000

component   0 (CO2) lambda:  0 occupancy:  0 (0.000000)
    net charge:   0.00000000 [e]

Amount of molecules per component :
-------------------------------------------------------------------------------
Component 0 (CO2)
    molecules:         2.350000e+02 molecules
    number density:    1.419994e-02 molec/A^3
    density:           1.037472e+03 kg/m^3

Total potential energy/kʙ       -3.494696e+05 [K]
-------------------------------------------------------------------------------
    external field VDW/kʙ        0.000000e+00 [K]
    external field Real/kʙ       0.000000e+00 [K]
    framework-molecule VDW/kʙ    0.000000e+00 [K]
    framework-molecule Real/kʙ   0.000000e+00 [K]
    molecule-molecule VDW/kʙ    -2.529264e+05 [K]
    molecule-molecule Real/kʙ   -7.711348e+04 [K]
    Van der Waals (Tail)/kʙ     -8.045104e+03 [K]
    Ewald Fourier/kʙ             9.945305e+03 [K]
    Ewald self/kʙ               -4.727894e+06 [K]
    Ewald exclusion/kʙ           4.706564e+06 [K]
    intra VDW/kʙ                 0.000000e+00 [K]
    intra Coulombic/kʙ           0.000000e+00 [K]
    polarization/kʙ              0.000000e+00 [K]
    dU/dlambda VDW/kʙ            0.000000e+00 [K]
    dU/dlambda Real/kʙ           0.000000e+00 [K]
    dU/dlambda Ewald/kʙ          0.000000e+00 [K]


Initialization: Current cycle: 900 out of 2000
===============================================================================

Box:      25.12567   0.00000   0.00000
           0.00000  25.12567   0.00000
           0.00000   0.00000  25.12567
Lengths:  25.12567  25.12567  25.12567
Angles:   90.00000  90.00000  90.00000
Rectangular boundary conditions

net charge:   0.00000000

component   0 (CO2) lambda:  0 occupancy:  0 (0.000000)
    net charge:   0.00000000 [e]

Amount of molecules per component :
-------------------------------------------------------------------------------
Component 0 (CO2)
    molecules:         2.390000e+02 molecules
    number density:    1.506763e-02 molec/A^3
    density:           1.100867e+03 kg/m^3

Total potential energy/kʙ       -3.806449e+05 [K]
-------------------------------------------------------------------------------
    external field VDW/kʙ        0.000000e+00 [K]
    external field Real/kʙ       0.000000e+00 [K]
    framework-molecule VDW/kʙ    0.000000e+00 [K]
    framework-molecule Real/kʙ   0.000000e+00 [K]
    molecule-molecule VDW/kʙ    -2.704655e+05 [K]
    molecule-molecule Real/kʙ   -8.918870e+04 [K]
    Van der Waals (Tail)/kʙ     -8.682009e+03 [K]
    Ewald Fourier/kʙ             9.384237e+03 [K]
    Ewald self/kʙ               -4.808368e+06 [K]
    Ewald exclusion/kʙ           4.786676e+06 [K]
    intra VDW/kʙ                 0.000000e+00 [K]
    intra Coulombic/kʙ           0.000000e+00 [K]
    polarization/kʙ              0.000000e+00 [K]
    dU/dlambda VDW/kʙ            0.000000e+00 [K]
    dU/dlambda Real/kʙ           0.000000e+00 [K]
    dU/dlambda Ewald/kʙ          0.000000e+00 [K]


Initialization: Current cycle: 1000 out of 2000
===============================================================================

Box:      25.12896   0.00000   0.00000
           0.00000  25.12896   0.00000
           0.00000   0.00000  25.12896
Lengths:  25.12896  25.12896  25.12896
Angles:   90.00000  90.00000  90.00000
Rectangular boundary conditions

net charge:   0.00000000

component   0 (CO2) lambda:  0 occupancy:  0 (0.000000)
    net charge:   0.00000000 [e]

Amount of molecules per component :
-------------------------------------------------------------------------------
Component 0 (CO2)
    molecules:         2.380000e+02 molecules
    number density:    1.499869e-02 molec/A^3
    density:           1.095830e+03 kg/m^3

Total potential energy/kʙ       -3.839931e+05 [K]
-------------------------------------------------------------------------------
    external field VDW/kʙ        0.000000e+00 [K]
    external field Real/kʙ       0.000000e+00 [K]
    framework-molecule VDW/kʙ    0.000000e+00 [K]
    framework-molecule Real/kʙ   0.000000e+00 [K]
    molecule-molecule VDW/kʙ    -2.778260e+05 [K]
    molecule-molecule Real/kʙ   -8.504293e+04 [K]
    Van der Waals (Tail)/kʙ     -8.606125e+03 [K]
    Ewald Fourier/kʙ             9.084153e+03 [K]
    Ewald self/kʙ               -4.788250e+06 [K]
    Ewald exclusion/kʙ           4.766648e+06 [K]
    intra VDW/kʙ                 0.000000e+00 [K]
    intra Coulombic/kʙ           0.000000e+00 [K]
    polarization/kʙ              0.000000e+00 [K]
    dU/dlambda VDW/kʙ            0.000000e+00 [K]
    dU/dlambda Real/kʙ           0.000000e+00 [K]
    dU/dlambda Ewald/kʙ          0.000000e+00 [K]


Initialization: Current cycle: 1100 out of 2000
===============================================================================

Box:      25.06331   0.00000   0.00000
           0.00000  25.06331   0.00000
           0.00000   0.00000  25.06331
Lengths:  25.06331  25.06331  25.06331
Angles:   90.00000  90.00000  90.00000
Rectangular boundary conditions

net charge:   0.00000000

component   0 (CO2) lambda:  0 occupancy:  0 (0.000000)
    net charge:   0.00000000 [e]

Amount of molecules per component :
-------------------------------------------------------------------------------
Component 0 (CO2)
    molecules:         2.400000e+02 molecules
    number density:    1.524389e-02 molec/A^3
    density:           1.113744e+03 kg/m^3

Total potential energy/kʙ       -3.868388e+05 [K]
-------------------------------------------------------------------------------
    external field VDW/kʙ        0.000000e+00 [K]
    external field Real/kʙ       0.000000e+00 [K]
    framework-molecule VDW/kʙ    0.000000e+00 [K]
    framework-molecule Real/kʙ   0.000000e+00 [K]
    molecule-molecule VDW/kʙ    -2.721358e+05 [K]
    molecule-molecule Real/kʙ   -9.375456e+04 [K]
    Van der Waals (Tail)/kʙ     -8.820318e+03 [K]
    Ewald Fourier/kʙ             9.655579e+03 [K]
    Ewald self/kʙ               -4.828487e+06 [K]
    Ewald exclusion/kʙ           4.806703e+06 [K]
    intra VDW/kʙ                 0.000000e+00 [K]
    intra Coulombic/kʙ           0.000000e+00 [K]
    polarization/kʙ              0.000000e+00 [K]
    dU/dlambda VDW/kʙ            0.000000e+00 [K]
    dU/dlambda Real/kʙ           0.000000e+00 [K]
    dU/dlambda Ewald/kʙ          0.000000e+00 [K]


Initialization: Current cycle: 1200 out of 2000
===============================================================================

Box:      25.00847   0.00000   0.00000
           0.00000  25.00847   0.00000
           0.00000   0.00000  25.00847
Lengths:  25.00847  25.00847  25.00847
Angles:   90.00000  90.00000  90.00000
Rectangular boundary conditions

net charge:   0.00000000

component   0 (CO2) lambda:  0 occupancy:  0 (0.000000)
    net charge:   0.00000000 [e]

Amount of molecules per component :
-------------------------------------------------------------------------------
Component 0 (CO2)
    molecules:         2.340000e+02 molecules
    number density:    1.496079e-02 molec/A^3
    density:           1.093061e+03 kg/m^3

Total potential energy/kʙ       -3.724703e+05 [K]
-------------------------------------------------------------------------------
    external field VDW/kʙ        0.000000e+00 [K]
    external field Real/kʙ       0.000000e+00 [K]
    framework-molecule VDW/kʙ    0.000000e+00 [K]
    framework-molecule Real/kʙ   0.000000e+00 [K]
    molecule-molecule VDW/kʙ    -2.646205e+05 [K]
    molecule-molecule Real/kʙ   -8.678144e+04 [K]
    Van der Waals (Tail)/kʙ     -8.440104e+03 [K]
    Ewald Fourier/kʙ             8.610939e+03 [K]
    Ewald self/kʙ               -4.707775e+06 [K]
    Ewald exclusion/kʙ           4.686536e+06 [K]
    intra VDW/kʙ                 0.000000e+00 [K]
    intra Coulombic/kʙ           0.000000e+00 [K]
    polarization/kʙ              0.000000e+00 [K]
    dU/dlambda VDW/kʙ            0.000000e+00 [K]
    dU/dlambda Real/kʙ           0.000000e+00 [K]
    dU/dlambda Ewald/kʙ          0.000000e+00 [K]


Initialization: Current cycle: 1300 out of 2000
===============================================================================

Box:      25.04796   0.00000   0.00000
           0.00000  25.04796   0.00000
           0.00000   0.00000  25.04796
Lengths:  25.04796  25.04796  25.04796
Angles:   90.00000  90.00000  90.00000
Rectangular boundary conditions

net charge:   0.00000000

component   0 (CO2) lambda:  0 occupancy:  0 (0.000000)
    net charge:   0.00000000 [e]

Amount of molecules per component :
-------------------------------------------------------------------------------
Component 0 (CO2)
    molecules:         2.380000e+02 molecules
    number density:    1.514468e-02 molec/A^3
    density:           1.106496e+03 kg/m^3

Total potential energy/kʙ       -3.908971e+05 [K]
-------------------------------------------------------------------------------
    external field VDW/kʙ        0.000000e+00 [K]
    external field Real/kʙ       0.000000e+00 [K]
    framework-molecule VDW/kʙ    0.000000e+00 [K]
    framework-molecule Real/kʙ   0.000000e+00 [K]
    molecule-molecule VDW/kʙ    -2.812862e+05 [K]
    molecule-molecule Real/kʙ   -8.804338e+04 [K]
    Van der Waals (Tail)/kʙ     -8.689890e+03 [K]
    Ewald Fourier/kʙ             8.724539e+03 [K]
    Ewald self/kʙ               -4.788250e+06 [K]
    Ewald exclusion/kʙ           4.766648e+06 [K]
    intra VDW/kʙ                 0.000000e+00 [K]
    intra Coulombic/kʙ           0.000000e+00 [K]
    polarization/kʙ              0.000000e+00 [K]
    dU/dlambda VDW/kʙ            0.000000e+00 [K]
    dU/dlambda Real/kʙ           0.000000e+00 [K]
    dU/dlambda Ewald/kʙ          0.000000e+00 [K]


Initialization: Current cycle: 1400 out of 2000
===============================================================================

Box:      25.38114   0.00000   0.00000
           0.00000  25.38114   0.00000
           0.00000   0.00000  25.38114
Lengths:  25.38114  25.38114  25.38114
Angles:   90.00000  90.00000  90.00000
Rectangular boundary conditions

net charge:   0.00000000

component   0 (CO2) lambda:  0 occupancy:  0 (0.000000)
    net charge:   0.00000000 [e]

Amount of molecules per component :
-------------------------------------------------------------------------------
Component 0 (CO2)
    molecules:         2.360000e+02 molecules
    number density:    1.443374e-02 molec/A^3
    density:           1.054553e+03 kg/m^3

Total potential energy/kʙ       -3.712344e+05 [K]
-------------------------------------------------------------------------------
    external field VDW/kʙ        0.000000e+00 [K]
    external field Real/kʙ       0.000000e+00 [K]
    framework-molecule VDW/kʙ    0.000000e+00 [K]
    framework-molecule Real/kʙ   0.000000e+00 [K]
    molecule-molecule VDW/kʙ    -2.672142e+05 [K]
    molecule-molecule Real/kʙ   -8.370710e+04 [K]
    Van der Waals (Tail)/kʙ     -8.212361e+03 [K]
    Ewald Fourier/kʙ             9.319956e+03 [K]
    Ewald self/kʙ               -4.748012e+06 [K]
    Ewald exclusion/kʙ           4.726592e+06 [K]
    intra VDW/kʙ                 0.000000e+00 [K]
    intra Coulombic/kʙ           0.000000e+00 [K]
    polarization/kʙ              0.000000e+00 [K]
    dU/dlambda VDW/kʙ            0.000000e+00 [K]
    dU/dlambda Real/kʙ           0.000000e+00 [K]
    dU/dlambda Ewald/kʙ          0.000000e+00 [K]


Initialization: Current cycle: 1500 out of 2000
===============================================================================

Box:      24.97480   0.00000   0.00000
           0.00000  24.97480   0.00000
           0.00000   0.00000  24.97480
Lengths:  24.97480  24.97480  24.97480
Angles:   90.00000  90.00000  90.00000
Rectangular boundary conditions

net charge:   0.00000000

component   0 (CO2) lambda:  0 occupancy:  0 (0.000000)
    net charge:   0.00000000 [e]

Amount of molecules per component :
-------------------------------------------------------------------------------
Component 0 (CO2)
    molecules:         2.320000e+02 molecules
    number density:    1.489299e-02 molec/A^3
    density:           1.088108e+03 kg/m^3

Total potential energy/kʙ       -3.667721e+05 [K]
-------------------------------------------------------------------------------
    external field VDW/kʙ        0.000000e+00 [K]
    external field Real/kʙ       0.000000e+00 [K]
    framework-molecule VDW/kʙ    0.000000e+00 [K]
    framework-molecule Real/kʙ   0.000000e+00 [K]
    molecule-molecule VDW/kʙ    -2.637018e+05 [K]
    molecule-molecule Real/kʙ   -8.265385e+04 [K]
    Van der Waals (Tail)/kʙ     -8.330044e+03 [K]
    Ewald Fourier/kʙ             8.971178e+03 [K]
    Ewald self/kʙ               -4.667538e+06 [K]
    Ewald exclusion/kʙ           4.646480e+06 [K]
    intra VDW/kʙ                 0.000000e+00 [K]
    intra Coulombic/kʙ           0.000000e+00 [K]
    polarization/kʙ              0.000000e+00 [K]
    dU/dlambda VDW/kʙ            0.000000e+00 [K]
    dU/dlambda Real/kʙ           0.000000e+00 [K]
    dU/dlambda Ewald/kʙ          0.000000e+00 [K]


Initialization: Current cycle: 1600 out of 2000
===============================================================================

Box:      24.79170   0.00000   0.00000
           0.00000  24.79170   0.00000
           0.00000   0.00000  24.79170
Lengths:  24.79170  24.79170  24.79170
Angles:   90.00000  90.00000  90.00000
Rectangular boundary conditions

net charge:   0.00000000

component   0 (CO2) lambda:  0 occupancy:  0 (0.000000)
    net charge:   0.00000000 [e]

Amount of molecules per component :
-------------------------------------------------------------------------------
Component 0 (CO2)
    molecules:         2.260000e+02 molecules
    number density:    1.483165e-02 molec/A^3
    density:           1.083626e+03 kg/m^3

Total potential energy/kʙ       -3.619579e+05 [K]
-------------------------------------------------------------------------------
    external field VDW/kʙ        0.000000e+00 [K]
    external field Real/kʙ       0.000000e+00 [K]
    framework-molecule VDW/kʙ    0.000000e+00 [K]
    framework-molecule Real/kʙ   0.000000e+00 [K]
    molecule-molecule VDW/kʙ    -2.545328e+05 [K]
    molecule-molecule Real/kʙ   -8.677355e+04 [K]
    Van der Waals (Tail)/kʙ     -8.081190e+03 [K]
    Ewald Fourier/kʙ             7.942619e+03 [K]
    Ewald self/kʙ               -4.546825e+06 [K]
    Ewald exclusion/kʙ           4.526312e+06 [K]
    intra VDW/kʙ                 0.000000e+00 [K]
    intra Coulombic/kʙ           0.000000e+00 [K]
    polarization/kʙ              0.000000e+00 [K]
    dU/dlambda VDW/kʙ            0.000000e+00 [K]
    dU/dlambda Real/kʙ           0.000000e+00 [K]
    dU/dlambda Ewald/kʙ          0.000000e+00 [K]


Initialization: Current cycle: 1700 out of 2000
===============================================================================

Box:      24.88277   0.00000   0.00000
           0.00000  24.88277   0.00000
           0.00000   0.00000  24.88277
Lengths:  24.88277  24.88277  24.88277
Angles:   90.00000  90.00000  90.00000
Rectangular boundary conditions

net charge:   0.00000000

component   0 (CO2) lambda:  0 occupancy:  0 (0.000000)
    net charge:   0.00000000 [e]

Amount of molecules per component :
-------------------------------------------------------------------------------
Component 0 (CO2)
    molecules:         2.320000e+02 molecules
    number density:    1.505885e-02 molec/A^3
    density:           1.100225e+03 kg/m^3

Total potential energy/kʙ       -3.732675e+05 [K]
-------------------------------------------------------------------------------
    external field VDW/kʙ        0.000000e+00 [K]
    external field Real/kʙ       0.000000e+00 [K]
    framework-molecule VDW/kʙ    0.000000e+00 [K]
    framework-molecule Real/kʙ   0.000000e+00 [K]
    molecule-molecule VDW/kʙ    -2.643124e+05 [K]
    molecule-molecule Real/kʙ   -8.824063e+04 [K]
    Van der Waals (Tail)/kʙ     -8.422809e+03 [K]
    Ewald Fourier/kʙ             8.765916e+03 [K]
    Ewald self/kʙ               -4.667538e+06 [K]
    Ewald exclusion/kʙ           4.646480e+06 [K]
    intra VDW/kʙ                 0.000000e+00 [K]
    intra Coulombic/kʙ           0.000000e+00 [K]
    polarization/kʙ              0.000000e+00 [K]
    dU/dlambda VDW/kʙ            0.000000e+00 [K]
    dU/dlambda Real/kʙ           0.000000e+00 [K]
    dU/dlambda Ewald/kʙ          0.000000e+00 [K]


Initialization: Current cycle: 1800 out of 2000
===============================================================================

Box:      24.69869   0.00000   0.00000
           0.00000  24.69869   0.00000
           0.00000   0.00000  24.69869
Lengths:  24.69869  24.69869  24.69869
Angles:   90.00000  90.00000  90.00000
Rectangular boundary conditions

net charge:   0.00000000

component   0 (CO2) lambda:  0 occupancy:  0 (0.000000)
    net charge:   0.00000000 [e]

Amount of molecules per component :
-------------------------------------------------------------------------------
Component 0 (CO2)
    molecules:         2.340000e+02 molecules
    number density:    1.553080e-02 molec/A^3
    density:           1.134707e+03 kg/m^3

Total potential energy/kʙ       -3.861820e+05 [K]
-------------------------------------------------------------------------------
    external field VDW/kʙ        0.000000e+00 [K]
    external field Real/kʙ       0.000000e+00 [K]
    framework-molecule VDW/kʙ    0.000000e+00 [K]
    framework-molecule Real/kʙ   0.000000e+00 [K]
    molecule-molecule VDW/kʙ    -2.700451e+05 [K]
    molecule-molecule Real/kʙ   -9.422559e+04 [K]
    Van der Waals (Tail)/kʙ     -8.761672e+03 [K]
    Ewald Fourier/kʙ             8.089563e+03 [K]
    Ewald self/kʙ               -4.707775e+06 [K]
    Ewald exclusion/kʙ           4.686536e+06 [K]
    intra VDW/kʙ                 0.000000e+00 [K]
    intra Coulombic/kʙ           0.000000e+00 [K]
    polarization/kʙ              0.000000e+00 [K]
    dU/dlambda VDW/kʙ            0.000000e+00 [K]
    dU/dlambda Real/kʙ           0.000000e+00 [K]
    dU/dlambda Ewald/kʙ          0.000000e+00 [K]


Initialization: Current cycle: 1900 out of 2000
===============================================================================

Box:      24.94928   0.00000   0.00000
           0.00000  24.94928   0.00000
           0.00000   0.00000  24.94928
Lengths:  24.94928  24.94928  24.94928
Angles:   90.00000  90.00000  90.00000
Rectangular boundary conditions

net charge:   0.00000000

component   0 (CO2) lambda:  0 occupancy:  0 (0.000000)
    net charge:   0.00000000 [e]

Amount of molecules per component :
-------------------------------------------------------------------------------
Component 0 (CO2)
    molecules:         2.390000e+02 molecules
    number density:    1.538947e-02 molec/A^3
    density:           1.124381e+03 kg/m^3

Total potential energy/kʙ       -3.904178e+05 [K]
-------------------------------------------------------------------------------
    external field VDW/kʙ        0.000000e+00 [K]
    external field Real/kʙ       0.000000e+00 [K]
    framework-molecule VDW/kʙ    0.000000e+00 [K]
    framework-molecule Real/kʙ   0.000000e+00 [K]
    molecule-molecule VDW/kʙ    -2.804168e+05 [K]
    molecule-molecule Real/kʙ   -8.828060e+04 [K]
    Van der Waals (Tail)/kʙ     -8.867454e+03 [K]
    Ewald Fourier/kʙ             8.839987e+03 [K]
    Ewald self/kʙ               -4.808368e+06 [K]
    Ewald exclusion/kʙ           4.786676e+06 [K]
    intra VDW/kʙ                 0.000000e+00 [K]
    intra Coulombic/kʙ           0.000000e+00 [K]
    polarization/kʙ              0.000000e+00 [K]
    dU/dlambda VDW/kʙ            0.000000e+00 [K]
    dU/dlambda Real/kʙ           0.000000e+00 [K]
    dU/dlambda Ewald/kʙ          0.000000e+00 [K]


Current cycle: 0 out of 6000
===============================================================================

Box:      24.84461   0.00000   0.00000  Average:  24.84461   0.00000   0.00000
           0.00000  24.84461   0.00000             0.00000  24.84461   0.00000
           0.00000   0.00000  24.84461             0.00000   0.00000  24.84461
Lengths:  24.84461  24.84461  24.84461  Average:  24.84461  24.84461  24.84461
Angles:   90.00000  90.00000  90.00000  Average:  90.00000  90.00000  90.00000
Rectangular boundary conditions

net charge:   0.00000000

component 0 (CO2) lambda:  0 occupancy:  0 (0.000000)
    net charge:   0.00000000 [e]

Amount of molecules per component :
-------------------------------------------------------------------------------
Component 0 (CO2)
    molecules:      2.320000e+02 molecules  (2.320000e+02 +/- 0.000000e+00)
    number density: 1.512834e-02 molec./A^3 (1.512834e-02 +/- 0.000000e+00)
    density:        1.105302e+03 kg/m^3     (1.105302e+03 +/- 0.000000e+00)

Average pressure tensor: 
-------------------------------------------------------------------------------
 5.0129e+02  0.0000e+00  0.0000e+00 +/- 0.0000e+00 0.0000e+00 0.0000e+00 [bar]
 0.0000e+00  5.0129e+02  0.0000e+00 +/- 0.0000e+00 0.0000e+00 0.0000e+00 [bar]
 0.0000e+00  0.0000e+00  5.0129e+02 +/- 0.0000e+00 0.0000e+00 0.0000e+00 [bar]
Ideal-gas pressure:   5.012868e+02 +/ 0.000000e+00 [bar]
Excess pressure:      0.000000e+00 +/ 0.000000e+00 [bar]
Pressure:             5.012868e+02 +/ 0.000000e+00 [bar]

Total potential energy/kʙ  -3.775003e+05 (-3.775003e+05 +/- 0.000000e+00) [K]
-------------------------------------------------------------------------------
ExternalField-molecule
    Van der Waals/kʙ        0.000000e+00 ( 0.000000e+00 +/- 0.000000e+00) [K]
Framework-molecule
    Van der Waals/kʙ        0.000000e+00 ( 0.000000e+00 +/- 0.000000e+00) [K]
    Van der Waals (Tail)/kʙ 0.000000e+00 ( 0.000000e+00 +/- 0.000000e+00) [K]
    Coulombic Real/kʙ       0.000000e+00 ( 0.000000e+00 +/- 0.000000e+00) [K]
    Coulombic Fourier/kʙ    0.000000e+00 ( 0.000000e+00 +/- 0.000000e+00) [K]
Molecule-molecule
    Van der Waals/kʙ       -2.662341e+05 (-2.662341e+05 +/- 0.000000e+00) [K]
    Van der Waals (Tail)/kʙ-8.461680e+03 (-8.461680e+03 +/- 0.000000e+00) [K]
    Coulombic Real/kʙ      -8.978774e+04 (-8.978774e+04 +/- 0.000000e+00) [K]
    Coulombic Fourier/kʙ   -1.301669e+04 (-1.301669e+04 +/- 0.000000e+00) [K]
    Molecule Intra/kʙ       0.000000e+00 ( 0.000000e+00 +/- 0.000000e+00) [K]

Current cycle: 100 out of 6000
===============================================================================

Box:      24.68855   0.00000   0.00000  Average:  24.82390   0.00000   0.00000
           0.00000  24.68855   0.00000             0.00000  24.82390   0.00000
           0.00000   0.00000  24.68855             0.00000   0.00000  24.82390
Lengths:  24.68855  24.68855  24.68855  Average:  24.82390  24.82390  24.82390
Angles:   90.00000  90.00000  90.00000  Average:  90.00000  90.00000  90.00000
Rectangular boundary conditions

net charge:   0.00000000

component 0 (CO2) lambda:  0 occupancy:  0 (0.000000)
    net charge:   0.00000000 [e]

Amount of molecules per component :
-------------------------------------------------------------------------------
Component 0 (CO2)
    molecules:      2.220000e+02 molecules  (2.321881e+02 +/- 0.000000e+00)
    number density: 1.475252e-02 molec./A^3 (1.517805e-02 +/- 0.000000e+00)
    density:        1.077845e+03 kg/m^3     (1.108935e+03 +/- 0.000000e+00)

Average pressure tensor: 
-------------------------------------------------------------------------------
 3.2046e+02  2.2709e+01  6.9635e+01 +/- 0.0000e+00 0.0000e+00 0.0000e+00 [bar]
 2.2709e+01 -1.2976e+02  1.2535e+02 +/- 0.0000e+00 0.0000e+00 0.0000e+00 [bar]
 6.9635e+01  1.2535e+02 -5.3023e+01 +/- 0.0000e+00 0.0000e+00 0.0000e+00 [bar]
Ideal-gas pressure:   5.029340e+02 +/ 0.000000e+00 [bar]
Excess pressure:     -4.570432e+02 +/ 0.000000e+00 [bar]
Pressure:             4.589084e+01 +/ 0.000000e+00 [bar]

Total potential energy/kʙ  -3.466730e+05 (-3.751733e+05 +/- 0.000000e+00) [K]
-------------------------------------------------------------------------------
ExternalField-molecule
    Van der Waals/kʙ        0.000000e+00 ( 0.000000e+00 +/- 0.000000e+00) [K]
Framework-molecule
    Van der Waals/kʙ        0.000000e+00 ( 0.000000e+00 +/- 0.000000e+00) [K]
    Van der Waals (Tail)/kʙ 0.000000e+00 ( 0.000000e+00 +/- 0.000000e+00) [K]
    Coulombic Real/kʙ       0.000000e+00 ( 0.000000e+00 +/- 0.000000e+00) [K]
    Coulombic Fourier/kʙ    0.000000e+00 ( 0.000000e+00 +/- 0.000000e+00) [K]
Molecule-molecule
    Van der Waals/kʙ       -2.457678e+05 (-2.677645e+05 +/- 0.000000e+00) [K]
    Van der Waals (Tail)/kʙ-7.895807e+03 (-8.463880e+03 +/- 0.000000e+00) [K]
    Coulombic Real/kʙ      -8.144506e+04 (-8.607696e+04 +/- 0.000000e+00) [K]
    Coulombic Fourier/kʙ   -1.156436e+04 (-1.286794e+04 +/- 0.000000e+00) [K]
    Molecule Intra/kʙ       0.000000e+00 ( 0.000000e+00 +/- 0.000000e+00) [K]

Current cycle: 200 out of 6000
===============================================================================

Box:      24.78987   0.00000   0.00000  Average:  24.83044   0.00000   0.00000
           0.00000  24.78987   0.00000             0.00000  24.83044   0.00000
           0.00000   0.00000  24.78987             0.00000   0.00000  24.83044
Lengths:  24.78987  24.78987  24.78987  Average:  24.83044  24.83044  24.83044
Angles:   90.00000  90.00000  90.00000  Average:  90.00000  90.00000  90.00000
Rectangular boundary conditions

net charge:   0.00000000

component 0 (CO2) lambda:  0 occupancy:  0 (0.000000)
    net charge:   0.00000000 [e]

Amount of molecules per component :
-------------------------------------------------------------------------------
Component 0 (CO2)
    molecules:      2.290000e+02 molecules  (2.299254e+02 +/- 0.000000e+00)
    number density: 1.503186e-02 molec./A^3 (1.501879e-02 +/- 0.000000e+00)
    density:        1.098253e+03 kg/m^3     (1.097299e+03 +/- 0.000000e+00)

Average pressure tensor: 
-------------------------------------------------------------------------------
 3.8965e+02  5.7718e+01  1.8207e+01 +/- 0.0000e+00 0.0000e+00 0.0000e+00 [bar]
 5.7718e+01 -1.4200e+02  8.8463e+01 +/- 0.0000e+00 0.0000e+00 0.0000e+00 [bar]
 1.8207e+01  8.8463e+01  2.4437e+01 +/- 0.0000e+00 0.0000e+00 0.0000e+00 [bar]
Ideal-gas pressure:   4.976569e+02 +/ 0.000000e+00 [bar]
Excess pressure:     -4.069631e+02 +/ 0.000000e+00 [bar]
Pressure:             9.069378e+01 +/ 0.000000e+00 [bar]

Total potential energy/kʙ  -3.649821e+05 (-3.659260e+05 +/- 0.000000e+00) [K]
-------------------------------------------------------------------------------
ExternalField-molecule
    Van der Waals/kʙ        0.000000e+00 ( 0.000000e+00 +/- 0.000000e+00) [K]
Framework-molecule
    Van der Waals/kʙ        0.000000e+00 ( 0.000000e+00 +/- 0.000000e+00) [K]
    Van der Waals (Tail)/kʙ 0.000000e+00 ( 0.000000e+00 +/- 0.000000e+00) [K]
    Coulombic Real/kʙ       0.000000e+00 ( 0.000000e+00 +/- 0.000000e+00) [K]
    Coulombic Fourier/kʙ    0.000000e+00 ( 0.000000e+00 +/- 0.000000e+00) [K]
Molecule-molecule
    Van der Waals/kʙ       -2.633107e+05 (-2.625564e+05 +/- 0.000000e+00) [K]
    Van der Waals (Tail)/kʙ-8.298993e+03 (-8.317876e+03 +/- 0.000000e+00) [K]
    Coulombic Real/kʙ      -8.150096e+04 (-8.268486e+04 +/- 0.000000e+00) [K]
    Coulombic Fourier/kʙ   -1.187136e+04 (-1.236688e+04 +/- 0.000000e+00) [K]
    Molecule Intra/kʙ       0.000000e+00 ( 0.000000e+00 +/- 0.000000e+00) [K]

Current cycle: 300 out of 6000
===============================================================================

Box:      24.83998   0.00000   0.00000  Average:  24.81616   0.00000   0.00000
           0.00000  24.83998   0.00000             0.00000  24.81616   0.00000
           0.00000   0.00000  24.83998             0.00000   0.00000  24.81616
Lengths:  24.83998  24.83998  24.83998  Average:  24.81616  24.81616  24.81616
Angles:   90.00000  90.00000  90.00000  Average:  90.00000  90.00000  90.00000
Rectangular boundary conditions

net charge:   0.00000000

component 0 (CO2) lambda:  0 occupancy:  0 (0.000000)
    net charge:   0.00000000 [e]

Amount of molecules per component :
-------------------------------------------------------------------------------
Component 0 (CO2)
    molecules:      2.320000e+02 molecules  (2.301628e+02 +/- 0.000000e+00)
    number density: 1.513680e-02 molec./A^3 (1.506043e-02 +/- 0.000000e+00)
    density:        1.105921e+03 kg/m^3     (1.100341e+03 +/- 0.000000e+00)

Average pressure tensor: 
-------------------------------------------------------------------------------
 2.7707e+02  1.4030e+01 -2.0180e+01 +/- 0.0000e+00 0.0000e+00 0.0000e+00 [bar]
 1.4030e+01 -1.0393e+02  3.7918e+01 +/- 0.0000e+00 0.0000e+00 0.0000e+00 [bar]
-2.0180e+01  3.7918e+01  2.8586e+01 +/- 0.0000e+00 0.0000e+00 0.0000e+00 [bar]
Ideal-gas pressure:   4.990364e+02 +/ 0.000000e+00 [bar]
Excess pressure:     -4.317933e+02 +/ 0.000000e+00 [bar]
Pressure:             6.724308e+01 +/ 0.000000e+00 [bar]

Total potential energy/kʙ  -3.838605e+05 (-3.689043e+05 +/- 0.000000e+00) [K]
-------------------------------------------------------------------------------
ExternalField-molecule
    Van der Waals/kʙ        0.000000e+00 ( 0.000000e+00 +/- 0.000000e+00) [K]
Framework-molecule
    Van der Waals/kʙ        0.000000e+00 ( 0.000000e+00 +/- 0.000000e+00) [K]
    Van der Waals (Tail)/kʙ 0.000000e+00 ( 0.000000e+00 +/- 0.000000e+00) [K]
    Coulombic Real/kʙ       0.000000e+00 ( 0.000000e+00 +/- 0.000000e+00) [K]
    Coulombic Fourier/kʙ    0.000000e+00 ( 0.000000e+00 +/- 0.000000e+00) [K]
Molecule-molecule
    Van der Waals/kʙ       -2.709288e+05 (-2.636493e+05 +/- 0.000000e+00) [K]
    Van der Waals (Tail)/kʙ-8.466412e+03 (-8.340924e+03 +/- 0.000000e+00) [K]
    Coulombic Real/kʙ      -9.165056e+04 (-8.441255e+04 +/- 0.000000e+00) [K]
    Coulombic Fourier/kʙ   -1.281475e+04 (-1.250155e+04 +/- 0.000000e+00) [K]
    Molecule Intra/kʙ       0.000000e+00 ( 0.000000e+00 +/- 0.000000e+00) [K]

Current cycle: 400 out of 6000
===============================================================================

Box:      25.10767   0.00000   0.00000  Average:  24.85929   0.00000   0.00000
           0.00000  25.10767   0.00000             0.00000  24.85929   0.00000
           0.00000   0.00000  25.10767             0.00000   0.00000  24.85929
Lengths:  25.10767  25.10767  25.10767  Average:  24.85929  24.85929  24.85929
Angles:   90.00000  90.00000  90.00000  Average:  90.00000  90.00000  90.00000
Rectangular boundary conditions

net charge:   0.00000000

component 0 (CO2) lambda:  0 occupancy:  0 (0.000000)
    net charge:   0.00000000 [e]

Amount of molecules per component :
-------------------------------------------------------------------------------
Component 0 (CO2)
    molecules:      2.370000e+02 molecules  (2.308903e+02 +/- 0.000000e+00)
    number density: 1.497370e-02 molec./A^3 (1.503012e-02 +/- 0.000000e+00)
    density:        1.094004e+03 kg/m^3     (1.098126e+03 +/- 0.000000e+00)

Average pressure tensor: 
-------------------------------------------------------------------------------
 2.4490e+02  2.9368e+01 -4.5355e+01 +/- 0.0000e+00 0.0000e+00 0.0000e+00 [bar]
 2.9368e+01 -4.4602e+01 -9.2919e-01 +/- 0.0000e+00 0.0000e+00 0.0000e+00 [bar]
-4.5355e+01 -9.2919e-01  9.0697e+00 +/- 0.0000e+00 0.0000e+00 0.0000e+00 [bar]
Ideal-gas pressure:   4.980321e+02 +/ 0.000000e+00 [bar]
Excess pressure:     -4.282416e+02 +/ 0.000000e+00 [bar]
Pressure:             6.979050e+01 +/ 0.000000e+00 [bar]

Total potential energy/kʙ  -3.764247e+05 (-3.705767e+05 +/- 0.000000e+00) [K]
-------------------------------------------------------------------------------
ExternalField-molecule
    Van der Waals/kʙ        0.000000e+00 ( 0.000000e+00 +/- 0.000000e+00) [K]
Framework-molecule
    Van der Waals/kʙ        0.000000e+00 ( 0.000000e+00 +/- 0.000000e+00) [K]
    Van der Waals (Tail)/kʙ 0.000000e+00 ( 0.000000e+00 +/- 0.000000e+00) [K]
    Coulombic Real/kʙ       0.000000e+00 ( 0.000000e+00 +/- 0.000000e+00) [K]
    Coulombic Fourier/kʙ    0.000000e+00 ( 0.000000e+00 +/- 0.000000e+00) [K]
Molecule-molecule
    Van der Waals/kʙ       -2.691540e+05 (-2.640089e+05 +/- 0.000000e+00) [K]
    Van der Waals (Tail)/kʙ-8.555683e+03 (-8.361633e+03 +/- 0.000000e+00) [K]
    Coulombic Real/kʙ      -8.694744e+04 (-8.571223e+04 +/- 0.000000e+00) [K]
    Coulombic Fourier/kʙ   -1.176753e+04 (-1.249388e+04 +/- 0.000000e+00) [K]
    Molecule Intra/kʙ       0.000000e+00 ( 0.000000e+00 +/- 0.000000e+00) [K]

Current cycle: 500 out of 6000
===============================================================================

Box:      25.07421   0.00000   0.00000  Average:  24.89780   0.00000   0.00000
           0.00000  25.07421   0.00000             0.00000  24.89780   0.00000
           0.00000   0.00000  25.07421             0.00000   0.00000  24.89780
Lengths:  25.07421  25.07421  25.07421  Average:  24.89780  24.89780  24.89780
Angles:   90.00000  90.00000  90.00000  Average:  90.00000  90.00000  90.00000
Rectangular boundary conditions

net charge:   0.00000000

component 0 (CO2) lambda:  0 occupancy:  0 (0.000000)
    net charge:   0.00000000 [e]

Amount of molecules per component :
-------------------------------------------------------------------------------
Component 0 (CO2)
    molecules:      2.350000e+02 molecules  (2.314910e+02 +/- 0.000000e+00)
    number density: 1.490686e-02 molec./A^3 (1.499977e-02 +/- 0.000000e+00)
    density:        1.089121e+03 kg/m^3     (1.095909e+03 +/- 0.000000e+00)

Average pressure tensor: 
-------------------------------------------------------------------------------
 2.1950e+02  1.3108e+01 -5.3599e+01 +/- 0.0000e+00 0.0000e+00 0.0000e+00 [bar]
 1.3108e+01 -5.6886e+01 -1.6792e+01 +/- 0.0000e+00 0.0000e+00 0.0000e+00 [bar]
-5.3599e+01 -1.6792e+01  1.7603e+01 +/- 0.0000e+00 0.0000e+00 0.0000e+00 [bar]
Ideal-gas pressure:   4.970266e+02 +/ 0.000000e+00 [bar]
Excess pressure:     -4.369542e+02 +/ 0.000000e+00 [bar]
Pressure:             6.007235e+01 +/ 0.000000e+00 [bar]

Total potential energy/kʙ  -3.730040e+05 (-3.706493e+05 +/- 0.000000e+00) [K]
-------------------------------------------------------------------------------
ExternalField-molecule
    Van der Waals/kʙ        0.000000e+00 ( 0.000000e+00 +/- 0.000000e+00) [K]
Framework-molecule
    Van der Waals/kʙ        0.000000e+00 ( 0.000000e+00 +/- 0.000000e+00) [K]
    Van der Waals (Tail)/kʙ 0.000000e+00 ( 0.000000e+00 +/- 0.000000e+00) [K]
    Coulombic Real/kʙ       0.000000e+00 ( 0.000000e+00 +/- 0.000000e+00) [K]
    Coulombic Fourier/kʙ    0.000000e+00 ( 0.000000e+00 +/- 0.000000e+00) [K]
Molecule-molecule
    Van der Waals/kʙ       -2.613806e+05 (-2.640228e+05 +/- 0.000000e+00) [K]
    Van der Waals (Tail)/kʙ-8.445616e+03 (-8.360888e+03 +/- 0.000000e+00) [K]
    Coulombic Real/kʙ      -9.001970e+04 (-8.579338e+04 +/- 0.000000e+00) [K]
    Coulombic Fourier/kʙ   -1.315810e+04 (-1.247220e+04 +/- 0.000000e+00) [K]
    Molecule Intra/kʙ       0.000000e+00 ( 0.000000e+00 +/- 0.000000e+00) [K]

Current cycle: 600 out of 6000
===============================================================================

Box:      24.96177   0.00000   0.00000  Average:  24.91436   0.00000   0.00000
           0.00000  24.96177   0.00000             0.00000  24.91436   0.00000
           0.00000   0.00000  24.96177             0.00000   0.00000  24.91436
Lengths:  24.96177  24.96177  24.96177  Average:  24.91436  24.91436  24.91436
Angles:   90.00000  90.00000  90.00000  Average:  90.00000  90.00000  90.00000
Rectangular boundary conditions

net charge:   0.00000000

component 0 (CO2) lambda:  0 occupancy:  0 (0.000000)
    net charge:   0.00000000 [e]

Amount of molecules per component :
-------------------------------------------------------------------------------
Component 0 (CO2)
    molecules:      2.310000e+02 molecules  (2.313977e+02 +/- 0.000000e+00)
    number density: 1.485203e-02 molec./A^3 (1.496399e-02 +/- 0.000000e+00)
    density:        1.085115e+03 kg/m^3     (1.093294e+03 +/- 0.000000e+00)

Average pressure tensor: 
-------------------------------------------------------------------------------
 1.7697e+02  5.7081e+00 -4.5470e+01 +/- 0.0000e+00 0.0000e+00 0.0000e+00 [bar]
 5.7081e+00 -3.9738e+01 -1.3280e+00 +/- 0.0000e+00 0.0000e+00 0.0000e+00 [bar]
-4.5470e+01 -1.3280e+00  2.6417e+01 +/- 0.0000e+00 0.0000e+00 0.0000e+00 [bar]
Ideal-gas pressure:   4.958408e+02 +/ 0.000000e+00 [bar]
Excess pressure:     -4.412904e+02 +/ 0.000000e+00 [bar]
Pressure:             5.455032e+01 +/ 0.000000e+00 [bar]

Total potential energy/kʙ  -3.634008e+05 (-3.694512e+05 +/- 0.000000e+00) [K]
-------------------------------------------------------------------------------
ExternalField-molecule
    Van der Waals/kʙ        0.000000e+00 ( 0.000000e+00 +/- 0.000000e+00) [K]
Framework-molecule
    Van der Waals/kʙ        0.000000e+00 ( 0.000000e+00 +/- 0.000000e+00) [K]
    Van der Waals (Tail)/kʙ 0.000000e+00 ( 0.000000e+00 +/- 0.000000e+00) [K]
    Coulombic Real/kʙ       0.000000e+00 ( 0.000000e+00 +/- 0.000000e+00) [K]
    Coulombic Fourier/kʙ    0.000000e+00 ( 0.000000e+00 +/- 0.000000e+00) [K]
Molecule-molecule
    Van der Waals/kʙ       -2.578978e+05 (-2.634143e+05 +/- 0.000000e+00) [K]
    Van der Waals (Tail)/kʙ-8.271325e+03 (-8.340156e+03 +/- 0.000000e+00) [K]
    Coulombic Real/kʙ      -8.585320e+04 (-8.531224e+04 +/- 0.000000e+00) [K]
    Coulombic Fourier/kʙ   -1.137855e+04 (-1.238449e+04 +/- 0.000000e+00) [K]
    Molecule Intra/kʙ       0.000000e+00 ( 0.000000e+00 +/- 0.000000e+00) [K]

Current cycle: 700 out of 6000
===============================================================================

Box:      25.28168   0.00000   0.00000  Average:  24.93361   0.00000   0.00000
           0.00000  25.28168   0.00000             0.00000  24.93361   0.00000
           0.00000   0.00000  25.28168             0.00000   0.00000  24.93361
Lengths:  25.28168  25.28168  25.28168  Average:  24.93361  24.93361  24.93361
Angles:   90.00000  90.00000  90.00000  Average:  90.00000  90.00000  90.00000
Rectangular boundary conditions

net charge:   0.00000000

component 0 (CO2) lambda:  0 occupancy:  0 (0.000000)
    net charge:   0.00000000 [e]

Amount of molecules per component :
-------------------------------------------------------------------------------
Component 0 (CO2)
    molecules:      2.320000e+02 molecules  (2.314836e+02 +/- 0.000000e+00)
    number density: 1.435721e-02 molec./A^3 (1.493539e-02 +/- 0.000000e+00)
    density:        1.048963e+03 kg/m^3     (1.091205e+03 +/- 0.000000e+00)

Average pressure tensor: 
-------------------------------------------------------------------------------
 2.0532e+02  1.4544e+01 -5.8047e+01 +/- 0.0000e+00 0.0000e+00 0.0000e+00 [bar]
 1.4544e+01 -1.2368e+01 -8.6724e+00 +/- 0.0000e+00 0.0000e+00 0.0000e+00 [bar]
-5.8047e+01 -8.6724e+00  2.6134e+01 +/- 0.0000e+00 0.0000e+00 0.0000e+00 [bar]
Ideal-gas pressure:   4.948931e+02 +/ 0.000000e+00 [bar]
Excess pressure:     -4.218657e+02 +/ 0.000000e+00 [bar]
Pressure:             7.302741e+01 +/ 0.000000e+00 [bar]

Total potential energy/kʙ  -3.581880e+05 (-3.684907e+05 +/- 0.000000e+00) [K]
-------------------------------------------------------------------------------
ExternalField-molecule
    Van der Waals/kʙ        0.000000e+00 ( 0.000000e+00 +/- 0.000000e+00) [K]
Framework-molecule
    Van der Waals/kʙ        0.000000e+00 ( 0.000000e+00 +/- 0.000000e+00) [K]
    Van der Waals (Tail)/kʙ 0.000000e+00 ( 0.000000e+00 +/- 0.000000e+00) [K]
    Coulombic Real/kʙ       0.000000e+00 ( 0.000000e+00 +/- 0.000000e+00) [K]
    Coulombic Fourier/kʙ    0.000000e+00 ( 0.000000e+00 +/- 0.000000e+00) [K]
Molecule-molecule
    Van der Waals/kʙ       -2.561790e+05 (-2.628816e+05 +/- 0.000000e+00) [K]
    Van der Waals (Tail)/kʙ-8.030367e+03 (-8.330511e+03 +/- 0.000000e+00) [K]
    Coulombic Real/kʙ      -8.127178e+04 (-8.495025e+04 +/- 0.000000e+00) [K]
    Coulombic Fourier/kʙ   -1.270681e+04 (-1.232832e+04 +/- 0.000000e+00) [K]
    Molecule Intra/kʙ       0.000000e+00 ( 0.000000e+00 +/- 0.000000e+00) [K]

Current cycle: 800 out of 6000
===============================================================================

Box:      24.92920   0.00000   0.00000  Average:  24.95885   0.00000   0.00000
           0.00000  24.92920   0.00000             0.00000  24.95885   0.00000
           0.00000   0.00000  24.92920             0.00000   0.00000  24.95885
Lengths:  24.92920  24.92920  24.92920  Average:  24.95885  24.95885  24.95885
Angles:   90.00000  90.00000  90.00000  Average:  90.00000  90.00000  90.00000
Rectangular boundary conditions

net charge:   0.00000000

component 0 (CO2) lambda:  0 occupancy:  0 (0.000000)
    net charge:   0.00000000 [e]

Amount of molecules per component :
-------------------------------------------------------------------------------
Component 0 (CO2)
    molecules:      2.350000e+02 molecules  (2.320712e+02 +/- 0.000000e+00)
    number density: 1.516851e-02 molec./A^3 (1.492769e-02 +/- 0.000000e+00)
    density:        1.108237e+03 kg/m^3     (1.090642e+03 +/- 0.000000e+00)

Average pressure tensor: 
-------------------------------------------------------------------------------
 1.7609e+02 -1.1941e+01 -4.8292e+01 +/- 0.0000e+00 0.0000e+00 0.0000e+00 [bar]
-1.1941e+01 -3.5977e+01 -1.4221e+01 +/- 0.0000e+00 0.0000e+00 0.0000e+00 [bar]
-4.8292e+01 -1.4221e+01  2.3968e+01 +/- 0.0000e+00 0.0000e+00 0.0000e+00 [bar]
Ideal-gas pressure:   4.946379e+02 +/ 0.000000e+00 [bar]
Excess pressure:     -4.399452e+02 +/ 0.000000e+00 [bar]
Pressure:             5.469272e+01 +/ 0.000000e+00 [bar]

Total potential energy/kʙ  -3.793057e+05 (-3.692623e+05 +/- 0.000000e+00) [K]
-------------------------------------------------------------------------------
ExternalField-molecule
    Van der Waals/kʙ        0.000000e+00 ( 0.000000e+00 +/- 0.000000e+00) [K]
Framework-molecule
    Van der Waals/kʙ        0.000000e+00 ( 0.000000e+00 +/- 0.000000e+00) [K]
    Van der Waals (Tail)/kʙ 0.000000e+00 ( 0.000000e+00 +/- 0.000000e+00) [K]
    Coulombic Real/kʙ       0.000000e+00 ( 0.000000e+00 +/- 0.000000e+00) [K]
    Coulombic Fourier/kʙ    0.000000e+00 ( 0.000000e+00 +/- 0.000000e+00) [K]
Molecule-molecule
    Van der Waals/kʙ       -2.671511e+05 (-2.633655e+05 +/- 0.000000e+00) [K]
    Van der Waals (Tail)/kʙ-8.593856e+03 (-8.346256e+03 +/- 0.000000e+00) [K]
    Coulombic Real/kʙ      -9.096600e+04 (-8.521844e+04 +/- 0.000000e+00) [K]
    Coulombic Fourier/kʙ   -1.259483e+04 (-1.233214e+04 +/- 0.000000e+00) [K]
    Molecule Intra/kʙ       0.000000e+00 ( 0.000000e+00 +/- 0.000000e+00) [K]

Current cycle: 900 out of 6000
===============================================================================

Box:      24.96018   0.00000   0.00000  Average:  24.97576   0.00000   0.00000
           0.00000  24.96018   0.00000             0.00000  24.97576   0.00000
           0.00000   0.00000  24.96018             0.00000   0.00000  24.97576
Lengths:  24.96018  24.96018  24.96018  Average:  24.97576  24.97576  24.97576
Angles:   90.00000  90.00000  90.00000  Average:  90.00000  90.00000  90.00000
Rectangular boundary conditions

net charge:   0.00000000

component 0 (CO2) lambda:  0 occupancy:  0 (0.000000)
    net charge:   0.00000000 [e]

Amount of molecules per component :
-------------------------------------------------------------------------------
Component 0 (CO2)
    molecules:      2.330000e+02 molecules  (2.322231e+02 +/- 0.000000e+00)
    number density: 1.498349e-02 molec./A^3 (1.490729e-02 +/- 0.000000e+00)
    density:        1.094719e+03 kg/m^3     (1.089152e+03 +/- 0.000000e+00)

Average pressure tensor: 
-------------------------------------------------------------------------------
 1.3677e+02 -1.0498e+01 -3.9090e+01 +/- 0.0000e+00 0.0000e+00 0.0000e+00 [bar]
-1.0498e+01 -4.2779e+01 -1.3450e+01 +/- 0.0000e+00 0.0000e+00 0.0000e+00 [bar]
-3.9090e+01 -1.3450e+01  1.4279e+01 +/- 0.0000e+00 0.0000e+00 0.0000e+00 [bar]
Ideal-gas pressure:   4.939622e+02 +/ 0.000000e+00 [bar]
Excess pressure:     -4.578707e+02 +/ 0.000000e+00 [bar]
Pressure:             3.609152e+01 +/ 0.000000e+00 [bar]

Total potential energy/kʙ  -3.713969e+05 (-3.689008e+05 +/- 0.000000e+00) [K]
-------------------------------------------------------------------------------
ExternalField-molecule
    Van der Waals/kʙ        0.000000e+00 ( 0.000000e+00 +/- 0.000000e+00) [K]
Framework-molecule
    Van der Waals/kʙ        0.000000e+00 ( 0.000000e+00 +/- 0.000000e+00) [K]
    Van der Waals (Tail)/kʙ 0.000000e+00 ( 0.000000e+00 +/- 0.000000e+00) [K]
    Coulombic Real/kʙ       0.000000e+00 ( 0.000000e+00 +/- 0.000000e+00) [K]
    Coulombic Fourier/kʙ    0.000000e+00 ( 0.000000e+00 +/- 0.000000e+00) [K]
Molecule-molecule
    Van der Waals/kʙ       -2.686650e+05 (-2.633177e+05 +/- 0.000000e+00) [K]
    Van der Waals (Tail)/kʙ-8.416783e+03 (-8.337625e+03 +/- 0.000000e+00) [K]
    Coulombic Real/kʙ      -8.362045e+04 (-8.497746e+04 +/- 0.000000e+00) [K]
    Coulombic Fourier/kʙ   -1.069461e+04 (-1.226801e+04 +/- 0.000000e+00) [K]
    Molecule Intra/kʙ       0.000000e+00 ( 0.000000e+00 +/- 0.000000e+00) [K]

Current cycle: 1000 out of 6000
===============================================================================

Box:      25.01295   0.00000   0.00000  Average:  24.97742   0.00000   0.00000
           0.00000  25.01295   0.00000             0.00000  24.97742   0.00000
           0.00000   0.00000  25.01295             0.00000   0.00000  24.97742
Lengths:  25.01295  25.01295  25.01295  Average:  24.97742  24.97742  24.97742
Angles:   90.00000  90.00000  90.00000  Average:  90.00000  90.00000  90.00000
Rectangular boundary conditions

net charge:   0.00000000

component 0 (CO2) lambda:  0 occupancy:  0 (0.000000)
    net charge:   0.00000000 [e]

Amount of molecules per component :
-------------------------------------------------------------------------------
Component 0 (CO2)
    molecules:      2.380000e+02 molecules  (2.326414e+02 +/- 0.000000e+00)
    number density: 1.520836e-02 molec./A^3 (1.493103e-02 +/- 0.000000e+00)
    density:        1.111149e+03 kg/m^3     (1.090887e+03 +/- 0.000000e+00)

Average pressure tensor: 
-------------------------------------------------------------------------------
 1.0455e+02 -3.6025e+00 -4.2772e+01 +/- 0.0000e+00 0.0000e+00 0.0000e+00 [bar]
-3.6025e+00 -6.7454e+01 -3.0031e+01 +/- 0.0000e+00 0.0000e+00 0.0000e+00 [bar]
-4.2772e+01 -3.0031e+01  4.9958e+01 +/- 0.0000e+00 0.0000e+00 0.0000e+00 [bar]
Ideal-gas pressure:   4.947488e+02 +/ 0.000000e+00 [bar]
Excess pressure:     -4.657316e+02 +/ 0.000000e+00 [bar]
Pressure:             2.901716e+01 +/ 0.000000e+00 [bar]

Total potential energy/kʙ  -3.954124e+05 (-3.707701e+05 +/- 0.000000e+00) [K]
-------------------------------------------------------------------------------
ExternalField-molecule
    Van der Waals/kʙ        0.000000e+00 ( 0.000000e+00 +/- 0.000000e+00) [K]
Framework-molecule
    Van der Waals/kʙ        0.000000e+00 ( 0.000000e+00 +/- 0.000000e+00) [K]
    Van der Waals (Tail)/kʙ 0.000000e+00 ( 0.000000e+00 +/- 0.000000e+00) [K]
    Coulombic Real/kʙ       0.000000e+00 ( 0.000000e+00 +/- 0.000000e+00) [K]
    Coulombic Fourier/kʙ    0.000000e+00 ( 0.000000e+00 +/- 0.000000e+00) [K]
Molecule-molecule
    Van der Waals/kʙ       -2.786211e+05 (-2.645608e+05 +/- 0.000000e+00) [K]
    Van der Waals (Tail)/kʙ-8.726430e+03 (-8.368117e+03 +/- 0.000000e+00) [K]
    Coulombic Real/kʙ      -9.481906e+04 (-8.559133e+04 +/- 0.000000e+00) [K]
    Coulombic Fourier/kʙ   -1.324578e+04 (-1.224984e+04 +/- 0.000000e+00) [K]
    Molecule Intra/kʙ       0.000000e+00 ( 0.000000e+00 +/- 0.000000e+00) [K]

Current cycle: 1100 out of 6000
===============================================================================

Box:      25.18441   0.00000   0.00000  Average:  24.98577   0.00000   0.00000
           0.00000  25.18441   0.00000             0.00000  24.98577   0.00000
           0.00000   0.00000  25.18441             0.00000   0.00000  24.98577
Lengths:  25.18441  25.18441  25.18441  Average:  24.98577  24.98577  24.98577
Angles:   90.00000  90.00000  90.00000  Average:  90.00000  90.00000  90.00000
Rectangular boundary conditions

net charge:   0.00000000

component 0 (CO2) lambda:  0 occupancy:  0 (0.000000)
    net charge:   0.00000000 [e]

Amount of molecules per component :
-------------------------------------------------------------------------------
Component 0 (CO2)
    molecules:      2.410000e+02 molecules  (2.330218e+02 +/- 0.000000e+00)
    number density: 1.508766e-02 molec./A^3 (1.494027e-02 +/- 0.000000e+00)
    density:        1.102330e+03 kg/m^3     (1.091561e+03 +/- 0.000000e+00)

Average pressure tensor: 
-------------------------------------------------------------------------------
 6.1341e+01 -1.0802e+01 -5.1898e+01 +/- 0.0000e+00 0.0000e+00 0.0000e+00 [bar]
-1.0802e+01 -6.4856e+01 -3.2591e+01 +/- 0.0000e+00 0.0000e+00 0.0000e+00 [bar]
-5.1898e+01 -3.2591e+01  7.7713e+01 +/- 0.0000e+00 0.0000e+00 0.0000e+00 [bar]
Ideal-gas pressure:   4.950548e+02 +/ 0.000000e+00 [bar]
Excess pressure:     -4.703221e+02 +/ 0.000000e+00 [bar]
Pressure:             2.473267e+01 +/ 0.000000e+00 [bar]

Total potential energy/kʙ  -3.846782e+05 (-3.718631e+05 +/- 0.000000e+00) [K]
-------------------------------------------------------------------------------
ExternalField-molecule
    Van der Waals/kʙ        0.000000e+00 ( 0.000000e+00 +/- 0.000000e+00) [K]
Framework-molecule
    Van der Waals/kʙ        0.000000e+00 ( 0.000000e+00 +/- 0.000000e+00) [K]
    Van der Waals (Tail)/kʙ 0.000000e+00 ( 0.000000e+00 +/- 0.000000e+00) [K]
    Coulombic Real/kʙ       0.000000e+00 ( 0.000000e+00 +/- 0.000000e+00) [K]
    Coulombic Fourier/kʙ    0.000000e+00 ( 0.000000e+00 +/- 0.000000e+00) [K]
Molecule-molecule
    Van der Waals/kʙ       -2.728065e+05 (-2.652868e+05 +/- 0.000000e+00) [K]
    Van der Waals (Tail)/kʙ-8.766298e+03 (-8.387781e+03 +/- 0.000000e+00) [K]
    Coulombic Real/kʙ      -8.964362e+04 (-8.589447e+04 +/- 0.000000e+00) [K]
    Coulombic Fourier/kʙ   -1.346171e+04 (-1.229403e+04 +/- 0.000000e+00) [K]
    Molecule Intra/kʙ       0.000000e+00 ( 0.000000e+00 +/- 0.000000e+00) [K]

Current cycle: 1200 out of 6000
===============================================================================

Box:      25.00446   0.00000   0.00000  Average:  24.99417   0.00000   0.00000
           0.00000  25.00446   0.00000             0.00000  24.99417   0.00000
           0.00000   0.00000  25.00446             0.00000   0.00000  24.99417
Lengths:  25.00446  25.00446  25.00446  Average:  24.99417  24.99417  24.99417
Angles:   90.00000  90.00000  90.00000  Average:  90.00000  90.00000  90.00000
Rectangular boundary conditions

net charge:   0.00000000

component 0 (CO2) lambda:  0 occupancy:  0 (0.000000)
    net charge:   0.00000000 [e]

Amount of molecules per component :
-------------------------------------------------------------------------------
Component 0 (CO2)
    molecules:      2.370000e+02 molecules  (2.331141e+02 +/- 0.000000e+00)
    number density: 1.515989e-02 molec./A^3 (1.493107e-02 +/- 0.000000e+00)
    density:        1.107607e+03 kg/m^3     (1.090889e+03 +/- 0.000000e+00)

Average pressure tensor: 
-------------------------------------------------------------------------------
 5.8860e+01 -9.0821e+00 -5.3149e+01 +/- 0.0000e+00 0.0000e+00 0.0000e+00 [bar]
-9.0821e+00 -6.2926e+01 -5.5983e+01 +/- 0.0000e+00 0.0000e+00 0.0000e+00 [bar]
-5.3149e+01 -5.5983e+01  8.2313e+01 +/- 0.0000e+00 0.0000e+00 0.0000e+00 [bar]
Ideal-gas pressure:   4.947499e+02 +/ 0.000000e+00 [bar]
Excess pressure:     -4.686675e+02 +/ 0.000000e+00 [bar]
Pressure:             2.608241e+01 +/ 0.000000e+00 [bar]

Total potential energy/kʙ  -3.826372e+05 (-3.720459e+05 +/- 0.000000e+00) [K]
-------------------------------------------------------------------------------
ExternalField-molecule
    Van der Waals/kʙ        0.000000e+00 ( 0.000000e+00 +/- 0.000000e+00) [K]
Framework-molecule
    Van der Waals/kʙ        0.000000e+00 ( 0.000000e+00 +/- 0.000000e+00) [K]
    Van der Waals (Tail)/kʙ 0.000000e+00 ( 0.000000e+00 +/- 0.000000e+00) [K]
    Coulombic Real/kʙ       0.000000e+00 ( 0.000000e+00 +/- 0.000000e+00) [K]
    Coulombic Fourier/kʙ    0.000000e+00 ( 0.000000e+00 +/- 0.000000e+00) [K]
Molecule-molecule
    Van der Waals/kʙ       -2.702836e+05 (-2.650578e+05 +/- 0.000000e+00) [K]
    Van der Waals (Tail)/kʙ-8.662069e+03 (-8.384453e+03 +/- 0.000000e+00) [K]
    Coulombic Real/kʙ      -9.147624e+04 (-8.630311e+04 +/- 0.000000e+00) [K]
    Coulombic Fourier/kʙ   -1.221529e+04 (-1.230051e+04 +/- 0.000000e+00) [K]
    Molecule Intra/kʙ       0.000000e+00 ( 0.000000e+00 +/- 0.000000e+00) [K]

Current cycle: 1300 out of 6000
===============================================================================

Box:      25.10060   0.00000   0.00000  Average:  24.99422   0.00000   0.00000
           0.00000  25.10060   0.00000             0.00000  24.99422   0.00000
           0.00000   0.00000  25.10060             0.00000   0.00000  24.99422
Lengths:  25.10060  25.10060  25.10060  Average:  24.99422  24.99422  24.99422
Angles:   90.00000  90.00000  90.00000  Average:  90.00000  90.00000  90.00000
Rectangular boundary conditions

net charge:   0.00000000

component 0 (CO2) lambda:  0 occupancy:  0 (0.000000)
    net charge:   0.00000000 [e]

Amount of molecules per component :
-------------------------------------------------------------------------------
Component 0 (CO2)
    molecules:      2.340000e+02 molecules  (2.330569e+02 +/- 0.000000e+00)
    number density: 1.479665e-02 molec./A^3 (1.492733e-02 +/- 0.000000e+00)
    density:        1.081068e+03 kg/m^3     (1.090616e+03 +/- 0.000000e+00)

Average pressure tensor: 
-------------------------------------------------------------------------------
 6.4424e+01 -7.3259e+00 -4.0829e+01 +/- 0.0000e+00 0.0000e+00 0.0000e+00 [bar]
-7.3259e+00 -6.5932e+01 -6.0940e+01 +/- 0.0000e+00 0.0000e+00 0.0000e+00 [bar]
-4.0829e+01 -6.0940e+01  6.4368e+01 +/- 0.0000e+00 0.0000e+00 0.0000e+00 [bar]
Ideal-gas pressure:   4.946261e+02 +/ 0.000000e+00 [bar]
Excess pressure:     -4.736729e+02 +/ 0.000000e+00 [bar]
Pressure:             2.095319e+01 +/ 0.000000e+00 [bar]

Total potential energy/kʙ  -3.755191e+05 (-3.719059e+05 +/- 0.000000e+00) [K]
-------------------------------------------------------------------------------
ExternalField-molecule
    Van der Waals/kʙ        0.000000e+00 ( 0.000000e+00 +/- 0.000000e+00) [K]
Framework-molecule
    Van der Waals/kʙ        0.000000e+00 ( 0.000000e+00 +/- 0.000000e+00) [K]
    Van der Waals (Tail)/kʙ 0.000000e+00 ( 0.000000e+00 +/- 0.000000e+00) [K]
    Coulombic Real/kʙ       0.000000e+00 ( 0.000000e+00 +/- 0.000000e+00) [K]
    Coulombic Fourier/kʙ    0.000000e+00 ( 0.000000e+00 +/- 0.000000e+00) [K]
Molecule-molecule
    Van der Waals/kʙ       -2.677968e+05 (-2.649820e+05 +/- 0.000000e+00) [K]
    Van der Waals (Tail)/kʙ-8.347501e+03 (-8.379480e+03 +/- 0.000000e+00) [K]
    Coulombic Real/kʙ      -8.600429e+04 (-8.620717e+04 +/- 0.000000e+00) [K]
    Coulombic Fourier/kʙ   -1.337058e+04 (-1.233733e+04 +/- 0.000000e+00) [K]
    Molecule Intra/kʙ       0.000000e+00 ( 0.000000e+00 +/- 0.000000e+00) [K]

Current cycle: 1400 out of 6000
===============================================================================

Box:      24.93416   0.00000   0.00000  Average:  24.99417   0.00000   0.00000
           0.00000  24.93416   0.00000             0.00000  24.99417   0.00000
           0.00000   0.00000  24.93416             0.00000   0.00000  24.99417
Lengths:  24.93416  24.93416  24.93416  Average:  24.99417  24.99417  24.99417
Angles:   90.00000  90.00000  90.00000  Average:  90.00000  90.00000  90.00000
Rectangular boundary conditions

net charge:   0.00000000

component 0 (CO2) lambda:  0 occupancy:  0 (0.000000)
    net charge:   0.00000000 [e]

Amount of molecules per component :
-------------------------------------------------------------------------------
Component 0 (CO2)
    molecules:      2.350000e+02 molecules  (2.328601e+02 +/- 0.000000e+00)
    number density: 1.515946e-02 molec./A^3 (1.491480e-02 +/- 0.000000e+00)
    density:        1.107576e+03 kg/m^3     (1.089701e+03 +/- 0.000000e+00)

Average pressure tensor: 
-------------------------------------------------------------------------------
 7.4818e+01  1.5746e+00 -4.0237e+01 +/- 0.0000e+00 0.0000e+00 0.0000e+00 [bar]
 1.5746e+00 -6.0060e+01 -5.1679e+01 +/- 0.0000e+00 0.0000e+00 0.0000e+00 [bar]
-4.0237e+01 -5.1679e+01  4.8128e+01 +/- 0.0000e+00 0.0000e+00 0.0000e+00 [bar]
Ideal-gas pressure:   4.942110e+02 +/ 0.000000e+00 [bar]
Excess pressure:     -4.732492e+02 +/ 0.000000e+00 [bar]
Pressure:             2.096176e+01 +/ 0.000000e+00 [bar]

Total potential energy/kʙ  -3.754525e+05 (-3.711134e+05 +/- 0.000000e+00) [K]
-------------------------------------------------------------------------------
ExternalField-molecule
    Van der Waals/kʙ        0.000000e+00 ( 0.000000e+00 +/- 0.000000e+00) [K]
Framework-molecule
    Van der Waals/kʙ        0.000000e+00 ( 0.000000e+00 +/- 0.000000e+00) [K]
    Van der Waals (Tail)/kʙ 0.000000e+00 ( 0.000000e+00 +/- 0.000000e+00) [K]
    Coulombic Real/kʙ       0.000000e+00 ( 0.000000e+00 +/- 0.000000e+00) [K]
    Coulombic Fourier/kʙ    0.000000e+00 ( 0.000000e+00 +/- 0.000000e+00) [K]
Molecule-molecule
    Van der Waals/kʙ       -2.744315e+05 (-2.645420e+05 +/- 0.000000e+00) [K]
    Van der Waals (Tail)/kʙ-8.588731e+03 (-8.367466e+03 +/- 0.000000e+00) [K]
    Coulombic Real/kʙ      -7.979624e+04 (-8.589770e+04 +/- 0.000000e+00) [K]
    Coulombic Fourier/kʙ   -1.263607e+04 (-1.230631e+04 +/- 0.000000e+00) [K]
    Molecule Intra/kʙ       0.000000e+00 ( 0.000000e+00 +/- 0.000000e+00) [K]

Current cycle: 1500 out of 6000
===============================================================================

Box:      24.80484   0.00000   0.00000  Average:  24.99294   0.00000   0.00000
           0.00000  24.80484   0.00000             0.00000  24.99294   0.00000
           0.00000   0.00000  24.80484             0.00000   0.00000  24.99294
[...]
    number density: 1.492088e-02 molec./A^3 (1.491327e-02 +/- 1.901508e-04)
    density:        1.090145e+03 kg/m^3     (1.089589e+03 +/- 1.389274e+01)

Average pressure tensor: 
-------------------------------------------------------------------------------
 7.1156e+01 -1.6788e+01 -1.1313e+01 +/- 6.3396e+01 5.8627e+01 7.0283e+01 [bar]
-1.6788e+01 -5.2799e+01  3.9386e+00 +/- 5.8627e+01 5.8984e+01 6.3895e+01 [bar]
-1.1313e+01  3.9386e+00  3.6601e+01 +/- 7.0283e+01 6.3895e+01 5.8951e+01 [bar]
Ideal-gas pressure:   4.941603e+02 +/ 6.300763e+00 [bar]
Excess pressure:     -4.758411e+02 +/ 4.122523e+01 [bar]
Pressure:             1.831924e+01 +/ 4.732258e+01 [bar]

Total potential energy/kʙ  -3.688060e+05 (-3.729882e+05 +/- 4.158136e+03) [K]
-------------------------------------------------------------------------------
ExternalField-molecule
    Van der Waals/kʙ        0.000000e+00 ( 0.000000e+00 +/- 0.000000e+00) [K]
Framework-molecule
    Van der Waals/kʙ        0.000000e+00 ( 0.000000e+00 +/- 0.000000e+00) [K]
    Van der Waals (Tail)/kʙ 0.000000e+00 ( 0.000000e+00 +/- 0.000000e+00) [K]
    Coulombic Real/kʙ       0.000000e+00 ( 0.000000e+00 +/- 0.000000e+00) [K]
    Coulombic Fourier/kʙ    0.000000e+00 ( 0.000000e+00 +/- 0.000000e+00) [K]
Molecule-molecule
    Van der Waals/kʙ       -2.606539e+05 (-2.663042e+05 +/- 2.579076e+03) [K]
    Van der Waals (Tail)/kʙ-8.345643e+03 (-8.411724e+03 +/- 7.392475e+01) [K]
    Coulombic Real/kʙ      -8.823600e+04 (-8.587156e+04 +/- 1.852955e+03) [K]
    Coulombic Fourier/kʙ   -1.157050e+04 (-1.240073e+04 +/- 1.379465e+02) [K]
    Molecule Intra/kʙ       0.000000e+00 ( 0.000000e+00 +/- 0.000000e+00) [K]

Current cycle: 5800 out of 6000
===============================================================================

Box:      25.10397   0.00000   0.00000  Average:  25.04506   0.00000   0.00000
           0.00000  25.10397   0.00000             0.00000  25.04506   0.00000
           0.00000   0.00000  25.10397             0.00000   0.00000  25.04506
Lengths:  25.10397  25.10397  25.10397  Average:  25.04506  25.04506  25.04506
Angles:   90.00000  90.00000  90.00000  Average:  90.00000  90.00000  90.00000
Rectangular boundary conditions

net charge:   0.00000000

component 0 (CO2) lambda:  0 occupancy:  0 (0.000000)
    net charge:   0.00000000 [e]

Amount of molecules per component :
-------------------------------------------------------------------------------
Component 0 (CO2)
    molecules:      2.330000e+02 molecules  (2.342755e+02 +/- 2.418269e+00)
    number density: 1.472750e-02 molec./A^3 (1.491562e-02 +/- 1.827019e-04)
    density:        1.076016e+03 kg/m^3     (1.089761e+03 +/- 1.334851e+01)

Average pressure tensor: 
-------------------------------------------------------------------------------
 7.0335e+01 -1.7320e+01 -1.0800e+01 +/- 6.3725e+01 5.8661e+01 6.9011e+01 [bar]
-1.7320e+01 -5.0708e+01  3.5452e+00 +/- 5.8661e+01 5.1340e+01 6.3130e+01 [bar]
-1.0800e+01  3.5452e+00  3.5290e+01 +/- 6.9011e+01 6.3130e+01 5.7499e+01 [bar]
Ideal-gas pressure:   4.942382e+02 +/ 6.053938e+00 [bar]
Excess pressure:     -4.759323e+02 +/ 4.104399e+01 [bar]
Pressure:             1.830587e+01 +/ 4.696842e+01 [bar]

Total potential energy/kʙ  -3.777501e+05 (-3.732332e+05 +/- 4.256971e+03) [K]
-------------------------------------------------------------------------------
ExternalField-molecule
    Van der Waals/kʙ        0.000000e+00 ( 0.000000e+00 +/- 0.000000e+00) [K]
Framework-molecule
    Van der Waals/kʙ        0.000000e+00 ( 0.000000e+00 +/- 0.000000e+00) [K]
    Van der Waals (Tail)/kʙ 0.000000e+00 ( 0.000000e+00 +/- 0.000000e+00) [K]
    Coulombic Real/kʙ       0.000000e+00 ( 0.000000e+00 +/- 0.000000e+00) [K]
    Coulombic Fourier/kʙ    0.000000e+00 ( 0.000000e+00 +/- 0.000000e+00) [K]
Molecule-molecule
    Van der Waals/kʙ       -2.699360e+05 (-2.664444e+05 +/- 2.645099e+03) [K]
    Van der Waals (Tail)/kʙ-8.272983e+03 (-8.414578e+03 +/- 7.511906e+01) [K]
    Coulombic Real/kʙ      -8.670231e+04 (-8.597720e+04 +/- 1.871608e+03) [K]
    Coulombic Fourier/kʙ   -1.283887e+04 (-1.239705e+04 +/- 1.346559e+02) [K]
    Molecule Intra/kʙ       0.000000e+00 ( 0.000000e+00 +/- 0.000000e+00) [K]

Current cycle: 5900 out of 6000
===============================================================================

Box:      25.00869   0.00000   0.00000  Average:  25.04538   0.00000   0.00000
           0.00000  25.00869   0.00000             0.00000  25.04538   0.00000
           0.00000   0.00000  25.00869             0.00000   0.00000  25.04538
Lengths:  25.00869  25.00869  25.00869  Average:  25.04538  25.04538  25.04538
Angles:   90.00000  90.00000  90.00000  Average:  90.00000  90.00000  90.00000
Rectangular boundary conditions

net charge:   0.00000000

component 0 (CO2) lambda:  0 occupancy:  0 (0.000000)
    net charge:   0.00000000 [e]

Amount of molecules per component :
-------------------------------------------------------------------------------
Component 0 (CO2)
    molecules:      2.390000e+02 molecules  (2.343403e+02 +/- 2.461547e+00)
    number density: 1.528006e-02 molec./A^3 (1.491913e-02 +/- 1.761249e-04)
    density:        1.116387e+03 kg/m^3     (1.090017e+03 +/- 1.286799e+01)

Average pressure tensor: 
-------------------------------------------------------------------------------
 6.6945e+01 -2.0349e+01 -1.4319e+01 +/- 6.6624e+01 6.1491e+01 6.1867e+01 [bar]
-2.0349e+01 -5.4068e+01  3.6821e+00 +/- 6.1491e+01 5.6529e+01 6.1827e+01 [bar]
-1.4319e+01  3.6821e+00  3.3161e+01 +/- 6.1867e+01 6.1827e+01 5.6457e+01 [bar]
Ideal-gas pressure:   4.943545e+02 +/ 5.836006e+00 [bar]
Excess pressure:     -4.790084e+02 +/ 4.393870e+01 [bar]
Pressure:             1.534605e+01 +/ 4.972621e+01 [bar]

Total potential energy/kʙ  -3.939527e+05 (-3.735376e+05 +/- 4.510670e+03) [K]
-------------------------------------------------------------------------------
ExternalField-molecule
    Van der Waals/kʙ        0.000000e+00 ( 0.000000e+00 +/- 0.000000e+00) [K]
Framework-molecule
    Van der Waals/kʙ        0.000000e+00 ( 0.000000e+00 +/- 0.000000e+00) [K]
    Van der Waals (Tail)/kʙ 0.000000e+00 ( 0.000000e+00 +/- 0.000000e+00) [K]
    Coulombic Real/kʙ       0.000000e+00 ( 0.000000e+00 +/- 0.000000e+00) [K]
    Coulombic Fourier/kʙ    0.000000e+00 ( 0.000000e+00 +/- 0.000000e+00) [K]
Molecule-molecule
    Van der Waals/kʙ       -2.750315e+05 (-2.666292e+05 +/- 2.803748e+03) [K]
    Van der Waals (Tail)/kʙ-8.804408e+03 (-8.418867e+03 +/- 7.820264e+01) [K]
    Coulombic Real/kʙ      -9.608982e+04 (-8.607521e+04 +/- 1.929321e+03) [K]
    Coulombic Fourier/kʙ   -1.402702e+04 (-1.241437e+04 +/- 1.510143e+02) [K]
    Molecule Intra/kʙ       0.000000e+00 ( 0.000000e+00 +/- 0.000000e+00) [K]


Energy statistics             |  Energy [K]   | Recomputed [K]|  Drift [K]    |
===============================================================================
Total potential energy/kʙ     | -3.900845e+05 | -3.902030e+05 |  1.184740e+02 |
    external field VDW/kʙ     |  0.000000e+00 |  0.000000e+00 |  0.000000e+00 |
    external field Real/kʙ    |  0.000000e+00 |  0.000000e+00 |  0.000000e+00 |
    framework-molecule VDW/kʙ |  0.000000e+00 |  0.000000e+00 |  0.000000e+00 |
    framework-molecule Real/kʙ|  0.000000e+00 |  0.000000e+00 |  0.000000e+00 |
    molecule-molecule VDW/kʙ  | -2.739544e+05 | -2.740734e+05 |  1.189453e+02 |
    molecule-molecule Real/kʙ | -9.493486e+04 | -9.493439e+04 | -4.712943e-01 |
    Van der Waals (Tail)/kʙ   | -8.672486e+03 | -8.672486e+03 | -1.422033e-11 |
    Ewald Fourier/kʙ          |  9.170240e+03 |  9.170240e+03 | -2.187743e-12 |
    Ewald self/kʙ             | -4.808368e+06 | -4.808368e+06 |  0.000000e+00 |
    Ewald exclusion/kʙ        |  4.786676e+06 |  4.786676e+06 |  0.000000e+00 |
    intra VDW/kʙ              |  0.000000e+00 |  0.000000e+00 |  0.000000e+00 |
    intra Coulombic/kʙ        |  0.000000e+00 |  0.000000e+00 |  0.000000e+00 |
    polarization/kʙ           |  0.000000e+00 |  0.000000e+00 |  0.000000e+00 |
    dU/dlambda VDW/kʙ         |  0.000000e+00 |  0.000000e+00 |  0.000000e+00 |
    dU/dlambda Real/kʙ        |  0.000000e+00 |  0.000000e+00 |  0.000000e+00 |
    dU/dlambda Ewald/kʙ       |  0.000000e+00 |  0.000000e+00 |  0.000000e+00 |
-------------------------------------------------------------------------------


Monte-Carlo moves statistics
===============================================================================

    Gibbs volume         all:                3029
    Gibbs volume         total:              6106
    Gibbs volume         constructed:        6106
    Gibbs volume         accepted:           3906
    Gibbs volume         fraction:       0.639699
    Gibbs volume         max-change:     0.032769

Component 0 [CO2]
    Reinsertion (CBMC)   all:              149300
    Reinsertion (CBMC)   total:            149300
    Reinsertion (CBMC)   constructed:      127903
    Reinsertion (CBMC)   accepted:           1333
    Reinsertion (CBMC)   fraction:       0.008928
    Reinsertion (CBMC)   max-change:     0.000000

    Gibbs swap (CBMC)    all:              299075
    Gibbs swap (CBMC)    total:            597237
    Gibbs swap (CBMC)    constructed:      552641
    Gibbs swap (CBMC)    accepted:          23722
    Gibbs swap (CBMC)    fraction:       0.039720
    Gibbs swap (CBMC)    max-change:     0.000000

    Translation          all:              148867
    Translation          total:             49578      49648      49641
    Translation          constructed:       49578      49644      48719
    Translation          accepted:          21194      19598      14074
    Translation          fraction:       0.427488   0.394739   0.283516
    Translation          max-change:     0.667523   0.695683   0.728326

    Rotation             all:              149941
    Rotation             total:             49979      50103      49859
    Rotation             constructed:       49979      50103      49859
    Rotation             accepted:          28786      37501      24685
    Rotation             fraction:       0.575962   0.748478   0.495096
    Rotation             max-change:     0.583559   0.375000   0.655360



Production run counting of the MC moves summed over systems and components
===============================================================================

Reinsertion (CBMC)                   298700 (19.9133 [%])
Gibbs volume                           6106 (0.4071 [%])
Gibbs swap (CBMC)                    597237 (39.8158 [%])
Translation                          298254 (19.8836 [%])
Rotation                             299703 (19.9802 [%])

Production count MC-steps:          1500000 [-]
               All summed:          1500000 [-]
               difference:                0 [-]


Production run CPU timings of the MC moves
===============================================================================

Component 0 CO2

Rotation                             14.171241 [s]
    Ewald                             4.783277 [s]
    ExternalField-Molecule            0.004997 [s]
    Framework-Molecule                0.005464 [s]
    Molecule-Molecule                 9.006265 [s]
    Overhead                          0.371238 [s]

Reinsertion (CBMC)                   64.659137 [s]
    Ewald                             4.143973 [s]
    NonEwald                         60.433657 [s]
    Overhead                          0.081507 [s]

Translation                          14.007137 [s]
    Ewald                             4.718854 [s]
    ExternalField-Molecule            0.005054 [s]
    Framework-Molecule                0.008222 [s]
    Molecule-Molecule                 9.006374 [s]
    Overhead                          0.268633 [s]



Gibbs swap (CBMC)                    87.517526 [s]
    Ewald                            11.174225 [s]
    NonEwald                         75.364710 [s]
    Tail                              0.687620 [s]

Gibbs volume                         16.187257 [s]
    Ewald                             4.128085 [s]
    NonEwald                         11.519209 [s]
    Tail                              0.452751 [s]

Property sampling                     0.241486 [s]
Energy/pressure sampling:             7.126254 [s]


Production run CPU timings of the MC moves summed over systems and components
===============================================================================


Translation                          18.126289 [s]
    Ewald                             8.066258 [s]
    ExternalField-Molecule            0.010260 [s]
    Framework-Molecule                0.016579 [s]
    Molecule-Molecule                 9.405518 [s]
    Overhead                          0.627674 [s]

Rotation                             18.301088 [s]
    Ewald                             8.143494 [s]
    ExternalField-Molecule            0.010203 [s]
    Framework-Molecule                0.011048 [s]
    Molecule-Molecule                 9.402918 [s]
    Overhead                          0.733425 [s]

Reinsertion (CBMC)                   73.419116 [s]
    Ewald                             7.512056 [s]
    NonEwald                         65.528805 [s]
    Overhead                          0.378255 [s]

Gibbs volume                         32.634562 [s]
    Ewald                             8.321225 [s]
    NonEwald                         23.226236 [s]
    Tail                              0.912870 [s]
    Overhead                          0.174231 [s]

Gibbs swap (CBMC)                   207.110638 [s]
    Ewald                            24.267816 [s]
    NonEwald                        180.585362 [s]
    Tail                              1.640062 [s]
    Overhead                          0.617398 [s]

Property sampling:                    0.465081 [s]
Energy/pressure sampling:             7.329151 [s]

Production simulation time:         358.124419 [s]
                All summed:         357.385925 [s]
                  Overhead:           0.738494 [s]


Initalization simulation time:      115.526494 [s]
Equilibration simulation time:        0.000000 [s]
Production simulation time:         358.124419 [s]
Total simulation time:              473.650913 [s]


Energy averages and statistics:
===============================================================================

Framework-molecule energy:
-------------------------------------------------------------------------------



Framework-molecule energy contributions per energy type:
-------------------------------------------------------------------------------



Inter-molecular energy:
-------------------------------------------------------------------------------

    Inter-molecular energy/kʙ 0-0 [CO2-CO2]:
    ---------------------------------------------------------------------------
        Block[  0] -3.719576e+05
        Block[  1] -3.680168e+05
        Block[  2] -3.748839e+05
        Block[  3] -3.769187e+05
        Block[  4] -3.770996e+05
        -----------------------------------------------------------------------
        Average  -3.737753e+05 +/-  4.752779e+03 [K]



Inter-molecular energy contributions per energy type:
-------------------------------------------------------------------------------

    Van der Waals energy/kʙ 0-0 [CO2-CO2]:
    ---------------------------------------------------------------------------
        Block[  0] -2.650143e+05
        Block[  1] -2.635145e+05
        Block[  2] -2.685905e+05
        Block[  3] -2.678900e+05
        Block[  4] -2.687949e+05
        -----------------------------------------------------------------------
        Average  -2.667608e+05 +/-  2.934505e+03 [K]

    VDW Tail-Correction energy/kʙ 0-0 [CO2-CO2]:
    ---------------------------------------------------------------------------
        Block[  0] -8.382140e+03
        Block[  1] -8.326256e+03
        Block[  2] -8.459893e+03
        Block[  3] -8.471730e+03
        Block[  4] -8.476246e+03
        -----------------------------------------------------------------------
        Average  -8.423253e+03 +/-  8.234796e+01 [K]

    Coulomb Real energy/kʙ 0-0 [CO2-CO2]:
    ---------------------------------------------------------------------------
        Block[  0] -8.626000e+04
        Block[  1] -8.390210e+04
        Block[  2] -8.538215e+04
        Block[  3] -8.802335e+04
        Block[  4] -8.728747e+04
        -----------------------------------------------------------------------
        Average  -8.617101e+04 +/-  2.007166e+03 [K]

    Coulomb Fourier energy/kʙ 0-0 [CO2-CO2]:
    ---------------------------------------------------------------------------
        Block[  0] -1.230122e+04
        Block[  1] -1.227393e+04
        Block[  2] -1.245135e+04
        Block[  3] -1.253364e+04
        Block[  4] -1.254103e+04
        -----------------------------------------------------------------------
        Average  -1.242023e+04 +/-  1.570201e+02 [K]


Total energy/kʙ
-------------------------------------------------------------------------------
    Block[  0] -3.719576e+05
    Block[  1] -3.680168e+05
    Block[  2] -3.748839e+05
    Block[  3] -3.769187e+05
    Block[  4] -3.770996e+05
    ---------------------------------------------------------------------------
    Average  -3.737753e+05 +/-  4.752779e+03 [K]

Pressure averages and statistics:
===============================================================================

Average pressure tensor: 
-------------------------------------------------------------------------------
 7.2618e+01 -2.5601e+01 -1.1011e+01 +/- 6.1951e+01 6.7943e+01 6.5450e+01 [bar]
-2.5601e+01 -5.7824e+01  2.3976e+00 +/- 6.7943e+01 6.2346e+01 6.2602e+01 [bar]
-1.1011e+01  2.3976e+00  3.4809e+01 +/- 6.5450e+01 6.2602e+01 5.6961e+01 [bar]

    Block[  0]  4.947436e+07
    Block[  1]  4.889071e+07
    Block[  2]  4.952586e+07
    Block[  3]  5.013123e+07
    Block[  4]  4.921045e+07
    ---------------------------------------------------------------------------
    Ideal gas pressure   4.944652e+07 +/-  3.427197e-02 [Pa]
                         4.944652e+02 +/-  5.690999e+00 [bar]


    Block[  0] -4.686569e+07
    Block[  1] -5.205159e+07
    Block[  2] -4.709089e+07
    Block[  3] -4.305488e+07
    Block[  4] -4.990246e+07
    ---------------------------------------------------------------------------
    Excess pressure  -4.779310e+07 +/-  4.227734e+06 [Pa]
                     -4.779310e+02 +/-  4.227734e+01 [bar]


    Block[  0]  2.608670e+06
    Block[  1] -3.160881e+06
    Block[  2]  2.434970e+06
    Block[  3]  7.076357e+06
    Block[  4] -6.920098e+05
    ---------------------------------------------------------------------------
    Pressure average   1.653421e+06 +/-  4.792525e+06 [Pa]
                       1.653421e+01 +/-  4.792525e+01 [bar]


Enthalpy of adsorption
===============================================================================

Component 0 [CO2]
-------------------------------------------------------------------------------
    Block[  0] -2.764683e+03
    Block[  1] -2.543100e+03
    Block[  2] -1.065330e+03
    Block[  3] -2.431204e+03
    Block[  4] -2.264114e+03
    ---------------------------------------------------------------------------
    Enthalpy of adsorption: -2.213686e+03 +/-  8.283211e+02 [K]
                            -1.840562e+01 +/-  6.887046e+00 [kJ/mol]
    Warning: need to subtract the ideal-gas energy.


Densities
===============================================================================

Component 0 (CO2)
    Block[  0] 233.11083333333335
    Block[  1] 235.00583333333336
    Block[  2] 235.02833333333334
    Block[  3] 231.80833333333334
    Block[  4] 237.00500000000002
    -----------------------------------------------------------------------
    Density average   2.343917e+02 +/-  2.477197e+00 [molecules]
    Density average   1.492247e-02 +/-  1.717487e-04 [molec/A^3]
    Density average   1.090261e+03 +/-  1.254826e+01 [kg.m⁻³]

