Compiler and run-time data
===============================================================================
RASPA 3.0.4

Random seed: 170488047

Compiled as a 64-bits application
Compiler: gcc Ubuntu Clang 18.1.3 (1ubuntu1)
Compile Date = Mar 15 2025, Compile Time = 19:39:45

2025-06-03 11:00:44.299434
Simulation started on Tue, Jun 03
The start time was 11:00:00

Hostname:    c108
OS type:     Linux on x86_64
OS release:  6.8.0-58-generic
OS version:  #60-Ubuntu SMP PREEMPT_DYNAMIC Fri Mar 14 18:29:48 UTC 2025


Mutual consistent basic set of units:
===============================================================================

Unit of temperature: 1 [K]
Unit of length:      1e-10 [m]
Unit of time:        1e-12 [s]
Unit of mass:        1.6605402e-27 [kg]
Unit of charge:      1.60217733e-19 [C/particle]


Boltzmann constant (internal units):          0.8314464919307584 [-]
represents conversion from energy (internal units) to temperature (in Kelvin)

Derived units and their conversion factors:
===============================================================================

Unit of energy:                           1.6605402000000002e-23 [J]
Unit of energy:                           10.000008872307538 [J.mol⁻¹]
Unit of velocity:                         100 [m.s⁻¹]
Unit of force:                            1.6605402000000002e-13 [N]
Unit of diffusion:                        1.0000000000000002e-08 [m².s⁻¹]
Unit of acceleration:                     1.0000000000000002e-08 [m².s⁻¹]
Unit of torque:                           1.6605402000000002e-23 [N.m]
Unit of pressure:                         16605402 [Pa]
Unit of volume:                           1e-30 [m³]
Unit of density:                          1660.5402 [kg.m⁻³]
Unit of dynamic viscosity:                1.6605401999999997e-05 [N.s.m⁻²]
Unit of enthalpy:                         1.6605402000000002e-23 [J]
Unit of polarizability:                   1.5458657349975198e-35 [-]
Unit of Coulomb potential:                167101.08000665612 [K]
Unit of dielectric constant:              1.5458657349975193e-05 [s².C².kg⁻¹.m⁻³]
Unit of dipole moment:                    1.60217733e-29 [C.m]
Unit of Debye:                            4.803206799099162 [C.m]
Unit of electric potential:               0.00010364272224473431 [V]
Unit of electric field:                   1036427.222447343 [V.m⁻¹]
Unit of isothermal compressibility:       6.02213665167516e-08 [Pa⁻¹]
Unit of heat capacity:                    10.000008872307538 [J.mol⁻¹.K⁻¹]
Unit of volumetric expansion coefficient: 1 [K⁻¹]


Internal conversion factors:
===============================================================================

Energy (internal units) to Kelvin:      1.202724284692786 [-]
Kelvin to energy (internal units):      0.8314457542157567 [-]


System definitions
===============================================================================

Temperature:          240 [K]
Beta:                 0.005011346739813608 [-]
Pressure:             0 [Pa]
Helium void fraction: 1 [-]

Box:      30.00000   0.00000   0.00000
           0.00000  30.00000   0.00000
           0.00000   0.00000  30.00000
Lengths:  30.00000  30.00000  30.00000
Angles:   90.00000  90.00000  90.00000
Rectangular boundary conditions



Property measurement settings
===============================================================================




Pseudo-atoms
===============================================================================

  0 - C_co2    framework-atom: false
  1 - O_co2    framework-atom: false

  0 - C_co2    mass: 12.00000, charge:  0.70000
  1 - O_co2    mass: 15.99940, charge: -0.35000

  0 - C_co2    polarizability:  0.00000
  1 - O_co2    polarizability:  0.00000

  0 - J. J. Potoff et al., AIChE J. 2001, 47, 1676–1682.
  1 - J. J. Potoff et al., AIChE J. 2001, 47, 1676–1682.

Force field status
===============================================================================

Cutoff Framework-Molecule VDW:  12.00000 [Å]
Cutoff Molecule-Molecule VDW:   12.00000 [Å]
Cutoff Coulomb:                 12.00000 [Å]

Overlap-criteria VDW:           1.000000e+05 [K]

C_co2    - C_co2    Lennard-Jones p₀/kʙ:  27.00000 [K], p₁:  2.80000 [Å]
                                  shift:   0.00000 [K], tailcorrections: true
C_co2    - O_co2    Lennard-Jones p₀/kʙ:  46.18441 [K], p₁:  2.92500 [Å]
                                  shift:   0.00000 [K], tailcorrections: true
O_co2    - O_co2    Lennard-Jones p₀/kʙ:  79.00000 [K], p₁:  3.05000 [Å]
                                  shift:   0.00000 [K], tailcorrections: true

Ewald precision: 1e-06
Ewald alpha: 0.26505830360350674
Ewald k-vectors: 8 8 8


Component definitions
===============================================================================

Component 0 [CO2]

    Type: Adsorbate

    Critical temperature:  304.1282 [K]
    Critical pressure:     7377300 [Pa]
    Acentric factor:       0.22394 [-]

    Mol-fraction:                 1 [-]
    Swappable:                   true

    Mass:                         43.9988 [-]
    Fugacity coefficient:         -nan [-]
    Bulk fluid density:           0 [-]
    Compressibility:              1 [-]
    Excess molecules:             0 [-]

    Number Of Atoms:    3
    CBMC starting bead: 0
      0: O_co2  position  0.00000 -0.00000  1.16000, charge -0.35000
      1: C_co2  position  0.00000 -0.00000  0.00000, charge  0.70000
      2: O_co2  position  0.00000 -0.00000 -1.16000, charge -0.35000
    Diagonalized inertia-vector:      43.05758528 43.05758528 0.00000000
    Translational degrees of freedom: 3
    Rotational degrees of freedom:    2
    Shape of the molecule is: 'Linear'
    Net-charge:        0.00000000 [e]

    Move probabilities:
    Translation:                   0.199203 [-]
    Random translation:            0.000000 [-]
    Rotation:                      0.199203 [-]
    Random rotation:               0.000000 [-]
    Volume change:                 0.000000 [-]
    Reinsertion (CBMC):            0.199203 [-]
    Identity change (CBMC):        0.000000 [-]
    Swap:                          0.000000 [-]
    Swap (CBMC):                   0.000000 [-]
    Swap (CFCMC):                  0.000000 [-]
    Swap (CB/CFCMC):               0.000000 [-]
    Gibbs volume:                  0.003984 [-]
    Gibbs swap (CBMC):             0.398406 [-]
    Gibbs swap (CFCMC):            0.000000 [-]
    Widom:                         0.000000 [-]
    Widom (CFCMC):                 0.000000 [-]
    Widom (CB/CFCMC):              0.000000 [-]
    Parallel tempering:            0.000000 [-]
    Hybrid MC:                     0.000000 [-]

    number of blocking-pockets: 0

    number of bonds: 0





Number of pseudo-atoms
===============================================================================

Component   0 (CO2)
-------------------------------------------------------------------------------
    index   0 (C_co2): 40 atoms
    index   1 (O_co2): 80 atoms

Total number of pseudo-atoms:
-------------------------------------------------------------------------------
    index   0 (C_co2): 40 atoms
    index   1 (O_co2): 80 atoms




Energy status Recomputed from scratch
===============================================================================

Total potential energy/kʙ       -5.798602e+03 [K]
    external field VDW/kʙ        0.000000e+00 [K]
    external field Real/kʙ       0.000000e+00 [K]
    framework-molecule VDW/kʙ    0.000000e+00 [K]
    framework-molecule Real/kʙ   0.000000e+00 [K]
    molecule-molecule VDW/kʙ    -4.686552e+03 [K]
    molecule-molecule Real/kʙ   -9.884835e+02 [K]
    Van der Waals (Tail)/kʙ     -1.100506e+02 [K]
    Ewald Fourier/kʙ             2.338710e+03 [K]
    Ewald self/kʙ               -7.346713e+05 [K]
    Ewald exclusion/kʙ           7.323191e+05 [K]
    intra VDW/kʙ                 0.000000e+00 [K]
    intra Coulombic/kʙ           0.000000e+00 [K]
    polarization/kʙ              0.000000e+00 [K]
    dU/dlambda VDW/kʙ            0.000000e+00 [K]
    dU/dlambda Real/kʙ           0.000000e+00 [K]
    dU/dlambda Ewald/kʙ          0.000000e+00 [K]





Initialization: Current cycle: 0 out of 2000
===============================================================================

Box:      30.00000   0.00000   0.00000
           0.00000  30.00000   0.00000
           0.00000   0.00000  30.00000
Lengths:  30.00000  30.00000  30.00000
Angles:   90.00000  90.00000  90.00000
Rectangular boundary conditions

net charge:   0.00000000

component   0 (CO2) lambda:  0 occupancy:  1 (1.000000)
    net charge:   0.00000000 [e]

Amount of molecules per component :
-------------------------------------------------------------------------------
Component 0 (CO2)
    molecules:         4.000000e+01 molecules
    number density:    1.481481e-03 molec/A^3
    density:           1.082396e+02 kg/m^3

Total potential energy/kʙ       -9.618018e+03 [K]
-------------------------------------------------------------------------------
    external field VDW/kʙ        0.000000e+00 [K]
    external field Real/kʙ       0.000000e+00 [K]
    framework-molecule VDW/kʙ    0.000000e+00 [K]
    framework-molecule Real/kʙ   0.000000e+00 [K]
    molecule-molecule VDW/kʙ    -7.711296e+03 [K]
    molecule-molecule Real/kʙ   -1.777639e+03 [K]
    Van der Waals (Tail)/kʙ     -1.100506e+02 [K]
    Ewald Fourier/kʙ             2.333193e+03 [K]
    Ewald self/kʙ               -7.346713e+05 [K]
    Ewald exclusion/kʙ           7.323191e+05 [K]
    intra VDW/kʙ                 0.000000e+00 [K]
    intra Coulombic/kʙ           0.000000e+00 [K]
    polarization/kʙ              0.000000e+00 [K]
    dU/dlambda VDW/kʙ            0.000000e+00 [K]
    dU/dlambda Real/kʙ           0.000000e+00 [K]
    dU/dlambda Ewald/kʙ          0.000000e+00 [K]


Initialization: Current cycle: 100 out of 2000
===============================================================================

Box:      31.42612   0.00000   0.00000
           0.00000  31.42612   0.00000
           0.00000   0.00000  31.42612
Lengths:  31.42612  31.42612  31.42612
Angles:   90.00000  90.00000  90.00000
Rectangular boundary conditions

net charge:   0.00000000

component   0 (CO2) lambda:  0 occupancy:  1 (1.000000)
    net charge:   0.00000000 [e]

Amount of molecules per component :
-------------------------------------------------------------------------------
Component 0 (CO2)
    molecules:         7.000000e+00 molecules
    number density:    2.255412e-04 molec/A^3
    density:           1.647843e+01 kg/m^3

Total potential energy/kʙ       -1.498133e+01 [K]
-------------------------------------------------------------------------------
    external field VDW/kʙ        0.000000e+00 [K]
    external field Real/kʙ       0.000000e+00 [K]
    framework-molecule VDW/kʙ    0.000000e+00 [K]
    framework-molecule Real/kʙ   0.000000e+00 [K]
    molecule-molecule VDW/kʙ    -4.501547e+00 [K]
    molecule-molecule Real/kʙ    7.442104e-02 [K]
    Van der Waals (Tail)/kʙ     -2.931974e+00 [K]
    Ewald Fourier/kʙ             4.040173e+02 [K]
    Ewald self/kʙ               -1.285675e+05 [K]
    Ewald exclusion/kʙ           1.281558e+05 [K]
    intra VDW/kʙ                 0.000000e+00 [K]
    intra Coulombic/kʙ           0.000000e+00 [K]
    polarization/kʙ              0.000000e+00 [K]
    dU/dlambda VDW/kʙ            0.000000e+00 [K]
    dU/dlambda Real/kʙ           0.000000e+00 [K]
    dU/dlambda Ewald/kʙ          0.000000e+00 [K]


Initialization: Current cycle: 200 out of 2000
===============================================================================

Box:      32.64174   0.00000   0.00000
           0.00000  32.64174   0.00000
           0.00000   0.00000  32.64174
Lengths:  32.64174  32.64174  32.64174
Angles:   90.00000  90.00000  90.00000
Rectangular boundary conditions

net charge:   0.00000000

component   0 (CO2) lambda:  0 occupancy:  1 (1.000000)
    net charge:   0.00000000 [e]

Amount of molecules per component :
-------------------------------------------------------------------------------
Component 0 (CO2)
    molecules:         7.000000e+00 molecules
    number density:    2.012696e-04 molec/A^3
    density:           1.470510e+01 kg/m^3

Total potential energy/kʙ       -1.759309e+01 [K]
-------------------------------------------------------------------------------
    external field VDW/kʙ        0.000000e+00 [K]
    external field Real/kʙ       0.000000e+00 [K]
    framework-molecule VDW/kʙ    0.000000e+00 [K]
    framework-molecule Real/kʙ   0.000000e+00 [K]
    molecule-molecule VDW/kʙ    -8.289931e+00 [K]
    molecule-molecule Real/kʙ   -7.711498e-01 [K]
    Van der Waals (Tail)/kʙ     -2.616451e+00 [K]
    Ewald Fourier/kʙ             4.057239e+02 [K]
    Ewald self/kʙ               -1.285675e+05 [K]
    Ewald exclusion/kʙ           1.281558e+05 [K]
    intra VDW/kʙ                 0.000000e+00 [K]
    intra Coulombic/kʙ           0.000000e+00 [K]
    polarization/kʙ              0.000000e+00 [K]
    dU/dlambda VDW/kʙ            0.000000e+00 [K]
    dU/dlambda Real/kʙ           0.000000e+00 [K]
    dU/dlambda Ewald/kʙ          0.000000e+00 [K]


Initialization: Current cycle: 300 out of 2000
===============================================================================

Box:      32.94575   0.00000   0.00000
           0.00000  32.94575   0.00000
           0.00000   0.00000  32.94575
Lengths:  32.94575  32.94575  32.94575
Angles:   90.00000  90.00000  90.00000
Rectangular boundary conditions

net charge:   0.00000000

component   0 (CO2) lambda:  0 occupancy:  1 (1.000000)
    net charge:   0.00000000 [e]

Amount of molecules per component :
-------------------------------------------------------------------------------
Component 0 (CO2)
    molecules:         1.000000e+01 molecules
    number density:    2.796417e-04 molec/A^3
    density:           2.043110e+01 kg/m^3

Total potential energy/kʙ       -6.578859e+02 [K]
-------------------------------------------------------------------------------
    external field VDW/kʙ        0.000000e+00 [K]
    external field Real/kʙ       0.000000e+00 [K]
    framework-molecule VDW/kʙ    0.000000e+00 [K]
    framework-molecule Real/kʙ   0.000000e+00 [K]
    molecule-molecule VDW/kʙ    -5.595416e+02 [K]
    molecule-molecule Real/kʙ   -1.044091e+02 [K]
    Van der Waals (Tail)/kʙ     -5.193237e+00 [K]
    Ewald Fourier/kʙ             5.993144e+02 [K]
    Ewald self/kʙ               -1.836678e+05 [K]
    Ewald exclusion/kʙ           1.830798e+05 [K]
    intra VDW/kʙ                 0.000000e+00 [K]
    intra Coulombic/kʙ           0.000000e+00 [K]
    polarization/kʙ              0.000000e+00 [K]
    dU/dlambda VDW/kʙ            0.000000e+00 [K]
    dU/dlambda Real/kʙ           0.000000e+00 [K]
    dU/dlambda Ewald/kʙ          0.000000e+00 [K]


Initialization: Current cycle: 400 out of 2000
===============================================================================

Box:      32.95030   0.00000   0.00000
           0.00000  32.95030   0.00000
           0.00000   0.00000  32.95030
Lengths:  32.95030  32.95030  32.95030
Angles:   90.00000  90.00000  90.00000
Rectangular boundary conditions

net charge:   0.00000000

component   0 (CO2) lambda:  0 occupancy:  1 (1.000000)
    net charge:   0.00000000 [e]

Amount of molecules per component :
-------------------------------------------------------------------------------
Component 0 (CO2)
    molecules:         7.000000e+00 molecules
    number density:    1.956680e-04 molec/A^3
    density:           1.429584e+01 kg/m^3

Total potential energy/kʙ       -3.329418e+02 [K]
-------------------------------------------------------------------------------
    external field VDW/kʙ        0.000000e+00 [K]
    external field Real/kʙ       0.000000e+00 [K]
    framework-molecule VDW/kʙ    0.000000e+00 [K]
    framework-molecule Real/kʙ   0.000000e+00 [K]
    molecule-molecule VDW/kʙ    -1.792945e+02 [K]
    molecule-molecule Real/kʙ   -1.361788e+02 [K]
    Van der Waals (Tail)/kʙ     -2.543631e+00 [K]
    Ewald Fourier/kʙ             3.967146e+02 [K]
    Ewald self/kʙ               -1.285675e+05 [K]
    Ewald exclusion/kʙ           1.281558e+05 [K]
    intra VDW/kʙ                 0.000000e+00 [K]
    intra Coulombic/kʙ           0.000000e+00 [K]
    polarization/kʙ              0.000000e+00 [K]
    dU/dlambda VDW/kʙ            0.000000e+00 [K]
    dU/dlambda Real/kʙ           0.000000e+00 [K]
    dU/dlambda Ewald/kʙ          0.000000e+00 [K]


Initialization: Current cycle: 500 out of 2000
===============================================================================

Box:      33.31148   0.00000   0.00000
           0.00000  33.31148   0.00000
           0.00000   0.00000  33.31148
Lengths:  33.31148  33.31148  33.31148
Angles:   90.00000  90.00000  90.00000
Rectangular boundary conditions

net charge:   0.00000000

component   0 (CO2) lambda:  0 occupancy:  1 (1.000000)
    net charge:   0.00000000 [e]

Amount of molecules per component :
-------------------------------------------------------------------------------
Component 0 (CO2)
    molecules:         1.200000e+01 molecules
    number density:    3.246381e-04 molec/A^3
    density:           2.371861e+01 kg/m^3

Total potential energy/kʙ       -5.210699e+02 [K]
-------------------------------------------------------------------------------
    external field VDW/kʙ        0.000000e+00 [K]
    external field Real/kʙ       0.000000e+00 [K]
    framework-molecule VDW/kʙ    0.000000e+00 [K]
    framework-molecule Real/kʙ   0.000000e+00 [K]
    molecule-molecule VDW/kʙ    -4.061041e+02 [K]
    molecule-molecule Real/kʙ   -8.598177e+01 [K]
    Van der Waals (Tail)/kʙ     -7.234639e+00 [K]
    Ewald Fourier/kʙ             6.839183e+02 [K]
    Ewald self/kʙ               -2.204014e+05 [K]
    Ewald exclusion/kʙ           2.196957e+05 [K]
    intra VDW/kʙ                 0.000000e+00 [K]
    intra Coulombic/kʙ           0.000000e+00 [K]
    polarization/kʙ              0.000000e+00 [K]
    dU/dlambda VDW/kʙ            0.000000e+00 [K]
    dU/dlambda Real/kʙ           0.000000e+00 [K]
    dU/dlambda Ewald/kʙ          0.000000e+00 [K]


Initialization: Current cycle: 600 out of 2000
===============================================================================

Box:      33.52979   0.00000   0.00000
           0.00000  33.52979   0.00000
           0.00000   0.00000  33.52979
Lengths:  33.52979  33.52979  33.52979
Angles:   90.00000  90.00000  90.00000
Rectangular boundary conditions

net charge:   0.00000000

component   0 (CO2) lambda:  0 occupancy:  1 (1.000000)
    net charge:   0.00000000 [e]

Amount of molecules per component :
-------------------------------------------------------------------------------
Component 0 (CO2)
    molecules:         1.000000e+01 molecules
    number density:    2.652819e-04 molec/A^3
    density:           1.938195e+01 kg/m^3

Total potential energy/kʙ       -6.665563e+01 [K]
-------------------------------------------------------------------------------
    external field VDW/kʙ        0.000000e+00 [K]
    external field Real/kʙ       0.000000e+00 [K]
    framework-molecule VDW/kʙ    0.000000e+00 [K]
    framework-molecule Real/kʙ   0.000000e+00 [K]
    molecule-molecule VDW/kʙ    -6.841574e+01 [K]
    molecule-molecule Real/kʙ    1.912962e+01 [K]
    Van der Waals (Tail)/kʙ     -4.926560e+00 [K]
    Ewald Fourier/kʙ             5.756135e+02 [K]
    Ewald self/kʙ               -1.836678e+05 [K]
    Ewald exclusion/kʙ           1.830798e+05 [K]
    intra VDW/kʙ                 0.000000e+00 [K]
    intra Coulombic/kʙ           0.000000e+00 [K]
    polarization/kʙ              0.000000e+00 [K]
    dU/dlambda VDW/kʙ            0.000000e+00 [K]
    dU/dlambda Real/kʙ           0.000000e+00 [K]
    dU/dlambda Ewald/kʙ          0.000000e+00 [K]


Initialization: Current cycle: 700 out of 2000
===============================================================================

Box:      33.61194   0.00000   0.00000
           0.00000  33.61194   0.00000
           0.00000   0.00000  33.61194
Lengths:  33.61194  33.61194  33.61194
Angles:   90.00000  90.00000  90.00000
Rectangular boundary conditions

net charge:   0.00000000

component   0 (CO2) lambda:  0 occupancy:  1 (1.000000)
    net charge:   0.00000000 [e]

Amount of molecules per component :
-------------------------------------------------------------------------------
Component 0 (CO2)
    molecules:         1.400000e+01 molecules
    number density:    3.686780e-04 molec/A^3
    density:           2.693624e+01 kg/m^3

Total potential energy/kʙ       -7.030252e+02 [K]
-------------------------------------------------------------------------------
    external field VDW/kʙ        0.000000e+00 [K]
    external field Real/kʙ       0.000000e+00 [K]
    framework-molecule VDW/kʙ    0.000000e+00 [K]
    framework-molecule Real/kʙ   0.000000e+00 [K]
    molecule-molecule VDW/kʙ    -4.796195e+02 [K]
    molecule-molecule Real/kʙ   -2.338923e+02 [K]
    Van der Waals (Tail)/kʙ     -9.585426e+00 [K]
    Ewald Fourier/kʙ             8.433510e+02 [K]
    Ewald self/kʙ               -2.571349e+05 [K]
    Ewald exclusion/kʙ           2.563117e+05 [K]
    intra VDW/kʙ                 0.000000e+00 [K]
    intra Coulombic/kʙ           0.000000e+00 [K]
    polarization/kʙ              0.000000e+00 [K]
    dU/dlambda VDW/kʙ            0.000000e+00 [K]
    dU/dlambda Real/kʙ           0.000000e+00 [K]
    dU/dlambda Ewald/kʙ          0.000000e+00 [K]


Initialization: Current cycle: 800 out of 2000
===============================================================================

Box:      33.45695   0.00000   0.00000
           0.00000  33.45695   0.00000
           0.00000   0.00000  33.45695
Lengths:  33.45695  33.45695  33.45695
Angles:   90.00000  90.00000  90.00000
Rectangular boundary conditions

net charge:   0.00000000

component   0 (CO2) lambda:  0 occupancy:  1 (1.000000)
    net charge:   0.00000000 [e]

Amount of molecules per component :
-------------------------------------------------------------------------------
Component 0 (CO2)
    molecules:         1.500000e+01 molecules
    number density:    4.005273e-04 molec/A^3
    density:           2.926321e+01 kg/m^3

Total potential energy/kʙ       -4.588906e+02 [K]
-------------------------------------------------------------------------------
    external field VDW/kʙ        0.000000e+00 [K]
    external field Real/kʙ       0.000000e+00 [K]
    framework-molecule VDW/kʙ    0.000000e+00 [K]
    framework-molecule Real/kʙ   0.000000e+00 [K]
    molecule-molecule VDW/kʙ    -4.648736e+02 [K]
    molecule-molecule Real/kʙ    8.069553e+01 [K]
    Van der Waals (Tail)/kʙ     -1.115731e+01 [K]
    Ewald Fourier/kʙ             8.185294e+02 [K]
    Ewald self/kʙ               -2.755017e+05 [K]
    Ewald exclusion/kʙ           2.746196e+05 [K]
    intra VDW/kʙ                 0.000000e+00 [K]
    intra Coulombic/kʙ           0.000000e+00 [K]
    polarization/kʙ              0.000000e+00 [K]
    dU/dlambda VDW/kʙ            0.000000e+00 [K]
    dU/dlambda Real/kʙ           0.000000e+00 [K]
    dU/dlambda Ewald/kʙ          0.000000e+00 [K]


Initialization: Current cycle: 900 out of 2000
===============================================================================

Box:      33.66046   0.00000   0.00000
           0.00000  33.66046   0.00000
           0.00000   0.00000  33.66046
Lengths:  33.66046  33.66046  33.66046
Angles:   90.00000  90.00000  90.00000
Rectangular boundary conditions

net charge:   0.00000000

component   0 (CO2) lambda:  0 occupancy:  1 (1.000000)
    net charge:   0.00000000 [e]

Amount of molecules per component :
-------------------------------------------------------------------------------
Component 0 (CO2)
    molecules:         1.100000e+01 molecules
    number density:    2.884248e-04 molec/A^3
    density:           2.107281e+01 kg/m^3

Total potential energy/kʙ       -3.572224e+02 [K]
-------------------------------------------------------------------------------
    external field VDW/kʙ        0.000000e+00 [K]
    external field Real/kʙ       0.000000e+00 [K]
    framework-molecule VDW/kʙ    0.000000e+00 [K]
    framework-molecule Real/kʙ   0.000000e+00 [K]
    molecule-molecule VDW/kʙ    -2.750074e+02 [K]
    molecule-molecule Real/kʙ   -6.899973e+01 [K]
    Van der Waals (Tail)/kʙ     -5.891984e+00 [K]
    Ewald Fourier/kʙ             6.395388e+02 [K]
    Ewald self/kʙ               -2.020346e+05 [K]
    Ewald exclusion/kʙ           2.013877e+05 [K]
    intra VDW/kʙ                 0.000000e+00 [K]
    intra Coulombic/kʙ           0.000000e+00 [K]
    polarization/kʙ              0.000000e+00 [K]
    dU/dlambda VDW/kʙ            0.000000e+00 [K]
    dU/dlambda Real/kʙ           0.000000e+00 [K]
    dU/dlambda Ewald/kʙ          0.000000e+00 [K]


Initialization: Current cycle: 1000 out of 2000
===============================================================================

Box:      33.65862   0.00000   0.00000
           0.00000  33.65862   0.00000
           0.00000   0.00000  33.65862
Lengths:  33.65862  33.65862  33.65862
Angles:   90.00000  90.00000  90.00000
Rectangular boundary conditions

net charge:   0.00000000

component   0 (CO2) lambda:  0 occupancy:  1 (1.000000)
    net charge:   0.00000000 [e]

Amount of molecules per component :
-------------------------------------------------------------------------------
Component 0 (CO2)
    molecules:         1.200000e+01 molecules
    number density:    3.146967e-04 molec/A^3
    density:           2.299228e+01 kg/m^3

Total potential energy/kʙ       -6.042990e+02 [K]
-------------------------------------------------------------------------------
    external field VDW/kʙ        0.000000e+00 [K]
    external field Real/kʙ       0.000000e+00 [K]
    framework-molecule VDW/kʙ    0.000000e+00 [K]
    framework-molecule Real/kʙ   0.000000e+00 [K]
    molecule-molecule VDW/kʙ    -4.156519e+02 [K]
    molecule-molecule Real/kʙ   -1.302459e+02 [K]
    Van der Waals (Tail)/kʙ     -7.013095e+00 [K]
    Ewald Fourier/kʙ             6.542796e+02 [K]
    Ewald self/kʙ               -2.204014e+05 [K]
    Ewald exclusion/kʙ           2.196957e+05 [K]
    intra VDW/kʙ                 0.000000e+00 [K]
    intra Coulombic/kʙ           0.000000e+00 [K]
    polarization/kʙ              0.000000e+00 [K]
    dU/dlambda VDW/kʙ            0.000000e+00 [K]
    dU/dlambda Real/kʙ           0.000000e+00 [K]
    dU/dlambda Ewald/kʙ          0.000000e+00 [K]


Initialization: Current cycle: 1100 out of 2000
===============================================================================

Box:      33.69508   0.00000   0.00000
           0.00000  33.69508   0.00000
           0.00000   0.00000  33.69508
Lengths:  33.69508  33.69508  33.69508
Angles:   90.00000  90.00000  90.00000
Rectangular boundary conditions

net charge:   0.00000000

component   0 (CO2) lambda:  0 occupancy:  1 (1.000000)
    net charge:   0.00000000 [e]

Amount of molecules per component :
-------------------------------------------------------------------------------
Component 0 (CO2)
    molecules:         1.000000e+01 molecules
    number density:    2.613970e-04 molec/A^3
    density:           1.909811e+01 kg/m^3

Total potential energy/kʙ       -3.643319e+02 [K]
-------------------------------------------------------------------------------
    external field VDW/kʙ        0.000000e+00 [K]
    external field Real/kʙ       0.000000e+00 [K]
    framework-molecule VDW/kʙ    0.000000e+00 [K]
    framework-molecule Real/kʙ   0.000000e+00 [K]
    molecule-molecule VDW/kʙ    -2.534715e+02 [K]
    molecule-molecule Real/kʙ   -1.020667e+02 [K]
    Van der Waals (Tail)/kʙ     -4.854414e+00 [K]
    Ewald Fourier/kʙ             5.841171e+02 [K]
    Ewald self/kʙ               -1.836678e+05 [K]
    Ewald exclusion/kʙ           1.830798e+05 [K]
    intra VDW/kʙ                 0.000000e+00 [K]
    intra Coulombic/kʙ           0.000000e+00 [K]
    polarization/kʙ              0.000000e+00 [K]
    dU/dlambda VDW/kʙ            0.000000e+00 [K]
    dU/dlambda Real/kʙ           0.000000e+00 [K]
    dU/dlambda Ewald/kʙ          0.000000e+00 [K]


Initialization: Current cycle: 1200 out of 2000
===============================================================================

Box:      33.72533   0.00000   0.00000
           0.00000  33.72533   0.00000
           0.00000   0.00000  33.72533
Lengths:  33.72533  33.72533  33.72533
Angles:   90.00000  90.00000  90.00000
Rectangular boundary conditions

net charge:   0.00000000

component   0 (CO2) lambda:  0 occupancy:  1 (1.000000)
    net charge:   0.00000000 [e]

Amount of molecules per component :
-------------------------------------------------------------------------------
Component 0 (CO2)
    molecules:         1.600000e+01 molecules
    number density:    4.171107e-04 molec/A^3
    density:           3.047482e+01 kg/m^3

Total potential energy/kʙ       -1.147839e+03 [K]
-------------------------------------------------------------------------------
    external field VDW/kʙ        0.000000e+00 [K]
    external field Real/kʙ       0.000000e+00 [K]
    framework-molecule VDW/kʙ    0.000000e+00 [K]
    framework-molecule Real/kʙ   0.000000e+00 [K]
    molecule-molecule VDW/kʙ    -7.868128e+02 [K]
    molecule-molecule Real/kʙ   -3.181338e+02 [K]
    Van der Waals (Tail)/kʙ     -1.239389e+01 [K]
    Ewald Fourier/kʙ             9.103912e+02 [K]
    Ewald self/kʙ               -2.938685e+05 [K]
    Ewald exclusion/kʙ           2.929276e+05 [K]
    intra VDW/kʙ                 0.000000e+00 [K]
    intra Coulombic/kʙ           0.000000e+00 [K]
    polarization/kʙ              0.000000e+00 [K]
    dU/dlambda VDW/kʙ            0.000000e+00 [K]
    dU/dlambda Real/kʙ           0.000000e+00 [K]
    dU/dlambda Ewald/kʙ          0.000000e+00 [K]


Initialization: Current cycle: 1300 out of 2000
===============================================================================

Box:      33.70357   0.00000   0.00000
           0.00000  33.70357   0.00000
           0.00000   0.00000  33.70357
Lengths:  33.70357  33.70357  33.70357
Angles:   90.00000  90.00000  90.00000
Rectangular boundary conditions

net charge:   0.00000000

component   0 (CO2) lambda:  0 occupancy:  1 (1.000000)
    net charge:   0.00000000 [e]

Amount of molecules per component :
-------------------------------------------------------------------------------
Component 0 (CO2)
    molecules:         1.200000e+01 molecules
    number density:    3.134394e-04 molec/A^3
    density:           2.290042e+01 kg/m^3

Total potential energy/kʙ       -6.479844e+02 [K]
-------------------------------------------------------------------------------
    external field VDW/kʙ        0.000000e+00 [K]
    external field Real/kʙ       0.000000e+00 [K]
    framework-molecule VDW/kʙ    0.000000e+00 [K]
    framework-molecule Real/kʙ   0.000000e+00 [K]
    molecule-molecule VDW/kʙ    -4.212578e+02 [K]
    molecule-molecule Real/kʙ   -1.836018e+02 [K]
    Van der Waals (Tail)/kʙ     -6.985075e+00 [K]
    Ewald Fourier/kʙ             6.695280e+02 [K]
    Ewald self/kʙ               -2.204014e+05 [K]
    Ewald exclusion/kʙ           2.196957e+05 [K]
    intra VDW/kʙ                 0.000000e+00 [K]
    intra Coulombic/kʙ           0.000000e+00 [K]
    polarization/kʙ              0.000000e+00 [K]
    dU/dlambda VDW/kʙ            0.000000e+00 [K]
    dU/dlambda Real/kʙ           0.000000e+00 [K]
    dU/dlambda Ewald/kʙ          0.000000e+00 [K]


Initialization: Current cycle: 1400 out of 2000
===============================================================================

Box:      33.51604   0.00000   0.00000
           0.00000  33.51604   0.00000
           0.00000   0.00000  33.51604
Lengths:  33.51604  33.51604  33.51604
Angles:   90.00000  90.00000  90.00000
Rectangular boundary conditions

net charge:   0.00000000

component   0 (CO2) lambda:  0 occupancy:  1 (1.000000)
    net charge:   0.00000000 [e]

Amount of molecules per component :
-------------------------------------------------------------------------------
Component 0 (CO2)
    molecules:         1.400000e+01 molecules
    number density:    3.718517e-04 molec/A^3
    density:           2.716812e+01 kg/m^3

Total potential energy/kʙ       -5.912736e+02 [K]
-------------------------------------------------------------------------------
    external field VDW/kʙ        0.000000e+00 [K]
    external field Real/kʙ       0.000000e+00 [K]
    framework-molecule VDW/kʙ    0.000000e+00 [K]
    framework-molecule Real/kʙ   0.000000e+00 [K]
    molecule-molecule VDW/kʙ    -6.413235e+02 [K]
    molecule-molecule Real/kʙ    8.512793e+01 [K]
    Van der Waals (Tail)/kʙ     -9.667942e+00 [K]
    Ewald Fourier/kʙ             7.978689e+02 [K]
    Ewald self/kʙ               -2.571349e+05 [K]
    Ewald exclusion/kʙ           2.563117e+05 [K]
    intra VDW/kʙ                 0.000000e+00 [K]
    intra Coulombic/kʙ           0.000000e+00 [K]
    polarization/kʙ              0.000000e+00 [K]
    dU/dlambda VDW/kʙ            0.000000e+00 [K]
    dU/dlambda Real/kʙ           0.000000e+00 [K]
    dU/dlambda Ewald/kʙ          0.000000e+00 [K]


Initialization: Current cycle: 1500 out of 2000
===============================================================================

Box:      33.74381   0.00000   0.00000
           0.00000  33.74381   0.00000
           0.00000   0.00000  33.74381
Lengths:  33.74381  33.74381  33.74381
Angles:   90.00000  90.00000  90.00000
Rectangular boundary conditions

net charge:   0.00000000

component   0 (CO2) lambda:  0 occupancy:  1 (1.000000)
    net charge:   0.00000000 [e]

Amount of molecules per component :
-------------------------------------------------------------------------------
Component 0 (CO2)
    molecules:         1.800000e+01 molecules
    number density:    4.684791e-04 molec/A^3
    density:           3.422788e+01 kg/m^3

Total potential energy/kʙ       -6.331845e+02 [K]
-------------------------------------------------------------------------------
    external field VDW/kʙ        0.000000e+00 [K]
    external field Real/kʙ       0.000000e+00 [K]
    framework-molecule VDW/kʙ    0.000000e+00 [K]
    framework-molecule Real/kʙ   0.000000e+00 [K]
    molecule-molecule VDW/kʙ    -6.279996e+02 [K]
    molecule-molecule Real/kʙ   -1.038229e+01 [K]
    Van der Waals (Tail)/kʙ     -1.566026e+01 [K]
    Ewald Fourier/kʙ             1.079359e+03 [K]
    Ewald self/kʙ               -3.306021e+05 [K]
    Ewald exclusion/kʙ           3.295436e+05 [K]
    intra VDW/kʙ                 0.000000e+00 [K]
    intra Coulombic/kʙ           0.000000e+00 [K]
    polarization/kʙ              0.000000e+00 [K]
    dU/dlambda VDW/kʙ            0.000000e+00 [K]
    dU/dlambda Real/kʙ           0.000000e+00 [K]
    dU/dlambda Ewald/kʙ          0.000000e+00 [K]


Initialization: Current cycle: 1600 out of 2000
===============================================================================

Box:      33.84308   0.00000   0.00000
           0.00000  33.84308   0.00000
           0.00000   0.00000  33.84308
Lengths:  33.84308  33.84308  33.84308
Angles:   90.00000  90.00000  90.00000
Rectangular boundary conditions

net charge:   0.00000000

component   0 (CO2) lambda:  0 occupancy:  1 (1.000000)
    net charge:   0.00000000 [e]

Amount of molecules per component :
-------------------------------------------------------------------------------
Component 0 (CO2)
    molecules:         2.400000e+01 molecules
    number density:    6.191580e-04 molec/A^3
    density:           4.523674e+01 kg/m^3

Total potential energy/kʙ       -2.972682e+03 [K]
-------------------------------------------------------------------------------
    external field VDW/kʙ        0.000000e+00 [K]
    external field Real/kʙ       0.000000e+00 [K]
    framework-molecule VDW/kʙ    0.000000e+00 [K]
    framework-molecule Real/kʙ   0.000000e+00 [K]
    molecule-molecule VDW/kʙ    -2.321616e+03 [K]
    molecule-molecule Real/kʙ   -6.092415e+02 [K]
    Van der Waals (Tail)/kʙ     -2.759618e+01 [K]
    Ewald Fourier/kʙ             1.397107e+03 [K]
    Ewald self/kʙ               -4.408028e+05 [K]
    Ewald exclusion/kʙ           4.393914e+05 [K]
    intra VDW/kʙ                 0.000000e+00 [K]
    intra Coulombic/kʙ           0.000000e+00 [K]
    polarization/kʙ              0.000000e+00 [K]
    dU/dlambda VDW/kʙ            0.000000e+00 [K]
    dU/dlambda Real/kʙ           0.000000e+00 [K]
    dU/dlambda Ewald/kʙ          0.000000e+00 [K]


Initialization: Current cycle: 1700 out of 2000
===============================================================================

Box:      33.79396   0.00000   0.00000
           0.00000  33.79396   0.00000
           0.00000   0.00000  33.79396
Lengths:  33.79396  33.79396  33.79396
Angles:   90.00000  90.00000  90.00000
Rectangular boundary conditions

net charge:   0.00000000

component   0 (CO2) lambda:  0 occupancy:  1 (1.000000)
    net charge:   0.00000000 [e]

Amount of molecules per component :
-------------------------------------------------------------------------------
Component 0 (CO2)
    molecules:         1.800000e+01 molecules
    number density:    4.663965e-04 molec/A^3
    density:           3.407573e+01 kg/m^3

Total potential energy/kʙ       -7.142851e+02 [K]
-------------------------------------------------------------------------------
    external field VDW/kʙ        0.000000e+00 [K]
    external field Real/kʙ       0.000000e+00 [K]
    framework-molecule VDW/kʙ    0.000000e+00 [K]
    framework-molecule Real/kʙ   0.000000e+00 [K]
    molecule-molecule VDW/kʙ    -5.576905e+02 [K]
    molecule-molecule Real/kʙ   -8.557190e+01 [K]
    Van der Waals (Tail)/kʙ     -1.559064e+01 [K]
    Ewald Fourier/kʙ             1.003069e+03 [K]
    Ewald self/kʙ               -3.306021e+05 [K]
    Ewald exclusion/kʙ           3.295436e+05 [K]
    intra VDW/kʙ                 0.000000e+00 [K]
    intra Coulombic/kʙ           0.000000e+00 [K]
    polarization/kʙ              0.000000e+00 [K]
    dU/dlambda VDW/kʙ            0.000000e+00 [K]
    dU/dlambda Real/kʙ           0.000000e+00 [K]
    dU/dlambda Ewald/kʙ          0.000000e+00 [K]


Initialization: Current cycle: 1800 out of 2000
===============================================================================

Box:      33.89273   0.00000   0.00000
           0.00000  33.89273   0.00000
           0.00000   0.00000  33.89273
Lengths:  33.89273  33.89273  33.89273
Angles:   90.00000  90.00000  90.00000
Rectangular boundary conditions

net charge:   0.00000000

component   0 (CO2) lambda:  0 occupancy:  1 (1.000000)
    net charge:   0.00000000 [e]

Amount of molecules per component :
-------------------------------------------------------------------------------
Component 0 (CO2)
    molecules:         1.600000e+01 molecules
    number density:    4.109607e-04 molec/A^3
    density:           3.002549e+01 kg/m^3

Total potential energy/kʙ       -9.315599e+02 [K]
-------------------------------------------------------------------------------
    external field VDW/kʙ        0.000000e+00 [K]
    external field Real/kʙ       0.000000e+00 [K]
    framework-molecule VDW/kʙ    0.000000e+00 [K]
    framework-molecule Real/kʙ   0.000000e+00 [K]
    molecule-molecule VDW/kʙ    -5.258965e+02 [K]
    molecule-molecule Real/kʙ   -3.697854e+02 [K]
    Van der Waals (Tail)/kʙ     -1.221115e+01 [K]
    Ewald Fourier/kʙ             9.172235e+02 [K]
    Ewald self/kʙ               -2.938685e+05 [K]
    Ewald exclusion/kʙ           2.929276e+05 [K]
    intra VDW/kʙ                 0.000000e+00 [K]
    intra Coulombic/kʙ           0.000000e+00 [K]
    polarization/kʙ              0.000000e+00 [K]
    dU/dlambda VDW/kʙ            0.000000e+00 [K]
    dU/dlambda Real/kʙ           0.000000e+00 [K]
    dU/dlambda Ewald/kʙ          0.000000e+00 [K]


Initialization: Current cycle: 1900 out of 2000
===============================================================================

Box:      33.75777   0.00000   0.00000
           0.00000  33.75777   0.00000
           0.00000   0.00000  33.75777
Lengths:  33.75777  33.75777  33.75777
Angles:   90.00000  90.00000  90.00000
Rectangular boundary conditions

net charge:   0.00000000

component   0 (CO2) lambda:  0 occupancy:  1 (1.000000)
    net charge:   0.00000000 [e]

Amount of molecules per component :
-------------------------------------------------------------------------------
Component 0 (CO2)
    molecules:         1.100000e+01 molecules
    number density:    2.859378e-04 molec/A^3
    density:           2.089111e+01 kg/m^3

Total potential energy/kʙ       -9.119435e+02 [K]
-------------------------------------------------------------------------------
    external field VDW/kʙ        0.000000e+00 [K]
    external field Real/kʙ       0.000000e+00 [K]
    framework-molecule VDW/kʙ    0.000000e+00 [K]
    framework-molecule Real/kʙ   0.000000e+00 [K]
    molecule-molecule VDW/kʙ    -4.766597e+02 [K]
    molecule-molecule Real/kʙ   -4.456625e+02 [K]
    Van der Waals (Tail)/kʙ     -5.841179e+00 [K]
    Ewald Fourier/kʙ             6.630820e+02 [K]
    Ewald self/kʙ               -2.020346e+05 [K]
    Ewald exclusion/kʙ           2.013877e+05 [K]
    intra VDW/kʙ                 0.000000e+00 [K]
    intra Coulombic/kʙ           0.000000e+00 [K]
    polarization/kʙ              0.000000e+00 [K]
    dU/dlambda VDW/kʙ            0.000000e+00 [K]
    dU/dlambda Real/kʙ           0.000000e+00 [K]
    dU/dlambda Ewald/kʙ          0.000000e+00 [K]


Current cycle: 0 out of 6000
===============================================================================

Box:      33.81460   0.00000   0.00000  Average:  33.81460   0.00000   0.00000
           0.00000  33.81460   0.00000             0.00000  33.81460   0.00000
           0.00000   0.00000  33.81460             0.00000   0.00000  33.81460
Lengths:  33.81460  33.81460  33.81460  Average:  33.81460  33.81460  33.81460
Angles:   90.00000  90.00000  90.00000  Average:  90.00000  90.00000  90.00000
Rectangular boundary conditions

net charge:   0.00000000

component 0 (CO2) lambda:  0 occupancy:  1 (1.000000)
    net charge:   0.00000000 [e]

Amount of molecules per component :
-------------------------------------------------------------------------------
Component 0 (CO2)
    molecules:      1.800000e+01 molecules  (1.800000e+01 +/- 0.000000e+00)
    number density: 4.655428e-04 molec./A^3 (4.655428e-04 +/- 0.000000e+00)
    density:        3.401335e+01 kg/m^3     (3.401335e+01 +/- 0.000000e+00)

Average pressure tensor: 
-------------------------------------------------------------------------------
 1.5426e+01  0.0000e+00  0.0000e+00 +/- 0.0000e+00 0.0000e+00 0.0000e+00 [bar]
 0.0000e+00  1.5426e+01  0.0000e+00 +/- 0.0000e+00 0.0000e+00 0.0000e+00 [bar]
 0.0000e+00  0.0000e+00  1.5426e+01 +/- 0.0000e+00 0.0000e+00 0.0000e+00 [bar]
Ideal-gas pressure:   1.542604e+01 +/ 0.000000e+00 [bar]
Excess pressure:      0.000000e+00 +/ 0.000000e+00 [bar]
Pressure:             1.542604e+01 +/ 0.000000e+00 [bar]

Total potential energy/kʙ  -7.651437e+02 (-7.651437e+02 +/- 0.000000e+00) [K]
-------------------------------------------------------------------------------
ExternalField-molecule
    Van der Waals/kʙ        0.000000e+00 ( 0.000000e+00 +/- 0.000000e+00) [K]
Framework-molecule
    Van der Waals/kʙ        0.000000e+00 ( 0.000000e+00 +/- 0.000000e+00) [K]
    Van der Waals (Tail)/kʙ 0.000000e+00 ( 0.000000e+00 +/- 0.000000e+00) [K]
    Coulombic Real/kʙ       0.000000e+00 ( 0.000000e+00 +/- 0.000000e+00) [K]
    Coulombic Fourier/kʙ    0.000000e+00 ( 0.000000e+00 +/- 0.000000e+00) [K]
Molecule-molecule
    Van der Waals/kʙ       -8.822471e+02 (-8.822471e+02 +/- 0.000000e+00) [K]
    Van der Waals (Tail)/kʙ-1.556210e+01 (-1.556210e+01 +/- 0.000000e+00) [K]
    Coulombic Real/kʙ       1.626819e+02 ( 1.626819e+02 +/- 0.000000e+00) [K]
    Coulombic Fourier/kʙ   -3.001630e+01 (-3.001630e+01 +/- 0.000000e+00) [K]
    Molecule Intra/kʙ       0.000000e+00 ( 0.000000e+00 +/- 0.000000e+00) [K]

Current cycle: 100 out of 6000
===============================================================================

Box:      33.89812   0.00000   0.00000  Average:  33.82556   0.00000   0.00000
           0.00000  33.89812   0.00000             0.00000  33.82556   0.00000
           0.00000   0.00000  33.89812             0.00000   0.00000  33.82556
Lengths:  33.89812  33.89812  33.89812  Average:  33.82556  33.82556  33.82556
Angles:   90.00000  90.00000  90.00000  Average:  90.00000  90.00000  90.00000
Rectangular boundary conditions

net charge:   0.00000000

component 0 (CO2) lambda:  0 occupancy:  1 (1.000000)
    net charge:   0.00000000 [e]

Amount of molecules per component :
-------------------------------------------------------------------------------
Component 0 (CO2)
    molecules:      2.800000e+01 molecules  (1.781188e+01 +/- 0.000000e+00)
    number density: 7.188385e-04 molec./A^3 (4.599994e-04 +/- 0.000000e+00)
    density:        5.251957e+01 kg/m^3     (3.360835e+01 +/- 0.000000e+00)

Average pressure tensor: 
-------------------------------------------------------------------------------
 1.3239e+01 -1.9710e+00 -2.9319e+00 +/- 0.0000e+00 0.0000e+00 0.0000e+00 [bar]
-1.9710e+00  1.4556e+01  2.2037e-01 +/- 0.0000e+00 0.0000e+00 0.0000e+00 [bar]
-2.9319e+00  2.2037e-01  1.4521e+01 +/- 0.0000e+00 0.0000e+00 0.0000e+00 [bar]
Ideal-gas pressure:   1.524236e+01 +/ 0.000000e+00 [bar]
Excess pressure:     -1.137010e+00 +/ 0.000000e+00 [bar]
Pressure:             1.410535e+01 +/ 0.000000e+00 [bar]

Total potential energy/kʙ  -3.293425e+03 (-1.309239e+03 +/- 0.000000e+00) [K]
-------------------------------------------------------------------------------
ExternalField-molecule
    Van der Waals/kʙ        0.000000e+00 ( 0.000000e+00 +/- 0.000000e+00) [K]
Framework-molecule
    Van der Waals/kʙ        0.000000e+00 ( 0.000000e+00 +/- 0.000000e+00) [K]
    Van der Waals (Tail)/kʙ 0.000000e+00 ( 0.000000e+00 +/- 0.000000e+00) [K]
    Coulombic Real/kʙ       0.000000e+00 ( 0.000000e+00 +/- 0.000000e+00) [K]
    Coulombic Fourier/kʙ    0.000000e+00 ( 0.000000e+00 +/- 0.000000e+00) [K]
Molecule-molecule
    Van der Waals/kʙ       -2.313085e+03 (-9.958741e+02 +/- 0.000000e+00) [K]
    Van der Waals (Tail)/kʙ-3.737882e+01 (-1.708853e+01 +/- 0.000000e+00) [K]
    Coulombic Real/kʙ      -8.765230e+02 (-2.698821e+02 +/- 0.000000e+00) [K]
    Coulombic Fourier/kʙ   -6.643823e+01 (-2.639464e+01 +/- 0.000000e+00) [K]
    Molecule Intra/kʙ       0.000000e+00 ( 0.000000e+00 +/- 0.000000e+00) [K]

Current cycle: 200 out of 6000
===============================================================================

Box:      33.84406   0.00000   0.00000  Average:  33.82206   0.00000   0.00000
           0.00000  33.84406   0.00000             0.00000  33.82206   0.00000
           0.00000   0.00000  33.84406             0.00000   0.00000  33.82206
Lengths:  33.84406  33.84406  33.84406  Average:  33.82206  33.82206  33.82206
Angles:   90.00000  90.00000  90.00000  Average:  90.00000  90.00000  90.00000
Rectangular boundary conditions

net charge:   0.00000000

component 0 (CO2) lambda:  0 occupancy:  1 (1.000000)
    net charge:   0.00000000 [e]

Amount of molecules per component :
-------------------------------------------------------------------------------
Component 0 (CO2)
    molecules:      2.100000e+01 molecules  (2.007463e+01 +/- 0.000000e+00)
    number density: 5.417162e-04 molec./A^3 (5.187299e-04 +/- 0.000000e+00)
    density:        3.957871e+01 kg/m^3     (3.789929e+01 +/- 0.000000e+00)

Average pressure tensor: 
-------------------------------------------------------------------------------
 1.3816e+01 -8.3819e-01 -1.2461e+00 +/- 0.0000e+00 0.0000e+00 0.0000e+00 [bar]
-8.3819e-01  1.5287e+01  3.6902e-01 +/- 0.0000e+00 0.0000e+00 0.0000e+00 [bar]
-1.2461e+00  3.6902e-01  1.5271e+01 +/- 0.0000e+00 0.0000e+00 0.0000e+00 [bar]
Ideal-gas pressure:   1.718843e+01 +/ 0.000000e+00 [bar]
Excess pressure:     -2.397186e+00 +/ 0.000000e+00 [bar]
Pressure:             1.479124e+01 +/ 0.000000e+00 [bar]

Total potential energy/kʙ  -2.585713e+03 (-1.644230e+03 +/- 0.000000e+00) [K]
-------------------------------------------------------------------------------
ExternalField-molecule
    Van der Waals/kʙ        0.000000e+00 ( 0.000000e+00 +/- 0.000000e+00) [K]
Framework-molecule
    Van der Waals/kʙ        0.000000e+00 ( 0.000000e+00 +/- 0.000000e+00) [K]
    Van der Waals (Tail)/kʙ 0.000000e+00 ( 0.000000e+00 +/- 0.000000e+00) [K]
    Coulombic Real/kʙ       0.000000e+00 ( 0.000000e+00 +/- 0.000000e+00) [K]
    Coulombic Fourier/kʙ    0.000000e+00 ( 0.000000e+00 +/- 0.000000e+00) [K]
Molecule-molecule
    Van der Waals/kʙ       -1.231103e+03 (-1.187005e+03 +/- 0.000000e+00) [K]
    Van der Waals (Tail)/kʙ-2.112649e+01 (-2.065411e+01 +/- 0.000000e+00) [K]
    Coulombic Real/kʙ      -1.257737e+03 (-3.967131e+02 +/- 0.000000e+00) [K]
    Coulombic Fourier/kʙ   -7.574667e+01 (-3.985748e+01 +/- 0.000000e+00) [K]
    Molecule Intra/kʙ       0.000000e+00 ( 0.000000e+00 +/- 0.000000e+00) [K]

Current cycle: 300 out of 6000
===============================================================================

Box:      33.81710   0.00000   0.00000  Average:  33.82973   0.00000   0.00000
           0.00000  33.81710   0.00000             0.00000  33.82973   0.00000
           0.00000   0.00000  33.81710             0.00000   0.00000  33.82973
Lengths:  33.81710  33.81710  33.81710  Average:  33.82973  33.82973  33.82973
Angles:   90.00000  90.00000  90.00000  Average:  90.00000  90.00000  90.00000
Rectangular boundary conditions

net charge:   0.00000000

component 0 (CO2) lambda:  0 occupancy:  1 (1.000000)
    net charge:   0.00000000 [e]

Amount of molecules per component :
-------------------------------------------------------------------------------
Component 0 (CO2)
    molecules:      1.800000e+01 molecules  (1.983721e+01 +/- 0.000000e+00)
    number density: 4.654396e-04 molec./A^3 (5.122487e-04 +/- 0.000000e+00)
    density:        3.400581e+01 kg/m^3     (3.742577e+01 +/- 0.000000e+00)

Average pressure tensor: 
-------------------------------------------------------------------------------
 1.3480e+01 -5.8732e-01 -7.0981e-01 +/- 0.0000e+00 0.0000e+00 0.0000e+00 [bar]
-5.8732e-01  1.4402e+01  5.8276e-01 +/- 0.0000e+00 0.0000e+00 0.0000e+00 [bar]
-7.0981e-01  5.8276e-01  1.5884e+01 +/- 0.0000e+00 0.0000e+00 0.0000e+00 [bar]
Ideal-gas pressure:   1.697367e+01 +/ 0.000000e+00 [bar]
Excess pressure:     -2.384949e+00 +/ 0.000000e+00 [bar]
Pressure:             1.458872e+01 +/ 0.000000e+00 [bar]

Total potential energy/kʙ  -1.768809e+03 (-1.653059e+03 +/- 0.000000e+00) [K]
-------------------------------------------------------------------------------
ExternalField-molecule
    Van der Waals/kʙ        0.000000e+00 ( 0.000000e+00 +/- 0.000000e+00) [K]
Framework-molecule
    Van der Waals/kʙ        0.000000e+00 ( 0.000000e+00 +/- 0.000000e+00) [K]
    Van der Waals (Tail)/kʙ 0.000000e+00 ( 0.000000e+00 +/- 0.000000e+00) [K]
    Coulombic Real/kʙ       0.000000e+00 ( 0.000000e+00 +/- 0.000000e+00) [K]
    Coulombic Fourier/kʙ    0.000000e+00 ( 0.000000e+00 +/- 0.000000e+00) [K]
Molecule-molecule
    Van der Waals/kʙ       -1.454673e+03 (-1.207036e+03 +/- 0.000000e+00) [K]
    Van der Waals (Tail)/kʙ-1.555866e+01 (-1.999464e+01 +/- 0.000000e+00) [K]
    Coulombic Real/kʙ      -3.250090e+02 (-3.918119e+02 +/- 0.000000e+00) [K]
    Coulombic Fourier/kʙ    2.643168e+01 (-3.421608e+01 +/- 0.000000e+00) [K]
    Molecule Intra/kʙ       0.000000e+00 ( 0.000000e+00 +/- 0.000000e+00) [K]

Current cycle: 400 out of 6000
===============================================================================

Box:      33.67047   0.00000   0.00000  Average:  33.80621   0.00000   0.00000
           0.00000  33.67047   0.00000             0.00000  33.80621   0.00000
           0.00000   0.00000  33.67047             0.00000   0.00000  33.80621
Lengths:  33.67047  33.67047  33.67047  Average:  33.80621  33.80621  33.80621
Angles:   90.00000  90.00000  90.00000  Average:  90.00000  90.00000  90.00000
Rectangular boundary conditions

net charge:   0.00000000

component 0 (CO2) lambda:  0 occupancy:  1 (1.000000)
    net charge:   0.00000000 [e]

Amount of molecules per component :
-------------------------------------------------------------------------------
Component 0 (CO2)
    molecules:      1.300000e+01 molecules  (1.910973e+01 +/- 0.000000e+00)
    number density: 3.405616e-04 molec./A^3 (4.943943e-04 +/- 0.000000e+00)
    density:        2.488201e+01 kg/m^3     (3.612130e+01 +/- 0.000000e+00)

Average pressure tensor: 
-------------------------------------------------------------------------------
 1.2935e+01 -2.7369e-01 -1.0640e+00 +/- 0.0000e+00 0.0000e+00 0.0000e+00 [bar]
-2.7369e-01  1.3343e+01  5.9159e-01 +/- 0.0000e+00 0.0000e+00 0.0000e+00 [bar]
-1.0640e+00  5.9159e-01  1.4889e+01 +/- 0.0000e+00 0.0000e+00 0.0000e+00 [bar]
Ideal-gas pressure:   1.638206e+01 +/ 0.000000e+00 [bar]
Excess pressure:     -2.659646e+00 +/ 0.000000e+00 [bar]
Pressure:             1.372241e+01 +/ 0.000000e+00 [bar]

Total potential energy/kʙ  -2.171357e+03 (-1.499726e+03 +/- 0.000000e+00) [K]
-------------------------------------------------------------------------------
ExternalField-molecule
    Van der Waals/kʙ        0.000000e+00 ( 0.000000e+00 +/- 0.000000e+00) [K]
Framework-molecule
    Van der Waals/kʙ        0.000000e+00 ( 0.000000e+00 +/- 0.000000e+00) [K]
    Van der Waals (Tail)/kʙ 0.000000e+00 ( 0.000000e+00 +/- 0.000000e+00) [K]
    Coulombic Real/kʙ       0.000000e+00 ( 0.000000e+00 +/- 0.000000e+00) [K]
    Coulombic Fourier/kʙ    0.000000e+00 ( 0.000000e+00 +/- 0.000000e+00) [K]
Molecule-molecule
    Van der Waals/kʙ       -1.366645e+03 (-1.102655e+03 +/- 0.000000e+00) [K]
    Van der Waals (Tail)/kʙ-8.221957e+00 (-1.848986e+01 +/- 0.000000e+00) [K]
    Coulombic Real/kʙ      -7.322573e+02 (-3.460483e+02 +/- 0.000000e+00) [K]
    Coulombic Fourier/kʙ   -6.423297e+01 (-3.253220e+01 +/- 0.000000e+00) [K]
    Molecule Intra/kʙ       0.000000e+00 ( 0.000000e+00 +/- 0.000000e+00) [K]

Current cycle: 500 out of 6000
===============================================================================

Box:      33.68905   0.00000   0.00000  Average:  33.78517   0.00000   0.00000
           0.00000  33.68905   0.00000             0.00000  33.78517   0.00000
           0.00000   0.00000  33.68905             0.00000   0.00000  33.78517
Lengths:  33.68905  33.68905  33.68905  Average:  33.78517  33.78517  33.78517
Angles:   90.00000  90.00000  90.00000  Average:  90.00000  90.00000  90.00000
Rectangular boundary conditions

net charge:   0.00000000

component 0 (CO2) lambda:  0 occupancy:  1 (1.000000)
    net charge:   0.00000000 [e]

Amount of molecules per component :
-------------------------------------------------------------------------------
Component 0 (CO2)
    molecules:      1.500000e+01 molecules  (1.850898e+01 +/- 0.000000e+00)
    number density: 3.923061e-04 molec./A^3 (4.796761e-04 +/- 0.000000e+00)
    density:        2.866256e+01 kg/m^3     (3.504596e+01 +/- 0.000000e+00)

Average pressure tensor: 
-------------------------------------------------------------------------------
 1.3222e+01  4.9230e-01 -1.1006e+00 +/- 0.0000e+00 0.0000e+00 0.0000e+00 [bar]
 4.9230e-01  1.3287e+01  9.8191e-01 +/- 0.0000e+00 0.0000e+00 0.0000e+00 [bar]
-1.1006e+00  9.8191e-01  1.5749e+01 +/- 0.0000e+00 0.0000e+00 0.0000e+00 [bar]
Ideal-gas pressure:   1.589436e+01 +/ 0.000000e+00 [bar]
Excess pressure:     -1.808510e+00 +/ 0.000000e+00 [bar]
Pressure:             1.408585e+01 +/ 0.000000e+00 [bar]

Total potential energy/kʙ   5.880712e+01 (-1.378190e+03 +/- 0.000000e+00) [K]
-------------------------------------------------------------------------------
ExternalField-molecule
    Van der Waals/kʙ        0.000000e+00 ( 0.000000e+00 +/- 0.000000e+00) [K]
Framework-molecule
    Van der Waals/kʙ        0.000000e+00 ( 0.000000e+00 +/- 0.000000e+00) [K]
    Van der Waals (Tail)/kʙ 0.000000e+00 ( 0.000000e+00 +/- 0.000000e+00) [K]
    Coulombic Real/kʙ       0.000000e+00 ( 0.000000e+00 +/- 0.000000e+00) [K]
    Coulombic Fourier/kʙ    0.000000e+00 ( 0.000000e+00 +/- 0.000000e+00) [K]
Molecule-molecule
    Van der Waals/kʙ        6.047989e+02 (-9.979673e+02 +/- 0.000000e+00) [K]
    Van der Waals (Tail)/kʙ-1.092830e+01 (-1.749792e+01 +/- 0.000000e+00) [K]
    Coulombic Real/kʙ      -4.593393e+02 (-3.347290e+02 +/- 0.000000e+00) [K]
    Coulombic Fourier/kʙ   -7.572410e+01 (-2.799570e+01 +/- 0.000000e+00) [K]
    Molecule Intra/kʙ       0.000000e+00 ( 0.000000e+00 +/- 0.000000e+00) [K]

Current cycle: 600 out of 6000
===============================================================================

Box:      33.75094   0.00000   0.00000  Average:  33.77620   0.00000   0.00000
           0.00000  33.75094   0.00000             0.00000  33.77620   0.00000
           0.00000   0.00000  33.75094             0.00000   0.00000  33.77620
Lengths:  33.75094  33.75094  33.75094  Average:  33.77620  33.77620  33.77620
Angles:   90.00000  90.00000  90.00000  Average:  90.00000  90.00000  90.00000
Rectangular boundary conditions

net charge:   0.00000000

component 0 (CO2) lambda:  0 occupancy:  1 (1.000000)
    net charge:   0.00000000 [e]

Amount of molecules per component :
-------------------------------------------------------------------------------
Component 0 (CO2)
    molecules:      1.900000e+01 molecules  (1.860233e+01 +/- 0.000000e+00)
    number density: 4.941923e-04 molec./A^3 (4.825282e-04 +/- 0.000000e+00)
    density:        3.610654e+01 kg/m^3     (3.525433e+01 +/- 0.000000e+00)

Average pressure tensor: 
-------------------------------------------------------------------------------
 1.3841e+01  5.2660e-01 -1.5030e+00 +/- 0.0000e+00 0.0000e+00 0.0000e+00 [bar]
 5.2660e-01  1.3342e+01  4.6863e-01 +/- 0.0000e+00 0.0000e+00 0.0000e+00 [bar]
-1.5030e+00  4.6863e-01  1.6496e+01 +/- 0.0000e+00 0.0000e+00 0.0000e+00 [bar]
Ideal-gas pressure:   1.598886e+01 +/ 0.000000e+00 [bar]
Excess pressure:     -1.429178e+00 +/ 0.000000e+00 [bar]
Pressure:             1.455969e+01 +/ 0.000000e+00 [bar]

Total potential energy/kʙ  -1.282666e+03 (-1.374018e+03 +/- 0.000000e+00) [K]
-------------------------------------------------------------------------------
ExternalField-molecule
    Van der Waals/kʙ        0.000000e+00 ( 0.000000e+00 +/- 0.000000e+00) [K]
Framework-molecule
    Van der Waals/kʙ        0.000000e+00 ( 0.000000e+00 +/- 0.000000e+00) [K]
    Van der Waals (Tail)/kʙ 0.000000e+00 ( 0.000000e+00 +/- 0.000000e+00) [K]
    Coulombic Real/kʙ       0.000000e+00 ( 0.000000e+00 +/- 0.000000e+00) [K]
    Coulombic Fourier/kʙ    0.000000e+00 ( 0.000000e+00 +/- 0.000000e+00) [K]
Molecule-molecule
    Van der Waals/kʙ       -1.024208e+03 (-1.000681e+03 +/- 0.000000e+00) [K]
    Van der Waals (Tail)/kʙ-1.743756e+01 (-1.748872e+01 +/- 0.000000e+00) [K]
    Coulombic Real/kʙ      -1.856986e+02 (-3.243578e+02 +/- 0.000000e+00) [K]
    Coulombic Fourier/kʙ   -5.532115e+01 (-3.149085e+01 +/- 0.000000e+00) [K]
    Molecule Intra/kʙ       0.000000e+00 ( 0.000000e+00 +/- 0.000000e+00) [K]

Current cycle: 700 out of 6000
===============================================================================

Box:      33.57276   0.00000   0.00000  Average:  33.76562   0.00000   0.00000
           0.00000  33.57276   0.00000             0.00000  33.76562   0.00000
           0.00000   0.00000  33.57276             0.00000   0.00000  33.76562
Lengths:  33.57276  33.57276  33.57276  Average:  33.76562  33.76562  33.76562
Angles:   90.00000  90.00000  90.00000  Average:  90.00000  90.00000  90.00000
Rectangular boundary conditions

net charge:   0.00000000

component 0 (CO2) lambda:  0 occupancy:  1 (1.000000)
    net charge:   0.00000000 [e]

Amount of molecules per component :
-------------------------------------------------------------------------------
Component 0 (CO2)
    molecules:      1.800000e+01 molecules  (1.851641e+01 +/- 0.000000e+00)
    number density: 4.756761e-04 molec./A^3 (4.807610e-04 +/- 0.000000e+00)
    density:        3.475371e+01 kg/m^3     (3.512522e+01 +/- 0.000000e+00)

Average pressure tensor: 
-------------------------------------------------------------------------------
 1.3649e+01  5.6137e-01 -1.2212e+00 +/- 0.0000e+00 0.0000e+00 0.0000e+00 [bar]
 5.6137e-01  1.2866e+01  3.8400e-01 +/- 0.0000e+00 0.0000e+00 0.0000e+00 [bar]
-1.2212e+00  3.8400e-01  1.6020e+01 +/- 0.0000e+00 0.0000e+00 0.0000e+00 [bar]
Ideal-gas pressure:   1.593031e+01 +/ 0.000000e+00 [bar]
Excess pressure:     -1.751924e+00 +/ 0.000000e+00 [bar]
Pressure:             1.417838e+01 +/ 0.000000e+00 [bar]

Total potential energy/kʙ  -1.258817e+03 (-1.344583e+03 +/- 0.000000e+00) [K]
-------------------------------------------------------------------------------
ExternalField-molecule
    Van der Waals/kʙ        0.000000e+00 ( 0.000000e+00 +/- 0.000000e+00) [K]
Framework-molecule
    Van der Waals/kʙ        0.000000e+00 ( 0.000000e+00 +/- 0.000000e+00) [K]
    Van der Waals (Tail)/kʙ 0.000000e+00 ( 0.000000e+00 +/- 0.000000e+00) [K]
    Coulombic Real/kʙ       0.000000e+00 ( 0.000000e+00 +/- 0.000000e+00) [K]
    Coulombic Fourier/kʙ    0.000000e+00 ( 0.000000e+00 +/- 0.000000e+00) [K]
Molecule-molecule
    Van der Waals/kʙ       -8.582682e+02 (-9.823732e+02 +/- 0.000000e+00) [K]
    Van der Waals (Tail)/kʙ-1.590084e+01 (-1.706585e+01 +/- 0.000000e+00) [K]
    Coulombic Real/kʙ      -3.498470e+02 (-3.086657e+02 +/- 0.000000e+00) [K]
    Coulombic Fourier/kʙ   -3.480054e+01 (-3.647817e+01 +/- 0.000000e+00) [K]
    Molecule Intra/kʙ       0.000000e+00 ( 0.000000e+00 +/- 0.000000e+00) [K]

Current cycle: 800 out of 6000
===============================================================================

Box:      33.76872   0.00000   0.00000  Average:  33.75175   0.00000   0.00000
           0.00000  33.76872   0.00000             0.00000  33.75175   0.00000
           0.00000   0.00000  33.76872             0.00000   0.00000  33.75175
Lengths:  33.76872  33.76872  33.76872  Average:  33.75175  33.75175  33.75175
Angles:   90.00000  90.00000  90.00000  Average:  90.00000  90.00000  90.00000
Rectangular boundary conditions

net charge:   0.00000000

component 0 (CO2) lambda:  0 occupancy:  1 (1.000000)
    net charge:   0.00000000 [e]

Amount of molecules per component :
-------------------------------------------------------------------------------
Component 0 (CO2)
    molecules:      1.500000e+01 molecules  (1.792884e+01 +/- 0.000000e+00)
    number density: 3.895358e-04 molec./A^3 (4.659674e-04 +/- 0.000000e+00)
    density:        2.846015e+01 kg/m^3     (3.404438e+01 +/- 0.000000e+00)

Average pressure tensor: 
-------------------------------------------------------------------------------
 1.3193e+01  5.3579e-01 -1.0839e+00 +/- 0.0000e+00 0.0000e+00 0.0000e+00 [bar]
 5.3579e-01  1.2348e+01  3.7614e-01 +/- 0.0000e+00 0.0000e+00 0.0000e+00 [bar]
-1.0839e+00  3.7614e-01  1.5158e+01 +/- 0.0000e+00 0.0000e+00 0.0000e+00 [bar]
Ideal-gas pressure:   1.544011e+01 +/ 0.000000e+00 [bar]
Excess pressure:     -1.873756e+00 +/ 0.000000e+00 [bar]
Pressure:             1.356636e+01 +/ 0.000000e+00 [bar]

Total potential energy/kʙ  -4.364393e+02 (-1.262616e+03 +/- 0.000000e+00) [K]
-------------------------------------------------------------------------------
ExternalField-molecule
    Van der Waals/kʙ        0.000000e+00 ( 0.000000e+00 +/- 0.000000e+00) [K]
Framework-molecule
    Van der Waals/kʙ        0.000000e+00 ( 0.000000e+00 +/- 0.000000e+00) [K]
    Van der Waals (Tail)/kʙ 0.000000e+00 ( 0.000000e+00 +/- 0.000000e+00) [K]
    Coulombic Real/kʙ       0.000000e+00 ( 0.000000e+00 +/- 0.000000e+00) [K]
    Coulombic Fourier/kʙ    0.000000e+00 ( 0.000000e+00 +/- 0.000000e+00) [K]
Molecule-molecule
    Van der Waals/kʙ       -2.645860e+02 (-9.311887e+02 +/- 0.000000e+00) [K]
    Van der Waals (Tail)/kʙ-1.085113e+01 (-1.611520e+01 +/- 0.000000e+00) [K]
    Coulombic Real/kʙ      -1.599094e+02 (-2.835414e+02 +/- 0.000000e+00) [K]
    Coulombic Fourier/kʙ   -1.092819e+00 (-3.177071e+01 +/- 0.000000e+00) [K]
    Molecule Intra/kʙ       0.000000e+00 ( 0.000000e+00 +/- 0.000000e+00) [K]

Current cycle: 900 out of 6000
===============================================================================

Box:      33.75181   0.00000   0.00000  Average:  33.74248   0.00000   0.00000
           0.00000  33.75181   0.00000             0.00000  33.74248   0.00000
           0.00000   0.00000  33.75181             0.00000   0.00000  33.74248
Lengths:  33.75181  33.75181  33.75181  Average:  33.74248  33.74248  33.74248
Angles:   90.00000  90.00000  90.00000  Average:  90.00000  90.00000  90.00000
Rectangular boundary conditions

net charge:   0.00000000

component 0 (CO2) lambda:  0 occupancy:  1 (1.000000)
    net charge:   0.00000000 [e]

Amount of molecules per component :
-------------------------------------------------------------------------------
Component 0 (CO2)
    molecules:      1.700000e+01 molecules  (1.777691e+01 +/- 0.000000e+00)
    number density: 4.421378e-04 molec./A^3 (4.624140e-04 +/- 0.000000e+00)
    density:        3.230335e+01 kg/m^3     (3.378476e+01 +/- 0.000000e+00)

Average pressure tensor: 
-------------------------------------------------------------------------------
 1.2937e+01  3.1676e-01 -8.7933e-01 +/- 0.0000e+00 0.0000e+00 0.0000e+00 [bar]
 3.1676e-01  1.2855e+01  3.3553e-01 +/- 0.0000e+00 0.0000e+00 0.0000e+00 [bar]
-8.7933e-01  3.3553e-01  1.4688e+01 +/- 0.0000e+00 0.0000e+00 0.0000e+00 [bar]
Ideal-gas pressure:   1.532237e+01 +/ 0.000000e+00 [bar]
Excess pressure:     -1.829237e+00 +/ 0.000000e+00 [bar]
Pressure:             1.349313e+01 +/ 0.000000e+00 [bar]

Total potential energy/kʙ  -1.036087e+03 (-1.276534e+03 +/- 0.000000e+00) [K]
-------------------------------------------------------------------------------
ExternalField-molecule
    Van der Waals/kʙ        0.000000e+00 ( 0.000000e+00 +/- 0.000000e+00) [K]
Framework-molecule
    Van der Waals/kʙ        0.000000e+00 ( 0.000000e+00 +/- 0.000000e+00) [K]
    Van der Waals (Tail)/kʙ 0.000000e+00 ( 0.000000e+00 +/- 0.000000e+00) [K]
    Coulombic Real/kʙ       0.000000e+00 ( 0.000000e+00 +/- 0.000000e+00) [K]
    Coulombic Fourier/kʙ    0.000000e+00 ( 0.000000e+00 +/- 0.000000e+00) [K]
Molecule-molecule
    Van der Waals/kʙ       -3.497642e+02 (-9.382362e+02 +/- 0.000000e+00) [K]
    Van der Waals (Tail)/kʙ-1.395863e+01 (-1.590735e+01 +/- 0.000000e+00) [K]
    Coulombic Real/kʙ      -5.803826e+02 (-2.884205e+02 +/- 0.000000e+00) [K]
    Coulombic Fourier/kʙ   -9.198186e+01 (-3.397024e+01 +/- 0.000000e+00) [K]
    Molecule Intra/kʙ       0.000000e+00 ( 0.000000e+00 +/- 0.000000e+00) [K]

Current cycle: 1000 out of 6000
===============================================================================

Box:      33.72287   0.00000   0.00000  Average:  33.74164   0.00000   0.00000
           0.00000  33.72287   0.00000             0.00000  33.74164   0.00000
           0.00000   0.00000  33.72287             0.00000   0.00000  33.74164
Lengths:  33.72287  33.72287  33.72287  Average:  33.74164  33.74164  33.74164
Angles:   90.00000  90.00000  90.00000  Average:  90.00000  90.00000  90.00000
Rectangular boundary conditions

net charge:   0.00000000

component 0 (CO2) lambda:  0 occupancy:  1 (1.000000)
    net charge:   0.00000000 [e]

Amount of molecules per component :
-------------------------------------------------------------------------------
Component 0 (CO2)
    molecules:      1.200000e+01 molecules  (1.735864e+01 +/- 0.000000e+00)
    number density: 3.129016e-04 molec./A^3 (4.515862e-04 +/- 0.000000e+00)
    density:        2.286113e+01 kg/m^3     (3.299366e+01 +/- 0.000000e+00)

Average pressure tensor: 
-------------------------------------------------------------------------------
 1.2744e+01  3.7443e-01 -9.3212e-01 +/- 0.0000e+00 0.0000e+00 0.0000e+00 [bar]
 3.7443e-01  1.2547e+01  1.7810e-01 +/- 0.0000e+00 0.0000e+00 0.0000e+00 [bar]
-9.3212e-01  1.7810e-01  1.4335e+01 +/- 0.0000e+00 0.0000e+00 0.0000e+00 [bar]
Ideal-gas pressure:   1.496358e+01 +/ 0.000000e+00 [bar]
Excess pressure:     -1.755081e+00 +/ 0.000000e+00 [bar]
Pressure:             1.320850e+01 +/ 0.000000e+00 [bar]

Total potential energy/kʙ  -1.143082e+02 (-1.201470e+03 +/- 0.000000e+00) [K]
-------------------------------------------------------------------------------
ExternalField-molecule
    Van der Waals/kʙ        0.000000e+00 ( 0.000000e+00 +/- 0.000000e+00) [K]
Framework-molecule
    Van der Waals/kʙ        0.000000e+00 ( 0.000000e+00 +/- 0.000000e+00) [K]
    Van der Waals (Tail)/kʙ 0.000000e+00 ( 0.000000e+00 +/- 0.000000e+00) [K]
    Coulombic Real/kʙ       0.000000e+00 ( 0.000000e+00 +/- 0.000000e+00) [K]
    Coulombic Fourier/kʙ    0.000000e+00 ( 0.000000e+00 +/- 0.000000e+00) [K]
Molecule-molecule
    Van der Waals/kʙ       -1.227536e+02 (-8.811604e+02 +/- 0.000000e+00) [K]
    Van der Waals (Tail)/kʙ-6.973090e+00 (-1.517898e+01 +/- 0.000000e+00) [K]
    Coulombic Real/kʙ       5.258462e+01 (-2.714480e+02 +/- 0.000000e+00) [K]
    Coulombic Fourier/kʙ   -3.716617e+01 (-3.368277e+01 +/- 0.000000e+00) [K]
    Molecule Intra/kʙ       0.000000e+00 ( 0.000000e+00 +/- 0.000000e+00) [K]

Current cycle: 1100 out of 6000
===============================================================================

Box:      33.62762   0.00000   0.00000  Average:  33.73707   0.00000   0.00000
           0.00000  33.62762   0.00000             0.00000  33.73707   0.00000
           0.00000   0.00000  33.62762             0.00000   0.00000  33.73707
Lengths:  33.62762  33.62762  33.62762  Average:  33.73707  33.73707  33.73707
Angles:   90.00000  90.00000  90.00000  Average:  90.00000  90.00000  90.00000
Rectangular boundary conditions

net charge:   0.00000000

component 0 (CO2) lambda:  0 occupancy:  1 (1.000000)
    net charge:   0.00000000 [e]

Amount of molecules per component :
-------------------------------------------------------------------------------
Component 0 (CO2)
    molecules:      9.000000e+00 molecules  (1.697820e+01 +/- 0.000000e+00)
    number density: 2.366759e-04 molec./A^3 (4.418472e-04 +/- 0.000000e+00)
    density:        1.729195e+01 kg/m^3     (3.228211e+01 +/- 0.000000e+00)

Average pressure tensor: 
-------------------------------------------------------------------------------
 1.2407e+01  3.6138e-01 -8.1704e-01 +/- 0.0000e+00 0.0000e+00 0.0000e+00 [bar]
 3.6138e-01  1.2203e+01  1.8159e-01 +/- 0.0000e+00 0.0000e+00 0.0000e+00 [bar]
-8.1704e-01  1.8159e-01  1.3840e+01 +/- 0.0000e+00 0.0000e+00 0.0000e+00 [bar]
Ideal-gas pressure:   1.464088e+01 +/ 0.000000e+00 [bar]
Excess pressure:     -1.824226e+00 +/ 0.000000e+00 [bar]
Pressure:             1.281665e+01 +/ 0.000000e+00 [bar]

Total potential energy/kʙ  -1.180780e+02 (-1.158683e+03 +/- 0.000000e+00) [K]
-------------------------------------------------------------------------------
ExternalField-molecule
    Van der Waals/kʙ        0.000000e+00 ( 0.000000e+00 +/- 0.000000e+00) [K]
Framework-molecule
    Van der Waals/kʙ        0.000000e+00 ( 0.000000e+00 +/- 0.000000e+00) [K]
    Van der Waals (Tail)/kʙ 0.000000e+00 ( 0.000000e+00 +/- 0.000000e+00) [K]
    Coulombic Real/kʙ       0.000000e+00 ( 0.000000e+00 +/- 0.000000e+00) [K]
    Coulombic Fourier/kʙ    0.000000e+00 ( 0.000000e+00 +/- 0.000000e+00) [K]
Molecule-molecule
    Van der Waals/kʙ       -1.815242e+02 (-8.476977e+02 +/- 0.000000e+00) [K]
    Van der Waals (Tail)/kʙ-3.955786e+00 (-1.455167e+01 +/- 0.000000e+00) [K]
    Coulombic Real/kʙ       1.084775e+02 (-2.647079e+02 +/- 0.000000e+00) [K]
    Coulombic Fourier/kʙ   -4.107551e+01 (-3.172586e+01 +/- 0.000000e+00) [K]
    Molecule Intra/kʙ       0.000000e+00 ( 0.000000e+00 +/- 0.000000e+00) [K]

Current cycle: 1200 out of 6000
===============================================================================

Box:      33.72753   0.00000   0.00000  Average:  33.73247   0.00000   0.00000
           0.00000  33.72753   0.00000             0.00000  33.73247   0.00000
           0.00000   0.00000  33.72753             0.00000   0.00000  33.73247
Lengths:  33.72753  33.72753  33.72753  Average:  33.73247  33.73247  33.73247
Angles:   90.00000  90.00000  90.00000  Average:  90.00000  90.00000  90.00000
Rectangular boundary conditions

net charge:   0.00000000

component 0 (CO2) lambda:  0 occupancy:  1 (1.000000)
    net charge:   0.00000000 [e]

Amount of molecules per component :
-------------------------------------------------------------------------------
Component 0 (CO2)
    molecules:      1.300000e+01 molecules  (1.688593e+01 +/- 0.000000e+00)
    number density: 3.388360e-04 molec./A^3 (4.396203e-04 +/- 0.000000e+00)
    density:        2.475594e+01 kg/m^3     (3.211941e+01 +/- 0.000000e+00)

Average pressure tensor: 
-------------------------------------------------------------------------------
 1.2236e+01  4.6598e-01 -7.5276e-01 +/- 0.0000e+00 0.0000e+00 0.0000e+00 [bar]
 4.6598e-01  1.2206e+01  1.0465e-01 +/- 0.0000e+00 0.0000e+00 0.0000e+00 [bar]
-7.5276e-01  1.0465e-01  1.3777e+01 +/- 0.0000e+00 0.0000e+00 0.0000e+00 [bar]
Ideal-gas pressure:   1.456709e+01 +/ 0.000000e+00 [bar]
Excess pressure:     -1.827591e+00 +/ 0.000000e+00 [bar]
Pressure:             1.273949e+01 +/ 0.000000e+00 [bar]

Total potential energy/kʙ  -1.309231e+02 (-1.179933e+03 +/- 0.000000e+00) [K]
-------------------------------------------------------------------------------
ExternalField-molecule
    Van der Waals/kʙ        0.000000e+00 ( 0.000000e+00 +/- 0.000000e+00) [K]
Framework-molecule
    Van der Waals/kʙ        0.000000e+00 ( 0.000000e+00 +/- 0.000000e+00) [K]
    Van der Waals (Tail)/kʙ 0.000000e+00 ( 0.000000e+00 +/- 0.000000e+00) [K]
    Coulombic Real/kʙ       0.000000e+00 ( 0.000000e+00 +/- 0.000000e+00) [K]
    Coulombic Fourier/kʙ    0.000000e+00 ( 0.000000e+00 +/- 0.000000e+00) [K]
Molecule-molecule
    Van der Waals/kʙ       -2.538152e+02 (-8.556269e+02 +/- 0.000000e+00) [K]
    Van der Waals (Tail)/kʙ-8.180299e+00 (-1.448564e+01 +/- 0.000000e+00) [K]
    Coulombic Real/kʙ       1.328867e+02 (-2.777044e+02 +/- 0.000000e+00) [K]
    Coulombic Fourier/kʙ   -1.814300e+00 (-3.211648e+01 +/- 0.000000e+00) [K]
    Molecule Intra/kʙ       0.000000e+00 ( 0.000000e+00 +/- 0.000000e+00) [K]

Current cycle: 1300 out of 6000
===============================================================================

Box:      33.67440   0.00000   0.00000  Average:  33.73248   0.00000   0.00000
           0.00000  33.67440   0.00000             0.00000  33.73248   0.00000
           0.00000   0.00000  33.67440             0.00000   0.00000  33.73248
Lengths:  33.67440  33.67440  33.67440  Average:  33.73248  33.73248  33.73248
Angles:   90.00000  90.00000  90.00000  Average:  90.00000  90.00000  90.00000
Rectangular boundary conditions

net charge:   0.00000000

component 0 (CO2) lambda:  0 occupancy:  1 (1.000000)
    net charge:   0.00000000 [e]

Amount of molecules per component :
-------------------------------------------------------------------------------
Component 0 (CO2)
    molecules:      1.600000e+01 molecules  (1.694312e+01 +/- 0.000000e+00)
    number density: 4.190060e-04 molec./A^3 (4.411403e-04 +/- 0.000000e+00)
    density:        3.061330e+01 kg/m^3     (3.223046e+01 +/- 0.000000e+00)

Average pressure tensor: 
-------------------------------------------------------------------------------
 1.2116e+01  4.7833e-01 -7.2138e-01 +/- 0.0000e+00 0.0000e+00 0.0000e+00 [bar]
 4.7833e-01  1.2297e+01  1.2885e-01 +/- 0.0000e+00 0.0000e+00 0.0000e+00 [bar]
-7.2138e-01  1.2885e-01  1.3721e+01 +/- 0.0000e+00 0.0000e+00 0.0000e+00 [bar]
Ideal-gas pressure:   1.461745e+01 +/ 0.000000e+00 [bar]
Excess pressure:     -1.906215e+00 +/ 0.000000e+00 [bar]
Pressure:             1.271124e+01 +/ 0.000000e+00 [bar]

Total potential energy/kʙ  -1.057720e+03 (-1.189660e+03 +/- 0.000000e+00) [K]
-------------------------------------------------------------------------------
ExternalField-molecule
    Van der Waals/kʙ        0.000000e+00 ( 0.000000e+00 +/- 0.000000e+00) [K]
Framework-molecule
    Van der Waals/kʙ        0.000000e+00 ( 0.000000e+00 +/- 0.000000e+00) [K]
    Van der Waals (Tail)/kʙ 0.000000e+00 ( 0.000000e+00 +/- 0.000000e+00) [K]
    Coulombic Real/kʙ       0.000000e+00 ( 0.000000e+00 +/- 0.000000e+00) [K]
    Coulombic Fourier/kʙ    0.000000e+00 ( 0.000000e+00 +/- 0.000000e+00) [K]
Molecule-molecule
    Van der Waals/kʙ       -1.000474e+03 (-8.591277e+02 +/- 0.000000e+00) [K]
    Van der Waals (Tail)/kʙ-1.245020e+01 (-1.458201e+01 +/- 0.000000e+00) [K]
    Coulombic Real/kʙ      -8.281837e+01 (-2.850676e+02 +/- 0.000000e+00) [K]
    Coulombic Fourier/kʙ    3.802269e+01 (-3.088231e+01 +/- 0.000000e+00) [K]
    Molecule Intra/kʙ       0.000000e+00 ( 0.000000e+00 +/- 0.000000e+00) [K]

Current cycle: 1400 out of 6000
===============================================================================

Box:      33.76602   0.00000   0.00000  Average:  33.73254   0.00000   0.00000
           0.00000  33.76602   0.00000             0.00000  33.73254   0.00000
           0.00000   0.00000  33.76602             0.00000   0.00000  33.73254
Lengths:  33.76602  33.76602  33.76602  Average:  33.73254  33.73254  33.73254
Angles:   90.00000  90.00000  90.00000  Average:  90.00000  90.00000  90.00000
Rectangular boundary conditions

net charge:   0.00000000

component 0 (CO2) lambda:  0 occupancy:  1 (1.000000)
    net charge:   0.00000000 [e]

Amount of molecules per component :
-------------------------------------------------------------------------------
Component 0 (CO2)
    molecules:      1.500000e+01 molecules  (1.713990e+01 +/- 0.000000e+00)
    number density: 3.896293e-04 molec./A^3 (4.462852e-04 +/- 0.000000e+00)
    density:        2.846698e+01 kg/m^3     (3.260636e+01 +/- 0.000000e+00)

Average pressure tensor: 
-------------------------------------------------------------------------------
 1.2220e+01  4.3734e-01 -7.4439e-01 +/- 0.0000e+00 0.0000e+00 0.0000e+00 [bar]
 4.3734e-01  1.2634e+01 -5.3541e-02 +/- 0.0000e+00 0.0000e+00 0.0000e+00 [bar]
-7.4439e-01 -5.3541e-02  1.3833e+01 +/- 0.0000e+00 0.0000e+00 0.0000e+00 [bar]
Ideal-gas pressure:   1.478793e+01 +/ 0.000000e+00 [bar]
Excess pressure:     -1.892360e+00 +/ 0.000000e+00 [bar]
Pressure:             1.289557e+01 +/ 0.000000e+00 [bar]

Total potential energy/kʙ  -2.013642e+02 (-1.211402e+03 +/- 0.000000e+00) [K]
-------------------------------------------------------------------------------
ExternalField-molecule
    Van der Waals/kʙ        0.000000e+00 ( 0.000000e+00 +/- 0.000000e+00) [K]
Framework-molecule
    Van der Waals/kʙ        0.000000e+00 ( 0.000000e+00 +/- 0.000000e+00) [K]
    Van der Waals (Tail)/kʙ 0.000000e+00 ( 0.000000e+00 +/- 0.000000e+00) [K]
    Coulombic Real/kʙ       0.000000e+00 ( 0.000000e+00 +/- 0.000000e+00) [K]
    Coulombic Fourier/kʙ    0.000000e+00 ( 0.000000e+00 +/- 0.000000e+00) [K]
Molecule-molecule
    Van der Waals/kʙ       -3.038376e+02 (-8.741031e+02 +/- 0.000000e+00) [K]
    Van der Waals (Tail)/kʙ-1.085373e+01 (-1.486350e+01 +/- 0.000000e+00) [K]
    Coulombic Real/kʙ       9.349550e+01 (-2.892946e+02 +/- 0.000000e+00) [K]
    Coulombic Fourier/kʙ    1.983160e+01 (-3.314108e+01 +/- 0.000000e+00) [K]
    Molecule Intra/kʙ       0.000000e+00 ( 0.000000e+00 +/- 0.000000e+00) [K]

Current cycle: 1500 out of 6000
===============================================================================

Box:      33.83603   0.00000   0.00000  Average:  33.73324   0.00000   0.00000
           0.00000  33.83603   0.00000             0.00000  33.73324   0.00000
           0.00000   0.00000  33.83603             0.00000   0.00000  33.73324
[...]
    number density: 4.681244e-04 molec./A^3 (4.109790e-04 +/- 6.005550e-05)
    density:        3.420197e+01 kg/m^3     (3.002683e+01 +/- 4.387758e+00)

Average pressure tensor: 
-------------------------------------------------------------------------------
 1.2358e+01  1.1847e-01 -4.4004e-01 +/- 1.0958e+00 6.1705e-01 5.2356e-01 [bar]
 1.1847e-01  1.1833e+01  1.3048e-01 +/- 6.1705e-01 1.4718e+00 6.3077e-01 [bar]
-4.4004e-01  1.3048e-01  1.2398e+01 +/- 5.2356e-01 6.3077e-01 2.3978e+00 [bar]
Ideal-gas pressure:   1.361804e+01 +/ 1.989976e+00 [bar]
Excess pressure:     -1.421869e+00 +/ 7.422619e-01 [bar]
Pressure:             1.219617e+01 +/ 1.579044e+00 [bar]

Total potential energy/kʙ  -1.241164e+03 (-1.097446e+03 +/- 2.849841e+02) [K]
-------------------------------------------------------------------------------
ExternalField-molecule
    Van der Waals/kʙ        0.000000e+00 ( 0.000000e+00 +/- 0.000000e+00) [K]
Framework-molecule
    Van der Waals/kʙ        0.000000e+00 ( 0.000000e+00 +/- 0.000000e+00) [K]
    Van der Waals (Tail)/kʙ 0.000000e+00 ( 0.000000e+00 +/- 0.000000e+00) [K]
    Coulombic Real/kʙ       0.000000e+00 ( 0.000000e+00 +/- 0.000000e+00) [K]
    Coulombic Fourier/kʙ    0.000000e+00 ( 0.000000e+00 +/- 0.000000e+00) [K]
Molecule-molecule
    Van der Waals/kʙ       -8.418920e+02 (-7.883863e+02 +/- 2.010933e+02) [K]
    Van der Waals (Tail)/kʙ-1.564840e+01 (-1.307160e+01 +/- 3.289465e+00) [K]
    Coulombic Real/kʙ      -3.327577e+02 (-2.718016e+02 +/- 7.465081e+01) [K]
    Coulombic Fourier/kʙ   -5.086619e+01 (-2.418675e+01 +/- 8.949566e+00) [K]
    Molecule Intra/kʙ       0.000000e+00 ( 0.000000e+00 +/- 0.000000e+00) [K]

Current cycle: 5800 out of 6000
===============================================================================

Box:      33.67253   0.00000   0.00000  Average:  33.70347   0.00000   0.00000
           0.00000  33.67253   0.00000             0.00000  33.70347   0.00000
           0.00000   0.00000  33.67253             0.00000   0.00000  33.70347
Lengths:  33.67253  33.67253  33.67253  Average:  33.70347  33.70347  33.70347
Angles:   90.00000  90.00000  90.00000  Average:  90.00000  90.00000  90.00000
Rectangular boundary conditions

net charge:   0.00000000

component 0 (CO2) lambda:  0 occupancy:  1 (1.000000)
    net charge:   0.00000000 [e]

Amount of molecules per component :
-------------------------------------------------------------------------------
Component 0 (CO2)
    molecules:      1.700000e+01 molecules  (1.572453e+01 +/- 2.418269e+00)
    number density: 4.452680e-04 molec./A^3 (4.099208e-04 +/- 5.978758e-05)
    density:        3.253204e+01 kg/m^3     (2.994951e+01 +/- 4.368183e+00)

Average pressure tensor: 
-------------------------------------------------------------------------------
 1.2354e+01  1.1333e-01 -4.2007e-01 +/- 1.0595e+00 6.0448e-01 5.4675e-01 [bar]
 1.1333e-01  1.1809e+01  1.3562e-01 +/- 6.0448e-01 1.4842e+00 6.3203e-01 [bar]
-4.2007e-01  1.3562e-01  1.2357e+01 +/- 5.4675e-01 6.3203e-01 2.4137e+00 [bar]
Ideal-gas pressure:   1.358297e+01 +/ 1.981098e+00 [bar]
Excess pressure:     -1.409672e+00 +/ 7.263616e-01 [bar]
Pressure:             1.217330e+01 +/ 1.581869e+00 [bar]

Total potential energy/kʙ  -1.299858e+03 (-1.093979e+03 +/- 2.771500e+02) [K]
-------------------------------------------------------------------------------
ExternalField-molecule
    Van der Waals/kʙ        0.000000e+00 ( 0.000000e+00 +/- 0.000000e+00) [K]
Framework-molecule
    Van der Waals/kʙ        0.000000e+00 ( 0.000000e+00 +/- 0.000000e+00) [K]
    Van der Waals (Tail)/kʙ 0.000000e+00 ( 0.000000e+00 +/- 0.000000e+00) [K]
    Coulombic Real/kʙ       0.000000e+00 ( 0.000000e+00 +/- 0.000000e+00) [K]
    Coulombic Fourier/kʙ    0.000000e+00 ( 0.000000e+00 +/- 0.000000e+00) [K]
Molecule-molecule
    Van der Waals/kʙ       -7.740494e+02 (-7.837694e+02 +/- 2.014923e+02) [K]
    Van der Waals (Tail)/kʙ-1.405745e+01 (-1.299419e+01 +/- 3.315942e+00) [K]
    Coulombic Real/kʙ      -5.249039e+02 (-2.731803e+02 +/- 6.663505e+01) [K]
    Coulombic Fourier/kʙ    1.315238e+01 (-2.403564e+01 +/- 8.844405e+00) [K]
    Molecule Intra/kʙ       0.000000e+00 ( 0.000000e+00 +/- 0.000000e+00) [K]

Current cycle: 5900 out of 6000
===============================================================================

Box:      33.72521   0.00000   0.00000  Average:  33.70332   0.00000   0.00000
           0.00000  33.72521   0.00000             0.00000  33.70332   0.00000
           0.00000   0.00000  33.72521             0.00000   0.00000  33.70332
Lengths:  33.72521  33.72521  33.72521  Average:  33.70332  33.70332  33.70332
Angles:   90.00000  90.00000  90.00000  Average:  90.00000  90.00000  90.00000
Rectangular boundary conditions

net charge:   0.00000000

component 0 (CO2) lambda:  0 occupancy:  1 (1.000000)
    net charge:   0.00000000 [e]

Amount of molecules per component :
-------------------------------------------------------------------------------
Component 0 (CO2)
    molecules:      1.100000e+01 molecules  (1.565972e+01 +/- 2.461547e+00)
    number density: 2.867668e-04 molec./A^3 (4.082441e-04 +/- 6.101021e-05)
    density:        2.095167e+01 kg/m^3     (2.982701e+01 +/- 4.457510e+00)

Average pressure tensor: 
-------------------------------------------------------------------------------
 1.2329e+01  1.3656e-01 -3.9827e-01 +/- 1.0734e+00 5.4547e-01 5.7223e-01 [bar]
 1.3656e-01  1.1828e+01  1.4192e-01 +/- 5.4547e-01 1.4538e+00 6.3378e-01 [bar]
-3.9827e-01  1.4192e-01  1.2302e+01 +/- 5.7223e-01 6.3378e-01 2.4503e+00 [bar]
Ideal-gas pressure:   1.352742e+01 +/ 2.021610e+00 [bar]
Excess pressure:     -1.374251e+00 +/ 7.764361e-01 [bar]
Pressure:             1.215316e+01 +/ 1.581573e+00 [bar]

Total potential energy/kʙ  -1.562359e+02 (-1.081648e+03 +/- 2.931051e+02) [K]
-------------------------------------------------------------------------------
ExternalField-molecule
    Van der Waals/kʙ        0.000000e+00 ( 0.000000e+00 +/- 0.000000e+00) [K]
Framework-molecule
    Van der Waals/kʙ        0.000000e+00 ( 0.000000e+00 +/- 0.000000e+00) [K]
    Van der Waals (Tail)/kʙ 0.000000e+00 ( 0.000000e+00 +/- 0.000000e+00) [K]
    Coulombic Real/kʙ       0.000000e+00 ( 0.000000e+00 +/- 0.000000e+00) [K]
    Coulombic Fourier/kʙ    0.000000e+00 ( 0.000000e+00 +/- 0.000000e+00) [K]
Molecule-molecule
    Van der Waals/kʙ       -1.444085e+02 (-7.751728e+02 +/- 2.121690e+02) [K]
    Van der Waals (Tail)/kʙ-5.858113e+00 (-1.289694e+01 +/- 3.389938e+00) [K]
    Coulombic Real/kʙ       1.244441e+01 (-2.697571e+02 +/- 7.157727e+01) [K]
    Coulombic Fourier/kʙ   -1.841367e+01 (-2.382119e+01 +/- 8.924327e+00) [K]
    Molecule Intra/kʙ       0.000000e+00 ( 0.000000e+00 +/- 0.000000e+00) [K]


Energy statistics             |  Energy [K]   | Recomputed [K]|  Drift [K]    |
===============================================================================
Total potential energy/kʙ     | -2.930827e+02 | -2.904000e+02 | -2.682646e+00 |
    external field VDW/kʙ     |  0.000000e+00 |  0.000000e+00 |  0.000000e+00 |
    external field Real/kʙ    |  0.000000e+00 |  0.000000e+00 |  0.000000e+00 |
    framework-molecule VDW/kʙ |  0.000000e+00 |  0.000000e+00 |  0.000000e+00 |
    framework-molecule Real/kʙ|  0.000000e+00 |  0.000000e+00 |  0.000000e+00 |
    molecule-molecule VDW/kʙ  | -1.879165e+02 | -1.854695e+02 | -2.447029e+00 |
    molecule-molecule Real/kʙ | -9.385683e+01 | -9.362121e+01 | -2.356168e-01 |
    Van der Waals (Tail)/kʙ   | -5.894676e+00 | -5.894676e+00 | -2.136468e-15 |
    Ewald Fourier/kʙ          |  6.414474e+02 |  6.414474e+02 |  1.914275e-12 |
    Ewald self/kʙ             | -2.020346e+05 | -2.020346e+05 |  0.000000e+00 |
    Ewald exclusion/kʙ        |  2.013877e+05 |  2.013877e+05 |  3.500388e-11 |
    intra VDW/kʙ              |  0.000000e+00 |  0.000000e+00 |  0.000000e+00 |
    intra Coulombic/kʙ        |  0.000000e+00 |  0.000000e+00 |  0.000000e+00 |
    polarization/kʙ           |  0.000000e+00 |  0.000000e+00 |  0.000000e+00 |
    dU/dlambda VDW/kʙ         |  0.000000e+00 |  0.000000e+00 |  0.000000e+00 |
    dU/dlambda Real/kʙ        |  0.000000e+00 |  0.000000e+00 |  0.000000e+00 |
    dU/dlambda Ewald/kʙ       |  0.000000e+00 |  0.000000e+00 |  0.000000e+00 |
-------------------------------------------------------------------------------


Monte-Carlo moves statistics
===============================================================================

    Gibbs volume         all:                3077
    Gibbs volume         total:              6106
    Gibbs volume         constructed:        6106
    Gibbs volume         accepted:           3906
    Gibbs volume         fraction:       0.639699
    Gibbs volume         max-change:     0.032769

Component 0 [CO2]
    Reinsertion (CBMC)   all:              149400
    Reinsertion (CBMC)   total:            149400
    Reinsertion (CBMC)   constructed:      149400
    Reinsertion (CBMC)   accepted:         116898
    Reinsertion (CBMC)   fraction:       0.782450
    Reinsertion (CBMC)   max-change:     0.000000

    Gibbs swap (CBMC)    all:              298162
    Gibbs swap (CBMC)    total:            597237
    Gibbs swap (CBMC)    constructed:      552641
    Gibbs swap (CBMC)    accepted:          23722
    Gibbs swap (CBMC)    fraction:       0.039720
    Gibbs swap (CBMC)    max-change:     0.000000

    Translation          all:              149387
    Translation          total:             49682      49790      49915
    Translation          constructed:       49630      49748      49853
    Translation          accepted:          44823      45007      45211
    Translation          fraction:       0.902198   0.903937   0.905760
    Translation          max-change:     1.500000   1.500000   1.500000

    Rotation             all:              149762
    Rotation             total:             50103      49652      50007
    Rotation             constructed:       50091      49646      49998
    Rotation             accepted:          45009      44630      44866
    Rotation             fraction:       0.898329   0.898856   0.897194
    Rotation             max-change:     1.500000   1.500000   1.500000



Production run counting of the MC moves summed over systems and components
===============================================================================

Reinsertion (CBMC)                   298700 (19.9133 [%])
Gibbs volume                           6106 (0.4071 [%])
Gibbs swap (CBMC)                    597237 (39.8158 [%])
Translation                          298254 (19.8836 [%])
Rotation                             299703 (19.9802 [%])

Production count MC-steps:          1500000 [-]
               All summed:          1500000 [-]
               difference:                0 [-]


Production run CPU timings of the MC moves
===============================================================================

Component 0 CO2

Rotation                              4.129847 [s]
    Ewald                             3.360217 [s]
    ExternalField-Molecule            0.005206 [s]
    Framework-Molecule                0.005584 [s]
    Molecule-Molecule                 0.396653 [s]
    Overhead                          0.362187 [s]

Reinsertion (CBMC)                    8.759979 [s]
    Ewald                             3.368083 [s]
    NonEwald                          5.095148 [s]
    Overhead                          0.296748 [s]

Translation                           4.119152 [s]
    Ewald                             3.347404 [s]
    ExternalField-Molecule            0.005206 [s]
    Framework-Molecule                0.008357 [s]
    Molecule-Molecule                 0.399144 [s]
    Overhead                          0.359041 [s]



Gibbs swap (CBMC)                   119.593112 [s]
    Ewald                            13.093591 [s]
    NonEwald                        105.220652 [s]
    Tail                              0.952442 [s]

Gibbs volume                         16.447305 [s]
    Ewald                             4.193140 [s]
    NonEwald                         11.707027 [s]
    Tail                              0.460119 [s]

Property sampling                     0.223595 [s]
Energy/pressure sampling:             0.202897 [s]


Production run CPU timings of the MC moves summed over systems and components
===============================================================================


Translation                          18.126289 [s]
    Ewald                             8.066258 [s]
    ExternalField-Molecule            0.010260 [s]
    Framework-Molecule                0.016579 [s]
    Molecule-Molecule                 9.405518 [s]
    Overhead                          0.627674 [s]

Rotation                             18.301088 [s]
    Ewald                             8.143494 [s]
    ExternalField-Molecule            0.010203 [s]
    Framework-Molecule                0.011048 [s]
    Molecule-Molecule                 9.402918 [s]
    Overhead                          0.733425 [s]

Reinsertion (CBMC)                   73.419116 [s]
    Ewald                             7.512056 [s]
    NonEwald                         65.528805 [s]
    Overhead                          0.378255 [s]

Gibbs volume                         32.634562 [s]
    Ewald                             8.321225 [s]
    NonEwald                         23.226236 [s]
    Tail                              0.912870 [s]
    Overhead                          0.174231 [s]

Gibbs swap (CBMC)                   207.110638 [s]
    Ewald                            24.267816 [s]
    NonEwald                        180.585362 [s]
    Tail                              1.640062 [s]
    Overhead                          0.617398 [s]

Property sampling:                    0.465081 [s]
Energy/pressure sampling:             7.329151 [s]

Production simulation time:         358.124419 [s]
                All summed:         357.385925 [s]
                  Overhead:           0.738494 [s]


Initalization simulation time:      115.526494 [s]
Equilibration simulation time:        0.000000 [s]
Production simulation time:         358.124419 [s]
Total simulation time:              473.650913 [s]


Energy averages and statistics:
===============================================================================

Framework-molecule energy:
-------------------------------------------------------------------------------



Framework-molecule energy contributions per energy type:
-------------------------------------------------------------------------------



Inter-molecular energy:
-------------------------------------------------------------------------------

    Inter-molecular energy/kʙ 0-0 [CO2-CO2]:
    ---------------------------------------------------------------------------
        Block[  0] -1.188675e+03
        Block[  1] -1.030691e+03
        Block[  2] -1.083465e+03
        Block[  3] -1.359476e+03
        Block[  4] -7.179416e+02
        -----------------------------------------------------------------------
        Average  -1.076050e+03 +/-  2.933701e+02 [K]



Inter-molecular energy contributions per energy type:
-------------------------------------------------------------------------------

    Van der Waals energy/kʙ 0-0 [CO2-CO2]:
    ---------------------------------------------------------------------------
        Block[  0] -8.606420e+02
        Block[  1] -7.402864e+02
        Block[  2] -7.689174e+02
        Block[  3] -9.736232e+02
        Block[  4] -5.100287e+02
        -----------------------------------------------------------------------
        Average  -7.706995e+02 +/-  2.133596e+02 [K]

    VDW Tail-Correction energy/kʙ 0-0 [CO2-CO2]:
    ---------------------------------------------------------------------------
        Block[  0] -1.453818e+01
        Block[  1] -1.209991e+01
        Block[  2] -1.218864e+01
        Block[  3] -1.628508e+01
        Block[  4] -8.967185e+00
        -----------------------------------------------------------------------
        Average  -1.281580e+01 +/-  3.440457e+00 [K]

    Coulomb Real energy/kʙ 0-0 [CO2-CO2]:
    ---------------------------------------------------------------------------
        Block[  0] -2.811260e+02
        Block[  1] -2.580326e+02
        Block[  2] -2.753102e+02
        Block[  3] -3.443326e+02
        Block[  4] -1.853444e+02
        -----------------------------------------------------------------------
        Average  -2.688292e+02 +/-  7.072064e+01 [K]

    Coulomb Fourier energy/kʙ 0-0 [CO2-CO2]:
    ---------------------------------------------------------------------------
        Block[  0] -3.236899e+01
        Block[  1] -2.027235e+01
        Block[  2] -2.704857e+01
        Block[  3] -2.523549e+01
        Block[  4] -1.360136e+01
        -----------------------------------------------------------------------
        Average  -2.370535e+01 +/-  8.832160e+00 [K]


Total energy/kʙ
-------------------------------------------------------------------------------
    Block[  0] -1.188675e+03
    Block[  1] -1.030691e+03
    Block[  2] -1.083465e+03
    Block[  3] -1.359476e+03
    Block[  4] -7.179416e+02
    ---------------------------------------------------------------------------
    Average  -1.076050e+03 +/-  2.933701e+02 [K]

Pressure averages and statistics:
===============================================================================

Average pressure tensor: 
-------------------------------------------------------------------------------
 1.2303e+01  1.2095e-01 -4.0335e-01 +/- 1.0889e+00 5.5845e-01 5.3867e-01 [bar]
 1.2095e-01  1.1781e+01  1.3129e-01 +/- 5.5845e-01 1.4862e+00 6.2936e-01 [bar]
-4.0335e-01  1.3129e-01  1.2262e+01 +/- 5.3867e-01 6.2936e-01 2.4638e+00 [bar]

    Block[  0]  1.456987e+06
    Block[  1]  1.303650e+06
    Block[  2]  1.292437e+06
    Block[  3]  1.557385e+06
    Block[  4]  1.131190e+06
    ---------------------------------------------------------------------------
    Ideal gas pressure   1.348330e+06 +/-  1.227226e-02 [Pa]
                         1.348330e+01 +/-  2.037858e+00 [bar]


    Block[  0] -1.826976e+05
    Block[  1] -1.183214e+05
    Block[  2] -1.874981e+05
    Block[  3] -1.548433e+05
    Block[  4] -4.046495e+04
    ---------------------------------------------------------------------------
    Excess pressure  -1.367651e+05 +/-  7.506588e+04 [Pa]
                     -1.367651e+00 +/-  7.506588e-01 [bar]


    Block[  0]  1.274289e+06
    Block[  1]  1.185329e+06
    Block[  2]  1.104939e+06
    Block[  3]  1.402541e+06
    Block[  4]  1.090725e+06
    ---------------------------------------------------------------------------
    Pressure average   1.211565e+06 +/-  1.607518e+05 [Pa]
                       1.211565e+01 +/-  1.607518e+00 [bar]


Enthalpy of adsorption
===============================================================================

Component 0 [CO2]
-------------------------------------------------------------------------------
    Block[  0] -3.938332e+02
    Block[  1] -3.576822e+02
    Block[  2] -3.755194e+02
    Block[  3] -4.036831e+02
    Block[  4] -3.465557e+02
    ---------------------------------------------------------------------------
    Enthalpy of adsorption: -3.754547e+02 +/-  2.967614e+01 [K]
                            -3.121705e+00 +/-  2.467413e-01 [kJ/mol]
    Warning: need to subtract the ideal-gas energy.


Densities
===============================================================================

Component 0 (CO2)
    Block[  0] 16.889166666666668
    Block[  1] 14.994166666666668
    Block[  2] 14.971666666666668
    Block[  3] 18.191666666666666
    Block[  4] 12.995000000000001
    -----------------------------------------------------------------------
    Density average   1.560833e+01 +/-  2.477197e+00 [molecules]
    Density average   4.069126e-04 +/-  6.150055e-05 [molec/A^3]
    Density average   2.972973e+01 +/-  4.493335e+00 [kg.m⁻³]

