Compiler and run-time data
===============================================================================
RASPA 3.0.4

Random seed: 135502369

Compiled as a 64-bits application
Compiler: gcc Ubuntu Clang 18.1.3 (1ubuntu1)
Compile Date = Mar 15 2025, Compile Time = 19:39:45

2025-06-02 12:44:41.153758
Simulation started on Mon, Jun 02
The start time was 12:44:00

Hostname:    c061
OS type:     Linux on x86_64
OS release:  6.8.0-58-generic
OS version:  #60-Ubuntu SMP PREEMPT_DYNAMIC Fri Mar 14 18:29:48 UTC 2025


Mutual consistent basic set of units:
===============================================================================

Unit of temperature: 1 [K]
Unit of length:      1e-10 [m]
Unit of time:        1e-12 [s]
Unit of mass:        1.6605402e-27 [kg]
Unit of charge:      1.60217733e-19 [C/particle]


Boltzmann constant (internal units):          0.8314464919307584 [-]
represents conversion from energy (internal units) to temperature (in Kelvin)

Derived units and their conversion factors:
===============================================================================

Unit of energy:                           1.6605402000000002e-23 [J]
Unit of energy:                           10.000008872307538 [J.mol⁻¹]
Unit of velocity:                         100 [m.s⁻¹]
Unit of force:                            1.6605402000000002e-13 [N]
Unit of diffusion:                        1.0000000000000002e-08 [m².s⁻¹]
Unit of acceleration:                     1.0000000000000002e-08 [m².s⁻¹]
Unit of torque:                           1.6605402000000002e-23 [N.m]
Unit of pressure:                         16605402 [Pa]
Unit of volume:                           1e-30 [m³]
Unit of density:                          1660.5402 [kg.m⁻³]
Unit of dynamic viscosity:                1.6605401999999997e-05 [N.s.m⁻²]
Unit of enthalpy:                         1.6605402000000002e-23 [J]
Unit of polarizability:                   1.5458657349975198e-35 [-]
Unit of Coulomb potential:                167101.08000665612 [K]
Unit of dielectric constant:              1.5458657349975193e-05 [s².C².kg⁻¹.m⁻³]
Unit of dipole moment:                    1.60217733e-29 [C.m]
Unit of Debye:                            4.803206799099162 [C.m]
Unit of electric potential:               0.00010364272224473431 [V]
Unit of electric field:                   1036427.222447343 [V.m⁻¹]
Unit of isothermal compressibility:       6.02213665167516e-08 [Pa⁻¹]
Unit of heat capacity:                    10.000008872307538 [J.mol⁻¹.K⁻¹]
Unit of volumetric expansion coefficient: 1 [K⁻¹]


Internal conversion factors:
===============================================================================

Energy (internal units) to Kelvin:      1.202724284692786 [-]
Kelvin to energy (internal units):      0.8314457542157567 [-]


System definitions
===============================================================================

Temperature:          250 [K]
Beta:                 0.0048108928702210625 [-]
Pressure:             1.4e+07 [Pa]
Helium void fraction: 1 [-]

Box:      30.00000   0.00000   0.00000
           0.00000  30.00000   0.00000
           0.00000   0.00000  30.00000
Lengths:  30.00000  30.00000  30.00000
Angles:   90.00000  90.00000  90.00000
Rectangular boundary conditions



Property measurement settings
===============================================================================




Pseudo-atoms
===============================================================================

  0 - C_co2    framework-atom: false
  1 - O_co2    framework-atom: false

  0 - C_co2    mass: 12.00000, charge:  0.70000
  1 - O_co2    mass: 15.99940, charge: -0.35000

  0 - C_co2    polarizability:  0.00000
  1 - O_co2    polarizability:  0.00000

  0 - J. J. Potoff et al., AIChE J. 2001, 47, 1676–1682.
  1 - J. J. Potoff et al., AIChE J. 2001, 47, 1676–1682.

Force field status
===============================================================================

Cutoff Framework-Molecule VDW:  12.00000 [Å]
Cutoff Molecule-Molecule VDW:   12.00000 [Å]
Cutoff Coulomb:                 12.00000 [Å]

Overlap-criteria VDW:           1.000000e+05 [K]

C_co2    - C_co2    Lennard-Jones p₀/kʙ:  27.00000 [K], p₁:  2.80000 [Å]
                                  shift:   0.00000 [K], tailcorrections: true
C_co2    - O_co2    Lennard-Jones p₀/kʙ:  46.18441 [K], p₁:  2.92500 [Å]
                                  shift:   0.00000 [K], tailcorrections: true
O_co2    - O_co2    Lennard-Jones p₀/kʙ:  79.00000 [K], p₁:  3.05000 [Å]
                                  shift:   0.00000 [K], tailcorrections: true

Ewald precision: 1e-06
Ewald alpha: 0.26505830360350674
Ewald k-vectors: 8 8 8


Component definitions
===============================================================================

Component 0 [CO2]

    Type: Adsorbate

    Critical temperature:  304.1282 [K]
    Critical pressure:     7377300 [Pa]
    Acentric factor:       0.22394 [-]

    Mol-fraction:                 1 [-]
    Swappable:                   false

    Mass:                         43.9988 [-]
    Bulk fluid density:           0 [-]
    Compressibility:              0 [-]
    Excess molecules:             0 [-]

    Number Of Atoms:    3
    CBMC starting bead: 0
      0: O_co2  position  0.00000 -0.00000  1.16000, charge -0.35000
      1: C_co2  position  0.00000 -0.00000  0.00000, charge  0.70000
      2: O_co2  position  0.00000 -0.00000 -1.16000, charge -0.35000
    Diagonalized inertia-vector:      43.05758528 43.05758528 0.00000000
    Translational degrees of freedom: 3
    Rotational degrees of freedom:    2
    Shape of the molecule is: 'Linear'
    Net-charge:        0.00000000 [e]

    Move probabilities:
    Translation:                   0.331126 [-]
    Random translation:            0.000000 [-]
    Rotation:                      0.331126 [-]
    Random rotation:               0.000000 [-]
    Volume change:                 0.006623 [-]
    Reinsertion (CBMC):            0.331126 [-]
    Identity change (CBMC):        0.000000 [-]
    Swap:                          0.000000 [-]
    Swap (CBMC):                   0.000000 [-]
    Swap (CFCMC):                  0.000000 [-]
    Swap (CB/CFCMC):               0.000000 [-]
    Gibbs volume:                  0.000000 [-]
    Gibbs swap (CBMC):             0.000000 [-]
    Gibbs swap (CFCMC):            0.000000 [-]
    Widom:                         0.000000 [-]
    Widom (CFCMC):                 0.000000 [-]
    Widom (CB/CFCMC):              0.000000 [-]
    Parallel tempering:            0.000000 [-]
    Hybrid MC:                     0.000000 [-]

    number of blocking-pockets: 0

    number of bonds: 0





Number of pseudo-atoms
===============================================================================

Component   0 (CO2)
-------------------------------------------------------------------------------
    index   0 (C_co2): 200 atoms
    index   1 (O_co2): 400 atoms

Total number of pseudo-atoms:
-------------------------------------------------------------------------------
    index   0 (C_co2): 200 atoms
    index   1 (O_co2): 400 atoms




Energy status Recomputed from scratch
===============================================================================

Total potential energy/kʙ       -6.015558e+04 [K]
    external field VDW/kʙ        0.000000e+00 [K]
    external field Real/kʙ       0.000000e+00 [K]
    framework-molecule VDW/kʙ    0.000000e+00 [K]
    framework-molecule Real/kʙ   0.000000e+00 [K]
    molecule-molecule VDW/kʙ    -3.563205e+04 [K]
    molecule-molecule Real/kʙ   -2.089570e+04 [K]
    Van der Waals (Tail)/kʙ     -2.751265e+03 [K]
    Ewald Fourier/kʙ             1.088457e+04 [K]
    Ewald self/kʙ               -3.673356e+06 [K]
    Ewald exclusion/kʙ           3.661595e+06 [K]
    intra VDW/kʙ                 0.000000e+00 [K]
    intra Coulombic/kʙ           0.000000e+00 [K]
    polarization/kʙ              0.000000e+00 [K]
    dU/dlambda VDW/kʙ            0.000000e+00 [K]
    dU/dlambda Real/kʙ           0.000000e+00 [K]
    dU/dlambda Ewald/kʙ          0.000000e+00 [K]





Initialization: Current cycle: 0 out of 1000
===============================================================================

Box:      30.00000   0.00000   0.00000
           0.00000  30.00000   0.00000
           0.00000   0.00000  30.00000
Lengths:  30.00000  30.00000  30.00000
Angles:   90.00000  90.00000  90.00000
Rectangular boundary conditions

net charge:   0.00000000

component   0 (CO2) lambda:  0 occupancy:  1 (1.000000)
    net charge:   0.00000000 [e]

Amount of molecules per component :
-------------------------------------------------------------------------------
Component 0 (CO2)
    molecules:         2.000000e+02 molecules
    number density:    7.407407e-03 molec/A^3
    density:           5.411979e+02 kg/m^3

Total potential energy/kʙ       -1.321741e+05 [K]
-------------------------------------------------------------------------------
    external field VDW/kʙ        0.000000e+00 [K]
    external field Real/kʙ       0.000000e+00 [K]
    framework-molecule VDW/kʙ    0.000000e+00 [K]
    framework-molecule Real/kʙ   0.000000e+00 [K]
    molecule-molecule VDW/kʙ    -1.075283e+05 [K]
    molecule-molecule Real/kʙ   -2.054021e+04 [K]
    Van der Waals (Tail)/kʙ     -2.751265e+03 [K]
    Ewald Fourier/kʙ             1.040678e+04 [K]
    Ewald self/kʙ               -3.673356e+06 [K]
    Ewald exclusion/kʙ           3.661595e+06 [K]
    intra VDW/kʙ                 0.000000e+00 [K]
    intra Coulombic/kʙ           0.000000e+00 [K]
    polarization/kʙ              0.000000e+00 [K]
    dU/dlambda VDW/kʙ            0.000000e+00 [K]
    dU/dlambda Real/kʙ           0.000000e+00 [K]
    dU/dlambda Ewald/kʙ          0.000000e+00 [K]


Initialization: Current cycle: 100 out of 1000
===============================================================================

Box:      27.39771   0.00000   0.00000
           0.00000  27.39771   0.00000
           0.00000   0.00000  27.39771
Lengths:  27.39771  27.39771  27.39771
Angles:   90.00000  90.00000  90.00000
Rectangular boundary conditions

net charge:   0.00000000

component   0 (CO2) lambda:  0 occupancy:  1 (1.000000)
    net charge:   0.00000000 [e]

Amount of molecules per component :
-------------------------------------------------------------------------------
Component 0 (CO2)
    molecules:         2.000000e+02 molecules
    number density:    9.724951e-03 molec/A^3
    density:           7.105216e+02 kg/m^3

Total potential energy/kʙ       -2.318531e+05 [K]
-------------------------------------------------------------------------------
    external field VDW/kʙ        0.000000e+00 [K]
    external field Real/kʙ       0.000000e+00 [K]
    framework-molecule VDW/kʙ    0.000000e+00 [K]
    framework-molecule Real/kʙ   0.000000e+00 [K]
    molecule-molecule VDW/kʙ    -1.710576e+05 [K]
    molecule-molecule Real/kʙ   -5.172122e+04 [K]
    Van der Waals (Tail)/kʙ     -3.612049e+03 [K]
    Ewald Fourier/kʙ             6.298837e+03 [K]
    Ewald self/kʙ               -3.673356e+06 [K]
    Ewald exclusion/kʙ           3.661595e+06 [K]
    intra VDW/kʙ                 0.000000e+00 [K]
    intra Coulombic/kʙ           0.000000e+00 [K]
    polarization/kʙ              0.000000e+00 [K]
    dU/dlambda VDW/kʙ            0.000000e+00 [K]
    dU/dlambda Real/kʙ           0.000000e+00 [K]
    dU/dlambda Ewald/kʙ          0.000000e+00 [K]


Initialization: Current cycle: 200 out of 1000
===============================================================================

Box:      26.09678   0.00000   0.00000
           0.00000  26.09678   0.00000
           0.00000   0.00000  26.09678
Lengths:  26.09678  26.09678  26.09678
Angles:   90.00000  90.00000  90.00000
Rectangular boundary conditions

net charge:   0.00000000

component   0 (CO2) lambda:  0 occupancy:  1 (1.000000)
    net charge:   0.00000000 [e]

Amount of molecules per component :
-------------------------------------------------------------------------------
Component 0 (CO2)
    molecules:         2.000000e+02 molecules
    number density:    1.125302e-02 molec/A^3
    density:           8.221650e+02 kg/m^3

Total potential energy/kʙ       -2.364494e+05 [K]
-------------------------------------------------------------------------------
    external field VDW/kʙ        0.000000e+00 [K]
    external field Real/kʙ       0.000000e+00 [K]
    framework-molecule VDW/kʙ    0.000000e+00 [K]
    framework-molecule Real/kʙ   0.000000e+00 [K]
    molecule-molecule VDW/kʙ    -1.734053e+05 [K]
    molecule-molecule Real/kʙ   -5.382732e+04 [K]
    Van der Waals (Tail)/kʙ     -4.179606e+03 [K]
    Ewald Fourier/kʙ             6.723964e+03 [K]
    Ewald self/kʙ               -3.673356e+06 [K]
    Ewald exclusion/kʙ           3.661595e+06 [K]
    intra VDW/kʙ                 0.000000e+00 [K]
    intra Coulombic/kʙ           0.000000e+00 [K]
    polarization/kʙ              0.000000e+00 [K]
    dU/dlambda VDW/kʙ            0.000000e+00 [K]
    dU/dlambda Real/kʙ           0.000000e+00 [K]
    dU/dlambda Ewald/kʙ          0.000000e+00 [K]


Initialization: Current cycle: 300 out of 1000
===============================================================================

Box:      24.51512   0.00000   0.00000
           0.00000  24.51512   0.00000
           0.00000   0.00000  24.51512
Lengths:  24.51512  24.51512  24.51512
Angles:   90.00000  90.00000  90.00000
Rectangular boundary conditions

net charge:   0.00000000

component   0 (CO2) lambda:  0 occupancy:  1 (1.000000)
    net charge:   0.00000000 [e]

Amount of molecules per component :
-------------------------------------------------------------------------------
Component 0 (CO2)
    molecules:         2.000000e+02 molecules
    number density:    1.357463e-02 molec/A^3
    density:           9.917857e+02 kg/m^3

Total potential energy/kʙ       -2.828028e+05 [K]
-------------------------------------------------------------------------------
    external field VDW/kʙ        0.000000e+00 [K]
    external field Real/kʙ       0.000000e+00 [K]
    framework-molecule VDW/kʙ    0.000000e+00 [K]
    framework-molecule Real/kʙ   0.000000e+00 [K]
    molecule-molecule VDW/kʙ    -2.074482e+05 [K]
    molecule-molecule Real/kʙ   -6.424538e+04 [K]
    Van der Waals (Tail)/kʙ     -5.041900e+03 [K]
    Ewald Fourier/kʙ             5.693815e+03 [K]
    Ewald self/kʙ               -3.673356e+06 [K]
    Ewald exclusion/kʙ           3.661595e+06 [K]
    intra VDW/kʙ                 0.000000e+00 [K]
    intra Coulombic/kʙ           0.000000e+00 [K]
    polarization/kʙ              0.000000e+00 [K]
    dU/dlambda VDW/kʙ            0.000000e+00 [K]
    dU/dlambda Real/kʙ           0.000000e+00 [K]
    dU/dlambda Ewald/kʙ          0.000000e+00 [K]


Initialization: Current cycle: 400 out of 1000
===============================================================================

Box:      24.44878   0.00000   0.00000
           0.00000  24.44878   0.00000
           0.00000   0.00000  24.44878
Lengths:  24.44878  24.44878  24.44878
Angles:   90.00000  90.00000  90.00000
Rectangular boundary conditions

net charge:   0.00000000

component   0 (CO2) lambda:  0 occupancy:  1 (1.000000)
    net charge:   0.00000000 [e]

Amount of molecules per component :
-------------------------------------------------------------------------------
Component 0 (CO2)
    molecules:         2.000000e+02 molecules
    number density:    1.368544e-02 molec/A^3
    density:           9.998814e+02 kg/m^3

Total potential energy/kʙ       -2.908297e+05 [K]
-------------------------------------------------------------------------------
    external field VDW/kʙ        0.000000e+00 [K]
    external field Real/kʙ       0.000000e+00 [K]
    framework-molecule VDW/kʙ    0.000000e+00 [K]
    framework-molecule Real/kʙ   0.000000e+00 [K]
    molecule-molecule VDW/kʙ    -2.128669e+05 [K]
    molecule-molecule Real/kʙ   -6.604203e+04 [K]
    Van der Waals (Tail)/kʙ     -5.083056e+03 [K]
    Ewald Fourier/kʙ             4.923452e+03 [K]
    Ewald self/kʙ               -3.673356e+06 [K]
    Ewald exclusion/kʙ           3.661595e+06 [K]
    intra VDW/kʙ                 0.000000e+00 [K]
    intra Coulombic/kʙ           0.000000e+00 [K]
    polarization/kʙ              0.000000e+00 [K]
    dU/dlambda VDW/kʙ            0.000000e+00 [K]
    dU/dlambda Real/kʙ           0.000000e+00 [K]
    dU/dlambda Ewald/kʙ          0.000000e+00 [K]


Initialization: Current cycle: 500 out of 1000
===============================================================================

Box:      24.07083   0.00000   0.00000
           0.00000  24.07083   0.00000
           0.00000   0.00000  24.07083
Lengths:  24.07083  24.07083  24.07083
Angles:   90.00000  90.00000  90.00000
Rectangular boundary conditions

net charge:   0.00000000

component   0 (CO2) lambda:  0 occupancy:  1 (1.000000)
    net charge:   0.00000000 [e]

Amount of molecules per component :
-------------------------------------------------------------------------------
Component 0 (CO2)
    molecules:         2.000000e+02 molecules
    number density:    1.434025e-02 molec/A^3
    density:           1.047723e+03 kg/m^3

Total potential energy/kʙ       -3.076999e+05 [K]
-------------------------------------------------------------------------------
    external field VDW/kʙ        0.000000e+00 [K]
    external field Real/kʙ       0.000000e+00 [K]
    framework-molecule VDW/kʙ    0.000000e+00 [K]
    framework-molecule Real/kʙ   0.000000e+00 [K]
    molecule-molecule VDW/kʙ    -2.213936e+05 [K]
    molecule-molecule Real/kʙ   -7.393381e+04 [K]
    Van der Waals (Tail)/kʙ     -5.326266e+03 [K]
    Ewald Fourier/kʙ             4.714939e+03 [K]
    Ewald self/kʙ               -3.673356e+06 [K]
    Ewald exclusion/kʙ           3.661595e+06 [K]
    intra VDW/kʙ                 0.000000e+00 [K]
    intra Coulombic/kʙ           0.000000e+00 [K]
    polarization/kʙ              0.000000e+00 [K]
    dU/dlambda VDW/kʙ            0.000000e+00 [K]
    dU/dlambda Real/kʙ           0.000000e+00 [K]
    dU/dlambda Ewald/kʙ          0.000000e+00 [K]


Initialization: Current cycle: 600 out of 1000
===============================================================================

Box:      24.41577   0.00000   0.00000
           0.00000  24.41577   0.00000
           0.00000   0.00000  24.41577
Lengths:  24.41577  24.41577  24.41577
Angles:   90.00000  90.00000  90.00000
Rectangular boundary conditions

net charge:   0.00000000

component   0 (CO2) lambda:  0 occupancy:  1 (1.000000)
    net charge:   0.00000000 [e]

Amount of molecules per component :
-------------------------------------------------------------------------------
Component 0 (CO2)
    molecules:         2.000000e+02 molecules
    number density:    1.374101e-02 molec/A^3
    density:           1.003941e+03 kg/m^3

Total potential energy/kʙ       -2.845993e+05 [K]
-------------------------------------------------------------------------------
    external field VDW/kʙ        0.000000e+00 [K]
    external field Real/kʙ       0.000000e+00 [K]
    framework-molecule VDW/kʙ    0.000000e+00 [K]
    framework-molecule Real/kʙ   0.000000e+00 [K]
    molecule-molecule VDW/kʙ    -2.111447e+05 [K]
    molecule-molecule Real/kʙ   -6.172954e+04 [K]
    Van der Waals (Tail)/kʙ     -5.103696e+03 [K]
    Ewald Fourier/kʙ             5.139728e+03 [K]
    Ewald self/kʙ               -3.673356e+06 [K]
    Ewald exclusion/kʙ           3.661595e+06 [K]
    intra VDW/kʙ                 0.000000e+00 [K]
    intra Coulombic/kʙ           0.000000e+00 [K]
    polarization/kʙ              0.000000e+00 [K]
    dU/dlambda VDW/kʙ            0.000000e+00 [K]
    dU/dlambda Real/kʙ           0.000000e+00 [K]
    dU/dlambda Ewald/kʙ          0.000000e+00 [K]


Initialization: Current cycle: 700 out of 1000
===============================================================================

Box:      24.46487   0.00000   0.00000
           0.00000  24.46487   0.00000
           0.00000   0.00000  24.46487
Lengths:  24.46487  24.46487  24.46487
Angles:   90.00000  90.00000  90.00000
Rectangular boundary conditions

net charge:   0.00000000

component   0 (CO2) lambda:  0 occupancy:  1 (1.000000)
    net charge:   0.00000000 [e]

Amount of molecules per component :
-------------------------------------------------------------------------------
Component 0 (CO2)
    molecules:         2.000000e+02 molecules
    number density:    1.365844e-02 molec/A^3
    density:           9.979089e+02 kg/m^3

Total potential energy/kʙ       -2.846319e+05 [K]
-------------------------------------------------------------------------------
    external field VDW/kʙ        0.000000e+00 [K]
    external field Real/kʙ       0.000000e+00 [K]
    framework-molecule VDW/kʙ    0.000000e+00 [K]
    framework-molecule Real/kʙ   0.000000e+00 [K]
    molecule-molecule VDW/kʙ    -2.070260e+05 [K]
    molecule-molecule Real/kʙ   -6.535857e+04 [K]
    Van der Waals (Tail)/kʙ     -5.073028e+03 [K]
    Ewald Fourier/kʙ             4.586867e+03 [K]
    Ewald self/kʙ               -3.673356e+06 [K]
    Ewald exclusion/kʙ           3.661595e+06 [K]
    intra VDW/kʙ                 0.000000e+00 [K]
    intra Coulombic/kʙ           0.000000e+00 [K]
    polarization/kʙ              0.000000e+00 [K]
    dU/dlambda VDW/kʙ            0.000000e+00 [K]
    dU/dlambda Real/kʙ           0.000000e+00 [K]
    dU/dlambda Ewald/kʙ          0.000000e+00 [K]


Initialization: Current cycle: 800 out of 1000
===============================================================================

Box:      23.92067   0.00000   0.00000
           0.00000  23.92067   0.00000
           0.00000   0.00000  23.92067
Lengths:  23.92067  23.92067  23.92067
Angles:   90.00000  90.00000  90.00000
Rectangular boundary conditions

net charge:   0.00000000

component   0 (CO2) lambda:  0 occupancy:  1 (1.000000)
    net charge:   0.00000000 [e]

Amount of molecules per component :
-------------------------------------------------------------------------------
Component 0 (CO2)
    molecules:         2.000000e+02 molecules
    number density:    1.461202e-02 molec/A^3
    density:           1.067579e+03 kg/m^3

Total potential energy/kʙ       -3.035415e+05 [K]
-------------------------------------------------------------------------------
    external field VDW/kʙ        0.000000e+00 [K]
    external field Real/kʙ       0.000000e+00 [K]
    framework-molecule VDW/kʙ    0.000000e+00 [K]
    framework-molecule Real/kʙ   0.000000e+00 [K]
    molecule-molecule VDW/kʙ    -2.203713e+05 [K]
    molecule-molecule Real/kʙ   -7.104234e+04 [K]
    Van der Waals (Tail)/kʙ     -5.427208e+03 [K]
    Ewald Fourier/kʙ             5.060468e+03 [K]
    Ewald self/kʙ               -3.673356e+06 [K]
    Ewald exclusion/kʙ           3.661595e+06 [K]
    intra VDW/kʙ                 0.000000e+00 [K]
    intra Coulombic/kʙ           0.000000e+00 [K]
    polarization/kʙ              0.000000e+00 [K]
    dU/dlambda VDW/kʙ            0.000000e+00 [K]
    dU/dlambda Real/kʙ           0.000000e+00 [K]
    dU/dlambda Ewald/kʙ          0.000000e+00 [K]


Initialization: Current cycle: 900 out of 1000
===============================================================================

Box:      23.76127   0.00000   0.00000
           0.00000  23.76127   0.00000
           0.00000   0.00000  23.76127
Lengths:  23.76127  23.76127  23.76127
Angles:   90.00000  90.00000  90.00000
Rectangular boundary conditions

net charge:   0.00000000

component   0 (CO2) lambda:  0 occupancy:  1 (1.000000)
    net charge:   0.00000000 [e]

Amount of molecules per component :
-------------------------------------------------------------------------------
Component 0 (CO2)
    molecules:         2.000000e+02 molecules
    number density:    1.490806e-02 molec/A^3
    density:           1.089208e+03 kg/m^3

Total potential energy/kʙ       -3.156882e+05 [K]
-------------------------------------------------------------------------------
    external field VDW/kʙ        0.000000e+00 [K]
    external field Real/kʙ       0.000000e+00 [K]
    framework-molecule VDW/kʙ    0.000000e+00 [K]
    framework-molecule Real/kʙ   0.000000e+00 [K]
    molecule-molecule VDW/kʙ    -2.247973e+05 [K]
    molecule-molecule Real/kʙ   -7.887869e+04 [K]
    Van der Waals (Tail)/kʙ     -5.537163e+03 [K]
    Ewald Fourier/kʙ             5.286065e+03 [K]
    Ewald self/kʙ               -3.673356e+06 [K]
    Ewald exclusion/kʙ           3.661595e+06 [K]
    intra VDW/kʙ                 0.000000e+00 [K]
    intra Coulombic/kʙ           0.000000e+00 [K]
    polarization/kʙ              0.000000e+00 [K]
    dU/dlambda VDW/kʙ            0.000000e+00 [K]
    dU/dlambda Real/kʙ           0.000000e+00 [K]
    dU/dlambda Ewald/kʙ          0.000000e+00 [K]


Current cycle: 0 out of 5000
===============================================================================

Box:      23.87541   0.00000   0.00000  Average:  23.87541   0.00000   0.00000
           0.00000  23.87541   0.00000             0.00000  23.87541   0.00000
           0.00000   0.00000  23.87541             0.00000   0.00000  23.87541
Lengths:  23.87541  23.87541  23.87541  Average:  23.87541  23.87541  23.87541
Angles:   90.00000  90.00000  90.00000  Average:  90.00000  90.00000  90.00000
Rectangular boundary conditions

net charge:   0.00000000

component 0 (CO2) lambda:  0 occupancy:  1 (1.000000)
    net charge:   0.00000000 [e]

Amount of molecules per component :
-------------------------------------------------------------------------------
Component 0 (CO2)
    molecules:      2.000000e+02 molecules  (2.000000e+02 +/- 0.000000e+00)
    number density: 1.469527e-02 molec./A^3 (1.469527e-02 +/- 0.000000e+00)
    density:        1.073662e+03 kg/m^3     (1.073662e+03 +/- 0.000000e+00)

Average pressure tensor: 
-------------------------------------------------------------------------------
 5.0723e+02  0.0000e+00  0.0000e+00 +/- 0.0000e+00 0.0000e+00 0.0000e+00 [bar]
 0.0000e+00  5.0723e+02  0.0000e+00 +/- 0.0000e+00 0.0000e+00 0.0000e+00 [bar]
 0.0000e+00  0.0000e+00  5.0723e+02 +/- 0.0000e+00 0.0000e+00 0.0000e+00 [bar]
Ideal-gas pressure:   5.072258e+02 +/ 0.000000e+00 [bar]
Excess pressure:      0.000000e+00 +/ 0.000000e+00 [bar]
Pressure:             5.072258e+02 +/ 0.000000e+00 [bar]

Total potential energy/kʙ  -3.164014e+05 (-3.164014e+05 +/- 0.000000e+00) [K]
-------------------------------------------------------------------------------
ExternalField-molecule
    Van der Waals/kʙ        0.000000e+00 ( 0.000000e+00 +/- 0.000000e+00) [K]
Framework-molecule
    Van der Waals/kʙ        0.000000e+00 ( 0.000000e+00 +/- 0.000000e+00) [K]
    Van der Waals (Tail)/kʙ 0.000000e+00 ( 0.000000e+00 +/- 0.000000e+00) [K]
    Coulombic Real/kʙ       0.000000e+00 ( 0.000000e+00 +/- 0.000000e+00) [K]
    Coulombic Fourier/kʙ    0.000000e+00 ( 0.000000e+00 +/- 0.000000e+00) [K]
Molecule-molecule
    Van der Waals/kʙ       -2.263002e+05 (-2.263002e+05 +/- 0.000000e+00) [K]
    Van der Waals (Tail)/kʙ-5.458129e+03 (-5.458129e+03 +/- 0.000000e+00) [K]
    Coulombic Real/kʙ      -7.747282e+04 (-7.747282e+04 +/- 0.000000e+00) [K]
    Coulombic Fourier/kʙ   -7.170173e+03 (-7.170173e+03 +/- 0.000000e+00) [K]
    Molecule Intra/kʙ       0.000000e+00 ( 0.000000e+00 +/- 0.000000e+00) [K]

Current cycle: 100 out of 5000
===============================================================================

Box:      23.81331   0.00000   0.00000  Average:  23.93482   0.00000   0.00000
           0.00000  23.81331   0.00000             0.00000  23.93482   0.00000
           0.00000   0.00000  23.81331             0.00000   0.00000  23.93482
Lengths:  23.81331  23.81331  23.81331  Average:  23.93482  23.93482  23.93482
Angles:   90.00000  90.00000  90.00000  Average:  90.00000  90.00000  90.00000
Rectangular boundary conditions

net charge:   0.00000000

component 0 (CO2) lambda:  0 occupancy:  1 (1.000000)
    net charge:   0.00000000 [e]

Amount of molecules per component :
-------------------------------------------------------------------------------
Component 0 (CO2)
    molecules:      2.000000e+02 molecules  (2.000000e+02 +/- 0.000000e+00)
    number density: 1.481053e-02 molec./A^3 (1.458828e-02 +/- 0.000000e+00)
    density:        1.082083e+03 kg/m^3     (1.065845e+03 +/- 0.000000e+00)

Average pressure tensor: 
-------------------------------------------------------------------------------
 3.4962e+01 -4.5983e+01 -1.5461e+02 +/- 0.0000e+00 0.0000e+00 0.0000e+00 [bar]
-4.5983e+01 -8.1114e+01  7.8575e+01 +/- 0.0000e+00 0.0000e+00 0.0000e+00 [bar]
-1.5461e+02  7.8575e+01  8.5416e+01 +/- 0.0000e+00 0.0000e+00 0.0000e+00 [bar]
Ideal-gas pressure:   5.035328e+02 +/ 0.000000e+00 [bar]
Excess pressure:     -4.904447e+02 +/ 0.000000e+00 [bar]
Pressure:             1.308816e+01 +/ 0.000000e+00 [bar]

Total potential energy/kʙ  -3.156416e+05 (-3.102585e+05 +/- 0.000000e+00) [K]
-------------------------------------------------------------------------------
ExternalField-molecule
    Van der Waals/kʙ        0.000000e+00 ( 0.000000e+00 +/- 0.000000e+00) [K]
Framework-molecule
    Van der Waals/kʙ        0.000000e+00 ( 0.000000e+00 +/- 0.000000e+00) [K]
    Van der Waals (Tail)/kʙ 0.000000e+00 ( 0.000000e+00 +/- 0.000000e+00) [K]
    Coulombic Real/kʙ       0.000000e+00 ( 0.000000e+00 +/- 0.000000e+00) [K]
    Coulombic Fourier/kʙ    0.000000e+00 ( 0.000000e+00 +/- 0.000000e+00) [K]
Molecule-molecule
    Van der Waals/kʙ       -2.271247e+05 (-2.232783e+05 +/- 0.000000e+00) [K]
    Van der Waals (Tail)/kʙ-5.500939e+03 (-5.404160e+03 +/- 0.000000e+00) [K]
    Coulombic Real/kʙ      -7.577906e+04 (-7.475677e+04 +/- 0.000000e+00) [K]
    Coulombic Fourier/kʙ   -7.236966e+03 (-6.819294e+03 +/- 0.000000e+00) [K]
    Molecule Intra/kʙ       0.000000e+00 ( 0.000000e+00 +/- 0.000000e+00) [K]

Current cycle: 200 out of 5000
===============================================================================

Box:      23.90020   0.00000   0.00000  Average:  23.88855   0.00000   0.00000
           0.00000  23.90020   0.00000             0.00000  23.88855   0.00000
           0.00000   0.00000  23.90020             0.00000   0.00000  23.88855
Lengths:  23.90020  23.90020  23.90020  Average:  23.88855  23.88855  23.88855
Angles:   90.00000  90.00000  90.00000  Average:  90.00000  90.00000  90.00000
Rectangular boundary conditions

net charge:   0.00000000

component 0 (CO2) lambda:  0 occupancy:  1 (1.000000)
    net charge:   0.00000000 [e]

Amount of molecules per component :
-------------------------------------------------------------------------------
Component 0 (CO2)
    molecules:      2.000000e+02 molecules  (2.000000e+02 +/- 0.000000e+00)
    number density: 1.464958e-02 molec./A^3 (1.467299e-02 +/- 0.000000e+00)
    density:        1.070324e+03 kg/m^3     (1.072034e+03 +/- 0.000000e+00)

Average pressure tensor: 
-------------------------------------------------------------------------------
 8.2944e+01  2.2781e+01 -1.1243e+02 +/- 0.0000e+00 0.0000e+00 0.0000e+00 [bar]
 2.2781e+01  1.0961e+02  4.9817e+01 +/- 0.0000e+00 0.0000e+00 0.0000e+00 [bar]
-1.1243e+02  4.9817e+01  1.9216e+02 +/- 0.0000e+00 0.0000e+00 0.0000e+00 [bar]
Ideal-gas pressure:   5.064569e+02 +/ 0.000000e+00 [bar]
Excess pressure:     -3.782205e+02 +/ 0.000000e+00 [bar]
Pressure:             1.282364e+02 +/ 0.000000e+00 [bar]

Total potential energy/kʙ  -3.073137e+05 (-3.093016e+05 +/- 0.000000e+00) [K]
-------------------------------------------------------------------------------
ExternalField-molecule
    Van der Waals/kʙ        0.000000e+00 ( 0.000000e+00 +/- 0.000000e+00) [K]
Framework-molecule
    Van der Waals/kʙ        0.000000e+00 ( 0.000000e+00 +/- 0.000000e+00) [K]
    Van der Waals (Tail)/kʙ 0.000000e+00 ( 0.000000e+00 +/- 0.000000e+00) [K]
    Coulombic Real/kʙ       0.000000e+00 ( 0.000000e+00 +/- 0.000000e+00) [K]
    Coulombic Fourier/kʙ    0.000000e+00 ( 0.000000e+00 +/- 0.000000e+00) [K]
Molecule-molecule
    Van der Waals/kʙ       -2.242853e+05 (-2.249174e+05 +/- 0.000000e+00) [K]
    Van der Waals (Tail)/kʙ-5.441160e+03 (-5.445022e+03 +/- 0.000000e+00) [K]
    Coulombic Real/kʙ      -7.076363e+04 (-7.227534e+04 +/- 0.000000e+00) [K]
    Coulombic Fourier/kʙ   -6.823554e+03 (-6.663870e+03 +/- 0.000000e+00) [K]
    Molecule Intra/kʙ       0.000000e+00 ( 0.000000e+00 +/- 0.000000e+00) [K]

Current cycle: 300 out of 5000
===============================================================================

Box:      23.77990   0.00000   0.00000  Average:  23.90498   0.00000   0.00000
           0.00000  23.77990   0.00000             0.00000  23.90498   0.00000
           0.00000   0.00000  23.77990             0.00000   0.00000  23.90498
Lengths:  23.77990  23.77990  23.77990  Average:  23.90498  23.90498  23.90498
Angles:   90.00000  90.00000  90.00000  Average:  90.00000  90.00000  90.00000
Rectangular boundary conditions

net charge:   0.00000000

component 0 (CO2) lambda:  0 occupancy:  1 (1.000000)
    net charge:   0.00000000 [e]

Amount of molecules per component :
-------------------------------------------------------------------------------
Component 0 (CO2)
    molecules:      2.000000e+02 molecules  (2.000000e+02 +/- 0.000000e+00)
    number density: 1.487305e-02 molec./A^3 (1.464289e-02 +/- 0.000000e+00)
    density:        1.086650e+03 kg/m^3     (1.069835e+03 +/- 0.000000e+00)

Average pressure tensor: 
-------------------------------------------------------------------------------
 1.0619e+02  4.2419e+01 -2.6789e+01 +/- 0.0000e+00 0.0000e+00 0.0000e+00 [bar]
 4.2419e+01  1.2147e+02 -4.8976e+00 +/- 0.0000e+00 0.0000e+00 0.0000e+00 [bar]
-2.6789e+01 -4.8976e+00  1.5923e+02 +/- 0.0000e+00 0.0000e+00 0.0000e+00 [bar]
Ideal-gas pressure:   5.054179e+02 +/ 0.000000e+00 [bar]
Excess pressure:     -3.764506e+02 +/ 0.000000e+00 [bar]
Pressure:             1.289673e+02 +/ 0.000000e+00 [bar]

Total potential energy/kʙ  -3.085646e+05 (-3.088671e+05 +/- 0.000000e+00) [K]
-------------------------------------------------------------------------------
ExternalField-molecule
    Van der Waals/kʙ        0.000000e+00 ( 0.000000e+00 +/- 0.000000e+00) [K]
Framework-molecule
    Van der Waals/kʙ        0.000000e+00 ( 0.000000e+00 +/- 0.000000e+00) [K]
    Van der Waals (Tail)/kʙ 0.000000e+00 ( 0.000000e+00 +/- 0.000000e+00) [K]
    Coulombic Real/kʙ       0.000000e+00 ( 0.000000e+00 +/- 0.000000e+00) [K]
    Coulombic Fourier/kʙ    0.000000e+00 ( 0.000000e+00 +/- 0.000000e+00) [K]
Molecule-molecule
    Van der Waals/kʙ       -2.258886e+05 (-2.247456e+05 +/- 0.000000e+00) [K]
    Van der Waals (Tail)/kʙ-5.524159e+03 (-5.444205e+03 +/- 0.000000e+00) [K]
    Coulombic Real/kʙ      -7.013526e+04 (-7.198035e+04 +/- 0.000000e+00) [K]
    Coulombic Fourier/kʙ   -7.016513e+03 (-6.696947e+03 +/- 0.000000e+00) [K]
    Molecule Intra/kʙ       0.000000e+00 ( 0.000000e+00 +/- 0.000000e+00) [K]

Current cycle: 400 out of 5000
===============================================================================

Box:      24.00947   0.00000   0.00000  Average:  23.89568   0.00000   0.00000
           0.00000  24.00947   0.00000             0.00000  23.89568   0.00000
           0.00000   0.00000  24.00947             0.00000   0.00000  23.89568
Lengths:  24.00947  24.00947  24.00947  Average:  23.89568  23.89568  23.89568
Angles:   90.00000  90.00000  90.00000  Average:  90.00000  90.00000  90.00000
Rectangular boundary conditions

net charge:   0.00000000

component 0 (CO2) lambda:  0 occupancy:  1 (1.000000)
    net charge:   0.00000000 [e]

Amount of molecules per component :
-------------------------------------------------------------------------------
Component 0 (CO2)
    molecules:      2.000000e+02 molecules  (2.000000e+02 +/- 0.000000e+00)
    number density: 1.445048e-02 molec./A^3 (1.465972e-02 +/- 0.000000e+00)
    density:        1.055777e+03 kg/m^3     (1.071064e+03 +/- 0.000000e+00)

Average pressure tensor: 
-------------------------------------------------------------------------------
 1.6589e+02 -7.1279e+00 -5.1448e+01 +/- 0.0000e+00 0.0000e+00 0.0000e+00 [bar]
-7.1279e+00  1.0382e+02  4.2241e+01 +/- 0.0000e+00 0.0000e+00 0.0000e+00 [bar]
-5.1448e+01  4.2241e+01  1.6577e+02 +/- 0.0000e+00 0.0000e+00 0.0000e+00 [bar]
Ideal-gas pressure:   5.059986e+02 +/ 0.000000e+00 [bar]
Excess pressure:     -3.608351e+02 +/ 0.000000e+00 [bar]
Pressure:             1.451635e+02 +/ 0.000000e+00 [bar]

Total potential energy/kʙ  -3.081074e+05 (-3.091480e+05 +/- 0.000000e+00) [K]
-------------------------------------------------------------------------------
ExternalField-molecule
    Van der Waals/kʙ        0.000000e+00 ( 0.000000e+00 +/- 0.000000e+00) [K]
Framework-molecule
    Van der Waals/kʙ        0.000000e+00 ( 0.000000e+00 +/- 0.000000e+00) [K]
    Van der Waals (Tail)/kʙ 0.000000e+00 ( 0.000000e+00 +/- 0.000000e+00) [K]
    Coulombic Real/kʙ       0.000000e+00 ( 0.000000e+00 +/- 0.000000e+00) [K]
    Coulombic Fourier/kʙ    0.000000e+00 ( 0.000000e+00 +/- 0.000000e+00) [K]
Molecule-molecule
    Van der Waals/kʙ       -2.238127e+05 (-2.246288e+05 +/- 0.000000e+00) [K]
    Van der Waals (Tail)/kʙ-5.367209e+03 (-5.446117e+03 +/- 0.000000e+00) [K]
    Coulombic Real/kʙ      -7.167017e+04 (-7.222681e+04 +/- 0.000000e+00) [K]
    Coulombic Fourier/kʙ   -7.257386e+03 (-6.846255e+03 +/- 0.000000e+00) [K]
    Molecule Intra/kʙ       0.000000e+00 ( 0.000000e+00 +/- 0.000000e+00) [K]

Current cycle: 500 out of 5000
===============================================================================

Box:      24.04563   0.00000   0.00000  Average:  23.91918   0.00000   0.00000
           0.00000  24.04563   0.00000             0.00000  23.91918   0.00000
           0.00000   0.00000  24.04563             0.00000   0.00000  23.91918
Lengths:  24.04563  24.04563  24.04563  Average:  23.91918  23.91918  23.91918
Angles:   90.00000  90.00000  90.00000  Average:  90.00000  90.00000  90.00000
Rectangular boundary conditions

net charge:   0.00000000

component 0 (CO2) lambda:  0 occupancy:  1 (1.000000)
    net charge:   0.00000000 [e]

Amount of molecules per component :
-------------------------------------------------------------------------------
Component 0 (CO2)
    molecules:      2.000000e+02 molecules  (2.000000e+02 +/- 0.000000e+00)
    number density: 1.438538e-02 molec./A^3 (1.461685e-02 +/- 0.000000e+00)
    density:        1.051021e+03 kg/m^3     (1.067932e+03 +/- 0.000000e+00)

Average pressure tensor: 
-------------------------------------------------------------------------------
 1.3740e+02  5.1806e+00 -4.7674e+01 +/- 0.0000e+00 0.0000e+00 0.0000e+00 [bar]
 5.1806e+00  1.2238e+02  4.1115e+01 +/- 0.0000e+00 0.0000e+00 0.0000e+00 [bar]
-4.7674e+01  4.1115e+01  9.7177e+01 +/- 0.0000e+00 0.0000e+00 0.0000e+00 [bar]
Ideal-gas pressure:   5.045188e+02 +/ 0.000000e+00 [bar]
Excess pressure:     -3.855338e+02 +/ 0.000000e+00 [bar]
Pressure:             1.189850e+02 +/ 0.000000e+00 [bar]

Total potential energy/kʙ  -2.994515e+05 (-3.078922e+05 +/- 0.000000e+00) [K]
-------------------------------------------------------------------------------
ExternalField-molecule
    Van der Waals/kʙ        0.000000e+00 ( 0.000000e+00 +/- 0.000000e+00) [K]
Framework-molecule
    Van der Waals/kʙ        0.000000e+00 ( 0.000000e+00 +/- 0.000000e+00) [K]
    Van der Waals (Tail)/kʙ 0.000000e+00 ( 0.000000e+00 +/- 0.000000e+00) [K]
    Coulombic Real/kʙ       0.000000e+00 ( 0.000000e+00 +/- 0.000000e+00) [K]
    Coulombic Fourier/kʙ    0.000000e+00 ( 0.000000e+00 +/- 0.000000e+00) [K]
Molecule-molecule
    Van der Waals/kʙ       -2.157643e+05 (-2.236013e+05 +/- 0.000000e+00) [K]
    Van der Waals (Tail)/kʙ-5.343030e+03 (-5.428187e+03 +/- 0.000000e+00) [K]
    Coulombic Real/kʙ      -7.207955e+04 (-7.199385e+04 +/- 0.000000e+00) [K]
    Coulombic Fourier/kʙ   -6.264587e+03 (-6.868901e+03 +/- 0.000000e+00) [K]
    Molecule Intra/kʙ       0.000000e+00 ( 0.000000e+00 +/- 0.000000e+00) [K]

Current cycle: 600 out of 5000
===============================================================================

Box:      23.73565   0.00000   0.00000  Average:  23.90835   0.00000   0.00000
           0.00000  23.73565   0.00000             0.00000  23.90835   0.00000
           0.00000   0.00000  23.73565             0.00000   0.00000  23.90835
Lengths:  23.73565  23.73565  23.73565  Average:  23.90835  23.90835  23.90835
Angles:   90.00000  90.00000  90.00000  Average:  90.00000  90.00000  90.00000
Rectangular boundary conditions

net charge:   0.00000000

component 0 (CO2) lambda:  0 occupancy:  1 (1.000000)
    net charge:   0.00000000 [e]

Amount of molecules per component :
-------------------------------------------------------------------------------
Component 0 (CO2)
    molecules:      2.000000e+02 molecules  (2.000000e+02 +/- 0.000000e+00)
    number density: 1.495638e-02 molec./A^3 (1.463703e-02 +/- 0.000000e+00)
    density:        1.092738e+03 kg/m^3     (1.069406e+03 +/- 0.000000e+00)

Average pressure tensor: 
-------------------------------------------------------------------------------
 1.5897e+02  2.4698e+01 -2.6263e+01 +/- 0.0000e+00 0.0000e+00 0.0000e+00 [bar]
 2.4698e+01  1.6629e+02  8.9500e+00 +/- 0.0000e+00 0.0000e+00 0.0000e+00 [bar]
-2.6263e+01  8.9500e+00  1.0098e+02 +/- 0.0000e+00 0.0000e+00 0.0000e+00 [bar]
Ideal-gas pressure:   5.052155e+02 +/ 0.000000e+00 [bar]
Excess pressure:     -3.631386e+02 +/ 0.000000e+00 [bar]
Pressure:             1.420769e+02 +/ 0.000000e+00 [bar]

Total potential energy/kʙ  -3.102842e+05 (-3.069697e+05 +/- 0.000000e+00) [K]
-------------------------------------------------------------------------------
ExternalField-molecule
    Van der Waals/kʙ        0.000000e+00 ( 0.000000e+00 +/- 0.000000e+00) [K]
Framework-molecule
    Van der Waals/kʙ        0.000000e+00 ( 0.000000e+00 +/- 0.000000e+00) [K]
    Van der Waals (Tail)/kʙ 0.000000e+00 ( 0.000000e+00 +/- 0.000000e+00) [K]
    Coulombic Real/kʙ       0.000000e+00 ( 0.000000e+00 +/- 0.000000e+00) [K]
    Coulombic Fourier/kʙ    0.000000e+00 ( 0.000000e+00 +/- 0.000000e+00) [K]
Molecule-molecule
    Van der Waals/kʙ       -2.261448e+05 (-2.236873e+05 +/- 0.000000e+00) [K]
    Van der Waals (Tail)/kʙ-5.555109e+03 (-5.438541e+03 +/- 0.000000e+00) [K]
    Coulombic Real/kʙ      -7.152013e+04 (-7.101304e+04 +/- 0.000000e+00) [K]
    Coulombic Fourier/kʙ   -7.064066e+03 (-6.830897e+03 +/- 0.000000e+00) [K]
    Molecule Intra/kʙ       0.000000e+00 ( 0.000000e+00 +/- 0.000000e+00) [K]

Current cycle: 700 out of 5000
===============================================================================

Box:      24.12626   0.00000   0.00000  Average:  23.90476   0.00000   0.00000
           0.00000  24.12626   0.00000             0.00000  23.90476   0.00000
           0.00000   0.00000  24.12626             0.00000   0.00000  23.90476
Lengths:  24.12626  24.12626  24.12626  Average:  23.90476  23.90476  23.90476
Angles:   90.00000  90.00000  90.00000  Average:  90.00000  90.00000  90.00000
Rectangular boundary conditions

net charge:   0.00000000

component 0 (CO2) lambda:  0 occupancy:  1 (1.000000)
    net charge:   0.00000000 [e]

Amount of molecules per component :
-------------------------------------------------------------------------------
Component 0 (CO2)
    molecules:      2.000000e+02 molecules  (2.000000e+02 +/- 0.000000e+00)
    number density: 1.424164e-02 molec./A^3 (1.464352e-02 +/- 0.000000e+00)
    density:        1.040519e+03 kg/m^3     (1.069881e+03 +/- 0.000000e+00)

Average pressure tensor: 
-------------------------------------------------------------------------------
 1.3813e+02  4.1179e+01  5.1104e+00 +/- 0.0000e+00 0.0000e+00 0.0000e+00 [bar]
 4.1179e+01  2.1039e+02  2.7810e+01 +/- 0.0000e+00 0.0000e+00 0.0000e+00 [bar]
 5.1104e+00  2.7810e+01  1.0477e+02 +/- 0.0000e+00 0.0000e+00 0.0000e+00 [bar]
Ideal-gas pressure:   5.054396e+02 +/ 0.000000e+00 [bar]
Excess pressure:     -3.543448e+02 +/ 0.000000e+00 [bar]
Pressure:             1.510949e+02 +/ 0.000000e+00 [bar]

Total potential energy/kʙ  -2.984060e+05 (-3.066593e+05 +/- 0.000000e+00) [K]
-------------------------------------------------------------------------------
ExternalField-molecule
    Van der Waals/kʙ        0.000000e+00 ( 0.000000e+00 +/- 0.000000e+00) [K]
Framework-molecule
    Van der Waals/kʙ        0.000000e+00 ( 0.000000e+00 +/- 0.000000e+00) [K]
    Van der Waals (Tail)/kʙ 0.000000e+00 ( 0.000000e+00 +/- 0.000000e+00) [K]
    Coulombic Real/kʙ       0.000000e+00 ( 0.000000e+00 +/- 0.000000e+00) [K]
    Coulombic Fourier/kʙ    0.000000e+00 ( 0.000000e+00 +/- 0.000000e+00) [K]
Molecule-molecule
    Van der Waals/kʙ       -2.249533e+05 (-2.238042e+05 +/- 0.000000e+00) [K]
    Van der Waals (Tail)/kʙ-5.289641e+03 (-5.438680e+03 +/- 0.000000e+00) [K]
    Coulombic Real/kʙ      -6.193502e+04 (-7.059071e+04 +/- 0.000000e+00) [K]
    Coulombic Fourier/kʙ   -6.228024e+03 (-6.825707e+03 +/- 0.000000e+00) [K]
    Molecule Intra/kʙ       0.000000e+00 ( 0.000000e+00 +/- 0.000000e+00) [K]

Current cycle: 800 out of 5000
===============================================================================

Box:      24.15092   0.00000   0.00000  Average:  23.91552   0.00000   0.00000
           0.00000  24.15092   0.00000             0.00000  23.91552   0.00000
           0.00000   0.00000  24.15092             0.00000   0.00000  23.91552
Lengths:  24.15092  24.15092  24.15092  Average:  23.91552  23.91552  23.91552
Angles:   90.00000  90.00000  90.00000  Average:  90.00000  90.00000  90.00000
Rectangular boundary conditions

net charge:   0.00000000

component 0 (CO2) lambda:  0 occupancy:  1 (1.000000)
    net charge:   0.00000000 [e]

Amount of molecules per component :
-------------------------------------------------------------------------------
Component 0 (CO2)
    molecules:      2.000000e+02 molecules  (2.000000e+02 +/- 0.000000e+00)
    number density: 1.419806e-02 molec./A^3 (1.462387e-02 +/- 0.000000e+00)
    density:        1.037334e+03 kg/m^3     (1.068445e+03 +/- 0.000000e+00)

Average pressure tensor: 
-------------------------------------------------------------------------------
 1.1745e+02  1.8773e+01  2.1907e+01 +/- 0.0000e+00 0.0000e+00 0.0000e+00 [bar]
 1.8773e+01  1.9726e+02  2.3141e+01 +/- 0.0000e+00 0.0000e+00 0.0000e+00 [bar]
 2.1907e+01  2.3141e+01  1.0921e+02 +/- 0.0000e+00 0.0000e+00 0.0000e+00 [bar]
Ideal-gas pressure:   5.047613e+02 +/ 0.000000e+00 [bar]
Excess pressure:     -3.634534e+02 +/ 0.000000e+00 [bar]
Pressure:             1.413079e+02 +/ 0.000000e+00 [bar]

Total potential energy/kʙ  -2.988007e+05 (-3.058329e+05 +/- 0.000000e+00) [K]
-------------------------------------------------------------------------------
ExternalField-molecule
    Van der Waals/kʙ        0.000000e+00 ( 0.000000e+00 +/- 0.000000e+00) [K]
Framework-molecule
    Van der Waals/kʙ        0.000000e+00 ( 0.000000e+00 +/- 0.000000e+00) [K]
    Van der Waals (Tail)/kʙ 0.000000e+00 ( 0.000000e+00 +/- 0.000000e+00) [K]
    Coulombic Real/kʙ       0.000000e+00 ( 0.000000e+00 +/- 0.000000e+00) [K]
    Coulombic Fourier/kʙ    0.000000e+00 ( 0.000000e+00 +/- 0.000000e+00) [K]
Molecule-molecule
    Van der Waals/kʙ       -2.219814e+05 (-2.235623e+05 +/- 0.000000e+00) [K]
    Van der Waals (Tail)/kʙ-5.273453e+03 (-5.430887e+03 +/- 0.000000e+00) [K]
    Coulombic Real/kʙ      -6.516803e+04 (-7.005677e+04 +/- 0.000000e+00) [K]
    Coulombic Fourier/kʙ   -6.377842e+03 (-6.782978e+03 +/- 0.000000e+00) [K]
    Molecule Intra/kʙ       0.000000e+00 ( 0.000000e+00 +/- 0.000000e+00) [K]

Current cycle: 900 out of 5000
===============================================================================

Box:      23.79076   0.00000   0.00000  Average:  23.92500   0.00000   0.00000
           0.00000  23.79076   0.00000             0.00000  23.92500   0.00000
           0.00000   0.00000  23.79076             0.00000   0.00000  23.92500
Lengths:  23.79076  23.79076  23.79076  Average:  23.92500  23.92500  23.92500
Angles:   90.00000  90.00000  90.00000  Average:  90.00000  90.00000  90.00000
Rectangular boundary conditions

net charge:   0.00000000

component 0 (CO2) lambda:  0 occupancy:  1 (1.000000)
    net charge:   0.00000000 [e]

Amount of molecules per component :
-------------------------------------------------------------------------------
Component 0 (CO2)
    molecules:      2.000000e+02 molecules  (2.000000e+02 +/- 0.000000e+00)
    number density: 1.485268e-02 molec./A^3 (1.460691e-02 +/- 0.000000e+00)
    density:        1.085162e+03 kg/m^3     (1.067206e+03 +/- 0.000000e+00)

Average pressure tensor: 
-------------------------------------------------------------------------------
 1.0438e+02  2.3770e+01  3.2901e+01 +/- 0.0000e+00 0.0000e+00 0.0000e+00 [bar]
 2.3770e+01  1.7869e+02  2.4320e+01 +/- 0.0000e+00 0.0000e+00 0.0000e+00 [bar]
 3.2901e+01  2.4320e+01  1.0492e+02 +/- 0.0000e+00 0.0000e+00 0.0000e+00 [bar]
Ideal-gas pressure:   5.041757e+02 +/ 0.000000e+00 [bar]
Excess pressure:     -3.748453e+02 +/ 0.000000e+00 [bar]
Pressure:             1.293304e+02 +/ 0.000000e+00 [bar]

Total potential energy/kʙ  -3.034660e+05 (-3.052155e+05 +/- 0.000000e+00) [K]
-------------------------------------------------------------------------------
ExternalField-molecule
    Van der Waals/kʙ        0.000000e+00 ( 0.000000e+00 +/- 0.000000e+00) [K]
Framework-molecule
    Van der Waals/kʙ        0.000000e+00 ( 0.000000e+00 +/- 0.000000e+00) [K]
    Van der Waals (Tail)/kʙ 0.000000e+00 ( 0.000000e+00 +/- 0.000000e+00) [K]
    Coulombic Real/kʙ       0.000000e+00 ( 0.000000e+00 +/- 0.000000e+00) [K]
    Coulombic Fourier/kʙ    0.000000e+00 ( 0.000000e+00 +/- 0.000000e+00) [K]
Molecule-molecule
    Van der Waals/kʙ       -2.241811e+05 (-2.233627e+05 +/- 0.000000e+00) [K]
    Van der Waals (Tail)/kʙ-5.516594e+03 (-5.424586e+03 +/- 0.000000e+00) [K]
    Coulombic Real/kʙ      -6.740952e+04 (-6.969129e+04 +/- 0.000000e+00) [K]
    Coulombic Fourier/kʙ   -6.358821e+03 (-6.736882e+03 +/- 0.000000e+00) [K]
    Molecule Intra/kʙ       0.000000e+00 ( 0.000000e+00 +/- 0.000000e+00) [K]

Current cycle: 1000 out of 5000
===============================================================================

Box:      23.68206   0.00000   0.00000  Average:  23.91659   0.00000   0.00000
           0.00000  23.68206   0.00000             0.00000  23.91659   0.00000
           0.00000   0.00000  23.68206             0.00000   0.00000  23.91659
Lengths:  23.68206  23.68206  23.68206  Average:  23.91659  23.91659  23.91659
Angles:   90.00000  90.00000  90.00000  Average:  90.00000  90.00000  90.00000
Rectangular boundary conditions

net charge:   0.00000000

component 0 (CO2) lambda:  0 occupancy:  1 (1.000000)
    net charge:   0.00000000 [e]

Amount of molecules per component :
-------------------------------------------------------------------------------
Component 0 (CO2)
    molecules:      2.000000e+02 molecules  (2.000000e+02 +/- 0.000000e+00)
    number density: 1.505814e-02 molec./A^3 (1.462228e-02 +/- 0.000000e+00)
    density:        1.100174e+03 kg/m^3     (1.068329e+03 +/- 0.000000e+00)

Average pressure tensor: 
-------------------------------------------------------------------------------
 1.1375e+02  7.4596e+00  4.3793e+01 +/- 0.0000e+00 0.0000e+00 0.0000e+00 [bar]
 7.4596e+00  1.8238e+02  2.5445e+01 +/- 0.0000e+00 0.0000e+00 0.0000e+00 [bar]
 4.3793e+01  2.5445e+01  1.1259e+02 +/- 0.0000e+00 0.0000e+00 0.0000e+00 [bar]
Ideal-gas pressure:   5.047064e+02 +/ 0.000000e+00 [bar]
Excess pressure:     -3.684656e+02 +/ 0.000000e+00 [bar]
Pressure:             1.362408e+02 +/ 0.000000e+00 [bar]

Total potential energy/kʙ  -3.173289e+05 (-3.054528e+05 +/- 0.000000e+00) [K]
-------------------------------------------------------------------------------
ExternalField-molecule
    Van der Waals/kʙ        0.000000e+00 ( 0.000000e+00 +/- 0.000000e+00) [K]
Framework-molecule
    Van der Waals/kʙ        0.000000e+00 ( 0.000000e+00 +/- 0.000000e+00) [K]
    Van der Waals (Tail)/kʙ 0.000000e+00 ( 0.000000e+00 +/- 0.000000e+00) [K]
    Coulombic Real/kʙ       0.000000e+00 ( 0.000000e+00 +/- 0.000000e+00) [K]
    Coulombic Fourier/kʙ    0.000000e+00 ( 0.000000e+00 +/- 0.000000e+00) [K]
Molecule-molecule
    Van der Waals/kʙ       -2.279118e+05 (-2.234160e+05 +/- 0.000000e+00) [K]
    Van der Waals (Tail)/kʙ-5.592908e+03 (-5.431576e+03 +/- 0.000000e+00) [K]
    Coulombic Real/kʙ      -7.691471e+04 (-6.987362e+04 +/- 0.000000e+00) [K]
    Coulombic Fourier/kʙ   -6.909514e+03 (-6.731645e+03 +/- 0.000000e+00) [K]
    Molecule Intra/kʙ       0.000000e+00 ( 0.000000e+00 +/- 0.000000e+00) [K]

Current cycle: 1100 out of 5000
===============================================================================

Box:      24.09954   0.00000   0.00000  Average:  23.92168   0.00000   0.00000
           0.00000  24.09954   0.00000             0.00000  23.92168   0.00000
           0.00000   0.00000  24.09954             0.00000   0.00000  23.92168
Lengths:  24.09954  24.09954  24.09954  Average:  23.92168  23.92168  23.92168
Angles:   90.00000  90.00000  90.00000  Average:  90.00000  90.00000  90.00000
Rectangular boundary conditions

net charge:   0.00000000

component 0 (CO2) lambda:  0 occupancy:  1 (1.000000)
    net charge:   0.00000000 [e]

Amount of molecules per component :
-------------------------------------------------------------------------------
Component 0 (CO2)
    molecules:      2.000000e+02 molecules  (2.000000e+02 +/- 0.000000e+00)
    number density: 1.428906e-02 molec./A^3 (1.461302e-02 +/- 0.000000e+00)
    density:        1.043983e+03 kg/m^3     (1.067652e+03 +/- 0.000000e+00)

Average pressure tensor: 
-------------------------------------------------------------------------------
 1.1237e+02  1.0275e+01  4.0274e+01 +/- 0.0000e+00 0.0000e+00 0.0000e+00 [bar]
 1.0275e+01  1.7787e+02  1.6041e+01 +/- 0.0000e+00 0.0000e+00 0.0000e+00 [bar]
 4.0274e+01  1.6041e+01  1.1876e+02 +/- 0.0000e+00 0.0000e+00 0.0000e+00 [bar]
Ideal-gas pressure:   5.043867e+02 +/ 0.000000e+00 [bar]
Excess pressure:     -3.680521e+02 +/ 0.000000e+00 [bar]
Pressure:             1.363346e+02 +/ 0.000000e+00 [bar]

Total potential energy/kʙ  -3.023951e+05 (-3.055938e+05 +/- 0.000000e+00) [K]
-------------------------------------------------------------------------------
ExternalField-molecule
    Van der Waals/kʙ        0.000000e+00 ( 0.000000e+00 +/- 0.000000e+00) [K]
Framework-molecule
    Van der Waals/kʙ        0.000000e+00 ( 0.000000e+00 +/- 0.000000e+00) [K]
    Van der Waals (Tail)/kʙ 0.000000e+00 ( 0.000000e+00 +/- 0.000000e+00) [K]
    Coulombic Real/kʙ       0.000000e+00 ( 0.000000e+00 +/- 0.000000e+00) [K]
    Coulombic Fourier/kʙ    0.000000e+00 ( 0.000000e+00 +/- 0.000000e+00) [K]
Molecule-molecule
    Van der Waals/kʙ       -2.135100e+05 (-2.231798e+05 +/- 0.000000e+00) [K]
    Van der Waals (Tail)/kʙ-5.307252e+03 (-5.427113e+03 +/- 0.000000e+00) [K]
    Coulombic Real/kʙ      -7.633021e+04 (-7.024217e+04 +/- 0.000000e+00) [K]
    Coulombic Fourier/kʙ   -7.247600e+03 (-6.744693e+03 +/- 0.000000e+00) [K]
    Molecule Intra/kʙ       0.000000e+00 ( 0.000000e+00 +/- 0.000000e+00) [K]

Current cycle: 1200 out of 5000
===============================================================================

Box:      24.09281   0.00000   0.00000  Average:  23.93605   0.00000   0.00000
           0.00000  24.09281   0.00000             0.00000  23.93605   0.00000
           0.00000   0.00000  24.09281             0.00000   0.00000  23.93605
Lengths:  24.09281  24.09281  24.09281  Average:  23.93605  23.93605  23.93605
Angles:   90.00000  90.00000  90.00000  Average:  90.00000  90.00000  90.00000
Rectangular boundary conditions

net charge:   0.00000000

component 0 (CO2) lambda:  0 occupancy:  1 (1.000000)
    net charge:   0.00000000 [e]

Amount of molecules per component :
-------------------------------------------------------------------------------
Component 0 (CO2)
    molecules:      2.000000e+02 molecules  (2.000000e+02 +/- 0.000000e+00)
    number density: 1.430104e-02 molec./A^3 (1.458697e-02 +/- 0.000000e+00)
    density:        1.044859e+03 kg/m^3     (1.065749e+03 +/- 0.000000e+00)

Average pressure tensor: 
-------------------------------------------------------------------------------
 1.3561e+02  1.7249e+01  3.6720e+01 +/- 0.0000e+00 0.0000e+00 0.0000e+00 [bar]
 1.7249e+01  1.8694e+02  1.1504e+01 +/- 0.0000e+00 0.0000e+00 0.0000e+00 [bar]
 3.6720e+01  1.1504e+01  1.2342e+02 +/- 0.0000e+00 0.0000e+00 0.0000e+00 [bar]
Ideal-gas pressure:   5.034877e+02 +/ 0.000000e+00 [bar]
Excess pressure:     -3.548314e+02 +/ 0.000000e+00 [bar]
Pressure:             1.486564e+02 +/ 0.000000e+00 [bar]

Total potential energy/kʙ  -3.050535e+05 (-3.051163e+05 +/- 0.000000e+00) [K]
-------------------------------------------------------------------------------
ExternalField-molecule
    Van der Waals/kʙ        0.000000e+00 ( 0.000000e+00 +/- 0.000000e+00) [K]
Framework-molecule
    Van der Waals/kʙ        0.000000e+00 ( 0.000000e+00 +/- 0.000000e+00) [K]
    Van der Waals (Tail)/kʙ 0.000000e+00 ( 0.000000e+00 +/- 0.000000e+00) [K]
    Coulombic Real/kʙ       0.000000e+00 ( 0.000000e+00 +/- 0.000000e+00) [K]
    Coulombic Fourier/kʙ    0.000000e+00 ( 0.000000e+00 +/- 0.000000e+00) [K]
Molecule-molecule
    Van der Waals/kʙ       -2.214106e+05 (-2.227374e+05 +/- 0.000000e+00) [K]
    Van der Waals (Tail)/kʙ-5.311704e+03 (-5.418729e+03 +/- 0.000000e+00) [K]
    Coulombic Real/kʙ      -7.152547e+04 (-7.021716e+04 +/- 0.000000e+00) [K]
    Coulombic Fourier/kʙ   -6.805649e+03 (-6.743008e+03 +/- 0.000000e+00) [K]
    Molecule Intra/kʙ       0.000000e+00 ( 0.000000e+00 +/- 0.000000e+00) [K]

Current cycle: 1300 out of 5000
===============================================================================

Box:      24.18268   0.00000   0.00000  Average:  23.96072   0.00000   0.00000
           0.00000  24.18268   0.00000             0.00000  23.96072   0.00000
           0.00000   0.00000  24.18268             0.00000   0.00000  23.96072
Lengths:  24.18268  24.18268  24.18268  Average:  23.96072  23.96072  23.96072
Angles:   90.00000  90.00000  90.00000  Average:  90.00000  90.00000  90.00000
Rectangular boundary conditions

net charge:   0.00000000

component 0 (CO2) lambda:  0 occupancy:  1 (1.000000)
    net charge:   0.00000000 [e]

Amount of molecules per component :
-------------------------------------------------------------------------------
Component 0 (CO2)
    molecules:      2.000000e+02 molecules  (2.000000e+02 +/- 0.000000e+00)
    number density: 1.414219e-02 molec./A^3 (1.454295e-02 +/- 0.000000e+00)
    density:        1.033253e+03 kg/m^3     (1.062533e+03 +/- 0.000000e+00)

Average pressure tensor: 
-------------------------------------------------------------------------------
 1.4672e+02  1.6671e+01  3.7871e+01 +/- 0.0000e+00 0.0000e+00 0.0000e+00 [bar]
 1.6671e+01  1.8879e+02 -5.5721e-01 +/- 0.0000e+00 0.0000e+00 0.0000e+00 [bar]
 3.7871e+01 -5.5721e-01  1.0927e+02 +/- 0.0000e+00 0.0000e+00 0.0000e+00 [bar]
Ideal-gas pressure:   5.019682e+02 +/ 0.000000e+00 [bar]
Excess pressure:     -3.537083e+02 +/ 0.000000e+00 [bar]
Pressure:             1.482599e+02 +/ 0.000000e+00 [bar]

Total potential energy/kʙ  -2.919637e+05 (-3.039397e+05 +/- 0.000000e+00) [K]
-------------------------------------------------------------------------------
ExternalField-molecule
    Van der Waals/kʙ        0.000000e+00 ( 0.000000e+00 +/- 0.000000e+00) [K]
Framework-molecule
    Van der Waals/kʙ        0.000000e+00 ( 0.000000e+00 +/- 0.000000e+00) [K]
    Van der Waals (Tail)/kʙ 0.000000e+00 ( 0.000000e+00 +/- 0.000000e+00) [K]
    Coulombic Real/kʙ       0.000000e+00 ( 0.000000e+00 +/- 0.000000e+00) [K]
    Coulombic Fourier/kʙ    0.000000e+00 ( 0.000000e+00 +/- 0.000000e+00) [K]
Molecule-molecule
    Van der Waals/kʙ       -2.137768e+05 (-2.219784e+05 +/- 0.000000e+00) [K]
    Van der Waals (Tail)/kʙ-5.252705e+03 (-5.402909e+03 +/- 0.000000e+00) [K]
    Coulombic Real/kʙ      -6.615972e+04 (-6.982842e+04 +/- 0.000000e+00) [K]
    Coulombic Fourier/kʙ   -6.774411e+03 (-6.729980e+03 +/- 0.000000e+00) [K]
    Molecule Intra/kʙ       0.000000e+00 ( 0.000000e+00 +/- 0.000000e+00) [K]

Current cycle: 1400 out of 5000
===============================================================================

Box:      24.17165   0.00000   0.00000  Average:  23.98741   0.00000   0.00000
           0.00000  24.17165   0.00000             0.00000  23.98741   0.00000
           0.00000   0.00000  24.17165             0.00000   0.00000  23.98741
Lengths:  24.17165  24.17165  24.17165  Average:  23.98741  23.98741  23.98741
Angles:   90.00000  90.00000  90.00000  Average:  90.00000  90.00000  90.00000
Rectangular boundary conditions

net charge:   0.00000000

component 0 (CO2) lambda:  0 occupancy:  1 (1.000000)
    net charge:   0.00000000 [e]

Amount of molecules per component :
-------------------------------------------------------------------------------
Component 0 (CO2)
    molecules:      2.000000e+02 molecules  (2.000000e+02 +/- 0.000000e+00)
    number density: 1.416155e-02 molec./A^3 (1.449573e-02 +/- 0.000000e+00)
    density:        1.034667e+03 kg/m^3     (1.059083e+03 +/- 0.000000e+00)

Average pressure tensor: 
-------------------------------------------------------------------------------
 1.4669e+02  6.5902e+00  4.5373e+01 +/- 0.0000e+00 0.0000e+00 0.0000e+00 [bar]
 6.5902e+00  1.9949e+02 -7.0320e+00 +/- 0.0000e+00 0.0000e+00 0.0000e+00 [bar]
 4.5373e+01 -7.0320e+00  1.2304e+02 +/- 0.0000e+00 0.0000e+00 0.0000e+00 [bar]
Ideal-gas pressure:   5.003382e+02 +/ 0.000000e+00 [bar]
Excess pressure:     -3.439282e+02 +/ 0.000000e+00 [bar]
Pressure:             1.564100e+02 +/ 0.000000e+00 [bar]

Total potential energy/kʙ  -2.852388e+05 (-3.023312e+05 +/- 0.000000e+00) [K]
-------------------------------------------------------------------------------
ExternalField-molecule
    Van der Waals/kʙ        0.000000e+00 ( 0.000000e+00 +/- 0.000000e+00) [K]
Framework-molecule
    Van der Waals/kʙ        0.000000e+00 ( 0.000000e+00 +/- 0.000000e+00) [K]
    Van der Waals (Tail)/kʙ 0.000000e+00 ( 0.000000e+00 +/- 0.000000e+00) [K]
    Coulombic Real/kʙ       0.000000e+00 ( 0.000000e+00 +/- 0.000000e+00) [K]
    Coulombic Fourier/kʙ    0.000000e+00 ( 0.000000e+00 +/- 0.000000e+00) [K]
Molecule-molecule
    Van der Waals/kʙ       -2.110986e+05 (-2.209480e+05 +/- 0.000000e+00) [K]
    Van der Waals (Tail)/kʙ-5.259896e+03 (-5.386664e+03 +/- 0.000000e+00) [K]
    Coulombic Real/kʙ      -6.220416e+04 (-6.926616e+04 +/- 0.000000e+00) [K]
    Coulombic Fourier/kʙ   -6.676117e+03 (-6.730343e+03 +/- 0.000000e+00) [K]
    Molecule Intra/kʙ       0.000000e+00 ( 0.000000e+00 +/- 0.000000e+00) [K]

Current cycle: 1500 out of 5000
===============================================================================

Box:      23.98385   0.00000   0.00000  Average:  24.00042   0.00000   0.00000
           0.00000  23.98385   0.00000             0.00000  24.00042   0.00000
           0.00000   0.00000  23.98385             0.00000   0.00000  24.00042
Lengths:  23.98385  23.98385  23.98385  Average:  24.00042  24.00042  24.00042
Angles:   90.00000  90.00000  90.00000  Average:  90.00000  90.00000  90.00000
Rectangular boundary conditions

net charge:   0.00000000

component 0 (CO2) lambda:  0 occupancy:  1 (1.000000)
    net charge:   0.00000000 [e]

Amount of molecules per component :
-------------------------------------------------------------------------------
Component 0 (CO2)
    molecules:      2.000000e+02 molecules  (2.000000e+02 +/- 0.000000e+00)
    number density: 1.449685e-02 molec./A^3 (1.447225e-02 +/- 0.000000e+00)
    density:        1.059164e+03 kg/m^3     (1.057367e+03 +/- 0.000000e+00)

Average pressure tensor: 
-------------------------------------------------------------------------------
 1.3953e+02  5.3137e+00  5.1688e+01 +/- 0.0000e+00 0.0000e+00 0.0000e+00 [bar]
 5.3137e+00  2.0287e+02 -6.2905e+00 +/- 0.0000e+00 0.0000e+00 0.0000e+00 [bar]
 5.1688e+01 -6.2905e+00  1.2155e+02 +/- 0.0000e+00 0.0000e+00 0.0000e+00 [bar]
Ideal-gas pressure:   4.995279e+02 +/ 0.000000e+00 [bar]
Excess pressure:     -3.448787e+02 +/ 0.000000e+00 [bar]
Pressure:             1.546492e+02 +/ 0.000000e+00 [bar]

Total potential energy/kʙ  -2.965923e+05 (-3.018012e+05 +/- 0.000000e+00) [K]
-------------------------------------------------------------------------------
ExternalField-molecule
    Van der Waals/kʙ        0.000000e+00 ( 0.000000e+00 +/- 0.000000e+00) [K]
Framework-molecule
    Van der Waals/kʙ        0.000000e+00 ( 0.000000e+00 +/- 0.000000e+00) [K]
    Van der Waals (Tail)/kʙ 0.000000e+00 ( 0.000000e+00 +/- 0.000000e+00) [K]
    Coulombic Real/kʙ       0.000000e+00 ( 0.000000e+00 +/- 0.000000e+00) [K]
    Coulombic Fourier/kʙ    0.000000e+00 ( 0.000000e+00 +/- 0.000000e+00) [K]
Molecule-molecule
    Van der Waals/kʙ       -2.211850e+05 (-2.205173e+05 +/- 0.000000e+00) [K]
    Van der Waals (Tail)/kʙ-5.384430e+03 (-5.378320e+03 +/- 0.000000e+00) [K]
    Coulombic Real/kʙ      -6.335813e+04 (-6.916901e+04 +/- 0.000000e+00) [K]
    Coulombic Fourier/kʙ   -6.664806e+03 (-6.736629e+03 +/- 0.000000e+00) [K]
    Molecule Intra/kʙ       0.000000e+00 ( 0.000000e+00 +/- 0.000000e+00) [K]

Current cycle: 1600 out of 5000
===============================================================================

Box:      23.54986   0.00000   0.00000  Average:  23.98259   0.00000   0.00000
           0.00000  23.54986   0.00000             0.00000  23.98259   0.00000
           0.00000   0.00000  23.54986             0.00000   0.00000  23.98259
Lengths:  23.54986  23.54986  23.54986  Average:  23.98259  23.98259  23.98259
Angles:   90.00000  90.00000  90.00000  Average:  90.00000  90.00000  90.00000
Rectangular boundary conditions

net charge:   0.00000000

component 0 (CO2) lambda:  0 occupancy:  1 (1.000000)
    net charge:   0.00000000 [e]

Amount of molecules per component :
-------------------------------------------------------------------------------
Component 0 (CO2)
    molecules:      2.000000e+02 molecules  (2.000000e+02 +/- 0.000000e+00)
    number density: 1.531316e-02 molec./A^3 (1.450518e-02 +/- 0.000000e+00)
    density:        1.118806e+03 kg/m^3     (1.059773e+03 +/- 0.000000e+00)

Average pressure tensor: 
-------------------------------------------------------------------------------
 1.2859e+02 -3.0881e+00  5.2818e+01 +/- 0.0000e+00 0.0000e+00 0.0000e+00 [bar]
-3.0881e+00  2.2186e+02  9.8583e+00 +/- 0.0000e+00 0.0000e+00 0.0000e+00 [bar]
 5.2818e+01  9.8583e+00  1.0061e+02 +/- 0.0000e+00 0.0000e+00 0.0000e+00 [bar]
Ideal-gas pressure:   5.006644e+02 +/ 0.000000e+00 [bar]
Excess pressure:     -3.503120e+02 +/ 0.000000e+00 [bar]
Pressure:             1.503525e+02 +/ 0.000000e+00 [bar]

Total potential energy/kʙ  -3.292093e+05 (-3.028881e+05 +/- 0.000000e+00) [K]
-------------------------------------------------------------------------------
ExternalField-molecule
    Van der Waals/kʙ        0.000000e+00 ( 0.000000e+00 +/- 0.000000e+00) [K]
Framework-molecule
    Van der Waals/kʙ        0.000000e+00 ( 0.000000e+00 +/- 0.000000e+00) [K]
    Van der Waals (Tail)/kʙ 0.000000e+00 ( 0.000000e+00 +/- 0.000000e+00) [K]
    Coulombic Real/kʙ       0.000000e+00 ( 0.000000e+00 +/- 0.000000e+00) [K]
    Coulombic Fourier/kʙ    0.000000e+00 ( 0.000000e+00 +/- 0.000000e+00) [K]
Molecule-molecule
    Van der Waals/kʙ       -2.357793e+05 (-2.211476e+05 +/- 0.000000e+00) [K]
    Van der Waals (Tail)/kʙ-5.687626e+03 (-5.391345e+03 +/- 0.000000e+00) [K]
    Coulombic Real/kʙ      -8.021046e+04 (-6.956132e+04 +/- 0.000000e+00) [K]
    Coulombic Fourier/kʙ   -7.531869e+03 (-6.787870e+03 +/- 0.000000e+00) [K]
    Molecule Intra/kʙ       0.000000e+00 ( 0.000000e+00 +/- 0.000000e+00) [K]

Current cycle: 1700 out of 5000
===============================================================================

Box:      23.60730   0.00000   0.00000  Average:  23.95647   0.00000   0.00000
           0.00000  23.60730   0.00000             0.00000  23.95647   0.00000
           0.00000   0.00000  23.60730             0.00000   0.00000  23.95647
Lengths:  23.60730  23.60730  23.60730  Average:  23.95647  23.95647  23.95647
Angles:   90.00000  90.00000  90.00000  Average:  90.00000  90.00000  90.00000
Rectangular boundary conditions

net charge:   0.00000000

component 0 (CO2) lambda:  0 occupancy:  1 (1.000000)
    net charge:   0.00000000 [e]

Amount of molecules per component :
-------------------------------------------------------------------------------
Component 0 (CO2)
    molecules:      2.000000e+02 molecules  (2.000000e+02 +/- 0.000000e+00)
    number density: 1.520167e-02 molec./A^3 (1.455407e-02 +/- 0.000000e+00)
    density:        1.110660e+03 kg/m^3     (1.063345e+03 +/- 0.000000e+00)

Average pressure tensor: 
-------------------------------------------------------------------------------
 1.1979e+02 -8.1468e+00  4.0898e+01 +/- 0.0000e+00 0.0000e+00 0.0000e+00 [bar]
-8.1468e+00  2.0683e+02  1.5556e+01 +/- 0.0000e+00 0.0000e+00 0.0000e+00 [bar]
 4.0898e+01  1.5556e+01  1.0413e+02 +/- 0.0000e+00 0.0000e+00 0.0000e+00 [bar]
Ideal-gas pressure:   5.023519e+02 +/ 0.000000e+00 [bar]
Excess pressure:     -3.587682e+02 +/ 0.000000e+00 [bar]
Pressure:             1.435837e+02 +/ 0.000000e+00 [bar]

Total potential energy/kʙ  -3.217651e+05 (-3.043569e+05 +/- 0.000000e+00) [K]
-------------------------------------------------------------------------------
ExternalField-molecule
    Van der Waals/kʙ        0.000000e+00 ( 0.000000e+00 +/- 0.000000e+00) [K]
Framework-molecule
    Van der Waals/kʙ        0.000000e+00 ( 0.000000e+00 +/- 0.000000e+00) [K]
    Van der Waals (Tail)/kʙ 0.000000e+00 ( 0.000000e+00 +/- 0.000000e+00) [K]
    Coulombic Real/kʙ       0.000000e+00 ( 0.000000e+00 +/- 0.000000e+00) [K]
    Coulombic Fourier/kʙ    0.000000e+00 ( 0.000000e+00 +/- 0.000000e+00) [K]
Molecule-molecule
    Van der Waals/kʙ       -2.345653e+05 (-2.219625e+05 +/- 0.000000e+00) [K]
    Van der Waals (Tail)/kʙ-5.646215e+03 (-5.408420e+03 +/- 0.000000e+00) [K]
    Coulombic Real/kʙ      -7.420342e+04 (-7.016127e+04 +/- 0.000000e+00) [K]
    Coulombic Fourier/kʙ   -7.350172e+03 (-6.824655e+03 +/- 0.000000e+00) [K]
    Molecule Intra/kʙ       0.000000e+00 ( 0.000000e+00 +/- 0.000000e+00) [K]

Current cycle: 1800 out of 5000
===============================================================================

Box:      23.78293   0.00000   0.00000  Average:  23.93408   0.00000   0.00000
           0.00000  23.78293   0.00000             0.00000  23.93408   0.00000
           0.00000   0.00000  23.78293             0.00000   0.00000  23.93408
Lengths:  23.78293  23.78293  23.78293  Average:  23.93408  23.93408  23.93408
Angles:   90.00000  90.00000  90.00000  Average:  90.00000  90.00000  90.00000
Rectangular boundary conditions

net charge:   0.00000000

component 0 (CO2) lambda:  0 occupancy:  1 (1.000000)
    net charge:   0.00000000 [e]

Amount of molecules per component :
-------------------------------------------------------------------------------
Component 0 (CO2)
    molecules:      2.000000e+02 molecules  (2.000000e+02 +/- 0.000000e+00)
    number density: 1.486736e-02 molec./A^3 (1.459602e-02 +/- 0.000000e+00)
    density:        1.086235e+03 kg/m^3     (1.066410e+03 +/- 0.000000e+00)

Average pressure tensor: 
-------------------------------------------------------------------------------
 1.3247e+02 -2.0699e+01  3.2548e+01 +/- 0.0000e+00 0.0000e+00 0.0000e+00 [bar]
-2.0699e+01  2.1072e+02  1.4539e+01 +/- 0.0000e+00 0.0000e+00 0.0000e+00 [bar]
 3.2548e+01  1.4539e+01  1.0351e+02 +/- 0.0000e+00 0.0000e+00 0.0000e+00 [bar]
Ideal-gas pressure:   5.038000e+02 +/ 0.000000e+00 [bar]
Excess pressure:     -3.548989e+02 +/ 0.000000e+00 [bar]
Pressure:             1.489011e+02 +/ 0.000000e+00 [bar]

Total potential energy/kʙ  -3.023257e+05 (-3.054221e+05 +/- 0.000000e+00) [K]
-------------------------------------------------------------------------------
ExternalField-molecule
    Van der Waals/kʙ        0.000000e+00 ( 0.000000e+00 +/- 0.000000e+00) [K]
Framework-molecule
    Van der Waals/kʙ        0.000000e+00 ( 0.000000e+00 +/- 0.000000e+00) [K]
    Van der Waals (Tail)/kʙ 0.000000e+00 ( 0.000000e+00 +/- 0.000000e+00) [K]
    Coulombic Real/kʙ       0.000000e+00 ( 0.000000e+00 +/- 0.000000e+00) [K]
    Coulombic Fourier/kʙ    0.000000e+00 ( 0.000000e+00 +/- 0.000000e+00) [K]
Molecule-molecule
    Van der Waals/kʙ       -2.250999e+05 (-2.226376e+05 +/- 0.000000e+00) [K]
    Van der Waals (Tail)/kʙ-5.522045e+03 (-5.424170e+03 +/- 0.000000e+00) [K]
    Coulombic Real/kʙ      -6.477170e+04 (-7.050530e+04 +/- 0.000000e+00) [K]
    Coulombic Fourier/kʙ   -6.931980e+03 (-6.855032e+03 +/- 0.000000e+00) [K]
    Molecule Intra/kʙ       0.000000e+00 ( 0.000000e+00 +/- 0.000000e+00) [K]

Current cycle: 1900 out of 5000
===============================================================================

Box:      23.63804   0.00000   0.00000  Average:  23.92093   0.00000   0.00000
           0.00000  23.63804   0.00000             0.00000  23.92093   0.00000
           0.00000   0.00000  23.63804             0.00000   0.00000  23.92093
Lengths:  23.63804  23.63804  23.63804  Average:  23.92093  23.92093  23.92093
Angles:   90.00000  90.00000  90.00000  Average:  90.00000  90.00000  90.00000
Rectangular boundary conditions

net charge:   0.00000000

component 0 (CO2) lambda:  0 occupancy:  1 (1.000000)
    net charge:   0.00000000 [e]

Amount of molecules per component :
-------------------------------------------------------------------------------
Component 0 (CO2)
    molecules:      2.000000e+02 molecules  (2.000000e+02 +/- 0.000000e+00)
    number density: 1.514243e-02 molec./A^3 (1.462016e-02 +/- 0.000000e+00)
    density:        1.106332e+03 kg/m^3     (1.068174e+03 +/- 0.000000e+00)

Average pressure tensor: 
-------------------------------------------------------------------------------
 1.3246e+02 -2.6841e+01  3.4016e+01 +/- 0.0000e+00 0.0000e+00 0.0000e+00 [bar]
-2.6841e+01  2.1036e+02  1.4825e+01 +/- 0.0000e+00 0.0000e+00 0.0000e+00 [bar]
 3.4016e+01  1.4825e+01  1.0078e+02 +/- 0.0000e+00 0.0000e+00 0.0000e+00 [bar]
Ideal-gas pressure:   5.046333e+02 +/ 0.000000e+00 [bar]
Excess pressure:     -3.567685e+02 +/ 0.000000e+00 [bar]
Pressure:             1.478648e+02 +/ 0.000000e+00 [bar]

Total potential energy/kʙ  -3.187603e+05 (-3.059012e+05 +/- 0.000000e+00) [K]
-------------------------------------------------------------------------------
ExternalField-molecule
    Van der Waals/kʙ        0.000000e+00 ( 0.000000e+00 +/- 0.000000e+00) [K]
Framework-molecule
    Van der Waals/kʙ        0.000000e+00 ( 0.000000e+00 +/- 0.000000e+00) [K]
    Van der Waals (Tail)/kʙ 0.000000e+00 ( 0.000000e+00 +/- 0.000000e+00) [K]
    Coulombic Real/kʙ       0.000000e+00 ( 0.000000e+00 +/- 0.000000e+00) [K]
    Coulombic Fourier/kʙ    0.000000e+00 ( 0.000000e+00 +/- 0.000000e+00) [K]
Molecule-molecule
    Van der Waals/kʙ       -2.348279e+05 (-2.230997e+05 +/- 0.000000e+00) [K]
    Van der Waals (Tail)/kʙ-5.624213e+03 (-5.433057e+03 +/- 0.000000e+00) [K]
    Coulombic Real/kʙ      -7.169069e+04 (-7.049461e+04 +/- 0.000000e+00) [K]
    Coulombic Fourier/kʙ   -6.617425e+03 (-6.873825e+03 +/- 0.000000e+00) [K]
    Molecule Intra/kʙ       0.000000e+00 ( 0.000000e+00 +/- 0.000000e+00) [K]

Current cycle: 2000 out of 5000
===============================================================================

Box:      23.75488   0.00000   0.00000  Average:  23.91069   0.00000   0.00000
           0.00000  23.75488   0.00000             0.00000  23.91069   0.00000
           0.00000   0.00000  23.75488             0.00000   0.00000  23.91069
Lengths:  23.75488  23.75488  23.75488  Average:  23.91069  23.91069  23.91069
Angles:   90.00000  90.00000  90.00000  Average:  90.00000  90.00000  90.00000
Rectangular boundary conditions

net charge:   0.00000000

component 0 (CO2) lambda:  0 occupancy:  1 (1.000000)
    net charge:   0.00000000 [e]

Amount of molecules per component :
-------------------------------------------------------------------------------
Component 0 (CO2)
    molecules:      2.000000e+02 molecules  (2.000000e+02 +/- 0.000000e+00)
    number density: 1.492010e-02 molec./A^3 (1.463888e-02 +/- 0.000000e+00)
    density:        1.090088e+03 kg/m^3     (1.069542e+03 +/- 0.000000e+00)

Average pressure tensor: 
-------------------------------------------------------------------------------
 1.3774e+02 -2.9208e+01  3.7336e+01 +/- 0.0000e+00 0.0000e+00 0.0000e+00 [bar]
-2.9208e+01  2.1479e+02  1.9862e+01 +/- 0.0000e+00 0.0000e+00 0.0000e+00 [bar]
 3.7336e+01  1.9862e+01  9.5343e+01 +/- 0.0000e+00 0.0000e+00 0.0000e+00 [bar]
Ideal-gas pressure:   5.052794e+02 +/ 0.000000e+00 [bar]
Excess pressure:     -3.559865e+02 +/ 0.000000e+00 [bar]
Pressure:             1.492928e+02 +/ 0.000000e+00 [bar]

Total potential energy/kʙ  -3.144061e+05 (-3.063078e+05 +/- 0.000000e+00) [K]
-------------------------------------------------------------------------------
ExternalField-molecule
    Van der Waals/kʙ        0.000000e+00 ( 0.000000e+00 +/- 0.000000e+00) [K]
Framework-molecule
    Van der Waals/kʙ        0.000000e+00 ( 0.000000e+00 +/- 0.000000e+00) [K]
    Van der Waals (Tail)/kʙ 0.000000e+00 ( 0.000000e+00 +/- 0.000000e+00) [K]
    Coulombic Real/kʙ       0.000000e+00 ( 0.000000e+00 +/- 0.000000e+00) [K]
    Coulombic Fourier/kʙ    0.000000e+00 ( 0.000000e+00 +/- 0.000000e+00) [K]
Molecule-molecule
    Van der Waals/kʙ       -2.337957e+05 (-2.233741e+05 +/- 0.000000e+00) [K]
    Van der Waals (Tail)/kʙ-5.541635e+03 (-5.440058e+03 +/- 0.000000e+00) [K]
    Coulombic Real/kʙ      -6.833986e+04 (-7.062727e+04 +/- 0.000000e+00) [K]
    Coulombic Fourier/kʙ   -6.728909e+03 (-6.866384e+03 +/- 0.000000e+00) [K]
    Molecule Intra/kʙ       0.000000e+00 ( 0.000000e+00 +/- 0.000000e+00) [K]

Current cycle: 2100 out of 5000
===============================================================================

Box:      23.72791   0.00000   0.00000  Average:  23.90199   0.00000   0.00000
           0.00000  23.72791   0.00000             0.00000  23.90199   0.00000
           0.00000   0.00000  23.72791             0.00000   0.00000  23.90199
Lengths:  23.72791  23.72791  23.72791  Average:  23.90199  23.90199  23.90199
Angles:   90.00000  90.00000  90.00000  Average:  90.00000  90.00000  90.00000
Rectangular boundary conditions

net charge:   0.00000000

component 0 (CO2) lambda:  0 occupancy:  1 (1.000000)
    net charge:   0.00000000 [e]

Amount of molecules per component :
-------------------------------------------------------------------------------
Component 0 (CO2)
    molecules:      2.000000e+02 molecules  (2.000000e+02 +/- 0.000000e+00)
    number density: 1.497102e-02 molec./A^3 (1.465473e-02 +/- 0.000000e+00)
    density:        1.093808e+03 kg/m^3     (1.070700e+03 +/- 0.000000e+00)

Average pressure tensor: 
-------------------------------------------------------------------------------
 1.5125e+02 -3.9969e+01  3.5770e+01 +/- 0.0000e+00 0.0000e+00 0.0000e+00 [bar]
-3.9969e+01  1.9974e+02  9.7854e+00 +/- 0.0000e+00 0.0000e+00 0.0000e+00 [bar]
 3.5770e+01  9.7854e+00  1.0589e+02 +/- 0.0000e+00 0.0000e+00 0.0000e+00 [bar]
Ideal-gas pressure:   5.058265e+02 +/ 0.000000e+00 [bar]
Excess pressure:     -3.535343e+02 +/ 0.000000e+00 [bar]
Pressure:             1.522922e+02 +/ 0.000000e+00 [bar]

Total potential energy/kʙ  -3.110827e+05 (-3.065727e+05 +/- 0.000000e+00) [K]
-------------------------------------------------------------------------------
ExternalField-molecule
    Van der Waals/kʙ        0.000000e+00 ( 0.000000e+00 +/- 0.000000e+00) [K]
Framework-molecule
    Van der Waals/kʙ        0.000000e+00 ( 0.000000e+00 +/- 0.000000e+00) [K]
    Van der Waals (Tail)/kʙ 0.000000e+00 ( 0.000000e+00 +/- 0.000000e+00) [K]
[...]
    Coulombic Fourier/kʙ    0.000000e+00 ( 0.000000e+00 +/- 0.000000e+00) [K]
Molecule-molecule
    Van der Waals/kʙ       -2.249929e+05 (-2.253972e+05 +/- 3.106516e+03) [K]
    Van der Waals (Tail)/kʙ-5.331232e+03 (-5.484326e+03 +/- 7.237141e+01) [K]
    Coulombic Real/kʙ      -6.902714e+04 (-7.219372e+04 +/- 2.951097e+03) [K]
    Coulombic Fourier/kʙ   -7.233598e+03 (-6.874166e+03 +/- 2.070186e+02) [K]
    Molecule Intra/kʙ       0.000000e+00 ( 0.000000e+00 +/- 0.000000e+00) [K]

Current cycle: 4700 out of 5000
===============================================================================

Box:      23.95790   0.00000   0.00000  Average:  23.84464   0.00000   0.00000
           0.00000  23.95790   0.00000             0.00000  23.84464   0.00000
           0.00000   0.00000  23.95790             0.00000   0.00000  23.84464
Lengths:  23.95790  23.95790  23.95790  Average:  23.84464  23.84464  23.84464
Angles:   90.00000  90.00000  90.00000  Average:  90.00000  90.00000  90.00000
Rectangular boundary conditions

net charge:   0.00000000

component 0 (CO2) lambda:  0 occupancy:  1 (1.000000)
    net charge:   0.00000000 [e]

Amount of molecules per component :
-------------------------------------------------------------------------------
Component 0 (CO2)
    molecules:      2.000000e+02 molecules  (2.000000e+02 +/- 0.000000e+00)
    number density: 1.454400e-02 molec./A^3 (1.475843e-02 +/- 1.989355e-04)
    density:        1.062609e+03 kg/m^3     (1.078276e+03 +/- 1.453457e+01)

Average pressure tensor: 
-------------------------------------------------------------------------------
 1.5679e+02 -4.0684e+01  3.0507e+01 +/- 5.5398e+01 5.2339e+01 3.7259e+01 [bar]
-4.0684e+01  1.5926e+02 -3.4092e+00 +/- 5.2339e+01 1.0823e+02 2.9147e+01 [bar]
 3.0507e+01 -3.4092e+00  1.0440e+02 +/- 3.7259e+01 2.9147e+01 4.2219e+01 [bar]
Ideal-gas pressure:   5.094058e+02 +/ 6.866508e+00 [bar]
Excess pressure:     -3.692587e+02 +/ 3.502596e+01 [bar]
Pressure:             1.401472e+02 +/ 3.262665e+01 [bar]

Total potential energy/kʙ  -3.023679e+05 (-3.097948e+05 +/- 6.244105e+03) [K]
-------------------------------------------------------------------------------
ExternalField-molecule
    Van der Waals/kʙ        0.000000e+00 ( 0.000000e+00 +/- 0.000000e+00) [K]
Framework-molecule
    Van der Waals/kʙ        0.000000e+00 ( 0.000000e+00 +/- 0.000000e+00) [K]
    Van der Waals (Tail)/kʙ 0.000000e+00 ( 0.000000e+00 +/- 0.000000e+00) [K]
    Coulombic Real/kʙ       0.000000e+00 ( 0.000000e+00 +/- 0.000000e+00) [K]
    Coulombic Fourier/kʙ    0.000000e+00 ( 0.000000e+00 +/- 0.000000e+00) [K]
Molecule-molecule
    Van der Waals/kʙ       -2.175349e+05 (-2.253289e+05 +/- 3.148817e+03) [K]
    Van der Waals (Tail)/kʙ-5.401942e+03 (-5.482612e+03 +/- 7.347035e+01) [K]
    Coulombic Real/kʙ      -7.259329e+04 (-7.210952e+04 +/- 3.011997e+03) [K]
    Coulombic Fourier/kʙ   -6.837767e+03 (-6.873772e+03 +/- 1.928805e+02) [K]
    Molecule Intra/kʙ       0.000000e+00 ( 0.000000e+00 +/- 0.000000e+00) [K]

Current cycle: 4800 out of 5000
===============================================================================

Box:      24.04936   0.00000   0.00000  Average:  23.84998   0.00000   0.00000
           0.00000  24.04936   0.00000             0.00000  23.84998   0.00000
           0.00000   0.00000  24.04936             0.00000   0.00000  23.84998
Lengths:  24.04936  24.04936  24.04936  Average:  23.84998  23.84998  23.84998
Angles:   90.00000  90.00000  90.00000  Average:  90.00000  90.00000  90.00000
Rectangular boundary conditions

net charge:   0.00000000

component 0 (CO2) lambda:  0 occupancy:  1 (1.000000)
    net charge:   0.00000000 [e]

Amount of molecules per component :
-------------------------------------------------------------------------------
Component 0 (CO2)
    molecules:      2.000000e+02 molecules  (2.000000e+02 +/- 0.000000e+00)
    number density: 1.437870e-02 molec./A^3 (1.474864e-02 +/- 2.099258e-04)
    density:        1.050532e+03 kg/m^3     (1.077561e+03 +/- 1.533754e+01)

Average pressure tensor: 
-------------------------------------------------------------------------------
 1.5941e+02 -3.8900e+01  3.0573e+01 +/- 5.8618e+01 5.1033e+01 3.3101e+01 [bar]
-3.8900e+01  1.6060e+02 -6.5748e-01 +/- 5.1033e+01 1.0232e+02 3.0167e+01 [bar]
 3.0573e+01 -6.5748e-01  9.9226e+01 +/- 3.3101e+01 3.0167e+01 2.7033e+01 [bar]
Ideal-gas pressure:   5.090679e+02 +/ 7.245853e+00 [bar]
Excess pressure:     -3.693215e+02 +/ 3.480029e+01 [bar]
Pressure:             1.397464e+02 +/ 3.239485e+01 [bar]

Total potential energy/kʙ  -3.039255e+05 (-3.095057e+05 +/- 6.570468e+03) [K]
-------------------------------------------------------------------------------
ExternalField-molecule
    Van der Waals/kʙ        0.000000e+00 ( 0.000000e+00 +/- 0.000000e+00) [K]
Framework-molecule
    Van der Waals/kʙ        0.000000e+00 ( 0.000000e+00 +/- 0.000000e+00) [K]
    Van der Waals (Tail)/kʙ 0.000000e+00 ( 0.000000e+00 +/- 0.000000e+00) [K]
    Coulombic Real/kʙ       0.000000e+00 ( 0.000000e+00 +/- 0.000000e+00) [K]
    Coulombic Fourier/kʙ    0.000000e+00 ( 0.000000e+00 +/- 0.000000e+00) [K]
Molecule-molecule
    Van der Waals/kʙ       -2.202198e+05 (-2.251645e+05 +/- 3.325757e+03) [K]
    Van der Waals (Tail)/kʙ-5.340547e+03 (-5.478819e+03 +/- 7.783353e+01) [K]
    Coulombic Real/kʙ      -7.130914e+04 (-7.199212e+04 +/- 3.131258e+03) [K]
    Coulombic Fourier/kʙ   -7.056050e+03 (-6.870268e+03 +/- 1.902363e+02) [K]
    Molecule Intra/kʙ       0.000000e+00 ( 0.000000e+00 +/- 0.000000e+00) [K]

Current cycle: 4900 out of 5000
===============================================================================

Box:      23.73136   0.00000   0.00000  Average:  23.85316   0.00000   0.00000
           0.00000  23.73136   0.00000             0.00000  23.85316   0.00000
           0.00000   0.00000  23.73136             0.00000   0.00000  23.85316
Lengths:  23.73136  23.73136  23.73136  Average:  23.85316  23.85316  23.85316
Angles:   90.00000  90.00000  90.00000  Average:  90.00000  90.00000  90.00000
Rectangular boundary conditions

net charge:   0.00000000

component 0 (CO2) lambda:  0 occupancy:  1 (1.000000)
    net charge:   0.00000000 [e]

Amount of molecules per component :
-------------------------------------------------------------------------------
Component 0 (CO2)
    molecules:      2.000000e+02 molecules  (2.000000e+02 +/- 0.000000e+00)
    number density: 1.496449e-02 molec./A^3 (1.474273e-02 +/- 2.139540e-04)
    density:        1.093331e+03 kg/m^3     (1.077129e+03 +/- 1.563184e+01)

Average pressure tensor: 
-------------------------------------------------------------------------------
 1.6181e+02 -3.5129e+01  3.2522e+01 +/- 6.0933e+01 5.1148e+01 2.4453e+01 [bar]
-3.5129e+01  1.5832e+02 -7.8557e+00 +/- 5.1148e+01 1.0339e+02 3.2567e+01 [bar]
 3.2522e+01 -7.8557e+00  1.0372e+02 +/- 2.4453e+01 3.2567e+01 3.5055e+01 [bar]
Ideal-gas pressure:   5.088638e+02 +/ 7.384890e+00 [bar]
Excess pressure:     -3.675826e+02 +/ 3.598451e+01 [bar]
Pressure:             1.412812e+02 +/ 3.308996e+01 [bar]

Total potential energy/kʙ  -3.023855e+05 (-3.093212e+05 +/- 6.690353e+03) [K]
-------------------------------------------------------------------------------
ExternalField-molecule
    Van der Waals/kʙ        0.000000e+00 ( 0.000000e+00 +/- 0.000000e+00) [K]
Framework-molecule
    Van der Waals/kʙ        0.000000e+00 ( 0.000000e+00 +/- 0.000000e+00) [K]
    Van der Waals (Tail)/kʙ 0.000000e+00 ( 0.000000e+00 +/- 0.000000e+00) [K]
    Coulombic Real/kʙ       0.000000e+00 ( 0.000000e+00 +/- 0.000000e+00) [K]
    Coulombic Fourier/kʙ    0.000000e+00 ( 0.000000e+00 +/- 0.000000e+00) [K]
Molecule-molecule
    Van der Waals/kʙ       -2.244450e+05 (-2.250394e+05 +/- 3.439531e+03) [K]
    Van der Waals (Tail)/kʙ-5.558122e+03 (-5.477046e+03 +/- 7.862520e+01) [K]
    Coulombic Real/kʙ      -6.562411e+04 (-7.193844e+04 +/- 3.121939e+03) [K]
    Coulombic Fourier/kʙ   -6.758308e+03 (-6.866322e+03 +/- 1.895578e+02) [K]
    Molecule Intra/kʙ       0.000000e+00 ( 0.000000e+00 +/- 0.000000e+00) [K]


Energy statistics             |  Energy [K]   | Recomputed [K]|  Drift [K]    |
===============================================================================
Total potential energy/kʙ     | -3.013972e+05 | -3.013972e+05 | -2.428394e-10 |
    external field VDW/kʙ     |  0.000000e+00 |  0.000000e+00 |  0.000000e+00 |
    external field Real/kʙ    |  0.000000e+00 |  0.000000e+00 |  0.000000e+00 |
    framework-molecule VDW/kʙ |  0.000000e+00 |  0.000000e+00 |  0.000000e+00 |
    framework-molecule Real/kʙ|  0.000000e+00 |  0.000000e+00 |  0.000000e+00 |
    molecule-molecule VDW/kʙ  | -2.235710e+05 | -2.235710e+05 | -4.900544e-10 |
    molecule-molecule Real/kʙ | -6.579279e+04 | -6.579279e+04 |  2.450272e-10 |
    Van der Waals (Tail)/kʙ   | -5.486922e+03 | -5.486922e+03 |  0.000000e+00 |
    Ewald Fourier/kʙ          |  5.214682e+03 |  5.214682e+03 |  2.187743e-12 |
    Ewald self/kʙ             | -3.673356e+06 | -3.673356e+06 |  0.000000e+00 |
    Ewald exclusion/kʙ        |  3.661595e+06 |  3.661595e+06 |  0.000000e+00 |
    intra VDW/kʙ              |  0.000000e+00 |  0.000000e+00 |  0.000000e+00 |
    intra Coulombic/kʙ        |  0.000000e+00 |  0.000000e+00 |  0.000000e+00 |
    polarization/kʙ           |  0.000000e+00 |  0.000000e+00 |  0.000000e+00 |
    dU/dlambda VDW/kʙ         |  0.000000e+00 |  0.000000e+00 |  0.000000e+00 |
    dU/dlambda Real/kʙ        |  0.000000e+00 |  0.000000e+00 |  0.000000e+00 |
    dU/dlambda Ewald/kʙ       |  0.000000e+00 |  0.000000e+00 |  0.000000e+00 |
-------------------------------------------------------------------------------


Monte-Carlo moves statistics
===============================================================================

    Volume change        all:                6537
    Volume change        total:              6537
    Volume change        constructed:        6537
    Volume change        accepted:           3494
    Volume change        fraction:       0.534496
    Volume change        max-change:     0.025000

Component 0 [CO2]
    Reinsertion (CBMC)   all:              330631
    Reinsertion (CBMC)   total:            330631
    Reinsertion (CBMC)   constructed:      289388
    Reinsertion (CBMC)   accepted:           3823
    Reinsertion (CBMC)   fraction:       0.011563
    Reinsertion (CBMC)   max-change:     0.000000

    Translation          all:              331529
    Translation          total:            110499     110876     110154
    Translation          constructed:      110499     110870     110154
    Translation          accepted:          60776      44435      55898
    Translation          fraction:       0.550014   0.400763   0.507453
    Translation          max-change:     0.559140   0.884211   0.639498

    Rotation             all:              331303
    Rotation             total:            110364     110003     110936
    Rotation             constructed:      110360     110003     110936
    Rotation             accepted:          49015      62894      52902
    Rotation             fraction:       0.444121   0.571748   0.476870
    Rotation             max-change:     0.825397   0.535885   0.730769



Production run counting of the MC moves summed over systems and components
===============================================================================

Volume change                          6537 (0.6537 [%])
Reinsertion (CBMC)                   330631 (33.0631 [%])
Translation                          331529 (33.1529 [%])
Rotation                             331303 (33.1303 [%])

Production count MC-steps:          1000000 [-]
               All summed:          1000000 [-]
               difference:                0 [-]


Production run CPU timings of the MC moves
===============================================================================

Component 0 CO2

Rotation                             46.860320 [s]
    Ewald                            13.277478 [s]
    ExternalField-Molecule            0.011626 [s]
    Framework-Molecule                0.012160 [s]
    Molecule-Molecule                32.367000 [s]
    Overhead                          1.192056 [s]

Reinsertion (CBMC)                  220.926411 [s]
    Ewald                            11.679085 [s]
    NonEwald                        208.927744 [s]
    Overhead                          0.319582 [s]

Translation                          47.029300 [s]
    Ewald                            13.357022 [s]
    ExternalField-Molecule            0.010564 [s]
    Framework-Molecule                0.019646 [s]
    Molecule-Molecule                32.497834 [s]
    Overhead                          1.144234 [s]



Volume change                         46.122644 [s]
    Ewald                              9.325398 [s]
    NonEwald                          35.342146 [s]
    Tail                               1.230877 [s]

Property sampling                     0.275109 [s]
Energy/pressure sampling:             6.380184 [s]


Production run CPU timings of the MC moves summed over systems and components
===============================================================================


Translation                          47.029300 [s]
    Ewald                            13.357022 [s]
    ExternalField-Molecule            0.010564 [s]
    Framework-Molecule                0.019646 [s]
    Molecule-Molecule                32.497834 [s]
    Overhead                          1.144234 [s]

Rotation                             46.860320 [s]
    Ewald                            13.277478 [s]
    ExternalField-Molecule            0.011626 [s]
    Framework-Molecule                0.012160 [s]
    Molecule-Molecule                32.367000 [s]
    Overhead                          1.192056 [s]

Volume change                        46.122644 [s]
    Ewald                             9.325398 [s]
    NonEwald                         35.342146 [s]
    Tail                              1.230877 [s]
    Overhead                          0.224223 [s]

Reinsertion (CBMC)                  220.926411 [s]
    Ewald                            11.679085 [s]
    NonEwald                        208.927744 [s]
    Overhead                          0.319582 [s]

Property sampling:                    0.275109 [s]
Energy/pressure sampling:             6.380184 [s]

Production simulation time:         368.323832 [s]
                All summed:         367.593968 [s]
                  Overhead:           0.729864 [s]


Initalization simulation time:       71.112071 [s]
Equilibration simulation time:        0.000000 [s]
Production simulation time:         368.323832 [s]
Total simulation time:              439.435903 [s]


Energy averages and statistics:
===============================================================================

Framework-molecule energy:
-------------------------------------------------------------------------------



Framework-molecule energy contributions per energy type:
-------------------------------------------------------------------------------



Inter-molecular energy:
-------------------------------------------------------------------------------

    Inter-molecular energy/kʙ 0-0 [CO2-CO2]:
    ---------------------------------------------------------------------------
        Block[  0] -3.053341e+05
        Block[  1] -3.072006e+05
        Block[  2] -3.154167e+05
        Block[  3] -3.144809e+05
        Block[  4] -3.033615e+05
        -----------------------------------------------------------------------
        Average  -3.091588e+05 +/-  6.787250e+03 [K]



Inter-molecular energy contributions per energy type:
-------------------------------------------------------------------------------

    Van der Waals energy/kʙ 0-0 [CO2-CO2]:
    ---------------------------------------------------------------------------
        Block[  0] -2.233710e+05
        Block[  1] -2.232730e+05
        Block[  2] -2.285326e+05
        Block[  3] -2.273961e+05
        Block[  4] -2.223430e+05
        -----------------------------------------------------------------------
        Average  -2.249831e+05 +/-  3.451353e+03 [K]

    VDW Tail-Correction energy/kʙ 0-0 [CO2-CO2]:
    ---------------------------------------------------------------------------
        Block[  0] -5.429963e+03
        Block[  1] -5.449136e+03
        Block[  2] -5.559194e+03
        Block[  3] -5.526435e+03
        Block[  4] -5.414479e+03
        -----------------------------------------------------------------------
        Average  -5.475841e+03 +/-  7.873962e+01 [K]

    Coulomb Real energy/kʙ 0-0 [CO2-CO2]:
    ---------------------------------------------------------------------------
        Block[  0] -6.980321e+04
        Block[  1] -7.147419e+04
        Block[  2] -7.436856e+04
        Block[  3] -7.460270e+04
        Block[  4] -6.889544e+04
        -----------------------------------------------------------------------
        Average  -7.182882e+04 +/-  3.224123e+03 [K]

    Coulomb Fourier energy/kʙ 0-0 [CO2-CO2]:
    ---------------------------------------------------------------------------
        Block[  0] -6.729867e+03
        Block[  1] -7.004275e+03
        Block[  2] -6.956375e+03
        Block[  3] -6.955660e+03
        Block[  4] -6.708638e+03
        -----------------------------------------------------------------------
        Average  -6.870963e+03 +/-  1.739142e+02 [K]


Total energy/kʙ
-------------------------------------------------------------------------------
    Block[  0] -3.053341e+05
    Block[  1] -3.072006e+05
    Block[  2] -3.154167e+05
    Block[  3] -3.144809e+05
    Block[  4] -3.033615e+05
    ---------------------------------------------------------------------------
    Average  -3.091588e+05 +/-  6.787250e+03 [K]

Pressure averages and statistics:
===============================================================================

Average pressure tensor: 
-------------------------------------------------------------------------------
 1.6685e+02 -3.3829e+01  3.4067e+01 +/- 6.9146e+01 5.1626e+01 1.8641e+01 [bar]
-3.3829e+01  1.5192e+02 -8.3291e+00 +/- 5.1626e+01 1.1082e+02 3.2623e+01 [bar]
 3.4067e+01 -8.3291e+00  1.0348e+02 +/- 1.8641e+01 3.2623e+01 3.2970e+01 [bar]

    Block[  0]  5.046914e+07
    Block[  1]  5.058577e+07
    Block[  2]  5.163773e+07
    Block[  3]  5.138021e+07
    Block[  4]  5.031227e+07
    ---------------------------------------------------------------------------
    Ideal gas pressure   5.087702e+07 +/-  4.426219e-02 [Pa]
                         5.087702e+02 +/-  7.349915e+00 [bar]


    Block[  0] -3.685293e+07
    Block[  1] -3.432722e+07
    Block[  2] -3.572236e+07
    Block[  3] -4.163824e+07
    Block[  4] -3.546941e+07
    ---------------------------------------------------------------------------
    Excess pressure  -3.680203e+07 +/-  3.536421e+06 [Pa]
                     -3.680203e+02 +/-  3.536421e+01 [bar]


    Block[  0]  1.361620e+07
    Block[  1]  1.625855e+07
    Block[  2]  1.591537e+07
    Block[  3]  9.741968e+06
    Block[  4]  1.484286e+07
    ---------------------------------------------------------------------------
    Pressure average   1.407499e+07 +/-  3.268739e+06 [Pa]
                       1.407499e+02 +/-  3.268739e+01 [bar]


Enthalpy of adsorption
===============================================================================

No fluctuating components present.


Densities
===============================================================================

Component 0 (CO2)
    Block[  0] 200
    Block[  1] 200
    Block[  2] 200
    Block[  3] 200
    Block[  4] 200
    -----------------------------------------------------------------------
    Density average   2.000000e+02 +/-  0.000000e+00 [molecules]
    Density average   1.474002e-02 +/-  2.129407e-04 [molec/A^3]
    Density average   1.076931e+03 +/-  1.555781e+01 [kg.m⁻³]

