Compiler and run-time data
===============================================================================
RASPA 3.0.4

Random seed: 46377736

Compiled as a 64-bits application
Compiler: gcc Ubuntu Clang 18.1.3 (1ubuntu1)
Compile Date = Mar 15 2025, Compile Time = 19:39:45

2025-06-02 13:38:55.143119
Simulation started on Mon, Jun 02
The start time was 13:38:00

Hostname:    c061
OS type:     Linux on x86_64
OS release:  6.8.0-58-generic
OS version:  #60-Ubuntu SMP PREEMPT_DYNAMIC Fri Mar 14 18:29:48 UTC 2025


Mutual consistent basic set of units:
===============================================================================

Unit of temperature: 1 [K]
Unit of length:      1e-10 [m]
Unit of time:        1e-12 [s]
Unit of mass:        1.6605402e-27 [kg]
Unit of charge:      1.60217733e-19 [C/particle]


Boltzmann constant (internal units):          0.8314464919307584 [-]
represents conversion from energy (internal units) to temperature (in Kelvin)

Derived units and their conversion factors:
===============================================================================

Unit of energy:                           1.6605402000000002e-23 [J]
Unit of energy:                           10.000008872307538 [J.mol⁻¹]
Unit of velocity:                         100 [m.s⁻¹]
Unit of force:                            1.6605402000000002e-13 [N]
Unit of diffusion:                        1.0000000000000002e-08 [m².s⁻¹]
Unit of acceleration:                     1.0000000000000002e-08 [m².s⁻¹]
Unit of torque:                           1.6605402000000002e-23 [N.m]
Unit of pressure:                         16605402 [Pa]
Unit of volume:                           1e-30 [m³]
Unit of density:                          1660.5402 [kg.m⁻³]
Unit of dynamic viscosity:                1.6605401999999997e-05 [N.s.m⁻²]
Unit of enthalpy:                         1.6605402000000002e-23 [J]
Unit of polarizability:                   1.5458657349975198e-35 [-]
Unit of Coulomb potential:                167101.08000665612 [K]
Unit of dielectric constant:              1.5458657349975193e-05 [s².C².kg⁻¹.m⁻³]
Unit of dipole moment:                    1.60217733e-29 [C.m]
Unit of Debye:                            4.803206799099162 [C.m]
Unit of electric potential:               0.00010364272224473431 [V]
Unit of electric field:                   1036427.222447343 [V.m⁻¹]
Unit of isothermal compressibility:       6.02213665167516e-08 [Pa⁻¹]
Unit of heat capacity:                    10.000008872307538 [J.mol⁻¹.K⁻¹]
Unit of volumetric expansion coefficient: 1 [K⁻¹]


Internal conversion factors:
===============================================================================

Energy (internal units) to Kelvin:      1.202724284692786 [-]
Kelvin to energy (internal units):      0.8314457542157567 [-]


System definitions
===============================================================================

Temperature:          250 [K]
Beta:                 0.0048108928702210625 [-]
Pressure:             1e+07 [Pa]
Helium void fraction: 1 [-]

Box:      30.00000   0.00000   0.00000
           0.00000  30.00000   0.00000
           0.00000   0.00000  30.00000
Lengths:  30.00000  30.00000  30.00000
Angles:   90.00000  90.00000  90.00000
Rectangular boundary conditions



Property measurement settings
===============================================================================




Pseudo-atoms
===============================================================================

  0 - C_co2    framework-atom: false
  1 - O_co2    framework-atom: false

  0 - C_co2    mass: 12.00000, charge:  0.70000
  1 - O_co2    mass: 15.99940, charge: -0.35000

  0 - C_co2    polarizability:  0.00000
  1 - O_co2    polarizability:  0.00000

  0 - J. J. Potoff et al., AIChE J. 2001, 47, 1676–1682.
  1 - J. J. Potoff et al., AIChE J. 2001, 47, 1676–1682.

Force field status
===============================================================================

Cutoff Framework-Molecule VDW:  10.00000 [Å]
Cutoff Molecule-Molecule VDW:   10.00000 [Å]
Cutoff Coulomb:                 10.00000 [Å]

Overlap-criteria VDW:           1.000000e+05 [K]

C_co2    - C_co2    Lennard-Jones p₀/kʙ:  27.00000 [K], p₁:  2.80000 [Å]
                                  shift:   0.00000 [K], tailcorrections: true
C_co2    - O_co2    Lennard-Jones p₀/kʙ:  46.18441 [K], p₁:  2.92500 [Å]
                                  shift:   0.00000 [K], tailcorrections: true
O_co2    - O_co2    Lennard-Jones p₀/kʙ:  79.00000 [K], p₁:  3.05000 [Å]
                                  shift:   0.00000 [K], tailcorrections: true

Ewald precision: 1e-06
Ewald alpha: 0.32079885109097883
Ewald k-vectors: 10 10 10


Component definitions
===============================================================================

Component 0 [CO2]

    Type: Adsorbate

    Critical temperature:  304.1282 [K]
    Critical pressure:     7377300 [Pa]
    Acentric factor:       0.22394 [-]

    Mol-fraction:                 1 [-]
    Swappable:                   false

    Mass:                         43.9988 [-]
    Bulk fluid density:           0 [-]
    Compressibility:              0 [-]
    Excess molecules:             0 [-]

    Number Of Atoms:    3
    CBMC starting bead: 0
      0: O_co2  position  0.00000 -0.00000  1.16000, charge -0.35000
      1: C_co2  position  0.00000 -0.00000  0.00000, charge  0.70000
      2: O_co2  position  0.00000 -0.00000 -1.16000, charge -0.35000
    Diagonalized inertia-vector:      43.05758528 43.05758528 0.00000000
    Translational degrees of freedom: 3
    Rotational degrees of freedom:    2
    Shape of the molecule is: 'Linear'
    Net-charge:        0.00000000 [e]

    Move probabilities:
    Translation:                   0.331126 [-]
    Random translation:            0.000000 [-]
    Rotation:                      0.331126 [-]
    Random rotation:               0.000000 [-]
    Volume change:                 0.006623 [-]
    Reinsertion (CBMC):            0.331126 [-]
    Identity change (CBMC):        0.000000 [-]
    Swap:                          0.000000 [-]
    Swap (CBMC):                   0.000000 [-]
    Swap (CFCMC):                  0.000000 [-]
    Swap (CB/CFCMC):               0.000000 [-]
    Gibbs volume:                  0.000000 [-]
    Gibbs swap (CBMC):             0.000000 [-]
    Gibbs swap (CFCMC):            0.000000 [-]
    Widom:                         0.000000 [-]
    Widom (CFCMC):                 0.000000 [-]
    Widom (CB/CFCMC):              0.000000 [-]
    Parallel tempering:            0.000000 [-]
    Hybrid MC:                     0.000000 [-]

    number of blocking-pockets: 0

    number of bonds: 0





Number of pseudo-atoms
===============================================================================

Component   0 (CO2)
-------------------------------------------------------------------------------
    index   0 (C_co2): 200 atoms
    index   1 (O_co2): 400 atoms

Total number of pseudo-atoms:
-------------------------------------------------------------------------------
    index   0 (C_co2): 200 atoms
    index   1 (O_co2): 400 atoms




Energy status Recomputed from scratch
===============================================================================

Total potential energy/kʙ       -9.448652e+04 [K]
    external field VDW/kʙ        0.000000e+00 [K]
    external field Real/kʙ       0.000000e+00 [K]
    framework-molecule VDW/kʙ    0.000000e+00 [K]
    framework-molecule Real/kʙ   0.000000e+00 [K]
    molecule-molecule VDW/kʙ    -7.357158e+04 [K]
    molecule-molecule Real/kʙ   -1.358810e+04 [K]
    Van der Waals (Tail)/kʙ     -4.753406e+03 [K]
    Ewald Fourier/kʙ             2.648827e+04 [K]
    Ewald self/kʙ               -4.445846e+06 [K]
    Ewald exclusion/kʙ           4.416785e+06 [K]
    intra VDW/kʙ                 0.000000e+00 [K]
    intra Coulombic/kʙ           0.000000e+00 [K]
    polarization/kʙ              0.000000e+00 [K]
    dU/dlambda VDW/kʙ            0.000000e+00 [K]
    dU/dlambda Real/kʙ           0.000000e+00 [K]
    dU/dlambda Ewald/kʙ          0.000000e+00 [K]





Initialization: Current cycle: 0 out of 1000
===============================================================================

Box:      30.00000   0.00000   0.00000
           0.00000  30.00000   0.00000
           0.00000   0.00000  30.00000
Lengths:  30.00000  30.00000  30.00000
Angles:   90.00000  90.00000  90.00000
Rectangular boundary conditions

net charge:   0.00000000

component   0 (CO2) lambda:  0 occupancy:  1 (1.000000)
    net charge:   0.00000000 [e]

Amount of molecules per component :
-------------------------------------------------------------------------------
Component 0 (CO2)
    molecules:         2.000000e+02 molecules
    number density:    7.407407e-03 molec/A^3
    density:           5.411979e+02 kg/m^3

Total potential energy/kʙ       -1.367148e+05 [K]
-------------------------------------------------------------------------------
    external field VDW/kʙ        0.000000e+00 [K]
    external field Real/kʙ       0.000000e+00 [K]
    framework-molecule VDW/kʙ    0.000000e+00 [K]
    framework-molecule Real/kʙ   0.000000e+00 [K]
    molecule-molecule VDW/kʙ    -1.067414e+05 [K]
    molecule-molecule Real/kʙ   -2.041595e+04 [K]
    Van der Waals (Tail)/kʙ     -4.753406e+03 [K]
    Ewald Fourier/kʙ             2.425765e+04 [K]
    Ewald self/kʙ               -4.445846e+06 [K]
    Ewald exclusion/kʙ           4.416785e+06 [K]
    intra VDW/kʙ                 0.000000e+00 [K]
    intra Coulombic/kʙ           0.000000e+00 [K]
    polarization/kʙ              0.000000e+00 [K]
    dU/dlambda VDW/kʙ            0.000000e+00 [K]
    dU/dlambda Real/kʙ           0.000000e+00 [K]
    dU/dlambda Ewald/kʙ          0.000000e+00 [K]


Initialization: Current cycle: 100 out of 1000
===============================================================================

Box:      27.16270   0.00000   0.00000
           0.00000  27.16270   0.00000
           0.00000   0.00000  27.16270
Lengths:  27.16270  27.16270  27.16270
Angles:   90.00000  90.00000  90.00000
Rectangular boundary conditions

net charge:   0.00000000

component   0 (CO2) lambda:  0 occupancy:  1 (1.000000)
    net charge:   0.00000000 [e]

Amount of molecules per component :
-------------------------------------------------------------------------------
Component 0 (CO2)
    molecules:         2.000000e+02 molecules
    number density:    9.979558e-03 molec/A^3
    density:           7.291236e+02 kg/m^3

Total potential energy/kʙ       -2.255202e+05 [K]
-------------------------------------------------------------------------------
    external field VDW/kʙ        0.000000e+00 [K]
    external field Real/kʙ       0.000000e+00 [K]
    framework-molecule VDW/kʙ    0.000000e+00 [K]
    framework-molecule Real/kʙ   0.000000e+00 [K]
    molecule-molecule VDW/kʙ    -1.595609e+05 [K]
    molecule-molecule Real/kʙ   -4.853733e+04 [K]
    Van der Waals (Tail)/kʙ     -6.403980e+03 [K]
    Ewald Fourier/kʙ             1.804370e+04 [K]
    Ewald self/kʙ               -4.445846e+06 [K]
    Ewald exclusion/kʙ           4.416785e+06 [K]
    intra VDW/kʙ                 0.000000e+00 [K]
    intra Coulombic/kʙ           0.000000e+00 [K]
    polarization/kʙ              0.000000e+00 [K]
    dU/dlambda VDW/kʙ            0.000000e+00 [K]
    dU/dlambda Real/kʙ           0.000000e+00 [K]
    dU/dlambda Ewald/kʙ          0.000000e+00 [K]


Initialization: Current cycle: 200 out of 1000
===============================================================================

Box:      25.59617   0.00000   0.00000
           0.00000  25.59617   0.00000
           0.00000   0.00000  25.59617
Lengths:  25.59617  25.59617  25.59617
Angles:   90.00000  90.00000  90.00000
Rectangular boundary conditions

net charge:   0.00000000

component   0 (CO2) lambda:  0 occupancy:  1 (1.000000)
    net charge:   0.00000000 [e]

Amount of molecules per component :
-------------------------------------------------------------------------------
Component 0 (CO2)
    molecules:         2.000000e+02 molecules
    number density:    1.192628e-02 molec/A^3
    density:           8.713541e+02 kg/m^3

Total potential energy/kʙ       -2.481102e+05 [K]
-------------------------------------------------------------------------------
    external field VDW/kʙ        0.000000e+00 [K]
    external field Real/kʙ       0.000000e+00 [K]
    framework-molecule VDW/kʙ    0.000000e+00 [K]
    framework-molecule Real/kʙ   0.000000e+00 [K]
    molecule-molecule VDW/kʙ    -1.786680e+05 [K]
    molecule-molecule Real/kʙ   -4.869035e+04 [K]
    Van der Waals (Tail)/kʙ     -7.653208e+03 [K]
    Ewald Fourier/kʙ             1.596309e+04 [K]
    Ewald self/kʙ               -4.445846e+06 [K]
    Ewald exclusion/kʙ           4.416785e+06 [K]
    intra VDW/kʙ                 0.000000e+00 [K]
    intra Coulombic/kʙ           0.000000e+00 [K]
    polarization/kʙ              0.000000e+00 [K]
    dU/dlambda VDW/kʙ            0.000000e+00 [K]
    dU/dlambda Real/kʙ           0.000000e+00 [K]
    dU/dlambda Ewald/kʙ          0.000000e+00 [K]


Initialization: Current cycle: 300 out of 1000
===============================================================================

Box:      24.31347   0.00000   0.00000
           0.00000  24.31347   0.00000
           0.00000   0.00000  24.31347
Lengths:  24.31347  24.31347  24.31347
Angles:   90.00000  90.00000  90.00000
Rectangular boundary conditions

net charge:   0.00000000

component   0 (CO2) lambda:  0 occupancy:  1 (1.000000)
    net charge:   0.00000000 [e]

Amount of molecules per component :
-------------------------------------------------------------------------------
Component 0 (CO2)
    molecules:         2.000000e+02 molecules
    number density:    1.391519e-02 molec/A^3
    density:           1.016667e+03 kg/m^3

Total potential energy/kʙ       -2.890467e+05 [K]
-------------------------------------------------------------------------------
    external field VDW/kʙ        0.000000e+00 [K]
    external field Real/kʙ       0.000000e+00 [K]
    framework-molecule VDW/kʙ    0.000000e+00 [K]
    framework-molecule Real/kʙ   0.000000e+00 [K]
    molecule-molecule VDW/kʙ    -2.015245e+05 [K]
    molecule-molecule Real/kʙ   -6.407531e+04 [K]
    Van der Waals (Tail)/kʙ     -8.929511e+03 [K]
    Ewald Fourier/kʙ             1.454433e+04 [K]
    Ewald self/kʙ               -4.445846e+06 [K]
    Ewald exclusion/kʙ           4.416785e+06 [K]
    intra VDW/kʙ                 0.000000e+00 [K]
    intra Coulombic/kʙ           0.000000e+00 [K]
    polarization/kʙ              0.000000e+00 [K]
    dU/dlambda VDW/kʙ            0.000000e+00 [K]
    dU/dlambda Real/kʙ           0.000000e+00 [K]
    dU/dlambda Ewald/kʙ          0.000000e+00 [K]


Initialization: Current cycle: 400 out of 1000
===============================================================================

Box:      24.24542   0.00000   0.00000
           0.00000  24.24542   0.00000
           0.00000   0.00000  24.24542
Lengths:  24.24542  24.24542  24.24542
Angles:   90.00000  90.00000  90.00000
Rectangular boundary conditions

net charge:   0.00000000

component   0 (CO2) lambda:  0 occupancy:  1 (1.000000)
    net charge:   0.00000000 [e]

Amount of molecules per component :
-------------------------------------------------------------------------------
Component 0 (CO2)
    molecules:         2.000000e+02 molecules
    number density:    1.403268e-02 molec/A^3
    density:           1.025252e+03 kg/m^3

Total potential energy/kʙ       -2.901798e+05 [K]
-------------------------------------------------------------------------------
    external field VDW/kʙ        0.000000e+00 [K]
    external field Real/kʙ       0.000000e+00 [K]
    framework-molecule VDW/kʙ    0.000000e+00 [K]
    framework-molecule Real/kʙ   0.000000e+00 [K]
    molecule-molecule VDW/kʙ    -2.071713e+05 [K]
    molecule-molecule Real/kʙ   -5.932180e+04 [K]
    Van der Waals (Tail)/kʙ     -9.004911e+03 [K]
    Ewald Fourier/kʙ             1.437986e+04 [K]
    Ewald self/kʙ               -4.445846e+06 [K]
    Ewald exclusion/kʙ           4.416785e+06 [K]
    intra VDW/kʙ                 0.000000e+00 [K]
    intra Coulombic/kʙ           0.000000e+00 [K]
    polarization/kʙ              0.000000e+00 [K]
    dU/dlambda VDW/kʙ            0.000000e+00 [K]
    dU/dlambda Real/kʙ           0.000000e+00 [K]
    dU/dlambda Ewald/kʙ          0.000000e+00 [K]


Initialization: Current cycle: 500 out of 1000
===============================================================================

Box:      24.28772   0.00000   0.00000
           0.00000  24.28772   0.00000
           0.00000   0.00000  24.28772
Lengths:  24.28772  24.28772  24.28772
Angles:   90.00000  90.00000  90.00000
Rectangular boundary conditions

net charge:   0.00000000

component   0 (CO2) lambda:  0 occupancy:  1 (1.000000)
    net charge:   0.00000000 [e]

Amount of molecules per component :
-------------------------------------------------------------------------------
Component 0 (CO2)
    molecules:         2.000000e+02 molecules
    number density:    1.395950e-02 molec/A^3
    density:           1.019905e+03 kg/m^3

Total potential energy/kʙ       -2.971395e+05 [K]
-------------------------------------------------------------------------------
    external field VDW/kʙ        0.000000e+00 [K]
    external field Real/kʙ       0.000000e+00 [K]
    framework-molecule VDW/kʙ    0.000000e+00 [K]
    framework-molecule Real/kʙ   0.000000e+00 [K]
    molecule-molecule VDW/kʙ    -2.075228e+05 [K]
    molecule-molecule Real/kʙ   -6.605925e+04 [K]
    Van der Waals (Tail)/kʙ     -8.957947e+03 [K]
    Ewald Fourier/kʙ             1.446222e+04 [K]
    Ewald self/kʙ               -4.445846e+06 [K]
    Ewald exclusion/kʙ           4.416785e+06 [K]
    intra VDW/kʙ                 0.000000e+00 [K]
    intra Coulombic/kʙ           0.000000e+00 [K]
    polarization/kʙ              0.000000e+00 [K]
    dU/dlambda VDW/kʙ            0.000000e+00 [K]
    dU/dlambda Real/kʙ           0.000000e+00 [K]
    dU/dlambda Ewald/kʙ          0.000000e+00 [K]


Initialization: Current cycle: 600 out of 1000
===============================================================================

Box:      23.89092   0.00000   0.00000
           0.00000  23.89092   0.00000
           0.00000   0.00000  23.89092
Lengths:  23.89092  23.89092  23.89092
Angles:   90.00000  90.00000  90.00000
Rectangular boundary conditions

net charge:   0.00000000

component   0 (CO2) lambda:  0 occupancy:  1 (1.000000)
    net charge:   0.00000000 [e]

Amount of molecules per component :
-------------------------------------------------------------------------------
Component 0 (CO2)
    molecules:         2.000000e+02 molecules
    number density:    1.466667e-02 molec/A^3
    density:           1.071572e+03 kg/m^3

Total potential energy/kʙ       -3.119195e+05 [K]
-------------------------------------------------------------------------------
    external field VDW/kʙ        0.000000e+00 [K]
    external field Real/kʙ       0.000000e+00 [K]
    framework-molecule VDW/kʙ    0.000000e+00 [K]
    framework-molecule Real/kʙ   0.000000e+00 [K]
    molecule-molecule VDW/kʙ    -2.230234e+05 [K]
    molecule-molecule Real/kʙ   -6.387928e+04 [K]
    Van der Waals (Tail)/kʙ     -9.411747e+03 [K]
    Ewald Fourier/kʙ             1.345665e+04 [K]
    Ewald self/kʙ               -4.445846e+06 [K]
    Ewald exclusion/kʙ           4.416785e+06 [K]
    intra VDW/kʙ                 0.000000e+00 [K]
    intra Coulombic/kʙ           0.000000e+00 [K]
    polarization/kʙ              0.000000e+00 [K]
    dU/dlambda VDW/kʙ            0.000000e+00 [K]
    dU/dlambda Real/kʙ           0.000000e+00 [K]
    dU/dlambda Ewald/kʙ          0.000000e+00 [K]


Initialization: Current cycle: 700 out of 1000
===============================================================================

Box:      23.92740   0.00000   0.00000
           0.00000  23.92740   0.00000
           0.00000   0.00000  23.92740
Lengths:  23.92740  23.92740  23.92740
Angles:   90.00000  90.00000  90.00000
Rectangular boundary conditions

net charge:   0.00000000

component   0 (CO2) lambda:  0 occupancy:  1 (1.000000)
    net charge:   0.00000000 [e]

Amount of molecules per component :
-------------------------------------------------------------------------------
Component 0 (CO2)
    molecules:         2.000000e+02 molecules
    number density:    1.459969e-02 molec/A^3
    density:           1.066678e+03 kg/m^3

Total potential energy/kʙ       -3.160941e+05 [K]
-------------------------------------------------------------------------------
    external field VDW/kʙ        0.000000e+00 [K]
    external field Real/kʙ       0.000000e+00 [K]
    framework-molecule VDW/kʙ    0.000000e+00 [K]
    framework-molecule Real/kʙ   0.000000e+00 [K]
    molecule-molecule VDW/kʙ    -2.261189e+05 [K]
    molecule-molecule Real/kʙ   -6.359515e+04 [K]
    Van der Waals (Tail)/kʙ     -9.368765e+03 [K]
    Ewald Fourier/kʙ             1.205048e+04 [K]
    Ewald self/kʙ               -4.445846e+06 [K]
    Ewald exclusion/kʙ           4.416785e+06 [K]
    intra VDW/kʙ                 0.000000e+00 [K]
    intra Coulombic/kʙ           0.000000e+00 [K]
    polarization/kʙ              0.000000e+00 [K]
    dU/dlambda VDW/kʙ            0.000000e+00 [K]
    dU/dlambda Real/kʙ           0.000000e+00 [K]
    dU/dlambda Ewald/kʙ          0.000000e+00 [K]


Initialization: Current cycle: 800 out of 1000
===============================================================================

Box:      23.78262   0.00000   0.00000
           0.00000  23.78262   0.00000
           0.00000   0.00000  23.78262
Lengths:  23.78262  23.78262  23.78262
Angles:   90.00000  90.00000  90.00000
Rectangular boundary conditions

net charge:   0.00000000

component   0 (CO2) lambda:  0 occupancy:  1 (1.000000)
    net charge:   0.00000000 [e]

Amount of molecules per component :
-------------------------------------------------------------------------------
Component 0 (CO2)
    molecules:         2.000000e+02 molecules
    number density:    1.486795e-02 molec/A^3
    density:           1.086278e+03 kg/m^3

Total potential energy/kʙ       -3.194551e+05 [K]
-------------------------------------------------------------------------------
    external field VDW/kʙ        0.000000e+00 [K]
    external field Real/kʙ       0.000000e+00 [K]
    framework-molecule VDW/kʙ    0.000000e+00 [K]
    framework-molecule Real/kʙ   0.000000e+00 [K]
    molecule-molecule VDW/kʙ    -2.308190e+05 [K]
    molecule-molecule Real/kʙ   -6.211921e+04 [K]
    Van der Waals (Tail)/kʙ     -9.540909e+03 [K]
    Ewald Fourier/kʙ             1.208573e+04 [K]
    Ewald self/kʙ               -4.445846e+06 [K]
    Ewald exclusion/kʙ           4.416785e+06 [K]
    intra VDW/kʙ                 0.000000e+00 [K]
    intra Coulombic/kʙ           0.000000e+00 [K]
    polarization/kʙ              0.000000e+00 [K]
    dU/dlambda VDW/kʙ            0.000000e+00 [K]
    dU/dlambda Real/kʙ           0.000000e+00 [K]
    dU/dlambda Ewald/kʙ          0.000000e+00 [K]


Initialization: Current cycle: 900 out of 1000
===============================================================================

Box:      23.68252   0.00000   0.00000
           0.00000  23.68252   0.00000
           0.00000   0.00000  23.68252
Lengths:  23.68252  23.68252  23.68252
Angles:   90.00000  90.00000  90.00000
Rectangular boundary conditions

net charge:   0.00000000

component   0 (CO2) lambda:  0 occupancy:  1 (1.000000)
    net charge:   0.00000000 [e]

Amount of molecules per component :
-------------------------------------------------------------------------------
Component 0 (CO2)
    molecules:         2.000000e+02 molecules
    number density:    1.505727e-02 molec/A^3
    density:           1.100110e+03 kg/m^3

Total potential energy/kʙ       -3.148790e+05 [K]
-------------------------------------------------------------------------------
    external field VDW/kʙ        0.000000e+00 [K]
    external field Real/kʙ       0.000000e+00 [K]
    framework-molecule VDW/kʙ    0.000000e+00 [K]
    framework-molecule Real/kʙ   0.000000e+00 [K]
    molecule-molecule VDW/kʙ    -2.277408e+05 [K]
    molecule-molecule Real/kʙ   -6.065307e+04 [K]
    Van der Waals (Tail)/kʙ     -9.662401e+03 [K]
    Ewald Fourier/kʙ             1.223901e+04 [K]
    Ewald self/kʙ               -4.445846e+06 [K]
    Ewald exclusion/kʙ           4.416785e+06 [K]
    intra VDW/kʙ                 0.000000e+00 [K]
    intra Coulombic/kʙ           0.000000e+00 [K]
    polarization/kʙ              0.000000e+00 [K]
    dU/dlambda VDW/kʙ            0.000000e+00 [K]
    dU/dlambda Real/kʙ           0.000000e+00 [K]
    dU/dlambda Ewald/kʙ          0.000000e+00 [K]


Current cycle: 0 out of 5000
===============================================================================

Box:      23.72594   0.00000   0.00000  Average:  23.72594   0.00000   0.00000
           0.00000  23.72594   0.00000             0.00000  23.72594   0.00000
           0.00000   0.00000  23.72594             0.00000   0.00000  23.72594
Lengths:  23.72594  23.72594  23.72594  Average:  23.72594  23.72594  23.72594
Angles:   90.00000  90.00000  90.00000  Average:  90.00000  90.00000  90.00000
Rectangular boundary conditions

net charge:   0.00000000

component 0 (CO2) lambda:  0 occupancy:  1 (1.000000)
    net charge:   0.00000000 [e]

Amount of molecules per component :
-------------------------------------------------------------------------------
Component 0 (CO2)
    molecules:      2.000000e+02 molecules  (2.000000e+02 +/- 0.000000e+00)
    number density: 1.497476e-02 molec./A^3 (1.497476e-02 +/- 0.000000e+00)
    density:        1.094081e+03 kg/m^3     (1.094081e+03 +/- 0.000000e+00)

Average pressure tensor: 
-------------------------------------------------------------------------------
 5.1687e+02  0.0000e+00  0.0000e+00 +/- 0.0000e+00 0.0000e+00 0.0000e+00 [bar]
 0.0000e+00  5.1687e+02  0.0000e+00 +/- 0.0000e+00 0.0000e+00 0.0000e+00 [bar]
 0.0000e+00  0.0000e+00  5.1687e+02 +/- 0.0000e+00 0.0000e+00 0.0000e+00 [bar]
Ideal-gas pressure:   5.168725e+02 +/ 0.000000e+00 [bar]
Excess pressure:      0.000000e+00 +/ 0.000000e+00 [bar]
Pressure:             5.168725e+02 +/ 0.000000e+00 [bar]

Total potential energy/kʙ  -3.173334e+05 (-3.173334e+05 +/- 0.000000e+00) [K]
-------------------------------------------------------------------------------
ExternalField-molecule
    Van der Waals/kʙ        0.000000e+00 ( 0.000000e+00 +/- 0.000000e+00) [K]
Framework-molecule
    Van der Waals/kʙ        0.000000e+00 ( 0.000000e+00 +/- 0.000000e+00) [K]
    Van der Waals (Tail)/kʙ 0.000000e+00 ( 0.000000e+00 +/- 0.000000e+00) [K]
    Coulombic Real/kʙ       0.000000e+00 ( 0.000000e+00 +/- 0.000000e+00) [K]
    Coulombic Fourier/kʙ    0.000000e+00 ( 0.000000e+00 +/- 0.000000e+00) [K]
Molecule-molecule
    Van der Waals/kʙ       -2.245213e+05 (-2.245213e+05 +/- 0.000000e+00) [K]
    Van der Waals (Tail)/kʙ-9.609447e+03 (-9.609447e+03 +/- 0.000000e+00) [K]
    Coulombic Real/kʙ      -6.753041e+04 (-6.753041e+04 +/- 0.000000e+00) [K]
    Coulombic Fourier/kʙ   -1.567221e+04 (-1.567221e+04 +/- 0.000000e+00) [K]
    Molecule Intra/kʙ       0.000000e+00 ( 0.000000e+00 +/- 0.000000e+00) [K]

Current cycle: 100 out of 5000
===============================================================================

Box:      23.87764   0.00000   0.00000  Average:  23.85653   0.00000   0.00000
           0.00000  23.87764   0.00000             0.00000  23.85653   0.00000
           0.00000   0.00000  23.87764             0.00000   0.00000  23.85653
Lengths:  23.87764  23.87764  23.87764  Average:  23.85653  23.85653  23.85653
Angles:   90.00000  90.00000  90.00000  Average:  90.00000  90.00000  90.00000
Rectangular boundary conditions

net charge:   0.00000000

component 0 (CO2) lambda:  0 occupancy:  1 (1.000000)
    net charge:   0.00000000 [e]

Amount of molecules per component :
-------------------------------------------------------------------------------
Component 0 (CO2)
    molecules:      2.000000e+02 molecules  (2.000000e+02 +/- 0.000000e+00)
    number density: 1.469116e-02 molec./A^3 (1.473177e-02 +/- 0.000000e+00)
    density:        1.073361e+03 kg/m^3     (1.076328e+03 +/- 0.000000e+00)

Average pressure tensor: 
-------------------------------------------------------------------------------
 7.1923e+01 -4.2030e+00 -2.2624e+02 +/- 0.0000e+00 0.0000e+00 0.0000e+00 [bar]
-4.2030e+00  6.8679e+01 -2.0451e+02 +/- 0.0000e+00 0.0000e+00 0.0000e+00 [bar]
-2.2624e+02 -2.0451e+02  1.0257e+02 +/- 0.0000e+00 0.0000e+00 0.0000e+00 [bar]
Ideal-gas pressure:   5.084855e+02 +/ 0.000000e+00 [bar]
Excess pressure:     -4.274293e+02 +/ 0.000000e+00 [bar]
Pressure:             8.105627e+01 +/ 0.000000e+00 [bar]

Total potential energy/kʙ  -3.079525e+05 (-3.075713e+05 +/- 0.000000e+00) [K]
-------------------------------------------------------------------------------
ExternalField-molecule
    Van der Waals/kʙ        0.000000e+00 ( 0.000000e+00 +/- 0.000000e+00) [K]
Framework-molecule
    Van der Waals/kʙ        0.000000e+00 ( 0.000000e+00 +/- 0.000000e+00) [K]
    Van der Waals (Tail)/kʙ 0.000000e+00 ( 0.000000e+00 +/- 0.000000e+00) [K]
    Coulombic Real/kʙ       0.000000e+00 ( 0.000000e+00 +/- 0.000000e+00) [K]
    Coulombic Fourier/kʙ    0.000000e+00 ( 0.000000e+00 +/- 0.000000e+00) [K]
Molecule-molecule
    Van der Waals/kʙ       -2.258742e+05 (-2.214348e+05 +/- 0.000000e+00) [K]
    Van der Waals (Tail)/kʙ-9.427459e+03 (-9.457010e+03 +/- 0.000000e+00) [K]
    Coulombic Real/kʙ      -5.792254e+04 (-6.147328e+04 +/- 0.000000e+00) [K]
    Coulombic Fourier/kʙ   -1.472834e+04 (-1.520620e+04 +/- 0.000000e+00) [K]
    Molecule Intra/kʙ       0.000000e+00 ( 0.000000e+00 +/- 0.000000e+00) [K]

Current cycle: 200 out of 5000
===============================================================================

Box:      23.79389   0.00000   0.00000  Average:  23.84873   0.00000   0.00000
           0.00000  23.79389   0.00000             0.00000  23.84873   0.00000
           0.00000   0.00000  23.79389             0.00000   0.00000  23.84873
Lengths:  23.79389  23.79389  23.79389  Average:  23.84873  23.84873  23.84873
Angles:   90.00000  90.00000  90.00000  Average:  90.00000  90.00000  90.00000
Rectangular boundary conditions

net charge:   0.00000000

component 0 (CO2) lambda:  0 occupancy:  1 (1.000000)
    net charge:   0.00000000 [e]

Amount of molecules per component :
-------------------------------------------------------------------------------
Component 0 (CO2)
    molecules:      2.000000e+02 molecules  (2.000000e+02 +/- 0.000000e+00)
    number density: 1.484683e-02 molec./A^3 (1.474632e-02 +/- 0.000000e+00)
    density:        1.084735e+03 kg/m^3     (1.077391e+03 +/- 0.000000e+00)

Average pressure tensor: 
-------------------------------------------------------------------------------
 2.0245e+02 -2.6885e+01 -6.8245e+01 +/- 0.0000e+00 0.0000e+00 0.0000e+00 [bar]
-2.6885e+01  2.0340e+01 -1.3829e+02 +/- 0.0000e+00 0.0000e+00 0.0000e+00 [bar]
-6.8245e+01 -1.3829e+02  4.5196e+01 +/- 0.0000e+00 0.0000e+00 0.0000e+00 [bar]
Ideal-gas pressure:   5.089876e+02 +/ 0.000000e+00 [bar]
Excess pressure:     -4.196599e+02 +/ 0.000000e+00 [bar]
Pressure:             8.932775e+01 +/ 0.000000e+00 [bar]

Total potential energy/kʙ  -3.160644e+05 (-3.085324e+05 +/- 0.000000e+00) [K]
-------------------------------------------------------------------------------
ExternalField-molecule
    Van der Waals/kʙ        0.000000e+00 ( 0.000000e+00 +/- 0.000000e+00) [K]
Framework-molecule
    Van der Waals/kʙ        0.000000e+00 ( 0.000000e+00 +/- 0.000000e+00) [K]
    Van der Waals (Tail)/kʙ 0.000000e+00 ( 0.000000e+00 +/- 0.000000e+00) [K]
    Coulombic Real/kʙ       0.000000e+00 ( 0.000000e+00 +/- 0.000000e+00) [K]
    Coulombic Fourier/kʙ    0.000000e+00 ( 0.000000e+00 +/- 0.000000e+00) [K]
Molecule-molecule
    Van der Waals/kʙ       -2.247169e+05 (-2.217368e+05 +/- 0.000000e+00) [K]
    Van der Waals (Tail)/kʙ-9.527358e+03 (-9.458579e+03 +/- 0.000000e+00) [K]
    Coulombic Real/kʙ      -6.610958e+04 (-6.212801e+04 +/- 0.000000e+00) [K]
    Coulombic Fourier/kʙ   -1.571061e+04 (-1.520896e+04 +/- 0.000000e+00) [K]
    Molecule Intra/kʙ       0.000000e+00 ( 0.000000e+00 +/- 0.000000e+00) [K]

Current cycle: 300 out of 5000
===============================================================================

Box:      23.77321   0.00000   0.00000  Average:  23.81456   0.00000   0.00000
           0.00000  23.77321   0.00000             0.00000  23.81456   0.00000
           0.00000   0.00000  23.77321             0.00000   0.00000  23.81456
Lengths:  23.77321  23.77321  23.77321  Average:  23.81456  23.81456  23.81456
Angles:   90.00000  90.00000  90.00000  Average:  90.00000  90.00000  90.00000
Rectangular boundary conditions

net charge:   0.00000000

component 0 (CO2) lambda:  0 occupancy:  1 (1.000000)
    net charge:   0.00000000 [e]

Amount of molecules per component :
-------------------------------------------------------------------------------
Component 0 (CO2)
    molecules:      2.000000e+02 molecules  (2.000000e+02 +/- 0.000000e+00)
    number density: 1.488560e-02 molec./A^3 (1.481003e-02 +/- 0.000000e+00)
    density:        1.087567e+03 kg/m^3     (1.082046e+03 +/- 0.000000e+00)

Average pressure tensor: 
-------------------------------------------------------------------------------
 1.6581e+02 -4.4116e+01 -9.2111e+01 +/- 0.0000e+00 0.0000e+00 0.0000e+00 [bar]
-4.4116e+01  2.7338e+00 -1.5229e+01 +/- 0.0000e+00 0.0000e+00 0.0000e+00 [bar]
-9.2111e+01 -1.5229e+01  1.2605e+02 +/- 0.0000e+00 0.0000e+00 0.0000e+00 [bar]
Ideal-gas pressure:   5.111870e+02 +/ 0.000000e+00 [bar]
Excess pressure:     -4.129884e+02 +/ 0.000000e+00 [bar]
Pressure:             9.819858e+01 +/ 0.000000e+00 [bar]

Total potential energy/kʙ  -3.159043e+05 (-3.113930e+05 +/- 0.000000e+00) [K]
-------------------------------------------------------------------------------
ExternalField-molecule
    Van der Waals/kʙ        0.000000e+00 ( 0.000000e+00 +/- 0.000000e+00) [K]
Framework-molecule
    Van der Waals/kʙ        0.000000e+00 ( 0.000000e+00 +/- 0.000000e+00) [K]
    Van der Waals (Tail)/kʙ 0.000000e+00 ( 0.000000e+00 +/- 0.000000e+00) [K]
    Coulombic Real/kʙ       0.000000e+00 ( 0.000000e+00 +/- 0.000000e+00) [K]
    Coulombic Fourier/kʙ    0.000000e+00 ( 0.000000e+00 +/- 0.000000e+00) [K]
Molecule-molecule
    Van der Waals/kʙ       -2.246031e+05 (-2.226091e+05 +/- 0.000000e+00) [K]
    Van der Waals (Tail)/kʙ-9.552235e+03 (-9.495667e+03 +/- 0.000000e+00) [K]
    Coulombic Real/kʙ      -6.512525e+04 (-6.366975e+04 +/- 0.000000e+00) [K]
    Coulombic Fourier/kʙ   -1.662371e+04 (-1.561850e+04 +/- 0.000000e+00) [K]
    Molecule Intra/kʙ       0.000000e+00 ( 0.000000e+00 +/- 0.000000e+00) [K]

Current cycle: 400 out of 5000
===============================================================================

Box:      23.87982   0.00000   0.00000  Average:  23.80351   0.00000   0.00000
           0.00000  23.87982   0.00000             0.00000  23.80351   0.00000
           0.00000   0.00000  23.87982             0.00000   0.00000  23.80351
Lengths:  23.87982  23.87982  23.87982  Average:  23.80351  23.80351  23.80351
Angles:   90.00000  90.00000  90.00000  Average:  90.00000  90.00000  90.00000
Rectangular boundary conditions

net charge:   0.00000000

component 0 (CO2) lambda:  0 occupancy:  1 (1.000000)
    net charge:   0.00000000 [e]

Amount of molecules per component :
-------------------------------------------------------------------------------
Component 0 (CO2)
    molecules:      2.000000e+02 molecules  (2.000000e+02 +/- 0.000000e+00)
    number density: 1.468713e-02 molec./A^3 (1.483092e-02 +/- 0.000000e+00)
    density:        1.073067e+03 kg/m^3     (1.083573e+03 +/- 0.000000e+00)

Average pressure tensor: 
-------------------------------------------------------------------------------
 2.1022e+02 -3.1903e+01 -6.3712e+01 +/- 0.0000e+00 0.0000e+00 0.0000e+00 [bar]
-3.1903e+01  2.0517e+01 -4.5803e+00 +/- 0.0000e+00 0.0000e+00 0.0000e+00 [bar]
-6.3712e+01 -4.5803e+00  1.2352e+02 +/- 0.0000e+00 0.0000e+00 0.0000e+00 [bar]
Ideal-gas pressure:   5.119080e+02 +/ 0.000000e+00 [bar]
Excess pressure:     -3.938239e+02 +/ 0.000000e+00 [bar]
Pressure:             1.180841e+02 +/ 0.000000e+00 [bar]

Total potential energy/kʙ  -3.123658e+05 (-3.123651e+05 +/- 0.000000e+00) [K]
-------------------------------------------------------------------------------
ExternalField-molecule
    Van der Waals/kʙ        0.000000e+00 ( 0.000000e+00 +/- 0.000000e+00) [K]
Framework-molecule
    Van der Waals/kʙ        0.000000e+00 ( 0.000000e+00 +/- 0.000000e+00) [K]
    Van der Waals (Tail)/kʙ 0.000000e+00 ( 0.000000e+00 +/- 0.000000e+00) [K]
    Coulombic Real/kʙ       0.000000e+00 ( 0.000000e+00 +/- 0.000000e+00) [K]
    Coulombic Fourier/kʙ    0.000000e+00 ( 0.000000e+00 +/- 0.000000e+00) [K]
Molecule-molecule
    Van der Waals/kʙ       -2.217081e+05 (-2.226818e+05 +/- 0.000000e+00) [K]
    Van der Waals (Tail)/kʙ-9.424875e+03 (-9.501219e+03 +/- 0.000000e+00) [K]
    Coulombic Real/kʙ      -6.562784e+04 (-6.454155e+04 +/- 0.000000e+00) [K]
    Coulombic Fourier/kʙ   -1.560496e+04 (-1.564060e+04 +/- 0.000000e+00) [K]
    Molecule Intra/kʙ       0.000000e+00 ( 0.000000e+00 +/- 0.000000e+00) [K]

Current cycle: 500 out of 5000
===============================================================================

Box:      23.98594   0.00000   0.00000  Average:  23.83213   0.00000   0.00000
           0.00000  23.98594   0.00000             0.00000  23.83213   0.00000
           0.00000   0.00000  23.98594             0.00000   0.00000  23.83213
Lengths:  23.98594  23.98594  23.98594  Average:  23.83213  23.83213  23.83213
Angles:   90.00000  90.00000  90.00000  Average:  90.00000  90.00000  90.00000
Rectangular boundary conditions

net charge:   0.00000000

component 0 (CO2) lambda:  0 occupancy:  1 (1.000000)
    net charge:   0.00000000 [e]

Amount of molecules per component :
-------------------------------------------------------------------------------
Component 0 (CO2)
    molecules:      2.000000e+02 molecules  (2.000000e+02 +/- 0.000000e+00)
    number density: 1.449305e-02 molec./A^3 (1.477809e-02 +/- 0.000000e+00)
    density:        1.058887e+03 kg/m^3     (1.079713e+03 +/- 0.000000e+00)

Average pressure tensor: 
-------------------------------------------------------------------------------
 1.8982e+02 -3.1071e+01 -5.9958e+01 +/- 0.0000e+00 0.0000e+00 0.0000e+00 [bar]
-3.1071e+01  8.4236e+00  1.2998e+01 +/- 0.0000e+00 0.0000e+00 0.0000e+00 [bar]
-5.9958e+01  1.2998e+01  1.5672e+02 +/- 0.0000e+00 0.0000e+00 0.0000e+00 [bar]
Ideal-gas pressure:   5.100844e+02 +/ 0.000000e+00 [bar]
Excess pressure:     -3.917612e+02 +/ 0.000000e+00 [bar]
Pressure:             1.183231e+02 +/ 0.000000e+00 [bar]

Total potential energy/kʙ  -3.085191e+05 (-3.117938e+05 +/- 0.000000e+00) [K]
-------------------------------------------------------------------------------
ExternalField-molecule
    Van der Waals/kʙ        0.000000e+00 ( 0.000000e+00 +/- 0.000000e+00) [K]
Framework-molecule
    Van der Waals/kʙ        0.000000e+00 ( 0.000000e+00 +/- 0.000000e+00) [K]
    Van der Waals (Tail)/kʙ 0.000000e+00 ( 0.000000e+00 +/- 0.000000e+00) [K]
    Coulombic Real/kʙ       0.000000e+00 ( 0.000000e+00 +/- 0.000000e+00) [K]
    Coulombic Fourier/kʙ    0.000000e+00 ( 0.000000e+00 +/- 0.000000e+00) [K]
Molecule-molecule
    Van der Waals/kʙ       -2.172977e+05 (-2.218546e+05 +/- 0.000000e+00) [K]
    Van der Waals (Tail)/kʙ-9.300334e+03 (-9.467814e+03 +/- 0.000000e+00) [K]
    Coulombic Real/kʙ      -6.689652e+04 (-6.487555e+04 +/- 0.000000e+00) [K]
    Coulombic Fourier/kʙ   -1.502461e+04 (-1.559588e+04 +/- 0.000000e+00) [K]
    Molecule Intra/kʙ       0.000000e+00 ( 0.000000e+00 +/- 0.000000e+00) [K]

Current cycle: 600 out of 5000
===============================================================================

Box:      24.12820   0.00000   0.00000  Average:  23.85270   0.00000   0.00000
           0.00000  24.12820   0.00000             0.00000  23.85270   0.00000
           0.00000   0.00000  24.12820             0.00000   0.00000  23.85270
Lengths:  24.12820  24.12820  24.12820  Average:  23.85270  23.85270  23.85270
Angles:   90.00000  90.00000  90.00000  Average:  90.00000  90.00000  90.00000
Rectangular boundary conditions

net charge:   0.00000000

component 0 (CO2) lambda:  0 occupancy:  1 (1.000000)
    net charge:   0.00000000 [e]

Amount of molecules per component :
-------------------------------------------------------------------------------
Component 0 (CO2)
    molecules:      2.000000e+02 molecules  (2.000000e+02 +/- 0.000000e+00)
    number density: 1.423820e-02 molec./A^3 (1.474002e-02 +/- 0.000000e+00)
    density:        1.040267e+03 kg/m^3     (1.076931e+03 +/- 0.000000e+00)

Average pressure tensor: 
-------------------------------------------------------------------------------
 1.5134e+02 -9.9257e+00 -5.2482e+01 +/- 0.0000e+00 0.0000e+00 0.0000e+00 [bar]
-9.9257e+00  6.2135e+00 -3.1041e+01 +/- 0.0000e+00 0.0000e+00 0.0000e+00 [bar]
-5.2482e+01 -3.1041e+01  1.5256e+02 +/- 0.0000e+00 0.0000e+00 0.0000e+00 [bar]
Ideal-gas pressure:   5.087705e+02 +/ 0.000000e+00 [bar]
Excess pressure:     -4.054001e+02 +/ 0.000000e+00 [bar]
Pressure:             1.033704e+02 +/ 0.000000e+00 [bar]

Total potential energy/kʙ  -3.050979e+05 (-3.118981e+05 +/- 0.000000e+00) [K]
-------------------------------------------------------------------------------
ExternalField-molecule
    Van der Waals/kʙ        0.000000e+00 ( 0.000000e+00 +/- 0.000000e+00) [K]
Framework-molecule
    Van der Waals/kʙ        0.000000e+00 ( 0.000000e+00 +/- 0.000000e+00) [K]
    Van der Waals (Tail)/kʙ 0.000000e+00 ( 0.000000e+00 +/- 0.000000e+00) [K]
    Coulombic Real/kʙ       0.000000e+00 ( 0.000000e+00 +/- 0.000000e+00) [K]
    Coulombic Fourier/kʙ    0.000000e+00 ( 0.000000e+00 +/- 0.000000e+00) [K]
Molecule-molecule
    Van der Waals/kʙ       -2.169998e+05 (-2.213766e+05 +/- 0.000000e+00) [K]
    Van der Waals (Tail)/kʙ-9.136790e+03 (-9.438910e+03 +/- 0.000000e+00) [K]
    Coulombic Real/kʙ      -6.341066e+04 (-6.545262e+04 +/- 0.000000e+00) [K]
    Coulombic Fourier/kʙ   -1.555063e+04 (-1.563006e+04 +/- 0.000000e+00) [K]
    Molecule Intra/kʙ       0.000000e+00 ( 0.000000e+00 +/- 0.000000e+00) [K]

Current cycle: 700 out of 5000
===============================================================================

Box:      24.09331   0.00000   0.00000  Average:  23.89312   0.00000   0.00000
           0.00000  24.09331   0.00000             0.00000  23.89312   0.00000
           0.00000   0.00000  24.09331             0.00000   0.00000  23.89312
Lengths:  24.09331  24.09331  24.09331  Average:  23.89312  23.89312  23.89312
Angles:   90.00000  90.00000  90.00000  Average:  90.00000  90.00000  90.00000
Rectangular boundary conditions

net charge:   0.00000000

component 0 (CO2) lambda:  0 occupancy:  1 (1.000000)
    net charge:   0.00000000 [e]

Amount of molecules per component :
-------------------------------------------------------------------------------
Component 0 (CO2)
    molecules:      2.000000e+02 molecules  (2.000000e+02 +/- 0.000000e+00)
    number density: 1.430015e-02 molec./A^3 (1.466661e-02 +/- 0.000000e+00)
    density:        1.044794e+03 kg/m^3     (1.071567e+03 +/- 0.000000e+00)

Average pressure tensor: 
-------------------------------------------------------------------------------
 1.3062e+02  3.3849e+00 -4.0298e+01 +/- 0.0000e+00 0.0000e+00 0.0000e+00 [bar]
 3.3849e+00  2.4614e+01 -3.8587e+01 +/- 0.0000e+00 0.0000e+00 0.0000e+00 [bar]
-4.0298e+01 -3.8587e+01  1.3823e+02 +/- 0.0000e+00 0.0000e+00 0.0000e+00 [bar]
Ideal-gas pressure:   5.062364e+02 +/ 0.000000e+00 [bar]
Excess pressure:     -4.084143e+02 +/ 0.000000e+00 [bar]
Pressure:             9.782209e+01 +/ 0.000000e+00 [bar]

Total potential energy/kʙ  -2.895246e+05 (-3.101344e+05 +/- 0.000000e+00) [K]
-------------------------------------------------------------------------------
ExternalField-molecule
    Van der Waals/kʙ        0.000000e+00 ( 0.000000e+00 +/- 0.000000e+00) [K]
Framework-molecule
    Van der Waals/kʙ        0.000000e+00 ( 0.000000e+00 +/- 0.000000e+00) [K]
    Van der Waals (Tail)/kʙ 0.000000e+00 ( 0.000000e+00 +/- 0.000000e+00) [K]
    Coulombic Real/kʙ       0.000000e+00 ( 0.000000e+00 +/- 0.000000e+00) [K]
    Coulombic Fourier/kʙ    0.000000e+00 ( 0.000000e+00 +/- 0.000000e+00) [K]
Molecule-molecule
    Van der Waals/kʙ       -2.131798e+05 (-2.204091e+05 +/- 0.000000e+00) [K]
    Van der Waals (Tail)/kʙ-9.176547e+03 (-9.399391e+03 +/- 0.000000e+00) [K]
    Coulombic Real/kʙ      -5.276164e+04 (-6.472431e+04 +/- 0.000000e+00) [K]
    Coulombic Fourier/kʙ   -1.440663e+04 (-1.560162e+04 +/- 0.000000e+00) [K]
    Molecule Intra/kʙ       0.000000e+00 ( 0.000000e+00 +/- 0.000000e+00) [K]

Current cycle: 800 out of 5000
===============================================================================

Box:      24.02112   0.00000   0.00000  Average:  23.92399   0.00000   0.00000
           0.00000  24.02112   0.00000             0.00000  23.92399   0.00000
           0.00000   0.00000  24.02112             0.00000   0.00000  23.92399
Lengths:  24.02112  24.02112  24.02112  Average:  23.92399  23.92399  23.92399
Angles:   90.00000  90.00000  90.00000  Average:  90.00000  90.00000  90.00000
Rectangular boundary conditions

net charge:   0.00000000

component 0 (CO2) lambda:  0 occupancy:  1 (1.000000)
    net charge:   0.00000000 [e]

Amount of molecules per component :
-------------------------------------------------------------------------------
Component 0 (CO2)
    molecules:      2.000000e+02 molecules  (2.000000e+02 +/- 0.000000e+00)
    number density: 1.442946e-02 molec./A^3 (1.461085e-02 +/- 0.000000e+00)
    density:        1.054241e+03 kg/m^3     (1.067493e+03 +/- 0.000000e+00)

Average pressure tensor: 
-------------------------------------------------------------------------------
 1.0874e+02  3.7692e+01 -3.4531e+01 +/- 0.0000e+00 0.0000e+00 0.0000e+00 [bar]
 3.7692e+01  3.7999e+01 -3.1486e+01 +/- 0.0000e+00 0.0000e+00 0.0000e+00 [bar]
-3.4531e+01 -3.1486e+01  1.0419e+02 +/- 0.0000e+00 0.0000e+00 0.0000e+00 [bar]
Ideal-gas pressure:   5.043118e+02 +/ 0.000000e+00 [bar]
Excess pressure:     -4.206689e+02 +/ 0.000000e+00 [bar]
Pressure:             8.364285e+01 +/ 0.000000e+00 [bar]

Total potential energy/kʙ  -3.111890e+05 (-3.085375e+05 +/- 0.000000e+00) [K]
-------------------------------------------------------------------------------
ExternalField-molecule
    Van der Waals/kʙ        0.000000e+00 ( 0.000000e+00 +/- 0.000000e+00) [K]
Framework-molecule
    Van der Waals/kʙ        0.000000e+00 ( 0.000000e+00 +/- 0.000000e+00) [K]
    Van der Waals (Tail)/kʙ 0.000000e+00 ( 0.000000e+00 +/- 0.000000e+00) [K]
    Coulombic Real/kʙ       0.000000e+00 ( 0.000000e+00 +/- 0.000000e+00) [K]
    Coulombic Fourier/kʙ    0.000000e+00 ( 0.000000e+00 +/- 0.000000e+00) [K]
Molecule-molecule
    Van der Waals/kʙ       -2.221695e+05 (-2.197440e+05 +/- 0.000000e+00) [K]
    Van der Waals (Tail)/kʙ-9.259527e+03 (-9.365198e+03 +/- 0.000000e+00) [K]
    Coulombic Real/kʙ      -6.465236e+04 (-6.387921e+04 +/- 0.000000e+00) [K]
    Coulombic Fourier/kʙ   -1.510758e+04 (-1.554905e+04 +/- 0.000000e+00) [K]
    Molecule Intra/kʙ       0.000000e+00 ( 0.000000e+00 +/- 0.000000e+00) [K]

Current cycle: 900 out of 5000
===============================================================================

Box:      23.82487   0.00000   0.00000  Average:  23.91575   0.00000   0.00000
           0.00000  23.82487   0.00000             0.00000  23.91575   0.00000
           0.00000   0.00000  23.82487             0.00000   0.00000  23.91575
Lengths:  23.82487  23.82487  23.82487  Average:  23.91575  23.91575  23.91575
Angles:   90.00000  90.00000  90.00000  Average:  90.00000  90.00000  90.00000
Rectangular boundary conditions

net charge:   0.00000000

component 0 (CO2) lambda:  0 occupancy:  1 (1.000000)
    net charge:   0.00000000 [e]

Amount of molecules per component :
-------------------------------------------------------------------------------
Component 0 (CO2)
    molecules:      2.000000e+02 molecules  (2.000000e+02 +/- 0.000000e+00)
    number density: 1.478898e-02 molec./A^3 (1.462567e-02 +/- 0.000000e+00)
    density:        1.080508e+03 kg/m^3     (1.068576e+03 +/- 0.000000e+00)

Average pressure tensor: 
-------------------------------------------------------------------------------
 1.0301e+02  4.1673e+01 -3.8209e+01 +/- 0.0000e+00 0.0000e+00 0.0000e+00 [bar]
 4.1673e+01  6.0469e+01 -4.6988e+01 +/- 0.0000e+00 0.0000e+00 0.0000e+00 [bar]
-3.8209e+01 -4.6988e+01  1.0241e+02 +/- 0.0000e+00 0.0000e+00 0.0000e+00 [bar]
Ideal-gas pressure:   5.048233e+02 +/ 0.000000e+00 [bar]
Excess pressure:     -4.161936e+02 +/ 0.000000e+00 [bar]
Pressure:             8.862977e+01 +/ 0.000000e+00 [bar]

Total potential energy/kʙ  -3.091028e+05 (-3.085233e+05 +/- 0.000000e+00) [K]
-------------------------------------------------------------------------------
ExternalField-molecule
    Van der Waals/kʙ        0.000000e+00 ( 0.000000e+00 +/- 0.000000e+00) [K]
Framework-molecule
    Van der Waals/kʙ        0.000000e+00 ( 0.000000e+00 +/- 0.000000e+00) [K]
    Van der Waals (Tail)/kʙ 0.000000e+00 ( 0.000000e+00 +/- 0.000000e+00) [K]
    Coulombic Real/kʙ       0.000000e+00 ( 0.000000e+00 +/- 0.000000e+00) [K]
    Coulombic Fourier/kʙ    0.000000e+00 ( 0.000000e+00 +/- 0.000000e+00) [K]
Molecule-molecule
    Van der Waals/kʙ       -2.213651e+05 (-2.197674e+05 +/- 0.000000e+00) [K]
    Van der Waals (Tail)/kʙ-9.490232e+03 (-9.377152e+03 +/- 0.000000e+00) [K]
    Coulombic Real/kʙ      -6.324742e+04 (-6.379739e+04 +/- 0.000000e+00) [K]
    Coulombic Fourier/kʙ   -1.500005e+04 (-1.558136e+04 +/- 0.000000e+00) [K]
    Molecule Intra/kʙ       0.000000e+00 ( 0.000000e+00 +/- 0.000000e+00) [K]

Current cycle: 1000 out of 5000
===============================================================================

Box:      23.66019   0.00000   0.00000  Average:  23.91010   0.00000   0.00000
           0.00000  23.66019   0.00000             0.00000  23.91010   0.00000
           0.00000   0.00000  23.66019             0.00000   0.00000  23.91010
Lengths:  23.66019  23.66019  23.66019  Average:  23.91010  23.91010  23.91010
Angles:   90.00000  90.00000  90.00000  Average:  90.00000  90.00000  90.00000
Rectangular boundary conditions

net charge:   0.00000000

component 0 (CO2) lambda:  0 occupancy:  1 (1.000000)
    net charge:   0.00000000 [e]

Amount of molecules per component :
-------------------------------------------------------------------------------
Component 0 (CO2)
    molecules:      2.000000e+02 molecules  (2.000000e+02 +/- 0.000000e+00)
    number density: 1.509994e-02 molec./A^3 (1.463593e-02 +/- 0.000000e+00)
    density:        1.103228e+03 kg/m^3     (1.069326e+03 +/- 0.000000e+00)

Average pressure tensor: 
-------------------------------------------------------------------------------
 1.0402e+02  3.1093e+01 -2.1923e+01 +/- 0.0000e+00 0.0000e+00 0.0000e+00 [bar]
 3.1093e+01  9.4132e+01 -4.0976e+01 +/- 0.0000e+00 0.0000e+00 0.0000e+00 [bar]
-2.1923e+01 -4.0976e+01  9.0298e+01 +/- 0.0000e+00 0.0000e+00 0.0000e+00 [bar]
Ideal-gas pressure:   5.051775e+02 +/ 0.000000e+00 [bar]
Excess pressure:     -4.090282e+02 +/ 0.000000e+00 [bar]
Pressure:             9.614924e+01 +/ 0.000000e+00 [bar]

Total potential energy/kʙ  -3.135534e+05 (-3.085035e+05 +/- 0.000000e+00) [K]
-------------------------------------------------------------------------------
ExternalField-molecule
    Van der Waals/kʙ        0.000000e+00 ( 0.000000e+00 +/- 0.000000e+00) [K]
Framework-molecule
    Van der Waals/kʙ        0.000000e+00 ( 0.000000e+00 +/- 0.000000e+00) [K]
    Van der Waals (Tail)/kʙ 0.000000e+00 ( 0.000000e+00 +/- 0.000000e+00) [K]
    Coulombic Real/kʙ       0.000000e+00 ( 0.000000e+00 +/- 0.000000e+00) [K]
    Coulombic Fourier/kʙ    0.000000e+00 ( 0.000000e+00 +/- 0.000000e+00) [K]
Molecule-molecule
    Van der Waals/kʙ       -2.227981e+05 (-2.199100e+05 +/- 0.000000e+00) [K]
    Van der Waals (Tail)/kʙ-9.689781e+03 (-9.388932e+03 +/- 0.000000e+00) [K]
    Coulombic Real/kʙ      -6.597982e+04 (-6.361680e+04 +/- 0.000000e+00) [K]
    Coulombic Fourier/kʙ   -1.508566e+04 (-1.558776e+04 +/- 0.000000e+00) [K]
    Molecule Intra/kʙ       0.000000e+00 ( 0.000000e+00 +/- 0.000000e+00) [K]

Current cycle: 1100 out of 5000
===============================================================================

Box:      23.70379   0.00000   0.00000  Average:  23.89006   0.00000   0.00000
           0.00000  23.70379   0.00000             0.00000  23.89006   0.00000
           0.00000   0.00000  23.70379             0.00000   0.00000  23.89006
Lengths:  23.70379  23.70379  23.70379  Average:  23.89006  23.89006  23.89006
Angles:   90.00000  90.00000  90.00000  Average:  90.00000  90.00000  90.00000
Rectangular boundary conditions

net charge:   0.00000000

component 0 (CO2) lambda:  0 occupancy:  1 (1.000000)
    net charge:   0.00000000 [e]

Amount of molecules per component :
-------------------------------------------------------------------------------
Component 0 (CO2)
    molecules:      2.000000e+02 molecules  (2.000000e+02 +/- 0.000000e+00)
    number density: 1.501678e-02 molec./A^3 (1.467318e-02 +/- 0.000000e+00)
    density:        1.097151e+03 kg/m^3     (1.072048e+03 +/- 0.000000e+00)

Average pressure tensor: 
-------------------------------------------------------------------------------
 9.9668e+01  5.0515e+01 -1.0845e+01 +/- 0.0000e+00 0.0000e+00 0.0000e+00 [bar]
 5.0515e+01  8.8362e+01 -3.9217e+01 +/- 0.0000e+00 0.0000e+00 0.0000e+00 [bar]
-1.0845e+01 -3.9217e+01  1.2184e+02 +/- 0.0000e+00 0.0000e+00 0.0000e+00 [bar]
Ideal-gas pressure:   5.064632e+02 +/ 0.000000e+00 [bar]
Excess pressure:     -4.031742e+02 +/ 0.000000e+00 [bar]
Pressure:             1.032890e+02 +/ 0.000000e+00 [bar]

Total potential energy/kʙ  -3.219132e+05 (-3.096766e+05 +/- 0.000000e+00) [K]
-------------------------------------------------------------------------------
ExternalField-molecule
    Van der Waals/kʙ        0.000000e+00 ( 0.000000e+00 +/- 0.000000e+00) [K]
Framework-molecule
    Van der Waals/kʙ        0.000000e+00 ( 0.000000e+00 +/- 0.000000e+00) [K]
    Van der Waals (Tail)/kʙ 0.000000e+00 ( 0.000000e+00 +/- 0.000000e+00) [K]
    Coulombic Real/kʙ       0.000000e+00 ( 0.000000e+00 +/- 0.000000e+00) [K]
    Coulombic Fourier/kʙ    0.000000e+00 ( 0.000000e+00 +/- 0.000000e+00) [K]
Molecule-molecule
    Van der Waals/kʙ       -2.292318e+05 (-2.205936e+05 +/- 0.000000e+00) [K]
    Van der Waals (Tail)/kʙ-9.636412e+03 (-9.413281e+03 +/- 0.000000e+00) [K]
    Coulombic Real/kʙ      -6.729640e+04 (-6.404137e+04 +/- 0.000000e+00) [K]
    Coulombic Fourier/kʙ   -1.574866e+04 (-1.562841e+04 +/- 0.000000e+00) [K]
    Molecule Intra/kʙ       0.000000e+00 ( 0.000000e+00 +/- 0.000000e+00) [K]

Current cycle: 1200 out of 5000
===============================================================================

Box:      23.89615   0.00000   0.00000  Average:  23.88818   0.00000   0.00000
           0.00000  23.89615   0.00000             0.00000  23.88818   0.00000
           0.00000   0.00000  23.89615             0.00000   0.00000  23.88818
Lengths:  23.89615  23.89615  23.89615  Average:  23.88818  23.88818  23.88818
Angles:   90.00000  90.00000  90.00000  Average:  90.00000  90.00000  90.00000
Rectangular boundary conditions

net charge:   0.00000000

component 0 (CO2) lambda:  0 occupancy:  1 (1.000000)
    net charge:   0.00000000 [e]

Amount of molecules per component :
-------------------------------------------------------------------------------
Component 0 (CO2)
    molecules:      2.000000e+02 molecules  (2.000000e+02 +/- 0.000000e+00)
    number density: 1.465704e-02 molec./A^3 (1.467641e-02 +/- 0.000000e+00)
    density:        1.070868e+03 kg/m^3     (1.072284e+03 +/- 0.000000e+00)

Average pressure tensor: 
-------------------------------------------------------------------------------
 9.4309e+01  5.6685e+01  3.8715e+00 +/- 0.0000e+00 0.0000e+00 0.0000e+00 [bar]
 5.6685e+01  7.9917e+01 -1.9997e+01 +/- 0.0000e+00 0.0000e+00 0.0000e+00 [bar]
 3.8715e+00 -1.9997e+01  1.4281e+02 +/- 0.0000e+00 0.0000e+00 0.0000e+00 [bar]
Ideal-gas pressure:   5.065747e+02 +/ 0.000000e+00 [bar]
Excess pressure:     -4.008955e+02 +/ 0.000000e+00 [bar]
Pressure:             1.056792e+02 +/ 0.000000e+00 [bar]

Total potential energy/kʙ  -3.131989e+05 (-3.100600e+05 +/- 0.000000e+00) [K]
-------------------------------------------------------------------------------
ExternalField-molecule
    Van der Waals/kʙ        0.000000e+00 ( 0.000000e+00 +/- 0.000000e+00) [K]
Framework-molecule
    Van der Waals/kʙ        0.000000e+00 ( 0.000000e+00 +/- 0.000000e+00) [K]
    Van der Waals (Tail)/kʙ 0.000000e+00 ( 0.000000e+00 +/- 0.000000e+00) [K]
    Coulombic Real/kʙ       0.000000e+00 ( 0.000000e+00 +/- 0.000000e+00) [K]
    Coulombic Fourier/kʙ    0.000000e+00 ( 0.000000e+00 +/- 0.000000e+00) [K]
Molecule-molecule
    Van der Waals/kʙ       -2.220830e+05 (-2.206216e+05 +/- 0.000000e+00) [K]
    Van der Waals (Tail)/kʙ-9.405565e+03 (-9.415179e+03 +/- 0.000000e+00) [K]
    Coulombic Real/kʙ      -6.552684e+04 (-6.437771e+04 +/- 0.000000e+00) [K]
    Coulombic Fourier/kʙ   -1.618351e+04 (-1.564544e+04 +/- 0.000000e+00) [K]
    Molecule Intra/kʙ       0.000000e+00 ( 0.000000e+00 +/- 0.000000e+00) [K]

Current cycle: 1300 out of 5000
===============================================================================

Box:      24.03068   0.00000   0.00000  Average:  23.89261   0.00000   0.00000
           0.00000  24.03068   0.00000             0.00000  23.89261   0.00000
           0.00000   0.00000  24.03068             0.00000   0.00000  23.89261
Lengths:  24.03068  24.03068  24.03068  Average:  23.89261  23.89261  23.89261
Angles:   90.00000  90.00000  90.00000  Average:  90.00000  90.00000  90.00000
Rectangular boundary conditions

net charge:   0.00000000

component 0 (CO2) lambda:  0 occupancy:  1 (1.000000)
    net charge:   0.00000000 [e]

Amount of molecules per component :
-------------------------------------------------------------------------------
Component 0 (CO2)
    molecules:      2.000000e+02 molecules  (2.000000e+02 +/- 0.000000e+00)
    number density: 1.441225e-02 molec./A^3 (1.466803e-02 +/- 0.000000e+00)
    density:        1.052984e+03 kg/m^3     (1.071671e+03 +/- 0.000000e+00)

Average pressure tensor: 
-------------------------------------------------------------------------------
 7.9265e+01  5.2450e+01  9.0563e+00 +/- 0.0000e+00 0.0000e+00 0.0000e+00 [bar]
 5.2450e+01  6.0804e+01 -5.5003e+00 +/- 0.0000e+00 0.0000e+00 0.0000e+00 [bar]
 9.0563e+00 -5.5003e+00  1.4369e+02 +/- 0.0000e+00 0.0000e+00 0.0000e+00 [bar]
Ideal-gas pressure:   5.062855e+02 +/ 0.000000e+00 [bar]
Excess pressure:     -4.116999e+02 +/ 0.000000e+00 [bar]
Pressure:             9.458563e+01 +/ 0.000000e+00 [bar]

Total potential energy/kʙ  -3.058873e+05 (-3.097818e+05 +/- 0.000000e+00) [K]
-------------------------------------------------------------------------------
ExternalField-molecule
    Van der Waals/kʙ        0.000000e+00 ( 0.000000e+00 +/- 0.000000e+00) [K]
Framework-molecule
    Van der Waals/kʙ        0.000000e+00 ( 0.000000e+00 +/- 0.000000e+00) [K]
    Van der Waals (Tail)/kʙ 0.000000e+00 ( 0.000000e+00 +/- 0.000000e+00) [K]
    Coulombic Real/kʙ       0.000000e+00 ( 0.000000e+00 +/- 0.000000e+00) [K]
    Coulombic Fourier/kʙ    0.000000e+00 ( 0.000000e+00 +/- 0.000000e+00) [K]
Molecule-molecule
    Van der Waals/kʙ       -2.190452e+05 (-2.204877e+05 +/- 0.000000e+00) [K]
    Van der Waals (Tail)/kʙ-9.248482e+03 (-9.405959e+03 +/- 0.000000e+00) [K]
    Coulombic Real/kʙ      -6.176422e+04 (-6.426135e+04 +/- 0.000000e+00) [K]
    Coulombic Fourier/kʙ   -1.582936e+04 (-1.562680e+04 +/- 0.000000e+00) [K]
    Molecule Intra/kʙ       0.000000e+00 ( 0.000000e+00 +/- 0.000000e+00) [K]

Current cycle: 1400 out of 5000
===============================================================================

Box:      24.21542   0.00000   0.00000  Average:  23.89228   0.00000   0.00000
           0.00000  24.21542   0.00000             0.00000  23.89228   0.00000
           0.00000   0.00000  24.21542             0.00000   0.00000  23.89228
Lengths:  24.21542  24.21542  24.21542  Average:  23.89228  23.89228  23.89228
Angles:   90.00000  90.00000  90.00000  Average:  90.00000  90.00000  90.00000
Rectangular boundary conditions

net charge:   0.00000000

component 0 (CO2) lambda:  0 occupancy:  1 (1.000000)
    net charge:   0.00000000 [e]

Amount of molecules per component :
-------------------------------------------------------------------------------
Component 0 (CO2)
    molecules:      2.000000e+02 molecules  (2.000000e+02 +/- 0.000000e+00)
    number density: 1.408490e-02 molec./A^3 (1.466849e-02 +/- 0.000000e+00)
    density:        1.029067e+03 kg/m^3     (1.071705e+03 +/- 0.000000e+00)

Average pressure tensor: 
-------------------------------------------------------------------------------
 9.3031e+01  4.9439e+01  1.0380e+01 +/- 0.0000e+00 0.0000e+00 0.0000e+00 [bar]
 4.9439e+01  6.3631e+01 -1.8915e+00 +/- 0.0000e+00 0.0000e+00 0.0000e+00 [bar]
 1.0380e+01 -1.8915e+00  1.4483e+02 +/- 0.0000e+00 0.0000e+00 0.0000e+00 [bar]
Ideal-gas pressure:   5.063015e+02 +/ 0.000000e+00 [bar]
Excess pressure:     -4.058056e+02 +/ 0.000000e+00 [bar]
Pressure:             1.004959e+02 +/ 0.000000e+00 [bar]

Total potential energy/kʙ  -3.003963e+05 (-3.098104e+05 +/- 0.000000e+00) [K]
-------------------------------------------------------------------------------
ExternalField-molecule
    Van der Waals/kʙ        0.000000e+00 ( 0.000000e+00 +/- 0.000000e+00) [K]
Framework-molecule
    Van der Waals/kʙ        0.000000e+00 ( 0.000000e+00 +/- 0.000000e+00) [K]
    Van der Waals (Tail)/kʙ 0.000000e+00 ( 0.000000e+00 +/- 0.000000e+00) [K]
    Coulombic Real/kʙ       0.000000e+00 ( 0.000000e+00 +/- 0.000000e+00) [K]
    Coulombic Fourier/kʙ    0.000000e+00 ( 0.000000e+00 +/- 0.000000e+00) [K]
Molecule-molecule
    Van der Waals/kʙ       -2.132905e+05 (-2.204847e+05 +/- 0.000000e+00) [K]
    Van der Waals (Tail)/kʙ-9.038420e+03 (-9.404747e+03 +/- 0.000000e+00) [K]
    Coulombic Real/kʙ      -6.214218e+04 (-6.425776e+04 +/- 0.000000e+00) [K]
    Coulombic Fourier/kʙ   -1.592519e+04 (-1.566319e+04 +/- 0.000000e+00) [K]
    Molecule Intra/kʙ       0.000000e+00 ( 0.000000e+00 +/- 0.000000e+00) [K]

Current cycle: 1500 out of 5000
===============================================================================

Box:      23.98675   0.00000   0.00000  Average:  23.89376   0.00000   0.00000
           0.00000  23.98675   0.00000             0.00000  23.89376   0.00000
           0.00000   0.00000  23.98675             0.00000   0.00000  23.89376
Lengths:  23.98675  23.98675  23.98675  Average:  23.89376  23.89376  23.89376
Angles:   90.00000  90.00000  90.00000  Average:  90.00000  90.00000  90.00000
Rectangular boundary conditions

net charge:   0.00000000

component 0 (CO2) lambda:  0 occupancy:  1 (1.000000)
    net charge:   0.00000000 [e]

Amount of molecules per component :
-------------------------------------------------------------------------------
Component 0 (CO2)
    molecules:      2.000000e+02 molecules  (2.000000e+02 +/- 0.000000e+00)
    number density: 1.449159e-02 molec./A^3 (1.466562e-02 +/- 0.000000e+00)
    density:        1.058780e+03 kg/m^3     (1.071495e+03 +/- 0.000000e+00)

Average pressure tensor: 
-------------------------------------------------------------------------------
 1.0730e+02  5.1333e+01  1.0085e+01 +/- 0.0000e+00 0.0000e+00 0.0000e+00 [bar]
 5.1333e+01  6.6831e+01  7.8979e+00 +/- 0.0000e+00 0.0000e+00 0.0000e+00 [bar]
 1.0085e+01  7.8979e+00  1.3396e+02 +/- 0.0000e+00 0.0000e+00 0.0000e+00 [bar]
Ideal-gas pressure:   5.062022e+02 +/ 0.000000e+00 [bar]
Excess pressure:     -4.035027e+02 +/ 0.000000e+00 [bar]
Pressure:             1.026995e+02 +/ 0.000000e+00 [bar]

Total potential energy/kʙ  -3.066128e+05 (-3.100675e+05 +/- 0.000000e+00) [K]
-------------------------------------------------------------------------------
ExternalField-molecule
    Van der Waals/kʙ        0.000000e+00 ( 0.000000e+00 +/- 0.000000e+00) [K]
Framework-molecule
    Van der Waals/kʙ        0.000000e+00 ( 0.000000e+00 +/- 0.000000e+00) [K]
    Van der Waals (Tail)/kʙ 0.000000e+00 ( 0.000000e+00 +/- 0.000000e+00) [K]
    Coulombic Real/kʙ       0.000000e+00 ( 0.000000e+00 +/- 0.000000e+00) [K]
    Coulombic Fourier/kʙ    0.000000e+00 ( 0.000000e+00 +/- 0.000000e+00) [K]
Molecule-molecule
    Van der Waals/kʙ       -2.175489e+05 (-2.204944e+05 +/- 0.000000e+00) [K]
    Van der Waals (Tail)/kʙ-9.299394e+03 (-9.406047e+03 +/- 0.000000e+00) [K]
    Coulombic Real/kʙ      -6.381024e+04 (-6.445152e+04 +/- 0.000000e+00) [K]
    Coulombic Fourier/kʙ   -1.595426e+04 (-1.571548e+04 +/- 0.000000e+00) [K]
    Molecule Intra/kʙ       0.000000e+00 ( 0.000000e+00 +/- 0.000000e+00) [K]

Current cycle: 1600 out of 5000
===============================================================================

Box:      23.90824   0.00000   0.00000  Average:  23.89211   0.00000   0.00000
           0.00000  23.90824   0.00000             0.00000  23.89211   0.00000
           0.00000   0.00000  23.90824             0.00000   0.00000  23.89211
Lengths:  23.90824  23.90824  23.90824  Average:  23.89211  23.89211  23.89211
Angles:   90.00000  90.00000  90.00000  Average:  90.00000  90.00000  90.00000
Rectangular boundary conditions

net charge:   0.00000000

component 0 (CO2) lambda:  0 occupancy:  1 (1.000000)
    net charge:   0.00000000 [e]

Amount of molecules per component :
-------------------------------------------------------------------------------
Component 0 (CO2)
    molecules:      2.000000e+02 molecules  (2.000000e+02 +/- 0.000000e+00)
    number density: 1.463481e-02 molec./A^3 (1.466849e-02 +/- 0.000000e+00)
    density:        1.069244e+03 kg/m^3     (1.071705e+03 +/- 0.000000e+00)

Average pressure tensor: 
-------------------------------------------------------------------------------
 1.1209e+02  4.8715e+01  2.4291e+01 +/- 0.0000e+00 0.0000e+00 0.0000e+00 [bar]
 4.8715e+01  7.3453e+01 -1.7879e+00 +/- 0.0000e+00 0.0000e+00 0.0000e+00 [bar]
 2.4291e+01 -1.7879e+00  1.3890e+02 +/- 0.0000e+00 0.0000e+00 0.0000e+00 [bar]
Ideal-gas pressure:   5.063014e+02 +/ 0.000000e+00 [bar]
Excess pressure:     -3.981560e+02 +/ 0.000000e+00 [bar]
Pressure:             1.081455e+02 +/ 0.000000e+00 [bar]

Total potential energy/kʙ  -3.046005e+05 (-3.099583e+05 +/- 0.000000e+00) [K]
-------------------------------------------------------------------------------
ExternalField-molecule
    Van der Waals/kʙ        0.000000e+00 ( 0.000000e+00 +/- 0.000000e+00) [K]
Framework-molecule
    Van der Waals/kʙ        0.000000e+00 ( 0.000000e+00 +/- 0.000000e+00) [K]
    Van der Waals (Tail)/kʙ 0.000000e+00 ( 0.000000e+00 +/- 0.000000e+00) [K]
    Coulombic Real/kʙ       0.000000e+00 ( 0.000000e+00 +/- 0.000000e+00) [K]
    Coulombic Fourier/kʙ    0.000000e+00 ( 0.000000e+00 +/- 0.000000e+00) [K]
Molecule-molecule
    Van der Waals/kʙ       -2.196226e+05 (-2.205319e+05 +/- 0.000000e+00) [K]
    Van der Waals (Tail)/kʙ-9.391300e+03 (-9.409445e+03 +/- 0.000000e+00) [K]
    Coulombic Real/kʙ      -5.990951e+04 (-6.429453e+04 +/- 0.000000e+00) [K]
    Coulombic Fourier/kʙ   -1.567707e+04 (-1.572245e+04 +/- 0.000000e+00) [K]
    Molecule Intra/kʙ       0.000000e+00 ( 0.000000e+00 +/- 0.000000e+00) [K]

Current cycle: 1700 out of 5000
===============================================================================

Box:      23.80340   0.00000   0.00000  Average:  23.88943   0.00000   0.00000
           0.00000  23.80340   0.00000             0.00000  23.88943   0.00000
           0.00000   0.00000  23.80340             0.00000   0.00000  23.88943
Lengths:  23.80340  23.80340  23.80340  Average:  23.88943  23.88943  23.88943
Angles:   90.00000  90.00000  90.00000  Average:  90.00000  90.00000  90.00000
Rectangular boundary conditions

net charge:   0.00000000

component 0 (CO2) lambda:  0 occupancy:  1 (1.000000)
    net charge:   0.00000000 [e]

Amount of molecules per component :
-------------------------------------------------------------------------------
Component 0 (CO2)
    molecules:      2.000000e+02 molecules  (2.000000e+02 +/- 0.000000e+00)
    number density: 1.482905e-02 molec./A^3 (1.467331e-02 +/- 0.000000e+00)
    density:        1.083435e+03 kg/m^3     (1.072057e+03 +/- 0.000000e+00)

Average pressure tensor: 
-------------------------------------------------------------------------------
 1.1621e+02  3.9101e+01  3.0275e+01 +/- 0.0000e+00 0.0000e+00 0.0000e+00 [bar]
 3.9101e+01  6.4253e+01  1.2910e+00 +/- 0.0000e+00 0.0000e+00 0.0000e+00 [bar]
 3.0275e+01  1.2910e+00  1.2480e+02 +/- 0.0000e+00 0.0000e+00 0.0000e+00 [bar]
Ideal-gas pressure:   5.064677e+02 +/ 0.000000e+00 [bar]
Excess pressure:     -4.047122e+02 +/ 0.000000e+00 [bar]
Pressure:             1.017556e+02 +/ 0.000000e+00 [bar]

Total potential energy/kʙ  -3.114461e+05 (-3.101661e+05 +/- 0.000000e+00) [K]
-------------------------------------------------------------------------------
ExternalField-molecule
    Van der Waals/kʙ        0.000000e+00 ( 0.000000e+00 +/- 0.000000e+00) [K]
Framework-molecule
    Van der Waals/kʙ        0.000000e+00 ( 0.000000e+00 +/- 0.000000e+00) [K]
    Van der Waals (Tail)/kʙ 0.000000e+00 ( 0.000000e+00 +/- 0.000000e+00) [K]
    Coulombic Real/kʙ       0.000000e+00 ( 0.000000e+00 +/- 0.000000e+00) [K]
    Coulombic Fourier/kʙ    0.000000e+00 ( 0.000000e+00 +/- 0.000000e+00) [K]
Molecule-molecule
    Van der Waals/kʙ       -2.196410e+05 (-2.207383e+05 +/- 0.000000e+00) [K]
    Van der Waals (Tail)/kʙ-9.515944e+03 (-9.412558e+03 +/- 0.000000e+00) [K]
    Coulombic Real/kʙ      -6.630097e+04 (-6.432337e+04 +/- 0.000000e+00) [K]
    Coulombic Fourier/kʙ   -1.598818e+04 (-1.569189e+04 +/- 0.000000e+00) [K]
    Molecule Intra/kʙ       0.000000e+00 ( 0.000000e+00 +/- 0.000000e+00) [K]

Current cycle: 1800 out of 5000
===============================================================================

Box:      24.15083   0.00000   0.00000  Average:  23.89828   0.00000   0.00000
           0.00000  24.15083   0.00000             0.00000  23.89828   0.00000
           0.00000   0.00000  24.15083             0.00000   0.00000  23.89828
Lengths:  24.15083  24.15083  24.15083  Average:  23.89828  23.89828  23.89828
Angles:   90.00000  90.00000  90.00000  Average:  90.00000  90.00000  90.00000
Rectangular boundary conditions

net charge:   0.00000000

component 0 (CO2) lambda:  0 occupancy:  1 (1.000000)
    net charge:   0.00000000 [e]

Amount of molecules per component :
-------------------------------------------------------------------------------
Component 0 (CO2)
    molecules:      2.000000e+02 molecules  (2.000000e+02 +/- 0.000000e+00)
    number density: 1.419822e-02 molec./A^3 (1.465710e-02 +/- 0.000000e+00)
    density:        1.037347e+03 kg/m^3     (1.070873e+03 +/- 0.000000e+00)

Average pressure tensor: 
-------------------------------------------------------------------------------
 1.2048e+02  3.8839e+01  4.1116e+01 +/- 0.0000e+00 0.0000e+00 0.0000e+00 [bar]
 3.8839e+01  7.2356e+01 -2.8439e+00 +/- 0.0000e+00 0.0000e+00 0.0000e+00 [bar]
 4.1116e+01 -2.8439e+00  1.3500e+02 +/- 0.0000e+00 0.0000e+00 0.0000e+00 [bar]
Ideal-gas pressure:   5.059084e+02 +/ 0.000000e+00 [bar]
Excess pressure:     -3.966283e+02 +/ 0.000000e+00 [bar]
Pressure:             1.092800e+02 +/ 0.000000e+00 [bar]

Total potential energy/kʙ  -2.973359e+05 (-3.096012e+05 +/- 0.000000e+00) [K]
-------------------------------------------------------------------------------
ExternalField-molecule
    Van der Waals/kʙ        0.000000e+00 ( 0.000000e+00 +/- 0.000000e+00) [K]
Framework-molecule
    Van der Waals/kʙ        0.000000e+00 ( 0.000000e+00 +/- 0.000000e+00) [K]
    Van der Waals (Tail)/kʙ 0.000000e+00 ( 0.000000e+00 +/- 0.000000e+00) [K]
    Coulombic Real/kʙ       0.000000e+00 ( 0.000000e+00 +/- 0.000000e+00) [K]
    Coulombic Fourier/kʙ    0.000000e+00 ( 0.000000e+00 +/- 0.000000e+00) [K]
Molecule-molecule
    Van der Waals/kʙ       -2.067753e+05 (-2.202934e+05 +/- 0.000000e+00) [K]
    Van der Waals (Tail)/kʙ-9.111140e+03 (-9.401795e+03 +/- 0.000000e+00) [K]
    Coulombic Real/kʙ      -6.630326e+04 (-6.422996e+04 +/- 0.000000e+00) [K]
    Coulombic Fourier/kʙ   -1.514617e+04 (-1.567601e+04 +/- 0.000000e+00) [K]
    Molecule Intra/kʙ       0.000000e+00 ( 0.000000e+00 +/- 0.000000e+00) [K]

Current cycle: 1900 out of 5000
===============================================================================

Box:      23.83913   0.00000   0.00000  Average:  23.90509   0.00000   0.00000
           0.00000  23.83913   0.00000             0.00000  23.90509   0.00000
           0.00000   0.00000  23.83913             0.00000   0.00000  23.90509
Lengths:  23.83913  23.83913  23.83913  Average:  23.90509  23.90509  23.90509
Angles:   90.00000  90.00000  90.00000  Average:  90.00000  90.00000  90.00000
Rectangular boundary conditions

net charge:   0.00000000

component 0 (CO2) lambda:  0 occupancy:  1 (1.000000)
    net charge:   0.00000000 [e]

Amount of molecules per component :
-------------------------------------------------------------------------------
Component 0 (CO2)
    molecules:      2.000000e+02 molecules  (2.000000e+02 +/- 0.000000e+00)
    number density: 1.476247e-02 molec./A^3 (1.464457e-02 +/- 0.000000e+00)
    density:        1.078571e+03 kg/m^3     (1.069957e+03 +/- 0.000000e+00)

Average pressure tensor: 
-------------------------------------------------------------------------------
 1.1371e+02  3.4850e+01  2.8366e+01 +/- 0.0000e+00 0.0000e+00 0.0000e+00 [bar]
 3.4850e+01  8.9478e+01 -5.4089e+00 +/- 0.0000e+00 0.0000e+00 0.0000e+00 [bar]
 2.8366e+01 -5.4089e+00  1.3674e+02 +/- 0.0000e+00 0.0000e+00 0.0000e+00 [bar]
Ideal-gas pressure:   5.054758e+02 +/ 0.000000e+00 [bar]
Excess pressure:     -3.921657e+02 +/ 0.000000e+00 [bar]
Pressure:             1.133101e+02 +/ 0.000000e+00 [bar]

Total potential energy/kʙ  -3.011843e+05 (-3.092329e+05 +/- 0.000000e+00) [K]
-------------------------------------------------------------------------------
ExternalField-molecule
    Van der Waals/kʙ        0.000000e+00 ( 0.000000e+00 +/- 0.000000e+00) [K]
Framework-molecule
    Van der Waals/kʙ        0.000000e+00 ( 0.000000e+00 +/- 0.000000e+00) [K]
    Van der Waals (Tail)/kʙ 0.000000e+00 ( 0.000000e+00 +/- 0.000000e+00) [K]
    Coulombic Real/kʙ       0.000000e+00 ( 0.000000e+00 +/- 0.000000e+00) [K]
    Coulombic Fourier/kʙ    0.000000e+00 ( 0.000000e+00 +/- 0.000000e+00) [K]
Molecule-molecule
    Van der Waals/kʙ       -2.174724e+05 (-2.200239e+05 +/- 0.000000e+00) [K]
    Van der Waals (Tail)/kʙ-9.473221e+03 (-9.396154e+03 +/- 0.000000e+00) [K]
    Coulombic Real/kʙ      -6.047267e+04 (-6.420733e+04 +/- 0.000000e+00) [K]
    Coulombic Fourier/kʙ   -1.376603e+04 (-1.560555e+04 +/- 0.000000e+00) [K]
    Molecule Intra/kʙ       0.000000e+00 ( 0.000000e+00 +/- 0.000000e+00) [K]

Current cycle: 2000 out of 5000
===============================================================================

Box:      23.79486   0.00000   0.00000  Average:  23.90383   0.00000   0.00000
           0.00000  23.79486   0.00000             0.00000  23.90383   0.00000
           0.00000   0.00000  23.79486             0.00000   0.00000  23.90383
Lengths:  23.79486  23.79486  23.79486  Average:  23.90383  23.90383  23.90383
Angles:   90.00000  90.00000  90.00000  Average:  90.00000  90.00000  90.00000
Rectangular boundary conditions

net charge:   0.00000000

component 0 (CO2) lambda:  0 occupancy:  1 (1.000000)
    net charge:   0.00000000 [e]

Amount of molecules per component :
-------------------------------------------------------------------------------
Component 0 (CO2)
    molecules:      2.000000e+02 molecules  (2.000000e+02 +/- 0.000000e+00)
    number density: 1.484501e-02 molec./A^3 (1.464678e-02 +/- 0.000000e+00)
    density:        1.084602e+03 kg/m^3     (1.070119e+03 +/- 0.000000e+00)

Average pressure tensor: 
-------------------------------------------------------------------------------
 1.3284e+02  3.1681e+01  3.4591e+01 +/- 0.0000e+00 0.0000e+00 0.0000e+00 [bar]
 3.1681e+01  8.9737e+01 -7.4933e+00 +/- 0.0000e+00 0.0000e+00 0.0000e+00 [bar]
 3.4591e+01 -7.4933e+00  1.3742e+02 +/- 0.0000e+00 0.0000e+00 0.0000e+00 [bar]
Ideal-gas pressure:   5.055520e+02 +/ 0.000000e+00 [bar]
Excess pressure:     -3.855536e+02 +/ 0.000000e+00 [bar]
Pressure:             1.199984e+02 +/ 0.000000e+00 [bar]

Total potential energy/kʙ  -3.049120e+05 (-3.089492e+05 +/- 0.000000e+00) [K]
-------------------------------------------------------------------------------
ExternalField-molecule
    Van der Waals/kʙ        0.000000e+00 ( 0.000000e+00 +/- 0.000000e+00) [K]
Framework-molecule
    Van der Waals/kʙ        0.000000e+00 ( 0.000000e+00 +/- 0.000000e+00) [K]
    Van der Waals (Tail)/kʙ 0.000000e+00 ( 0.000000e+00 +/- 0.000000e+00) [K]
    Coulombic Real/kʙ       0.000000e+00 ( 0.000000e+00 +/- 0.000000e+00) [K]
    Coulombic Fourier/kʙ    0.000000e+00 ( 0.000000e+00 +/- 0.000000e+00) [K]
Molecule-molecule
    Van der Waals/kʙ       -2.199196e+05 (-2.200603e+05 +/- 0.000000e+00) [K]
    Van der Waals (Tail)/kʙ-9.526190e+03 (-9.399454e+03 +/- 0.000000e+00) [K]
    Coulombic Real/kʙ      -6.059978e+04 (-6.393319e+04 +/- 0.000000e+00) [K]
    Coulombic Fourier/kʙ   -1.486636e+04 (-1.555624e+04 +/- 0.000000e+00) [K]
    Molecule Intra/kʙ       0.000000e+00 ( 0.000000e+00 +/- 0.000000e+00) [K]

Current cycle: 2100 out of 5000
===============================================================================

Box:      24.26796   0.00000   0.00000  Average:  23.91259   0.00000   0.00000
           0.00000  24.26796   0.00000             0.00000  23.91259   0.00000
           0.00000   0.00000  24.26796             0.00000   0.00000  23.91259
Lengths:  24.26796  24.26796  24.26796  Average:  23.91259  23.91259  23.91259
Angles:   90.00000  90.00000  90.00000  Average:  90.00000  90.00000  90.00000
Rectangular boundary conditions

net charge:   0.00000000

component 0 (CO2) lambda:  0 occupancy:  1 (1.000000)
    net charge:   0.00000000 [e]

Amount of molecules per component :
-------------------------------------------------------------------------------
Component 0 (CO2)
    molecules:      2.000000e+02 molecules  (2.000000e+02 +/- 0.000000e+00)
    number density: 1.399362e-02 molec./A^3 (1.463097e-02 +/- 0.000000e+00)
    density:        1.022398e+03 kg/m^3     (1.068963e+03 +/- 0.000000e+00)

Average pressure tensor: 
-------------------------------------------------------------------------------
 1.2714e+02  2.9700e+01  3.4557e+01 +/- 0.0000e+00 0.0000e+00 0.0000e+00 [bar]
 2.9700e+01  9.2257e+01 -4.0536e+00 +/- 0.0000e+00 0.0000e+00 0.0000e+00 [bar]
 3.4557e+01 -4.0536e+00  1.3875e+02 +/- 0.0000e+00 0.0000e+00 0.0000e+00 [bar]
Ideal-gas pressure:   5.050062e+02 +/ 0.000000e+00 [bar]
Excess pressure:     -3.856236e+02 +/ 0.000000e+00 [bar]
Pressure:             1.193825e+02 +/ 0.000000e+00 [bar]

Total potential energy/kʙ  -2.918330e+05 (-3.081787e+05 +/- 0.000000e+00) [K]
-------------------------------------------------------------------------------
ExternalField-molecule
    Van der Waals/kʙ        0.000000e+00 ( 0.000000e+00 +/- 0.000000e+00) [K]
Framework-molecule
    Van der Waals/kʙ        0.000000e+00 ( 0.000000e+00 +/- 0.000000e+00) [K]
    Van der Waals (Tail)/kʙ 0.000000e+00 ( 0.000000e+00 +/- 0.000000e+00) [K]
[...]
    Coulombic Fourier/kʙ    0.000000e+00 ( 0.000000e+00 +/- 0.000000e+00) [K]
Molecule-molecule
    Van der Waals/kʙ       -2.196184e+05 (-2.176207e+05 +/- 3.256575e+03) [K]
    Van der Waals (Tail)/kʙ-9.476017e+03 (-9.298769e+03 +/- 1.244611e+02) [K]
    Coulombic Real/kʙ      -5.936425e+04 (-6.234793e+04 +/- 2.063968e+03) [K]
    Coulombic Fourier/kʙ   -1.461382e+04 (-1.519982e+04 +/- 5.349761e+02) [K]
    Molecule Intra/kʙ       0.000000e+00 ( 0.000000e+00 +/- 0.000000e+00) [K]

Current cycle: 4700 out of 5000
===============================================================================

Box:      24.19084   0.00000   0.00000  Average:  23.98982   0.00000   0.00000
           0.00000  24.19084   0.00000             0.00000  23.98982   0.00000
           0.00000   0.00000  24.19084             0.00000   0.00000  23.98982
Lengths:  24.19084  24.19084  24.19084  Average:  23.98982  23.98982  23.98982
Angles:   90.00000  90.00000  90.00000  Average:  90.00000  90.00000  90.00000
Rectangular boundary conditions

net charge:   0.00000000

component 0 (CO2) lambda:  0 occupancy:  1 (1.000000)
    net charge:   0.00000000 [e]

Amount of molecules per component :
-------------------------------------------------------------------------------
Component 0 (CO2)
    molecules:      2.000000e+02 molecules  (2.000000e+02 +/- 0.000000e+00)
    number density: 1.412788e-02 molec./A^3 (1.449306e-02 +/- 1.882296e-04)
    density:        1.032207e+03 kg/m^3     (1.058888e+03 +/- 1.375238e+01)

Average pressure tensor: 
-------------------------------------------------------------------------------
 7.6544e+01  2.4461e+01  5.3191e+01 +/- 9.3829e+01 1.1024e+01 5.9874e+01 [bar]
 2.4461e+01  1.0558e+02 -1.0411e+01 +/- 1.1024e+01 8.5870e+01 6.3476e+01 [bar]
 5.3191e+01 -1.0411e+01  1.0877e+02 +/- 5.9874e+01 6.3476e+01 6.3603e+01 [bar]
Ideal-gas pressure:   5.002463e+02 +/ 6.496983e+00 [bar]
Excess pressure:     -4.032819e+02 +/ 3.159022e+01 [bar]
Pressure:             9.696438e+01 +/ 3.567378e+01 [bar]

Total potential energy/kʙ  -2.922985e+05 (-3.043295e+05 +/- 5.879494e+03) [K]
-------------------------------------------------------------------------------
ExternalField-molecule
    Van der Waals/kʙ        0.000000e+00 ( 0.000000e+00 +/- 0.000000e+00) [K]
Framework-molecule
    Van der Waals/kʙ        0.000000e+00 ( 0.000000e+00 +/- 0.000000e+00) [K]
    Van der Waals (Tail)/kʙ 0.000000e+00 ( 0.000000e+00 +/- 0.000000e+00) [K]
    Coulombic Real/kʙ       0.000000e+00 ( 0.000000e+00 +/- 0.000000e+00) [K]
    Coulombic Fourier/kʙ    0.000000e+00 ( 0.000000e+00 +/- 0.000000e+00) [K]
Molecule-molecule
    Van der Waals/kʙ       -2.145239e+05 (-2.176181e+05 +/- 3.077741e+03) [K]
    Van der Waals (Tail)/kʙ-9.066001e+03 (-9.296625e+03 +/- 1.244132e+02) [K]
    Coulombic Real/kʙ      -5.487262e+04 (-6.222810e+04 +/- 2.230096e+03) [K]
    Coulombic Fourier/kʙ   -1.383598e+04 (-1.518671e+04 +/- 5.337931e+02) [K]
    Molecule Intra/kʙ       0.000000e+00 ( 0.000000e+00 +/- 0.000000e+00) [K]

Current cycle: 4800 out of 5000
===============================================================================

Box:      24.02841   0.00000   0.00000  Average:  23.99095   0.00000   0.00000
           0.00000  24.02841   0.00000             0.00000  23.99095   0.00000
           0.00000   0.00000  24.02841             0.00000   0.00000  23.99095
Lengths:  24.02841  24.02841  24.02841  Average:  23.99095  23.99095  23.99095
Angles:   90.00000  90.00000  90.00000  Average:  90.00000  90.00000  90.00000
Rectangular boundary conditions

net charge:   0.00000000

component 0 (CO2) lambda:  0 occupancy:  1 (1.000000)
    net charge:   0.00000000 [e]

Amount of molecules per component :
-------------------------------------------------------------------------------
Component 0 (CO2)
    molecules:      2.000000e+02 molecules  (2.000000e+02 +/- 0.000000e+00)
    number density: 1.441634e-02 molec./A^3 (1.449092e-02 +/- 1.861655e-04)
    density:        1.053282e+03 kg/m^3     (1.058731e+03 +/- 1.360157e+01)

Average pressure tensor: 
-------------------------------------------------------------------------------
 7.6844e+01  2.2260e+01  5.4156e+01 +/- 8.6192e+01 1.3070e+01 5.8712e+01 [bar]
 2.2260e+01  1.0488e+02 -8.7272e+00 +/- 1.3070e+01 7.7348e+01 5.9214e+01 [bar]
 5.4156e+01 -8.7272e+00  1.0602e+02 +/- 5.8712e+01 5.9214e+01 6.2709e+01 [bar]
Ideal-gas pressure:   5.001723e+02 +/ 6.425736e+00 [bar]
Excess pressure:     -4.042588e+02 +/ 3.115651e+01 [bar]
Pressure:             9.591354e+01 +/ 3.566096e+01 [bar]

Total potential energy/kʙ  -3.041719e+05 (-3.042518e+05 +/- 5.793587e+03) [K]
-------------------------------------------------------------------------------
ExternalField-molecule
    Van der Waals/kʙ        0.000000e+00 ( 0.000000e+00 +/- 0.000000e+00) [K]
Framework-molecule
    Van der Waals/kʙ        0.000000e+00 ( 0.000000e+00 +/- 0.000000e+00) [K]
    Van der Waals (Tail)/kʙ 0.000000e+00 ( 0.000000e+00 +/- 0.000000e+00) [K]
    Coulombic Real/kʙ       0.000000e+00 ( 0.000000e+00 +/- 0.000000e+00) [K]
    Coulombic Fourier/kʙ    0.000000e+00 ( 0.000000e+00 +/- 0.000000e+00) [K]
Molecule-molecule
    Van der Waals/kʙ       -2.167444e+05 (-2.175854e+05 +/- 3.014155e+03) [K]
    Van der Waals (Tail)/kʙ-9.251106e+03 (-9.294858e+03 +/- 1.239153e+02) [K]
    Coulombic Real/kʙ      -6.259343e+04 (-6.218517e+04 +/- 2.232888e+03) [K]
    Coulombic Fourier/kʙ   -1.558293e+04 (-1.518631e+04 +/- 5.043329e+02) [K]
    Molecule Intra/kʙ       0.000000e+00 ( 0.000000e+00 +/- 0.000000e+00) [K]

Current cycle: 4900 out of 5000
===============================================================================

Box:      24.09058   0.00000   0.00000  Average:  23.98940   0.00000   0.00000
           0.00000  24.09058   0.00000             0.00000  23.98940   0.00000
           0.00000   0.00000  24.09058             0.00000   0.00000  23.98940
Lengths:  24.09058  24.09058  24.09058  Average:  23.98940  23.98940  23.98940
Angles:   90.00000  90.00000  90.00000  Average:  90.00000  90.00000  90.00000
Rectangular boundary conditions

net charge:   0.00000000

component 0 (CO2) lambda:  0 occupancy:  1 (1.000000)
    net charge:   0.00000000 [e]

Amount of molecules per component :
-------------------------------------------------------------------------------
Component 0 (CO2)
    molecules:      2.000000e+02 molecules  (2.000000e+02 +/- 0.000000e+00)
    number density: 1.430501e-02 molec./A^3 (1.449364e-02 +/- 1.777814e-04)
    density:        1.045148e+03 kg/m^3     (1.058930e+03 +/- 1.298902e+01)

Average pressure tensor: 
-------------------------------------------------------------------------------
 7.8946e+01  2.1200e+01  5.7466e+01 +/- 7.6599e+01 1.4593e+01 5.7628e+01 [bar]
 2.1200e+01  1.0189e+02 -1.0654e+01 +/- 1.4593e+01 6.5977e+01 6.0733e+01 [bar]
 5.7466e+01 -1.0654e+01  1.0196e+02 +/- 5.7628e+01 6.0733e+01 6.3848e+01 [bar]
Ideal-gas pressure:   5.002661e+02 +/ 6.136350e+00 [bar]
Excess pressure:     -4.060011e+02 +/ 3.135036e+01 [bar]
Pressure:             9.426505e+01 +/ 3.621726e+01 [bar]

Total potential energy/kʙ  -3.034410e+05 (-3.042902e+05 +/- 5.535753e+03) [K]
-------------------------------------------------------------------------------
ExternalField-molecule
    Van der Waals/kʙ        0.000000e+00 ( 0.000000e+00 +/- 0.000000e+00) [K]
Framework-molecule
    Van der Waals/kʙ        0.000000e+00 ( 0.000000e+00 +/- 0.000000e+00) [K]
    Van der Waals (Tail)/kʙ 0.000000e+00 ( 0.000000e+00 +/- 0.000000e+00) [K]
    Coulombic Real/kʙ       0.000000e+00 ( 0.000000e+00 +/- 0.000000e+00) [K]
    Coulombic Fourier/kʙ    0.000000e+00 ( 0.000000e+00 +/- 0.000000e+00) [K]
Molecule-molecule
    Van der Waals/kʙ       -2.168487e+05 (-2.176372e+05 +/- 2.827037e+03) [K]
    Van der Waals (Tail)/kʙ-9.179664e+03 (-9.296089e+03 +/- 1.194708e+02) [K]
    Coulombic Real/kʙ      -6.151372e+04 (-6.217144e+04 +/- 2.190066e+03) [K]
    Coulombic Fourier/kʙ   -1.589896e+04 (-1.518550e+04 +/- 4.837848e+02) [K]
    Molecule Intra/kʙ       0.000000e+00 ( 0.000000e+00 +/- 0.000000e+00) [K]


Energy statistics             |  Energy [K]   | Recomputed [K]|  Drift [K]    |
===============================================================================
Total potential energy/kʙ     | -3.108147e+05 | -3.108147e+05 | -1.979907e-09 |
    external field VDW/kʙ     |  0.000000e+00 |  0.000000e+00 |  0.000000e+00 |
    external field Real/kʙ    |  0.000000e+00 |  0.000000e+00 |  0.000000e+00 |
    framework-molecule VDW/kʙ |  0.000000e+00 |  0.000000e+00 |  0.000000e+00 |
    framework-molecule Real/kʙ|  0.000000e+00 |  0.000000e+00 |  0.000000e+00 |
    molecule-molecule VDW/kʙ  | -2.199806e+05 | -2.199806e+05 | -1.470163e-09 |
    molecule-molecule Real/kʙ | -6.542988e+04 | -6.542988e+04 | -5.250583e-10 |
    Van der Waals (Tail)/kʙ   | -9.505540e+03 | -9.505540e+03 |  0.000000e+00 |
    Ewald Fourier/kʙ          |  1.316303e+04 |  1.316303e+04 |  1.531420e-11 |
    Ewald self/kʙ             | -4.445846e+06 | -4.445846e+06 |  0.000000e+00 |
    Ewald exclusion/kʙ        |  4.416785e+06 |  4.416785e+06 |  0.000000e+00 |
    intra VDW/kʙ              |  0.000000e+00 |  0.000000e+00 |  0.000000e+00 |
    intra Coulombic/kʙ        |  0.000000e+00 |  0.000000e+00 |  0.000000e+00 |
    polarization/kʙ           |  0.000000e+00 |  0.000000e+00 |  0.000000e+00 |
    dU/dlambda VDW/kʙ         |  0.000000e+00 |  0.000000e+00 |  0.000000e+00 |
    dU/dlambda Real/kʙ        |  0.000000e+00 |  0.000000e+00 |  0.000000e+00 |
    dU/dlambda Ewald/kʙ       |  0.000000e+00 |  0.000000e+00 |  0.000000e+00 |
-------------------------------------------------------------------------------


Monte-Carlo moves statistics
===============================================================================

    Volume change        all:                6612
    Volume change        total:              6612
    Volume change        constructed:        6612
    Volume change        accepted:           2066
    Volume change        fraction:       0.312462
    Volume change        max-change:     0.050000

Component 0 [CO2]
    Reinsertion (CBMC)   all:              330601
    Reinsertion (CBMC)   total:            330601
    Reinsertion (CBMC)   constructed:      295296
    Reinsertion (CBMC)   accepted:           5140
    Reinsertion (CBMC)   fraction:       0.015547
    Reinsertion (CBMC)   max-change:     0.000000

    Translation          all:              331352
    Translation          total:            110919     109986     110447
    Translation          constructed:      110919     109986     110447
    Translation          accepted:          52325      66203      70273
    Translation          fraction:       0.471741   0.601922   0.636260
    Translation          max-change:     0.725953   0.484848   0.433437

    Rotation             all:              331435
    Rotation             total:            110748     110226     110461
    Rotation             constructed:      110748     110195     110456
    Rotation             accepted:          57975      42468      47299
    Rotation             fraction:       0.523486   0.385281   0.428196
    Rotation             max-change:     0.642857   1.011494   0.882852



Production run counting of the MC moves summed over systems and components
===============================================================================

Volume change                          6612 (0.6612 [%])
Reinsertion (CBMC)                   330601 (33.0601 [%])
Translation                          331352 (33.1352 [%])
Rotation                             331435 (33.1435 [%])

Production count MC-steps:          1000000 [-]
               All summed:          1000000 [-]
               difference:                0 [-]


Production run CPU timings of the MC moves
===============================================================================

Component 0 CO2

Rotation                             48.343257 [s]
    Ewald                            24.896596 [s]
    ExternalField-Molecule            0.012353 [s]
    Framework-Molecule                0.010835 [s]
    Molecule-Molecule                21.513106 [s]
    Overhead                          1.910367 [s]

Reinsertion (CBMC)                  169.735881 [s]
    Ewald                            22.306628 [s]
    NonEwald                        147.080802 [s]
    Overhead                          0.348451 [s]

Translation                          48.757153 [s]
    Ewald                            24.900287 [s]
    ExternalField-Molecule            0.011266 [s]
    Framework-Molecule                0.017547 [s]
    Molecule-Molecule                21.539231 [s]
    Overhead                          2.288822 [s]



Volume change                         40.818386 [s]
    Ewald                             18.040806 [s]
    NonEwald                          21.298393 [s]
    Tail                               1.255841 [s]

Property sampling                     0.283198 [s]
Energy/pressure sampling:             7.015184 [s]


Production run CPU timings of the MC moves summed over systems and components
===============================================================================


Translation                          48.757153 [s]
    Ewald                            24.900287 [s]
    ExternalField-Molecule            0.011266 [s]
    Framework-Molecule                0.017547 [s]
    Molecule-Molecule                21.539231 [s]
    Overhead                          2.288822 [s]

Rotation                             48.343257 [s]
    Ewald                            24.896596 [s]
    ExternalField-Molecule            0.012353 [s]
    Framework-Molecule                0.010835 [s]
    Molecule-Molecule                21.513106 [s]
    Overhead                          1.910367 [s]

Volume change                        40.818386 [s]
    Ewald                            18.040806 [s]
    NonEwald                         21.298393 [s]
    Tail                              1.255841 [s]
    Overhead                          0.223346 [s]

Reinsertion (CBMC)                  169.735881 [s]
    Ewald                            22.306628 [s]
    NonEwald                        147.080802 [s]
    Overhead                          0.348451 [s]

Property sampling:                    0.283198 [s]
Energy/pressure sampling:             7.015184 [s]

Production simulation time:         315.765541 [s]
                All summed:         314.953059 [s]
                  Overhead:           0.812482 [s]


Initalization simulation time:       60.817486 [s]
Equilibration simulation time:        0.000000 [s]
Production simulation time:         315.765541 [s]
Total simulation time:              376.583027 [s]


Energy averages and statistics:
===============================================================================

Framework-molecule energy:
-------------------------------------------------------------------------------



Framework-molecule energy contributions per energy type:
-------------------------------------------------------------------------------



Inter-molecular energy:
-------------------------------------------------------------------------------

    Inter-molecular energy/kʙ 0-0 [CO2-CO2]:
    ---------------------------------------------------------------------------
        Block[  0] -3.084530e+05
        Block[  1] -3.094857e+05
        Block[  2] -3.009093e+05
        Block[  3] -3.024059e+05
        Block[  4] -3.013671e+05
        -----------------------------------------------------------------------
        Average  -3.045242e+05 +/-  5.102625e+03 [K]



Inter-molecular energy contributions per energy type:
-------------------------------------------------------------------------------

    Van der Waals energy/kʙ 0-0 [CO2-CO2]:
    ---------------------------------------------------------------------------
        Block[  0] -2.198811e+05
        Block[  1] -2.202409e+05
        Block[  2] -2.163185e+05
        Block[  3] -2.161203e+05
        Block[  4] -2.162241e+05
        -----------------------------------------------------------------------
        Average  -2.177570e+05 +/-  2.617349e+03 [K]

    VDW Tail-Correction energy/kʙ 0-0 [CO2-CO2]:
    ---------------------------------------------------------------------------
        Block[  0] -9.385924e+03
        Block[  1] -9.411716e+03
        Block[  2] -9.212216e+03
        Block[  3] -9.244350e+03
        Block[  4] -9.251647e+03
        -----------------------------------------------------------------------
        Average  -9.301171e+03 +/-  1.127573e+02 [K]

    Coulomb Real energy/kʙ 0-0 [CO2-CO2]:
    ---------------------------------------------------------------------------
        Block[  0] -6.359317e+04
        Block[  1] -6.430653e+04
        Block[  2] -6.051780e+04
        Block[  3] -6.185288e+04
        Block[  4] -6.103671e+04
        -----------------------------------------------------------------------
        Average  -6.226142e+04 +/-  2.026963e+03 [K]

    Coulomb Fourier energy/kʙ 0-0 [CO2-CO2]:
    ---------------------------------------------------------------------------
        Block[  0] -1.559278e+04
        Block[  1] -1.552659e+04
        Block[  2] -1.486078e+04
        Block[  3] -1.518841e+04
        Block[  4] -1.485463e+04
        -----------------------------------------------------------------------
        Average  -1.520464e+04 +/-  4.368658e+02 [K]


Total energy/kʙ
-------------------------------------------------------------------------------
    Block[  0] -3.084530e+05
    Block[  1] -3.094857e+05
    Block[  2] -3.009093e+05
    Block[  3] -3.024059e+05
    Block[  4] -3.013671e+05
    ---------------------------------------------------------------------------
    Average  -3.045242e+05 +/-  5.102625e+03 [K]

Pressure averages and statistics:
===============================================================================

Average pressure tensor: 
-------------------------------------------------------------------------------
 8.0729e+01  1.7167e+01  5.8369e+01 +/- 7.0168e+01 2.2819e+01 5.7676e+01 [bar]
 1.7167e+01  9.8353e+01 -8.5874e+00 +/- 2.2819e+01 5.7025e+01 5.7607e+01 [bar]
 5.8369e+01 -8.5874e+00  1.0785e+02 +/- 5.7676e+01 5.7607e+01 6.2933e+01 [bar]

    Block[  0]  5.051615e+07
    Block[  1]  5.059357e+07
    Block[  2]  4.959643e+07
    Block[  3]  4.976187e+07
    Block[  4]  4.978729e+07
    ---------------------------------------------------------------------------
    Ideal gas pressure   5.005106e+07 +/-  3.487740e-02 [Pa]
                         5.005106e+02 +/-  5.791532e+00 [bar]


    Block[  0] -4.088086e+07
    Block[  1] -3.626288e+07
    Block[  2] -4.236311e+07
    Block[  3] -4.238713e+07
    Block[  4] -4.053968e+07
    ---------------------------------------------------------------------------
    Excess pressure  -4.048673e+07 +/-  3.111808e+06 [Pa]
                     -4.048673e+02 +/-  3.111808e+01 [bar]


    Block[  0]  9.635288e+06
    Block[  1]  1.433069e+07
    Block[  2]  7.233318e+06
    Block[  3]  7.374732e+06
    Block[  4]  9.247607e+06
    ---------------------------------------------------------------------------
    Pressure average   9.564327e+06 +/-  3.568617e+06 [Pa]
                       9.564327e+01 +/-  3.568617e+01 [bar]


Enthalpy of adsorption
===============================================================================

No fluctuating components present.


Densities
===============================================================================

Component 0 (CO2)
    Block[  0] 200
    Block[  1] 200
    Block[  2] 200
    Block[  3] 200
    Block[  4] 200
    -----------------------------------------------------------------------
    Density average   2.000000e+02 +/-  0.000000e+00 [molecules]
    Density average   1.450072e-02 +/-  1.677914e-04 [molec/A^3]
    Density average   1.059447e+03 +/-  1.225913e+01 [kg.m⁻³]

