Compiler and run-time data
===============================================================================
RASPA 3.0.4

Random seed: 1892998492

Compiled as a 64-bits application
Compiler: gcc Ubuntu Clang 18.1.3 (1ubuntu1)
Compile Date = Mar 15 2025, Compile Time = 19:39:45

2025-06-02 12:44:41.151620
Simulation started on Mon, Jun 02
The start time was 12:44:00

Hostname:    c060
OS type:     Linux on x86_64
OS release:  6.8.0-58-generic
OS version:  #60-Ubuntu SMP PREEMPT_DYNAMIC Fri Mar 14 18:29:48 UTC 2025


Mutual consistent basic set of units:
===============================================================================

Unit of temperature: 1 [K]
Unit of length:      1e-10 [m]
Unit of time:        1e-12 [s]
Unit of mass:        1.6605402e-27 [kg]
Unit of charge:      1.60217733e-19 [C/particle]


Boltzmann constant (internal units):          0.8314464919307584 [-]
represents conversion from energy (internal units) to temperature (in Kelvin)

Derived units and their conversion factors:
===============================================================================

Unit of energy:                           1.6605402000000002e-23 [J]
Unit of energy:                           10.000008872307538 [J.mol⁻¹]
Unit of velocity:                         100 [m.s⁻¹]
Unit of force:                            1.6605402000000002e-13 [N]
Unit of diffusion:                        1.0000000000000002e-08 [m².s⁻¹]
Unit of acceleration:                     1.0000000000000002e-08 [m².s⁻¹]
Unit of torque:                           1.6605402000000002e-23 [N.m]
Unit of pressure:                         16605402 [Pa]
Unit of volume:                           1e-30 [m³]
Unit of density:                          1660.5402 [kg.m⁻³]
Unit of dynamic viscosity:                1.6605401999999997e-05 [N.s.m⁻²]
Unit of enthalpy:                         1.6605402000000002e-23 [J]
Unit of polarizability:                   1.5458657349975198e-35 [-]
Unit of Coulomb potential:                167101.08000665612 [K]
Unit of dielectric constant:              1.5458657349975193e-05 [s².C².kg⁻¹.m⁻³]
Unit of dipole moment:                    1.60217733e-29 [C.m]
Unit of Debye:                            4.803206799099162 [C.m]
Unit of electric potential:               0.00010364272224473431 [V]
Unit of electric field:                   1036427.222447343 [V.m⁻¹]
Unit of isothermal compressibility:       6.02213665167516e-08 [Pa⁻¹]
Unit of heat capacity:                    10.000008872307538 [J.mol⁻¹.K⁻¹]
Unit of volumetric expansion coefficient: 1 [K⁻¹]


Internal conversion factors:
===============================================================================

Energy (internal units) to Kelvin:      1.202724284692786 [-]
Kelvin to energy (internal units):      0.8314457542157567 [-]


System definitions
===============================================================================

Temperature:          250 [K]
Beta:                 0.0048108928702210625 [-]
Pressure:             4e+06 [Pa]
Helium void fraction: 1 [-]

Box:      30.00000   0.00000   0.00000
           0.00000  30.00000   0.00000
           0.00000   0.00000  30.00000
Lengths:  30.00000  30.00000  30.00000
Angles:   90.00000  90.00000  90.00000
Rectangular boundary conditions



Property measurement settings
===============================================================================




Pseudo-atoms
===============================================================================

  0 - C_co2    framework-atom: false
  1 - O_co2    framework-atom: false

  0 - C_co2    mass: 12.00000, charge:  0.70000
  1 - O_co2    mass: 15.99940, charge: -0.35000

  0 - C_co2    polarizability:  0.00000
  1 - O_co2    polarizability:  0.00000

  0 - J. J. Potoff et al., AIChE J. 2001, 47, 1676–1682.
  1 - J. J. Potoff et al., AIChE J. 2001, 47, 1676–1682.

Force field status
===============================================================================

Cutoff Framework-Molecule VDW:  12.00000 [Å]
Cutoff Molecule-Molecule VDW:   12.00000 [Å]
Cutoff Coulomb:                 12.00000 [Å]

Overlap-criteria VDW:           1.000000e+05 [K]

C_co2    - C_co2    Lennard-Jones p₀/kʙ:  27.00000 [K], p₁:  2.80000 [Å]
                                  shift:   0.00000 [K], tailcorrections: true
C_co2    - O_co2    Lennard-Jones p₀/kʙ:  46.18441 [K], p₁:  2.92500 [Å]
                                  shift:   0.00000 [K], tailcorrections: true
O_co2    - O_co2    Lennard-Jones p₀/kʙ:  79.00000 [K], p₁:  3.05000 [Å]
                                  shift:   0.00000 [K], tailcorrections: true

Ewald precision: 1e-06
Ewald alpha: 0.26505830360350674
Ewald k-vectors: 8 8 8


Component definitions
===============================================================================

Component 0 [CO2]

    Type: Adsorbate

    Critical temperature:  304.1282 [K]
    Critical pressure:     7377300 [Pa]
    Acentric factor:       0.22394 [-]

    Mol-fraction:                 1 [-]
    Swappable:                   false

    Mass:                         43.9988 [-]
    Bulk fluid density:           0 [-]
    Compressibility:              0 [-]
    Excess molecules:             0 [-]

    Number Of Atoms:    3
    CBMC starting bead: 0
      0: O_co2  position  0.00000 -0.00000  1.16000, charge -0.35000
      1: C_co2  position  0.00000 -0.00000  0.00000, charge  0.70000
      2: O_co2  position  0.00000 -0.00000 -1.16000, charge -0.35000
    Diagonalized inertia-vector:      43.05758528 43.05758528 0.00000000
    Translational degrees of freedom: 3
    Rotational degrees of freedom:    2
    Shape of the molecule is: 'Linear'
    Net-charge:        0.00000000 [e]

    Move probabilities:
    Translation:                   0.331126 [-]
    Random translation:            0.000000 [-]
    Rotation:                      0.331126 [-]
    Random rotation:               0.000000 [-]
    Volume change:                 0.006623 [-]
    Reinsertion (CBMC):            0.331126 [-]
    Identity change (CBMC):        0.000000 [-]
    Swap:                          0.000000 [-]
    Swap (CBMC):                   0.000000 [-]
    Swap (CFCMC):                  0.000000 [-]
    Swap (CB/CFCMC):               0.000000 [-]
    Gibbs volume:                  0.000000 [-]
    Gibbs swap (CBMC):             0.000000 [-]
    Gibbs swap (CFCMC):            0.000000 [-]
    Widom:                         0.000000 [-]
    Widom (CFCMC):                 0.000000 [-]
    Widom (CB/CFCMC):              0.000000 [-]
    Parallel tempering:            0.000000 [-]
    Hybrid MC:                     0.000000 [-]

    number of blocking-pockets: 0

    number of bonds: 0





Number of pseudo-atoms
===============================================================================

Component   0 (CO2)
-------------------------------------------------------------------------------
    index   0 (C_co2): 200 atoms
    index   1 (O_co2): 400 atoms

Total number of pseudo-atoms:
-------------------------------------------------------------------------------
    index   0 (C_co2): 200 atoms
    index   1 (O_co2): 400 atoms




Energy status Recomputed from scratch
===============================================================================

Total potential energy/kʙ       -6.015558e+04 [K]
    external field VDW/kʙ        0.000000e+00 [K]
    external field Real/kʙ       0.000000e+00 [K]
    framework-molecule VDW/kʙ    0.000000e+00 [K]
    framework-molecule Real/kʙ   0.000000e+00 [K]
    molecule-molecule VDW/kʙ    -3.563205e+04 [K]
    molecule-molecule Real/kʙ   -2.089570e+04 [K]
    Van der Waals (Tail)/kʙ     -2.751265e+03 [K]
    Ewald Fourier/kʙ             1.088457e+04 [K]
    Ewald self/kʙ               -3.673356e+06 [K]
    Ewald exclusion/kʙ           3.661595e+06 [K]
    intra VDW/kʙ                 0.000000e+00 [K]
    intra Coulombic/kʙ           0.000000e+00 [K]
    polarization/kʙ              0.000000e+00 [K]
    dU/dlambda VDW/kʙ            0.000000e+00 [K]
    dU/dlambda Real/kʙ           0.000000e+00 [K]
    dU/dlambda Ewald/kʙ          0.000000e+00 [K]





Initialization: Current cycle: 0 out of 1000
===============================================================================

Box:      30.00000   0.00000   0.00000
           0.00000  30.00000   0.00000
           0.00000   0.00000  30.00000
Lengths:  30.00000  30.00000  30.00000
Angles:   90.00000  90.00000  90.00000
Rectangular boundary conditions

net charge:   0.00000000

component   0 (CO2) lambda:  0 occupancy:  1 (1.000000)
    net charge:   0.00000000 [e]

Amount of molecules per component :
-------------------------------------------------------------------------------
Component 0 (CO2)
    molecules:         2.000000e+02 molecules
    number density:    7.407407e-03 molec/A^3
    density:           5.411979e+02 kg/m^3

Total potential energy/kʙ       -1.355312e+05 [K]
-------------------------------------------------------------------------------
    external field VDW/kʙ        0.000000e+00 [K]
    external field Real/kʙ       0.000000e+00 [K]
    framework-molecule VDW/kʙ    0.000000e+00 [K]
    framework-molecule Real/kʙ   0.000000e+00 [K]
    molecule-molecule VDW/kʙ    -1.115412e+05 [K]
    molecule-molecule Real/kʙ   -1.944676e+04 [K]
    Van der Waals (Tail)/kʙ     -2.751265e+03 [K]
    Ewald Fourier/kʙ             9.969178e+03 [K]
    Ewald self/kʙ               -3.673356e+06 [K]
    Ewald exclusion/kʙ           3.661595e+06 [K]
    intra VDW/kʙ                 0.000000e+00 [K]
    intra Coulombic/kʙ           0.000000e+00 [K]
    polarization/kʙ              0.000000e+00 [K]
    dU/dlambda VDW/kʙ            0.000000e+00 [K]
    dU/dlambda Real/kʙ           0.000000e+00 [K]
    dU/dlambda Ewald/kʙ          0.000000e+00 [K]


Initialization: Current cycle: 100 out of 1000
===============================================================================

Box:      27.54421   0.00000   0.00000
           0.00000  27.54421   0.00000
           0.00000   0.00000  27.54421
Lengths:  27.54421  27.54421  27.54421
Angles:   90.00000  90.00000  90.00000
Rectangular boundary conditions

net charge:   0.00000000

component   0 (CO2) lambda:  0 occupancy:  1 (1.000000)
    net charge:   0.00000000 [e]

Amount of molecules per component :
-------------------------------------------------------------------------------
Component 0 (CO2)
    molecules:         2.000000e+02 molecules
    number density:    9.570602e-03 molec/A^3
    density:           6.992446e+02 kg/m^3

Total potential energy/kʙ       -2.115377e+05 [K]
-------------------------------------------------------------------------------
    external field VDW/kʙ        0.000000e+00 [K]
    external field Real/kʙ       0.000000e+00 [K]
    framework-molecule VDW/kʙ    0.000000e+00 [K]
    framework-molecule Real/kʙ   0.000000e+00 [K]
    molecule-molecule VDW/kʙ    -1.580047e+05 [K]
    molecule-molecule Real/kʙ   -4.511268e+04 [K]
    Van der Waals (Tail)/kʙ     -3.554721e+03 [K]
    Ewald Fourier/kʙ             6.895570e+03 [K]
    Ewald self/kʙ               -3.673356e+06 [K]
    Ewald exclusion/kʙ           3.661595e+06 [K]
    intra VDW/kʙ                 0.000000e+00 [K]
    intra Coulombic/kʙ           0.000000e+00 [K]
    polarization/kʙ              0.000000e+00 [K]
    dU/dlambda VDW/kʙ            0.000000e+00 [K]
    dU/dlambda Real/kʙ           0.000000e+00 [K]
    dU/dlambda Ewald/kʙ          0.000000e+00 [K]


Initialization: Current cycle: 200 out of 1000
===============================================================================

Box:      25.38491   0.00000   0.00000
           0.00000  25.38491   0.00000
           0.00000   0.00000  25.38491
Lengths:  25.38491  25.38491  25.38491
Angles:   90.00000  90.00000  90.00000
Rectangular boundary conditions

net charge:   0.00000000

component   0 (CO2) lambda:  0 occupancy:  1 (1.000000)
    net charge:   0.00000000 [e]

Amount of molecules per component :
-------------------------------------------------------------------------------
Component 0 (CO2)
    molecules:         2.000000e+02 molecules
    number density:    1.222652e-02 molec/A^3
    density:           8.932906e+02 kg/m^3

Total potential energy/kʙ       -2.557826e+05 [K]
-------------------------------------------------------------------------------
    external field VDW/kʙ        0.000000e+00 [K]
    external field Real/kʙ       0.000000e+00 [K]
    framework-molecule VDW/kʙ    0.000000e+00 [K]
    framework-molecule Real/kʙ   0.000000e+00 [K]
    molecule-molecule VDW/kʙ    -1.881078e+05 [K]
    molecule-molecule Real/kʙ   -5.743290e+04 [K]
    Van der Waals (Tail)/kʙ     -4.541184e+03 [K]
    Ewald Fourier/kʙ             6.060362e+03 [K]
    Ewald self/kʙ               -3.673356e+06 [K]
    Ewald exclusion/kʙ           3.661595e+06 [K]
    intra VDW/kʙ                 0.000000e+00 [K]
    intra Coulombic/kʙ           0.000000e+00 [K]
    polarization/kʙ              0.000000e+00 [K]
    dU/dlambda VDW/kʙ            0.000000e+00 [K]
    dU/dlambda Real/kʙ           0.000000e+00 [K]
    dU/dlambda Ewald/kʙ          0.000000e+00 [K]


Initialization: Current cycle: 300 out of 1000
===============================================================================

Box:      24.83459   0.00000   0.00000
           0.00000  24.83459   0.00000
           0.00000   0.00000  24.83459
Lengths:  24.83459  24.83459  24.83459
Angles:   90.00000  90.00000  90.00000
Rectangular boundary conditions

net charge:   0.00000000

component   0 (CO2) lambda:  0 occupancy:  1 (1.000000)
    net charge:   0.00000000 [e]

Amount of molecules per component :
-------------------------------------------------------------------------------
Component 0 (CO2)
    molecules:         2.000000e+02 molecules
    number density:    1.305748e-02 molec/A^3
    density:           9.540015e+02 kg/m^3

Total potential energy/kʙ       -2.755029e+05 [K]
-------------------------------------------------------------------------------
    external field VDW/kʙ        0.000000e+00 [K]
    external field Real/kʙ       0.000000e+00 [K]
    framework-molecule VDW/kʙ    0.000000e+00 [K]
    framework-molecule Real/kʙ   0.000000e+00 [K]
    molecule-molecule VDW/kʙ    -1.987034e+05 [K]
    molecule-molecule Real/kʙ   -6.529236e+04 [K]
    Van der Waals (Tail)/kʙ     -4.849818e+03 [K]
    Ewald Fourier/kʙ             5.103751e+03 [K]
    Ewald self/kʙ               -3.673356e+06 [K]
    Ewald exclusion/kʙ           3.661595e+06 [K]
    intra VDW/kʙ                 0.000000e+00 [K]
    intra Coulombic/kʙ           0.000000e+00 [K]
    polarization/kʙ              0.000000e+00 [K]
    dU/dlambda VDW/kʙ            0.000000e+00 [K]
    dU/dlambda Real/kʙ           0.000000e+00 [K]
    dU/dlambda Ewald/kʙ          0.000000e+00 [K]


Initialization: Current cycle: 400 out of 1000
===============================================================================

Box:      24.48665   0.00000   0.00000
           0.00000  24.48665   0.00000
           0.00000   0.00000  24.48665
Lengths:  24.48665  24.48665  24.48665
Angles:   90.00000  90.00000  90.00000
Rectangular boundary conditions

net charge:   0.00000000

component   0 (CO2) lambda:  0 occupancy:  1 (1.000000)
    net charge:   0.00000000 [e]

Amount of molecules per component :
-------------------------------------------------------------------------------
Component 0 (CO2)
    molecules:         2.000000e+02 molecules
    number density:    1.362203e-02 molec/A^3
    density:           9.952488e+02 kg/m^3

Total potential energy/kʙ       -2.863657e+05 [K]
-------------------------------------------------------------------------------
    external field VDW/kʙ        0.000000e+00 [K]
    external field Real/kʙ       0.000000e+00 [K]
    framework-molecule VDW/kʙ    0.000000e+00 [K]
    framework-molecule Real/kʙ   0.000000e+00 [K]
    molecule-molecule VDW/kʙ    -2.092236e+05 [K]
    molecule-molecule Real/kʙ   -6.590391e+04 [K]
    Van der Waals (Tail)/kʙ     -5.059505e+03 [K]
    Ewald Fourier/kʙ             5.582475e+03 [K]
    Ewald self/kʙ               -3.673356e+06 [K]
    Ewald exclusion/kʙ           3.661595e+06 [K]
    intra VDW/kʙ                 0.000000e+00 [K]
    intra Coulombic/kʙ           0.000000e+00 [K]
    polarization/kʙ              0.000000e+00 [K]
    dU/dlambda VDW/kʙ            0.000000e+00 [K]
    dU/dlambda Real/kʙ           0.000000e+00 [K]
    dU/dlambda Ewald/kʙ          0.000000e+00 [K]


Initialization: Current cycle: 500 out of 1000
===============================================================================

Box:      24.25002   0.00000   0.00000
           0.00000  24.25002   0.00000
           0.00000   0.00000  24.25002
Lengths:  24.25002  24.25002  24.25002
Angles:   90.00000  90.00000  90.00000
Rectangular boundary conditions

net charge:   0.00000000

component   0 (CO2) lambda:  0 occupancy:  1 (1.000000)
    net charge:   0.00000000 [e]

Amount of molecules per component :
-------------------------------------------------------------------------------
Component 0 (CO2)
    molecules:         2.000000e+02 molecules
    number density:    1.402471e-02 molec/A^3
    density:           1.024669e+03 kg/m^3

Total potential energy/kʙ       -2.969133e+05 [K]
-------------------------------------------------------------------------------
    external field VDW/kʙ        0.000000e+00 [K]
    external field Real/kʙ       0.000000e+00 [K]
    framework-molecule VDW/kʙ    0.000000e+00 [K]
    framework-molecule Real/kʙ   0.000000e+00 [K]
    molecule-molecule VDW/kʙ    -2.133877e+05 [K]
    molecule-molecule Real/kʙ   -7.147121e+04 [K]
    Van der Waals (Tail)/kʙ     -5.209069e+03 [K]
    Ewald Fourier/kʙ             4.915789e+03 [K]
    Ewald self/kʙ               -3.673356e+06 [K]
    Ewald exclusion/kʙ           3.661595e+06 [K]
    intra VDW/kʙ                 0.000000e+00 [K]
    intra Coulombic/kʙ           0.000000e+00 [K]
    polarization/kʙ              0.000000e+00 [K]
    dU/dlambda VDW/kʙ            0.000000e+00 [K]
    dU/dlambda Real/kʙ           0.000000e+00 [K]
    dU/dlambda Ewald/kʙ          0.000000e+00 [K]


Initialization: Current cycle: 600 out of 1000
===============================================================================

Box:      24.10105   0.00000   0.00000
           0.00000  24.10105   0.00000
           0.00000   0.00000  24.10105
Lengths:  24.10105  24.10105  24.10105
Angles:   90.00000  90.00000  90.00000
Rectangular boundary conditions

net charge:   0.00000000

component   0 (CO2) lambda:  0 occupancy:  1 (1.000000)
    net charge:   0.00000000 [e]

Amount of molecules per component :
-------------------------------------------------------------------------------
Component 0 (CO2)
    molecules:         2.000000e+02 molecules
    number density:    1.428638e-02 molec/A^3
    density:           1.043787e+03 kg/m^3

Total potential energy/kʙ       -3.037170e+05 [K]
-------------------------------------------------------------------------------
    external field VDW/kʙ        0.000000e+00 [K]
    external field Real/kʙ       0.000000e+00 [K]
    framework-molecule VDW/kʙ    0.000000e+00 [K]
    framework-molecule Real/kʙ   0.000000e+00 [K]
    molecule-molecule VDW/kʙ    -2.209442e+05 [K]
    molecule-molecule Real/kʙ   -7.080906e+04 [K]
    Van der Waals (Tail)/kʙ     -5.306257e+03 [K]
    Ewald Fourier/kʙ             5.103641e+03 [K]
    Ewald self/kʙ               -3.673356e+06 [K]
    Ewald exclusion/kʙ           3.661595e+06 [K]
    intra VDW/kʙ                 0.000000e+00 [K]
    intra Coulombic/kʙ           0.000000e+00 [K]
    polarization/kʙ              0.000000e+00 [K]
    dU/dlambda VDW/kʙ            0.000000e+00 [K]
    dU/dlambda Real/kʙ           0.000000e+00 [K]
    dU/dlambda Ewald/kʙ          0.000000e+00 [K]


Initialization: Current cycle: 700 out of 1000
===============================================================================

Box:      24.19244   0.00000   0.00000
           0.00000  24.19244   0.00000
           0.00000   0.00000  24.19244
Lengths:  24.19244  24.19244  24.19244
Angles:   90.00000  90.00000  90.00000
Rectangular boundary conditions

net charge:   0.00000000

component   0 (CO2) lambda:  0 occupancy:  1 (1.000000)
    net charge:   0.00000000 [e]

Amount of molecules per component :
-------------------------------------------------------------------------------
Component 0 (CO2)
    molecules:         2.000000e+02 molecules
    number density:    1.412509e-02 molec/A^3
    density:           1.032003e+03 kg/m^3

Total potential energy/kʙ       -2.995501e+05 [K]
-------------------------------------------------------------------------------
    external field VDW/kʙ        0.000000e+00 [K]
    external field Real/kʙ       0.000000e+00 [K]
    framework-molecule VDW/kʙ    0.000000e+00 [K]
    framework-molecule Real/kʙ   0.000000e+00 [K]
    molecule-molecule VDW/kʙ    -2.190136e+05 [K]
    molecule-molecule Real/kʙ   -6.840254e+04 [K]
    Van der Waals (Tail)/kʙ     -5.246350e+03 [K]
    Ewald Fourier/kʙ             4.873587e+03 [K]
    Ewald self/kʙ               -3.673356e+06 [K]
    Ewald exclusion/kʙ           3.661595e+06 [K]
    intra VDW/kʙ                 0.000000e+00 [K]
    intra Coulombic/kʙ           0.000000e+00 [K]
    polarization/kʙ              0.000000e+00 [K]
    dU/dlambda VDW/kʙ            0.000000e+00 [K]
    dU/dlambda Real/kʙ           0.000000e+00 [K]
    dU/dlambda Ewald/kʙ          0.000000e+00 [K]


Initialization: Current cycle: 800 out of 1000
===============================================================================

Box:      24.02352   0.00000   0.00000
           0.00000  24.02352   0.00000
           0.00000   0.00000  24.02352
Lengths:  24.02352  24.02352  24.02352
Angles:   90.00000  90.00000  90.00000
Rectangular boundary conditions

net charge:   0.00000000

component   0 (CO2) lambda:  0 occupancy:  1 (1.000000)
    net charge:   0.00000000 [e]

Amount of molecules per component :
-------------------------------------------------------------------------------
Component 0 (CO2)
    molecules:         2.000000e+02 molecules
    number density:    1.442514e-02 molec/A^3
    density:           1.053926e+03 kg/m^3

Total potential energy/kʙ       -3.045137e+05 [K]
-------------------------------------------------------------------------------
    external field VDW/kʙ        0.000000e+00 [K]
    external field Real/kʙ       0.000000e+00 [K]
    framework-molecule VDW/kʙ    0.000000e+00 [K]
    framework-molecule Real/kʙ   0.000000e+00 [K]
    molecule-molecule VDW/kʙ    -2.157079e+05 [K]
    molecule-molecule Real/kʙ   -7.604534e+04 [K]
    Van der Waals (Tail)/kʙ     -5.357798e+03 [K]
    Ewald Fourier/kʙ             4.358544e+03 [K]
    Ewald self/kʙ               -3.673356e+06 [K]
    Ewald exclusion/kʙ           3.661595e+06 [K]
    intra VDW/kʙ                 0.000000e+00 [K]
    intra Coulombic/kʙ           0.000000e+00 [K]
    polarization/kʙ              0.000000e+00 [K]
    dU/dlambda VDW/kʙ            0.000000e+00 [K]
    dU/dlambda Real/kʙ           0.000000e+00 [K]
    dU/dlambda Ewald/kʙ          0.000000e+00 [K]


Initialization: Current cycle: 900 out of 1000
===============================================================================

Box:      23.86058   0.00000   0.00000
           0.00000  23.86058   0.00000
           0.00000   0.00000  23.86058
Lengths:  23.86058  23.86058  23.86058
Angles:   90.00000  90.00000  90.00000
Rectangular boundary conditions

net charge:   0.00000000

component   0 (CO2) lambda:  0 occupancy:  1 (1.000000)
    net charge:   0.00000000 [e]

Amount of molecules per component :
-------------------------------------------------------------------------------
Component 0 (CO2)
    molecules:         2.000000e+02 molecules
    number density:    1.472269e-02 molec/A^3
    density:           1.075665e+03 kg/m^3

Total potential energy/kʙ       -3.045531e+05 [K]
-------------------------------------------------------------------------------
    external field VDW/kʙ        0.000000e+00 [K]
    external field Real/kʙ       0.000000e+00 [K]
    framework-molecule VDW/kʙ    0.000000e+00 [K]
    framework-molecule Real/kʙ   0.000000e+00 [K]
    molecule-molecule VDW/kʙ    -2.216446e+05 [K]
    molecule-molecule Real/kʙ   -7.068142e+04 [K]
    Van der Waals (Tail)/kʙ     -5.468312e+03 [K]
    Ewald Fourier/kʙ             5.002386e+03 [K]
    Ewald self/kʙ               -3.673356e+06 [K]
    Ewald exclusion/kʙ           3.661595e+06 [K]
    intra VDW/kʙ                 0.000000e+00 [K]
    intra Coulombic/kʙ           0.000000e+00 [K]
    polarization/kʙ              0.000000e+00 [K]
    dU/dlambda VDW/kʙ            0.000000e+00 [K]
    dU/dlambda Real/kʙ           0.000000e+00 [K]
    dU/dlambda Ewald/kʙ          0.000000e+00 [K]


Current cycle: 0 out of 5000
===============================================================================

Box:      24.12333   0.00000   0.00000  Average:  24.12333   0.00000   0.00000
           0.00000  24.12333   0.00000             0.00000  24.12333   0.00000
           0.00000   0.00000  24.12333             0.00000   0.00000  24.12333
Lengths:  24.12333  24.12333  24.12333  Average:  24.12333  24.12333  24.12333
Angles:   90.00000  90.00000  90.00000  Average:  90.00000  90.00000  90.00000
Rectangular boundary conditions

net charge:   0.00000000

component 0 (CO2) lambda:  0 occupancy:  1 (1.000000)
    net charge:   0.00000000 [e]

Amount of molecules per component :
-------------------------------------------------------------------------------
Component 0 (CO2)
    molecules:      2.000000e+02 molecules  (2.000000e+02 +/- 0.000000e+00)
    number density: 1.424684e-02 molec./A^3 (1.424684e-02 +/- 0.000000e+00)
    density:        1.040898e+03 kg/m^3     (1.040898e+03 +/- 0.000000e+00)

Average pressure tensor: 
-------------------------------------------------------------------------------
 4.9175e+02  0.0000e+00  0.0000e+00 +/- 0.0000e+00 0.0000e+00 0.0000e+00 [bar]
 0.0000e+00  4.9175e+02  0.0000e+00 +/- 0.0000e+00 0.0000e+00 0.0000e+00 [bar]
 0.0000e+00  0.0000e+00  4.9175e+02 +/- 0.0000e+00 0.0000e+00 0.0000e+00 [bar]
Ideal-gas pressure:   4.917474e+02 +/ 0.000000e+00 [bar]
Excess pressure:      0.000000e+00 +/ 0.000000e+00 [bar]
Pressure:             4.917474e+02 +/ 0.000000e+00 [bar]

Total potential energy/kʙ  -2.994140e+05 (-2.994140e+05 +/- 0.000000e+00) [K]
-------------------------------------------------------------------------------
ExternalField-molecule
    Van der Waals/kʙ        0.000000e+00 ( 0.000000e+00 +/- 0.000000e+00) [K]
Framework-molecule
    Van der Waals/kʙ        0.000000e+00 ( 0.000000e+00 +/- 0.000000e+00) [K]
    Van der Waals (Tail)/kʙ 0.000000e+00 ( 0.000000e+00 +/- 0.000000e+00) [K]
    Coulombic Real/kʙ       0.000000e+00 ( 0.000000e+00 +/- 0.000000e+00) [K]
    Coulombic Fourier/kʙ    0.000000e+00 ( 0.000000e+00 +/- 0.000000e+00) [K]
Molecule-molecule
    Van der Waals/kʙ       -2.217946e+05 (-2.217946e+05 +/- 0.000000e+00) [K]
    Van der Waals (Tail)/kʙ-5.291571e+03 (-5.291571e+03 +/- 0.000000e+00) [K]
    Coulombic Real/kʙ      -6.630930e+04 (-6.630930e+04 +/- 0.000000e+00) [K]
    Coulombic Fourier/kʙ   -6.018565e+03 (-6.018565e+03 +/- 0.000000e+00) [K]
    Molecule Intra/kʙ       0.000000e+00 ( 0.000000e+00 +/- 0.000000e+00) [K]

Current cycle: 100 out of 5000
===============================================================================

Box:      23.66766   0.00000   0.00000  Average:  23.88081   0.00000   0.00000
           0.00000  23.66766   0.00000             0.00000  23.88081   0.00000
           0.00000   0.00000  23.66766             0.00000   0.00000  23.88081
Lengths:  23.66766  23.66766  23.66766  Average:  23.88081  23.88081  23.88081
Angles:   90.00000  90.00000  90.00000  Average:  90.00000  90.00000  90.00000
Rectangular boundary conditions

net charge:   0.00000000

component 0 (CO2) lambda:  0 occupancy:  1 (1.000000)
    net charge:   0.00000000 [e]

Amount of molecules per component :
-------------------------------------------------------------------------------
Component 0 (CO2)
    molecules:      2.000000e+02 molecules  (2.000000e+02 +/- 0.000000e+00)
    number density: 1.508565e-02 molec./A^3 (1.468871e-02 +/- 0.000000e+00)
    density:        1.102184e+03 kg/m^3     (1.073182e+03 +/- 0.000000e+00)

Average pressure tensor: 
-------------------------------------------------------------------------------
 9.5685e+01 -7.9116e+01  2.2402e+01 +/- 0.0000e+00 0.0000e+00 0.0000e+00 [bar]
-7.9116e+01 -9.6220e+00 -1.9743e+02 +/- 0.0000e+00 0.0000e+00 0.0000e+00 [bar]
 2.2402e+01 -1.9743e+02  4.4177e+02 +/- 0.0000e+00 0.0000e+00 0.0000e+00 [bar]
Ideal-gas pressure:   5.069992e+02 +/ 0.000000e+00 [bar]
Excess pressure:     -3.310547e+02 +/ 0.000000e+00 [bar]
Pressure:             1.759445e+02 +/ 0.000000e+00 [bar]

Total potential energy/kʙ  -3.260246e+05 (-3.111628e+05 +/- 0.000000e+00) [K]
-------------------------------------------------------------------------------
ExternalField-molecule
    Van der Waals/kʙ        0.000000e+00 ( 0.000000e+00 +/- 0.000000e+00) [K]
Framework-molecule
    Van der Waals/kʙ        0.000000e+00 ( 0.000000e+00 +/- 0.000000e+00) [K]
    Van der Waals (Tail)/kʙ 0.000000e+00 ( 0.000000e+00 +/- 0.000000e+00) [K]
    Coulombic Real/kʙ       0.000000e+00 ( 0.000000e+00 +/- 0.000000e+00) [K]
    Coulombic Fourier/kʙ    0.000000e+00 ( 0.000000e+00 +/- 0.000000e+00) [K]
Molecule-molecule
    Van der Waals/kʙ       -2.307192e+05 (-2.235087e+05 +/- 0.000000e+00) [K]
    Van der Waals (Tail)/kʙ-5.603125e+03 (-5.467420e+03 +/- 0.000000e+00) [K]
    Coulombic Real/kʙ      -8.287330e+04 (-7.517915e+04 +/- 0.000000e+00) [K]
    Coulombic Fourier/kʙ   -6.828911e+03 (-7.007538e+03 +/- 0.000000e+00) [K]
    Molecule Intra/kʙ       0.000000e+00 ( 0.000000e+00 +/- 0.000000e+00) [K]

Current cycle: 200 out of 5000
===============================================================================

Box:      23.72292   0.00000   0.00000  Average:  23.80214   0.00000   0.00000
           0.00000  23.72292   0.00000             0.00000  23.80214   0.00000
           0.00000   0.00000  23.72292             0.00000   0.00000  23.80214
Lengths:  23.72292  23.72292  23.72292  Average:  23.80214  23.80214  23.80214
Angles:   90.00000  90.00000  90.00000  Average:  90.00000  90.00000  90.00000
Rectangular boundary conditions

net charge:   0.00000000

component 0 (CO2) lambda:  0 occupancy:  1 (1.000000)
    net charge:   0.00000000 [e]

Amount of molecules per component :
-------------------------------------------------------------------------------
Component 0 (CO2)
    molecules:      2.000000e+02 molecules  (2.000000e+02 +/- 0.000000e+00)
    number density: 1.498048e-02 molec./A^3 (1.483468e-02 +/- 0.000000e+00)
    density:        1.094499e+03 kg/m^3     (1.083847e+03 +/- 0.000000e+00)

Average pressure tensor: 
-------------------------------------------------------------------------------
 4.6695e+01  2.6188e+01  5.6697e+01 +/- 0.0000e+00 0.0000e+00 0.0000e+00 [bar]
 2.6188e+01 -5.9259e+01 -2.3615e+02 +/- 0.0000e+00 0.0000e+00 0.0000e+00 [bar]
 5.6697e+01 -2.3615e+02  2.6705e+02 +/- 0.0000e+00 0.0000e+00 0.0000e+00 [bar]
Ideal-gas pressure:   5.120377e+02 +/ 0.000000e+00 [bar]
Excess pressure:     -4.272106e+02 +/ 0.000000e+00 [bar]
Pressure:             8.482713e+01 +/ 0.000000e+00 [bar]

Total potential energy/kʙ  -3.216488e+05 (-3.154856e+05 +/- 0.000000e+00) [K]
-------------------------------------------------------------------------------
ExternalField-molecule
    Van der Waals/kʙ        0.000000e+00 ( 0.000000e+00 +/- 0.000000e+00) [K]
Framework-molecule
    Van der Waals/kʙ        0.000000e+00 ( 0.000000e+00 +/- 0.000000e+00) [K]
    Van der Waals (Tail)/kʙ 0.000000e+00 ( 0.000000e+00 +/- 0.000000e+00) [K]
    Coulombic Real/kʙ       0.000000e+00 ( 0.000000e+00 +/- 0.000000e+00) [K]
    Coulombic Fourier/kʙ    0.000000e+00 ( 0.000000e+00 +/- 0.000000e+00) [K]
Molecule-molecule
    Van der Waals/kʙ       -2.320234e+05 (-2.270572e+05 +/- 0.000000e+00) [K]
    Van der Waals (Tail)/kʙ-5.564060e+03 (-5.503720e+03 +/- 0.000000e+00) [K]
    Coulombic Real/kʙ      -7.665738e+04 (-7.583192e+04 +/- 0.000000e+00) [K]
    Coulombic Fourier/kʙ   -7.403956e+03 (-7.092754e+03 +/- 0.000000e+00) [K]
    Molecule Intra/kʙ       0.000000e+00 ( 0.000000e+00 +/- 0.000000e+00) [K]

Current cycle: 300 out of 5000
===============================================================================

Box:      23.97528   0.00000   0.00000  Average:  23.82467   0.00000   0.00000
           0.00000  23.97528   0.00000             0.00000  23.82467   0.00000
           0.00000   0.00000  23.97528             0.00000   0.00000  23.82467
Lengths:  23.97528  23.97528  23.97528  Average:  23.82467  23.82467  23.82467
Angles:   90.00000  90.00000  90.00000  Average:  90.00000  90.00000  90.00000
Rectangular boundary conditions

net charge:   0.00000000

component 0 (CO2) lambda:  0 occupancy:  1 (1.000000)
    net charge:   0.00000000 [e]

Amount of molecules per component :
-------------------------------------------------------------------------------
Component 0 (CO2)
    molecules:      2.000000e+02 molecules  (2.000000e+02 +/- 0.000000e+00)
    number density: 1.451238e-02 molec./A^3 (1.479242e-02 +/- 0.000000e+00)
    density:        1.060299e+03 kg/m^3     (1.080760e+03 +/- 0.000000e+00)

Average pressure tensor: 
-------------------------------------------------------------------------------
-3.5562e+00  1.0478e+01  1.7867e+01 +/- 0.0000e+00 0.0000e+00 0.0000e+00 [bar]
 1.0478e+01 -1.1773e+02 -1.2959e+02 +/- 0.0000e+00 0.0000e+00 0.0000e+00 [bar]
 1.7867e+01 -1.2959e+02  1.9924e+02 +/- 0.0000e+00 0.0000e+00 0.0000e+00 [bar]
Ideal-gas pressure:   5.105791e+02 +/ 0.000000e+00 [bar]
Excess pressure:     -4.845934e+02 +/ 0.000000e+00 [bar]
Pressure:             2.598571e+01 +/ 0.000000e+00 [bar]

Total potential energy/kʙ  -3.062818e+05 (-3.146733e+05 +/- 0.000000e+00) [K]
-------------------------------------------------------------------------------
ExternalField-molecule
    Van der Waals/kʙ        0.000000e+00 ( 0.000000e+00 +/- 0.000000e+00) [K]
Framework-molecule
    Van der Waals/kʙ        0.000000e+00 ( 0.000000e+00 +/- 0.000000e+00) [K]
    Van der Waals (Tail)/kʙ 0.000000e+00 ( 0.000000e+00 +/- 0.000000e+00) [K]
    Coulombic Real/kʙ       0.000000e+00 ( 0.000000e+00 +/- 0.000000e+00) [K]
    Coulombic Fourier/kʙ    0.000000e+00 ( 0.000000e+00 +/- 0.000000e+00) [K]
Molecule-molecule
    Van der Waals/kʙ       -2.217522e+05 (-2.268659e+05 +/- 0.000000e+00) [K]
    Van der Waals (Tail)/kʙ-5.390200e+03 (-5.488412e+03 +/- 0.000000e+00) [K]
    Coulombic Real/kʙ      -7.196648e+04 (-7.516442e+04 +/- 0.000000e+00) [K]
    Coulombic Fourier/kʙ   -7.172904e+03 (-7.154641e+03 +/- 0.000000e+00) [K]
    Molecule Intra/kʙ       0.000000e+00 ( 0.000000e+00 +/- 0.000000e+00) [K]

Current cycle: 400 out of 5000
===============================================================================

Box:      23.79160   0.00000   0.00000  Average:  23.85905   0.00000   0.00000
           0.00000  23.79160   0.00000             0.00000  23.85905   0.00000
           0.00000   0.00000  23.79160             0.00000   0.00000  23.85905
Lengths:  23.79160  23.79160  23.79160  Average:  23.85905  23.85905  23.85905
Angles:   90.00000  90.00000  90.00000  Average:  90.00000  90.00000  90.00000
Rectangular boundary conditions

net charge:   0.00000000

component 0 (CO2) lambda:  0 occupancy:  1 (1.000000)
    net charge:   0.00000000 [e]

Amount of molecules per component :
-------------------------------------------------------------------------------
Component 0 (CO2)
    molecules:      2.000000e+02 molecules  (2.000000e+02 +/- 0.000000e+00)
    number density: 1.485112e-02 molec./A^3 (1.472869e-02 +/- 0.000000e+00)
    density:        1.085048e+03 kg/m^3     (1.076103e+03 +/- 0.000000e+00)

Average pressure tensor: 
-------------------------------------------------------------------------------
-2.9500e+01  5.1965e+00  3.0587e+01 +/- 0.0000e+00 0.0000e+00 0.0000e+00 [bar]
 5.1965e+00 -1.4191e+02 -1.3601e+02 +/- 0.0000e+00 0.0000e+00 0.0000e+00 [bar]
 3.0587e+01 -1.3601e+02  1.4822e+02 +/- 0.0000e+00 0.0000e+00 0.0000e+00 [bar]
Ideal-gas pressure:   5.083794e+02 +/ 0.000000e+00 [bar]
Excess pressure:     -5.161095e+02 +/ 0.000000e+00 [bar]
Pressure:            -7.730128e+00 +/ 0.000000e+00 [bar]

Total potential energy/kʙ  -3.061504e+05 (-3.134695e+05 +/- 0.000000e+00) [K]
-------------------------------------------------------------------------------
ExternalField-molecule
    Van der Waals/kʙ        0.000000e+00 ( 0.000000e+00 +/- 0.000000e+00) [K]
Framework-molecule
    Van der Waals/kʙ        0.000000e+00 ( 0.000000e+00 +/- 0.000000e+00) [K]
    Van der Waals (Tail)/kʙ 0.000000e+00 ( 0.000000e+00 +/- 0.000000e+00) [K]
    Coulombic Real/kʙ       0.000000e+00 ( 0.000000e+00 +/- 0.000000e+00) [K]
    Coulombic Fourier/kʙ    0.000000e+00 ( 0.000000e+00 +/- 0.000000e+00) [K]
Molecule-molecule
    Van der Waals/kʙ       -2.234669e+05 (-2.262139e+05 +/- 0.000000e+00) [K]
    Van der Waals (Tail)/kʙ-5.516015e+03 (-5.465414e+03 +/- 0.000000e+00) [K]
    Coulombic Real/kʙ      -7.071029e+04 (-7.468626e+04 +/- 0.000000e+00) [K]
    Coulombic Fourier/kʙ   -6.457207e+03 (-7.103953e+03 +/- 0.000000e+00) [K]
    Molecule Intra/kʙ       0.000000e+00 ( 0.000000e+00 +/- 0.000000e+00) [K]

Current cycle: 500 out of 5000
===============================================================================

Box:      24.07643   0.00000   0.00000  Average:  23.89754   0.00000   0.00000
           0.00000  24.07643   0.00000             0.00000  23.89754   0.00000
           0.00000   0.00000  24.07643             0.00000   0.00000  23.89754
Lengths:  24.07643  24.07643  24.07643  Average:  23.89754  23.89754  23.89754
Angles:   90.00000  90.00000  90.00000  Average:  90.00000  90.00000  90.00000
Rectangular boundary conditions

net charge:   0.00000000

component 0 (CO2) lambda:  0 occupancy:  1 (1.000000)
    net charge:   0.00000000 [e]

Amount of molecules per component :
-------------------------------------------------------------------------------
Component 0 (CO2)
    molecules:      2.000000e+02 molecules  (2.000000e+02 +/- 0.000000e+00)
    number density: 1.433024e-02 molec./A^3 (1.465854e-02 +/- 0.000000e+00)
    density:        1.046992e+03 kg/m^3     (1.070978e+03 +/- 0.000000e+00)

Average pressure tensor: 
-------------------------------------------------------------------------------
-9.3328e+00  5.3687e+00  3.0731e+01 +/- 0.0000e+00 0.0000e+00 0.0000e+00 [bar]
 5.3687e+00 -9.5139e+01 -1.0475e+02 +/- 0.0000e+00 0.0000e+00 0.0000e+00 [bar]
 3.0731e+01 -1.0475e+02  1.8540e+02 +/- 0.0000e+00 0.0000e+00 0.0000e+00 [bar]
Ideal-gas pressure:   5.059581e+02 +/ 0.000000e+00 [bar]
Excess pressure:     -4.789822e+02 +/ 0.000000e+00 [bar]
Pressure:             2.697586e+01 +/ 0.000000e+00 [bar]

Total potential energy/kʙ  -3.052325e+05 (-3.112175e+05 +/- 0.000000e+00) [K]
-------------------------------------------------------------------------------
ExternalField-molecule
    Van der Waals/kʙ        0.000000e+00 ( 0.000000e+00 +/- 0.000000e+00) [K]
Framework-molecule
    Van der Waals/kʙ        0.000000e+00 ( 0.000000e+00 +/- 0.000000e+00) [K]
    Van der Waals (Tail)/kʙ 0.000000e+00 ( 0.000000e+00 +/- 0.000000e+00) [K]
    Coulombic Real/kʙ       0.000000e+00 ( 0.000000e+00 +/- 0.000000e+00) [K]
    Coulombic Fourier/kʙ    0.000000e+00 ( 0.000000e+00 +/- 0.000000e+00) [K]
Molecule-molecule
    Van der Waals/kʙ       -2.207118e+05 (-2.250051e+05 +/- 0.000000e+00) [K]
    Van der Waals (Tail)/kʙ-5.322551e+03 (-5.442045e+03 +/- 0.000000e+00) [K]
    Coulombic Real/kʙ      -7.210078e+04 (-7.376278e+04 +/- 0.000000e+00) [K]
    Coulombic Fourier/kʙ   -7.097444e+03 (-7.007594e+03 +/- 0.000000e+00) [K]
    Molecule Intra/kʙ       0.000000e+00 ( 0.000000e+00 +/- 0.000000e+00) [K]

Current cycle: 600 out of 5000
===============================================================================

Box:      23.89402   0.00000   0.00000  Average:  23.92434   0.00000   0.00000
           0.00000  23.89402   0.00000             0.00000  23.92434   0.00000
           0.00000   0.00000  23.89402             0.00000   0.00000  23.92434
Lengths:  23.89402  23.89402  23.89402  Average:  23.92434  23.92434  23.92434
Angles:   90.00000  90.00000  90.00000  Average:  90.00000  90.00000  90.00000
Rectangular boundary conditions

net charge:   0.00000000

component 0 (CO2) lambda:  0 occupancy:  1 (1.000000)
    net charge:   0.00000000 [e]

Amount of molecules per component :
-------------------------------------------------------------------------------
Component 0 (CO2)
    molecules:      2.000000e+02 molecules  (2.000000e+02 +/- 0.000000e+00)
    number density: 1.466095e-02 molec./A^3 (1.460955e-02 +/- 0.000000e+00)
    density:        1.071154e+03 kg/m^3     (1.067399e+03 +/- 0.000000e+00)

Average pressure tensor: 
-------------------------------------------------------------------------------
 8.9180e+00 -6.5020e+00  3.2191e+01 +/- 0.0000e+00 0.0000e+00 0.0000e+00 [bar]
-6.5020e+00 -8.6590e+01 -1.0345e+02 +/- 0.0000e+00 0.0000e+00 0.0000e+00 [bar]
 3.2191e+01 -1.0345e+02  1.4580e+02 +/- 0.0000e+00 0.0000e+00 0.0000e+00 [bar]
Ideal-gas pressure:   5.042670e+02 +/ 0.000000e+00 [bar]
Excess pressure:     -4.815568e+02 +/ 0.000000e+00 [bar]
Pressure:             2.271014e+01 +/ 0.000000e+00 [bar]

Total potential energy/kʙ  -3.074490e+05 (-3.097909e+05 +/- 0.000000e+00) [K]
-------------------------------------------------------------------------------
ExternalField-molecule
    Van der Waals/kʙ        0.000000e+00 ( 0.000000e+00 +/- 0.000000e+00) [K]
Framework-molecule
    Van der Waals/kʙ        0.000000e+00 ( 0.000000e+00 +/- 0.000000e+00) [K]
    Van der Waals (Tail)/kʙ 0.000000e+00 ( 0.000000e+00 +/- 0.000000e+00) [K]
    Coulombic Real/kʙ       0.000000e+00 ( 0.000000e+00 +/- 0.000000e+00) [K]
    Coulombic Fourier/kʙ    0.000000e+00 ( 0.000000e+00 +/- 0.000000e+00) [K]
Molecule-molecule
    Van der Waals/kʙ       -2.247312e+05 (-2.241642e+05 +/- 0.000000e+00) [K]
    Van der Waals (Tail)/kʙ-5.445381e+03 (-5.423686e+03 +/- 0.000000e+00) [K]
    Coulombic Real/kʙ      -7.004181e+04 (-7.320367e+04 +/- 0.000000e+00) [K]
    Coulombic Fourier/kʙ   -7.230538e+03 (-6.999361e+03 +/- 0.000000e+00) [K]
    Molecule Intra/kʙ       0.000000e+00 ( 0.000000e+00 +/- 0.000000e+00) [K]

Current cycle: 700 out of 5000
===============================================================================

Box:      24.05489   0.00000   0.00000  Average:  23.91683   0.00000   0.00000
           0.00000  24.05489   0.00000             0.00000  23.91683   0.00000
           0.00000   0.00000  24.05489             0.00000   0.00000  23.91683
Lengths:  24.05489  24.05489  24.05489  Average:  23.91683  23.91683  23.91683
Angles:   90.00000  90.00000  90.00000  Average:  90.00000  90.00000  90.00000
Rectangular boundary conditions

net charge:   0.00000000

component 0 (CO2) lambda:  0 occupancy:  1 (1.000000)
    net charge:   0.00000000 [e]

Amount of molecules per component :
-------------------------------------------------------------------------------
Component 0 (CO2)
    molecules:      2.000000e+02 molecules  (2.000000e+02 +/- 0.000000e+00)
    number density: 1.436879e-02 molec./A^3 (1.462306e-02 +/- 0.000000e+00)
    density:        1.049808e+03 kg/m^3     (1.068386e+03 +/- 0.000000e+00)

Average pressure tensor: 
-------------------------------------------------------------------------------
 8.4319e+01 -8.0164e+00  2.1520e+01 +/- 0.0000e+00 0.0000e+00 0.0000e+00 [bar]
-8.0164e+00 -7.4068e+01 -7.9144e+01 +/- 0.0000e+00 0.0000e+00 0.0000e+00 [bar]
 2.1520e+01 -7.9144e+01  1.1508e+02 +/- 0.0000e+00 0.0000e+00 0.0000e+00 [bar]
Ideal-gas pressure:   5.047333e+02 +/ 0.000000e+00 [bar]
Excess pressure:     -4.629557e+02 +/ 0.000000e+00 [bar]
Pressure:             4.177761e+01 +/ 0.000000e+00 [bar]

Total potential energy/kʙ  -3.068022e+05 (-3.094888e+05 +/- 0.000000e+00) [K]
-------------------------------------------------------------------------------
ExternalField-molecule
    Van der Waals/kʙ        0.000000e+00 ( 0.000000e+00 +/- 0.000000e+00) [K]
Framework-molecule
    Van der Waals/kʙ        0.000000e+00 ( 0.000000e+00 +/- 0.000000e+00) [K]
    Van der Waals (Tail)/kʙ 0.000000e+00 ( 0.000000e+00 +/- 0.000000e+00) [K]
    Coulombic Real/kʙ       0.000000e+00 ( 0.000000e+00 +/- 0.000000e+00) [K]
    Coulombic Fourier/kʙ    0.000000e+00 ( 0.000000e+00 +/- 0.000000e+00) [K]
Molecule-molecule
    Van der Waals/kʙ       -2.216048e+05 (-2.242115e+05 +/- 0.000000e+00) [K]
    Van der Waals (Tail)/kʙ-5.336866e+03 (-5.428731e+03 +/- 0.000000e+00) [K]
    Coulombic Real/kʙ      -7.341056e+04 (-7.292016e+04 +/- 0.000000e+00) [K]
    Coulombic Fourier/kʙ   -6.450063e+03 (-6.928352e+03 +/- 0.000000e+00) [K]
    Molecule Intra/kʙ       0.000000e+00 ( 0.000000e+00 +/- 0.000000e+00) [K]

Current cycle: 800 out of 5000
===============================================================================

Box:      23.90140   0.00000   0.00000  Average:  23.91895   0.00000   0.00000
           0.00000  23.90140   0.00000             0.00000  23.91895   0.00000
           0.00000   0.00000  23.90140             0.00000   0.00000  23.91895
Lengths:  23.90140  23.90140  23.90140  Average:  23.91895  23.91895  23.91895
Angles:   90.00000  90.00000  90.00000  Average:  90.00000  90.00000  90.00000
Rectangular boundary conditions

net charge:   0.00000000

component 0 (CO2) lambda:  0 occupancy:  1 (1.000000)
    net charge:   0.00000000 [e]

Amount of molecules per component :
-------------------------------------------------------------------------------
Component 0 (CO2)
    molecules:      2.000000e+02 molecules  (2.000000e+02 +/- 0.000000e+00)
    number density: 1.464738e-02 molec./A^3 (1.461879e-02 +/- 0.000000e+00)
    density:        1.070163e+03 kg/m^3     (1.068074e+03 +/- 0.000000e+00)

Average pressure tensor: 
-------------------------------------------------------------------------------
 8.3908e+01  7.5381e+00  1.9394e+01 +/- 0.0000e+00 0.0000e+00 0.0000e+00 [bar]
 7.5381e+00 -8.2050e+01 -8.7611e+01 +/- 0.0000e+00 0.0000e+00 0.0000e+00 [bar]
 1.9394e+01 -8.7611e+01  1.0575e+02 +/- 0.0000e+00 0.0000e+00 0.0000e+00 [bar]
Ideal-gas pressure:   5.045858e+02 +/ 0.000000e+00 [bar]
Excess pressure:     -4.687178e+02 +/ 0.000000e+00 [bar]
Pressure:             3.586799e+01 +/ 0.000000e+00 [bar]

Total potential energy/kʙ  -3.108840e+05 (-3.092729e+05 +/- 0.000000e+00) [K]
-------------------------------------------------------------------------------
ExternalField-molecule
    Van der Waals/kʙ        0.000000e+00 ( 0.000000e+00 +/- 0.000000e+00) [K]
Framework-molecule
    Van der Waals/kʙ        0.000000e+00 ( 0.000000e+00 +/- 0.000000e+00) [K]
    Van der Waals (Tail)/kʙ 0.000000e+00 ( 0.000000e+00 +/- 0.000000e+00) [K]
    Coulombic Real/kʙ       0.000000e+00 ( 0.000000e+00 +/- 0.000000e+00) [K]
    Coulombic Fourier/kʙ    0.000000e+00 ( 0.000000e+00 +/- 0.000000e+00) [K]
Molecule-molecule
    Van der Waals/kʙ       -2.257934e+05 (-2.239406e+05 +/- 0.000000e+00) [K]
    Van der Waals (Tail)/kʙ-5.440343e+03 (-5.428203e+03 +/- 0.000000e+00) [K]
    Coulombic Real/kʙ      -7.298290e+04 (-7.302405e+04 +/- 0.000000e+00) [K]
    Coulombic Fourier/kʙ   -6.667280e+03 (-6.880094e+03 +/- 0.000000e+00) [K]
    Molecule Intra/kʙ       0.000000e+00 ( 0.000000e+00 +/- 0.000000e+00) [K]

Current cycle: 900 out of 5000
===============================================================================

Box:      23.80927   0.00000   0.00000  Average:  23.90056   0.00000   0.00000
           0.00000  23.80927   0.00000             0.00000  23.90056   0.00000
           0.00000   0.00000  23.80927             0.00000   0.00000  23.90056
Lengths:  23.80927  23.80927  23.80927  Average:  23.90056  23.90056  23.90056
Angles:   90.00000  90.00000  90.00000  Average:  90.00000  90.00000  90.00000
Rectangular boundary conditions

net charge:   0.00000000

component 0 (CO2) lambda:  0 occupancy:  1 (1.000000)
    net charge:   0.00000000 [e]

Amount of molecules per component :
-------------------------------------------------------------------------------
Component 0 (CO2)
    molecules:      2.000000e+02 molecules  (2.000000e+02 +/- 0.000000e+00)
    number density: 1.481808e-02 molec./A^3 (1.465277e-02 +/- 0.000000e+00)
    density:        1.082634e+03 kg/m^3     (1.070556e+03 +/- 0.000000e+00)

Average pressure tensor: 
-------------------------------------------------------------------------------
 8.3355e+01  2.0917e+01  1.8464e+01 +/- 0.0000e+00 0.0000e+00 0.0000e+00 [bar]
 2.0917e+01 -6.6394e+01 -9.6310e+01 +/- 0.0000e+00 0.0000e+00 0.0000e+00 [bar]
 1.8464e+01 -9.6310e+01  6.7346e+01 +/- 0.0000e+00 0.0000e+00 0.0000e+00 [bar]
Ideal-gas pressure:   5.057587e+02 +/ 0.000000e+00 [bar]
Excess pressure:     -4.776564e+02 +/ 0.000000e+00 [bar]
Pressure:             2.810232e+01 +/ 0.000000e+00 [bar]

Total potential energy/kʙ  -3.176049e+05 (-3.098601e+05 +/- 0.000000e+00) [K]
-------------------------------------------------------------------------------
ExternalField-molecule
    Van der Waals/kʙ        0.000000e+00 ( 0.000000e+00 +/- 0.000000e+00) [K]
Framework-molecule
    Van der Waals/kʙ        0.000000e+00 ( 0.000000e+00 +/- 0.000000e+00) [K]
    Van der Waals (Tail)/kʙ 0.000000e+00 ( 0.000000e+00 +/- 0.000000e+00) [K]
    Coulombic Real/kʙ       0.000000e+00 ( 0.000000e+00 +/- 0.000000e+00) [K]
    Coulombic Fourier/kʙ    0.000000e+00 ( 0.000000e+00 +/- 0.000000e+00) [K]
Molecule-molecule
    Van der Waals/kʙ       -2.333682e+05 (-2.247794e+05 +/- 0.000000e+00) [K]
    Van der Waals (Tail)/kʙ-5.503743e+03 (-5.440536e+03 +/- 0.000000e+00) [K]
    Coulombic Real/kʙ      -7.200126e+04 (-7.279279e+04 +/- 0.000000e+00) [K]
    Coulombic Fourier/kʙ   -6.731625e+03 (-6.847320e+03 +/- 0.000000e+00) [K]
    Molecule Intra/kʙ       0.000000e+00 ( 0.000000e+00 +/- 0.000000e+00) [K]

Current cycle: 1000 out of 5000
===============================================================================

Box:      23.83787   0.00000   0.00000  Average:  23.89468   0.00000   0.00000
           0.00000  23.83787   0.00000             0.00000  23.89468   0.00000
           0.00000   0.00000  23.83787             0.00000   0.00000  23.89468
Lengths:  23.83787  23.83787  23.83787  Average:  23.89468  23.89468  23.89468
Angles:   90.00000  90.00000  90.00000  Average:  90.00000  90.00000  90.00000
Rectangular boundary conditions

net charge:   0.00000000

component 0 (CO2) lambda:  0 occupancy:  1 (1.000000)
    net charge:   0.00000000 [e]

Amount of molecules per component :
-------------------------------------------------------------------------------
Component 0 (CO2)
    molecules:      2.000000e+02 molecules  (2.000000e+02 +/- 0.000000e+00)
    number density: 1.476481e-02 molec./A^3 (1.466339e-02 +/- 0.000000e+00)
    density:        1.078742e+03 kg/m^3     (1.071332e+03 +/- 0.000000e+00)

Average pressure tensor: 
-------------------------------------------------------------------------------
 7.2289e+01  2.2732e+01  1.6729e+01 +/- 0.0000e+00 0.0000e+00 0.0000e+00 [bar]
 2.2732e+01 -2.5537e+01 -1.0226e+02 +/- 0.0000e+00 0.0000e+00 0.0000e+00 [bar]
 1.6729e+01 -1.0226e+02  4.4240e+01 +/- 0.0000e+00 0.0000e+00 0.0000e+00 [bar]
Ideal-gas pressure:   5.061253e+02 +/ 0.000000e+00 [bar]
Excess pressure:     -4.757946e+02 +/ 0.000000e+00 [bar]
Pressure:             3.033075e+01 +/ 0.000000e+00 [bar]

Total potential energy/kʙ  -3.147282e+05 (-3.103312e+05 +/- 0.000000e+00) [K]
-------------------------------------------------------------------------------
ExternalField-molecule
    Van der Waals/kʙ        0.000000e+00 ( 0.000000e+00 +/- 0.000000e+00) [K]
Framework-molecule
    Van der Waals/kʙ        0.000000e+00 ( 0.000000e+00 +/- 0.000000e+00) [K]
    Van der Waals (Tail)/kʙ 0.000000e+00 ( 0.000000e+00 +/- 0.000000e+00) [K]
    Coulombic Real/kʙ       0.000000e+00 ( 0.000000e+00 +/- 0.000000e+00) [K]
    Coulombic Fourier/kʙ    0.000000e+00 ( 0.000000e+00 +/- 0.000000e+00) [K]
Molecule-molecule
    Van der Waals/kʙ       -2.316767e+05 (-2.250697e+05 +/- 0.000000e+00) [K]
    Van der Waals (Tail)/kʙ-5.483956e+03 (-5.444361e+03 +/- 0.000000e+00) [K]
    Coulombic Real/kʙ      -7.063009e+04 (-7.295902e+04 +/- 0.000000e+00) [K]
    Coulombic Fourier/kʙ   -6.937402e+03 (-6.858091e+03 +/- 0.000000e+00) [K]
    Molecule Intra/kʙ       0.000000e+00 ( 0.000000e+00 +/- 0.000000e+00) [K]

Current cycle: 1100 out of 5000
===============================================================================

Box:      24.02961   0.00000   0.00000  Average:  23.89753   0.00000   0.00000
           0.00000  24.02961   0.00000             0.00000  23.89753   0.00000
           0.00000   0.00000  24.02961             0.00000   0.00000  23.89753
Lengths:  24.02961  24.02961  24.02961  Average:  23.89753  23.89753  23.89753
Angles:   90.00000  90.00000  90.00000  Average:  90.00000  90.00000  90.00000
Rectangular boundary conditions

net charge:   0.00000000

component 0 (CO2) lambda:  0 occupancy:  1 (1.000000)
    net charge:   0.00000000 [e]

Amount of molecules per component :
-------------------------------------------------------------------------------
Component 0 (CO2)
    molecules:      2.000000e+02 molecules  (2.000000e+02 +/- 0.000000e+00)
    number density: 1.441418e-02 molec./A^3 (1.465800e-02 +/- 0.000000e+00)
    density:        1.053125e+03 kg/m^3     (1.070939e+03 +/- 0.000000e+00)

Average pressure tensor: 
-------------------------------------------------------------------------------
 6.6241e+01  2.7273e+01  1.3999e+01 +/- 0.0000e+00 0.0000e+00 0.0000e+00 [bar]
 2.7273e+01 -4.9264e+01 -7.7460e+01 +/- 0.0000e+00 0.0000e+00 0.0000e+00 [bar]
 1.3999e+01 -7.7460e+01  2.9523e+01 +/- 0.0000e+00 0.0000e+00 0.0000e+00 [bar]
Ideal-gas pressure:   5.059393e+02 +/ 0.000000e+00 [bar]
Excess pressure:     -4.904394e+02 +/ 0.000000e+00 [bar]
Pressure:             1.549989e+01 +/ 0.000000e+00 [bar]

Total potential energy/kʙ  -3.005069e+05 (-3.101395e+05 +/- 0.000000e+00) [K]
-------------------------------------------------------------------------------
ExternalField-molecule
    Van der Waals/kʙ        0.000000e+00 ( 0.000000e+00 +/- 0.000000e+00) [K]
Framework-molecule
    Van der Waals/kʙ        0.000000e+00 ( 0.000000e+00 +/- 0.000000e+00) [K]
    Van der Waals (Tail)/kʙ 0.000000e+00 ( 0.000000e+00 +/- 0.000000e+00) [K]
    Coulombic Real/kʙ       0.000000e+00 ( 0.000000e+00 +/- 0.000000e+00) [K]
    Coulombic Fourier/kʙ    0.000000e+00 ( 0.000000e+00 +/- 0.000000e+00) [K]
Molecule-molecule
    Van der Waals/kʙ       -2.170691e+05 (-2.250025e+05 +/- 0.000000e+00) [K]
    Van der Waals (Tail)/kʙ-5.353728e+03 (-5.440423e+03 +/- 0.000000e+00) [K]
    Coulombic Real/kʙ      -7.113434e+04 (-7.284314e+04 +/- 0.000000e+00) [K]
    Coulombic Fourier/kʙ   -6.949769e+03 (-6.853487e+03 +/- 0.000000e+00) [K]
    Molecule Intra/kʙ       0.000000e+00 ( 0.000000e+00 +/- 0.000000e+00) [K]

Current cycle: 1200 out of 5000
===============================================================================

Box:      24.38991   0.00000   0.00000  Average:  23.91178   0.00000   0.00000
           0.00000  24.38991   0.00000             0.00000  23.91178   0.00000
           0.00000   0.00000  24.38991             0.00000   0.00000  23.91178
Lengths:  24.38991  24.38991  24.38991  Average:  23.91178  23.91178  23.91178
Angles:   90.00000  90.00000  90.00000  Average:  90.00000  90.00000  90.00000
Rectangular boundary conditions

net charge:   0.00000000

component 0 (CO2) lambda:  0 occupancy:  1 (1.000000)
    net charge:   0.00000000 [e]

Amount of molecules per component :
-------------------------------------------------------------------------------
Component 0 (CO2)
    molecules:      2.000000e+02 molecules  (2.000000e+02 +/- 0.000000e+00)
    number density: 1.378477e-02 molec./A^3 (1.463212e-02 +/- 0.000000e+00)
    density:        1.007139e+03 kg/m^3     (1.069047e+03 +/- 0.000000e+00)

Average pressure tensor: 
-------------------------------------------------------------------------------
 6.7717e+01  3.6276e+01 -1.3032e+00 +/- 0.0000e+00 0.0000e+00 0.0000e+00 [bar]
 3.6276e+01 -5.5800e+01 -7.5260e+01 +/- 0.0000e+00 0.0000e+00 0.0000e+00 [bar]
-1.3032e+00 -7.5260e+01  5.7592e+01 +/- 0.0000e+00 0.0000e+00 0.0000e+00 [bar]
Ideal-gas pressure:   5.050459e+02 +/ 0.000000e+00 [bar]
Excess pressure:     -4.818760e+02 +/ 0.000000e+00 [bar]
Pressure:             2.316984e+01 +/ 0.000000e+00 [bar]

Total potential energy/kʙ  -2.807476e+05 (-3.092359e+05 +/- 0.000000e+00) [K]
-------------------------------------------------------------------------------
ExternalField-molecule
    Van der Waals/kʙ        0.000000e+00 ( 0.000000e+00 +/- 0.000000e+00) [K]
Framework-molecule
    Van der Waals/kʙ        0.000000e+00 ( 0.000000e+00 +/- 0.000000e+00) [K]
    Van der Waals (Tail)/kʙ 0.000000e+00 ( 0.000000e+00 +/- 0.000000e+00) [K]
    Coulombic Real/kʙ       0.000000e+00 ( 0.000000e+00 +/- 0.000000e+00) [K]
    Coulombic Fourier/kʙ    0.000000e+00 ( 0.000000e+00 +/- 0.000000e+00) [K]
Molecule-molecule
    Van der Waals/kʙ       -2.049525e+05 (-2.243122e+05 +/- 0.000000e+00) [K]
    Van der Waals (Tail)/kʙ-5.119949e+03 (-5.431071e+03 +/- 0.000000e+00) [K]
    Coulombic Real/kʙ      -6.387738e+04 (-7.266165e+04 +/- 0.000000e+00) [K]
    Coulombic Fourier/kʙ   -6.797755e+03 (-6.831047e+03 +/- 0.000000e+00) [K]
    Molecule Intra/kʙ       0.000000e+00 ( 0.000000e+00 +/- 0.000000e+00) [K]

Current cycle: 1300 out of 5000
===============================================================================

Box:      24.51287   0.00000   0.00000  Average:  23.95206   0.00000   0.00000
           0.00000  24.51287   0.00000             0.00000  23.95206   0.00000
           0.00000   0.00000  24.51287             0.00000   0.00000  23.95206
Lengths:  24.51287  24.51287  24.51287  Average:  23.95206  23.95206  23.95206
Angles:   90.00000  90.00000  90.00000  Average:  90.00000  90.00000  90.00000
Rectangular boundary conditions

net charge:   0.00000000

component 0 (CO2) lambda:  0 occupancy:  1 (1.000000)
    net charge:   0.00000000 [e]

Amount of molecules per component :
-------------------------------------------------------------------------------
Component 0 (CO2)
    molecules:      2.000000e+02 molecules  (2.000000e+02 +/- 0.000000e+00)
    number density: 1.357837e-02 molec./A^3 (1.456117e-02 +/- 0.000000e+00)
    density:        9.920590e+02 kg/m^3     (1.063864e+03 +/- 0.000000e+00)

Average pressure tensor: 
-------------------------------------------------------------------------------
 6.1756e+01  4.5694e+01 -7.7666e+00 +/- 0.0000e+00 0.0000e+00 0.0000e+00 [bar]
 4.5694e+01 -5.3480e+01 -7.1919e+01 +/- 0.0000e+00 0.0000e+00 0.0000e+00 [bar]
-7.7666e+00 -7.1919e+01  3.9996e+01 +/- 0.0000e+00 0.0000e+00 0.0000e+00 [bar]
Ideal-gas pressure:   5.025971e+02 +/ 0.000000e+00 [bar]
Excess pressure:     -4.865062e+02 +/ 0.000000e+00 [bar]
Pressure:             1.609093e+01 +/ 0.000000e+00 [bar]

Total potential energy/kʙ  -2.786308e+05 (-3.071958e+05 +/- 0.000000e+00) [K]
-------------------------------------------------------------------------------
ExternalField-molecule
    Van der Waals/kʙ        0.000000e+00 ( 0.000000e+00 +/- 0.000000e+00) [K]
Framework-molecule
    Van der Waals/kʙ        0.000000e+00 ( 0.000000e+00 +/- 0.000000e+00) [K]
    Van der Waals (Tail)/kʙ 0.000000e+00 ( 0.000000e+00 +/- 0.000000e+00) [K]
    Coulombic Real/kʙ       0.000000e+00 ( 0.000000e+00 +/- 0.000000e+00) [K]
    Coulombic Fourier/kʙ    0.000000e+00 ( 0.000000e+00 +/- 0.000000e+00) [K]
Molecule-molecule
    Van der Waals/kʙ       -2.048998e+05 (-2.231448e+05 +/- 0.000000e+00) [K]
    Van der Waals (Tail)/kʙ-5.043289e+03 (-5.404947e+03 +/- 0.000000e+00) [K]
    Coulombic Real/kʙ      -6.228771e+04 (-7.182977e+04 +/- 0.000000e+00) [K]
    Coulombic Fourier/kʙ   -6.400015e+03 (-6.816266e+03 +/- 0.000000e+00) [K]
    Molecule Intra/kʙ       0.000000e+00 ( 0.000000e+00 +/- 0.000000e+00) [K]

Current cycle: 1400 out of 5000
===============================================================================

Box:      24.43765   0.00000   0.00000  Average:  23.99394   0.00000   0.00000
           0.00000  24.43765   0.00000             0.00000  23.99394   0.00000
           0.00000   0.00000  24.43765             0.00000   0.00000  23.99394
Lengths:  24.43765  24.43765  24.43765  Average:  23.99394  23.99394  23.99394
Angles:   90.00000  90.00000  90.00000  Average:  90.00000  90.00000  90.00000
Rectangular boundary conditions

net charge:   0.00000000

component 0 (CO2) lambda:  0 occupancy:  1 (1.000000)
    net charge:   0.00000000 [e]

Amount of molecules per component :
-------------------------------------------------------------------------------
Component 0 (CO2)
    molecules:      2.000000e+02 molecules  (2.000000e+02 +/- 0.000000e+00)
    number density: 1.370413e-02 molec./A^3 (1.448810e-02 +/- 0.000000e+00)
    density:        1.001247e+03 kg/m^3     (1.058526e+03 +/- 0.000000e+00)

Average pressure tensor: 
-------------------------------------------------------------------------------
 6.4997e+01  5.6591e+01 -1.1399e+01 +/- 0.0000e+00 0.0000e+00 0.0000e+00 [bar]
 5.6591e+01 -3.8494e+01 -6.0433e+01 +/- 0.0000e+00 0.0000e+00 0.0000e+00 [bar]
-1.1399e+01 -6.0433e+01  2.8464e+01 +/- 0.0000e+00 0.0000e+00 0.0000e+00 [bar]
Ideal-gas pressure:   5.000751e+02 +/ 0.000000e+00 [bar]
Excess pressure:     -4.817529e+02 +/ 0.000000e+00 [bar]
Pressure:             1.832222e+01 +/ 0.000000e+00 [bar]

Total potential energy/kʙ  -2.844165e+05 (-3.052328e+05 +/- 0.000000e+00) [K]
-------------------------------------------------------------------------------
ExternalField-molecule
    Van der Waals/kʙ        0.000000e+00 ( 0.000000e+00 +/- 0.000000e+00) [K]
Framework-molecule
    Van der Waals/kʙ        0.000000e+00 ( 0.000000e+00 +/- 0.000000e+00) [K]
    Van der Waals (Tail)/kʙ 0.000000e+00 ( 0.000000e+00 +/- 0.000000e+00) [K]
    Coulombic Real/kʙ       0.000000e+00 ( 0.000000e+00 +/- 0.000000e+00) [K]
    Coulombic Fourier/kʙ    0.000000e+00 ( 0.000000e+00 +/- 0.000000e+00) [K]
Molecule-molecule
    Van der Waals/kʙ       -2.095404e+05 (-2.218671e+05 +/- 0.000000e+00) [K]
    Van der Waals (Tail)/kʙ-5.090000e+03 (-5.378065e+03 +/- 0.000000e+00) [K]
    Coulombic Real/kʙ      -6.300209e+04 (-7.119734e+04 +/- 0.000000e+00) [K]
    Coulombic Fourier/kʙ   -6.784005e+03 (-6.790287e+03 +/- 0.000000e+00) [K]
    Molecule Intra/kʙ       0.000000e+00 ( 0.000000e+00 +/- 0.000000e+00) [K]

Current cycle: 1500 out of 5000
===============================================================================

Box:      23.97382   0.00000   0.00000  Average:  24.00018   0.00000   0.00000
           0.00000  23.97382   0.00000             0.00000  24.00018   0.00000
           0.00000   0.00000  23.97382             0.00000   0.00000  24.00018
Lengths:  23.97382  23.97382  23.97382  Average:  24.00018  24.00018  24.00018
Angles:   90.00000  90.00000  90.00000  Average:  90.00000  90.00000  90.00000
Rectangular boundary conditions

net charge:   0.00000000

component 0 (CO2) lambda:  0 occupancy:  1 (1.000000)
    net charge:   0.00000000 [e]

Amount of molecules per component :
-------------------------------------------------------------------------------
Component 0 (CO2)
    molecules:      2.000000e+02 molecules  (2.000000e+02 +/- 0.000000e+00)
    number density: 1.451504e-02 molec./A^3 (1.447660e-02 +/- 0.000000e+00)
    density:        1.060494e+03 kg/m^3     (1.057685e+03 +/- 0.000000e+00)

Average pressure tensor: 
-------------------------------------------------------------------------------
 6.8445e+01  6.3422e+01 -8.0933e+00 +/- 0.0000e+00 0.0000e+00 0.0000e+00 [bar]
 6.3422e+01 -2.3265e+01 -6.1998e+01 +/- 0.0000e+00 0.0000e+00 0.0000e+00 [bar]
-8.0933e+00 -6.1998e+01  3.2218e+01 +/- 0.0000e+00 0.0000e+00 0.0000e+00 [bar]
Ideal-gas pressure:   4.996781e+02 +/ 0.000000e+00 [bar]
Excess pressure:     -4.738790e+02 +/ 0.000000e+00 [bar]
Pressure:             2.579914e+01 +/ 0.000000e+00 [bar]

Total potential energy/kʙ  -3.011001e+05 (-3.046049e+05 +/- 0.000000e+00) [K]
-------------------------------------------------------------------------------
ExternalField-molecule
    Van der Waals/kʙ        0.000000e+00 ( 0.000000e+00 +/- 0.000000e+00) [K]
Framework-molecule
    Van der Waals/kʙ        0.000000e+00 ( 0.000000e+00 +/- 0.000000e+00) [K]
    Van der Waals (Tail)/kʙ 0.000000e+00 ( 0.000000e+00 +/- 0.000000e+00) [K]
    Coulombic Real/kʙ       0.000000e+00 ( 0.000000e+00 +/- 0.000000e+00) [K]
    Coulombic Fourier/kʙ    0.000000e+00 ( 0.000000e+00 +/- 0.000000e+00) [K]
Molecule-molecule
    Van der Waals/kʙ       -2.277337e+05 (-2.217217e+05 +/- 0.000000e+00) [K]
    Van der Waals (Tail)/kʙ-5.391188e+03 (-5.376277e+03 +/- 0.000000e+00) [K]
    Coulombic Real/kʙ      -6.135599e+04 (-7.072667e+04 +/- 0.000000e+00) [K]
    Coulombic Fourier/kʙ   -6.619297e+03 (-6.780163e+03 +/- 0.000000e+00) [K]
    Molecule Intra/kʙ       0.000000e+00 ( 0.000000e+00 +/- 0.000000e+00) [K]

Current cycle: 1600 out of 5000
===============================================================================

Box:      23.74604   0.00000   0.00000  Average:  23.98856   0.00000   0.00000
           0.00000  23.74604   0.00000             0.00000  23.98856   0.00000
           0.00000   0.00000  23.74604             0.00000   0.00000  23.98856
Lengths:  23.74604  23.74604  23.74604  Average:  23.98856  23.98856  23.98856
Angles:   90.00000  90.00000  90.00000  Average:  90.00000  90.00000  90.00000
Rectangular boundary conditions

net charge:   0.00000000

component 0 (CO2) lambda:  0 occupancy:  1 (1.000000)
    net charge:   0.00000000 [e]

Amount of molecules per component :
-------------------------------------------------------------------------------
Component 0 (CO2)
    molecules:      2.000000e+02 molecules  (2.000000e+02 +/- 0.000000e+00)
    number density: 1.493676e-02 molec./A^3 (1.449746e-02 +/- 0.000000e+00)
    density:        1.091305e+03 kg/m^3     (1.059209e+03 +/- 0.000000e+00)

Average pressure tensor: 
-------------------------------------------------------------------------------
 4.5982e+01  6.4733e+01 -1.7569e+01 +/- 0.0000e+00 0.0000e+00 0.0000e+00 [bar]
 6.4733e+01 -1.7992e+01 -6.3590e+01 +/- 0.0000e+00 0.0000e+00 0.0000e+00 [bar]
-1.7569e+01 -6.3590e+01  3.8798e+01 +/- 0.0000e+00 0.0000e+00 0.0000e+00 [bar]
Ideal-gas pressure:   5.003981e+02 +/ 0.000000e+00 [bar]
Excess pressure:     -4.781355e+02 +/ 0.000000e+00 [bar]
Pressure:             2.226253e+01 +/ 0.000000e+00 [bar]

Total potential energy/kʙ  -3.169785e+05 (-3.049987e+05 +/- 0.000000e+00) [K]
-------------------------------------------------------------------------------
ExternalField-molecule
    Van der Waals/kʙ        0.000000e+00 ( 0.000000e+00 +/- 0.000000e+00) [K]
Framework-molecule
    Van der Waals/kʙ        0.000000e+00 ( 0.000000e+00 +/- 0.000000e+00) [K]
    Van der Waals (Tail)/kʙ 0.000000e+00 ( 0.000000e+00 +/- 0.000000e+00) [K]
    Coulombic Real/kʙ       0.000000e+00 ( 0.000000e+00 +/- 0.000000e+00) [K]
    Coulombic Fourier/kʙ    0.000000e+00 ( 0.000000e+00 +/- 0.000000e+00) [K]
Molecule-molecule
    Van der Waals/kʙ       -2.294643e+05 (-2.220988e+05 +/- 0.000000e+00) [K]
    Van der Waals (Tail)/kʙ-5.547823e+03 (-5.384123e+03 +/- 0.000000e+00) [K]
    Coulombic Real/kʙ      -7.504847e+04 (-7.073813e+04 +/- 0.000000e+00) [K]
    Coulombic Fourier/kʙ   -6.917918e+03 (-6.777586e+03 +/- 0.000000e+00) [K]
    Molecule Intra/kʙ       0.000000e+00 ( 0.000000e+00 +/- 0.000000e+00) [K]

Current cycle: 1700 out of 5000
===============================================================================

Box:      23.74852   0.00000   0.00000  Average:  23.97898   0.00000   0.00000
           0.00000  23.74852   0.00000             0.00000  23.97898   0.00000
           0.00000   0.00000  23.74852             0.00000   0.00000  23.97898
Lengths:  23.74852  23.74852  23.74852  Average:  23.97898  23.97898  23.97898
Angles:   90.00000  90.00000  90.00000  Average:  90.00000  90.00000  90.00000
Rectangular boundary conditions

net charge:   0.00000000

component 0 (CO2) lambda:  0 occupancy:  1 (1.000000)
    net charge:   0.00000000 [e]

Amount of molecules per component :
-------------------------------------------------------------------------------
Component 0 (CO2)
    molecules:      2.000000e+02 molecules  (2.000000e+02 +/- 0.000000e+00)
    number density: 1.493209e-02 molec./A^3 (1.451460e-02 +/- 0.000000e+00)
    density:        1.090964e+03 kg/m^3     (1.060461e+03 +/- 0.000000e+00)

Average pressure tensor: 
-------------------------------------------------------------------------------
 3.4145e+01  6.8276e+01 -2.0641e+01 +/- 0.0000e+00 0.0000e+00 0.0000e+00 [bar]
 6.8276e+01 -2.1023e+01 -5.9073e+01 +/- 0.0000e+00 0.0000e+00 0.0000e+00 [bar]
-2.0641e+01 -5.9073e+01  4.1128e+01 +/- 0.0000e+00 0.0000e+00 0.0000e+00 [bar]
Ideal-gas pressure:   5.009897e+02 +/ 0.000000e+00 [bar]
Excess pressure:     -4.829065e+02 +/ 0.000000e+00 [bar]
Pressure:             1.808319e+01 +/ 0.000000e+00 [bar]

Total potential energy/kʙ  -3.175750e+05 (-3.053614e+05 +/- 0.000000e+00) [K]
-------------------------------------------------------------------------------
ExternalField-molecule
    Van der Waals/kʙ        0.000000e+00 ( 0.000000e+00 +/- 0.000000e+00) [K]
Framework-molecule
    Van der Waals/kʙ        0.000000e+00 ( 0.000000e+00 +/- 0.000000e+00) [K]
    Van der Waals (Tail)/kʙ 0.000000e+00 ( 0.000000e+00 +/- 0.000000e+00) [K]
    Coulombic Real/kʙ       0.000000e+00 ( 0.000000e+00 +/- 0.000000e+00) [K]
    Coulombic Fourier/kʙ    0.000000e+00 ( 0.000000e+00 +/- 0.000000e+00) [K]
Molecule-molecule
    Van der Waals/kʙ       -2.310076e+05 (-2.223478e+05 +/- 0.000000e+00) [K]
    Van der Waals (Tail)/kʙ-5.546087e+03 (-5.389625e+03 +/- 0.000000e+00) [K]
    Coulombic Real/kʙ      -7.359685e+04 (-7.083563e+04 +/- 0.000000e+00) [K]
    Coulombic Fourier/kʙ   -7.424491e+03 (-6.788368e+03 +/- 0.000000e+00) [K]
    Molecule Intra/kʙ       0.000000e+00 ( 0.000000e+00 +/- 0.000000e+00) [K]

Current cycle: 1800 out of 5000
===============================================================================

Box:      23.84190   0.00000   0.00000  Average:  23.96600   0.00000   0.00000
           0.00000  23.84190   0.00000             0.00000  23.96600   0.00000
           0.00000   0.00000  23.84190             0.00000   0.00000  23.96600
Lengths:  23.84190  23.84190  23.84190  Average:  23.96600  23.96600  23.96600
Angles:   90.00000  90.00000  90.00000  Average:  90.00000  90.00000  90.00000
Rectangular boundary conditions

net charge:   0.00000000

component 0 (CO2) lambda:  0 occupancy:  1 (1.000000)
    net charge:   0.00000000 [e]

Amount of molecules per component :
-------------------------------------------------------------------------------
Component 0 (CO2)
    molecules:      2.000000e+02 molecules  (2.000000e+02 +/- 0.000000e+00)
    number density: 1.475731e-02 molec./A^3 (1.453819e-02 +/- 0.000000e+00)
    density:        1.078195e+03 kg/m^3     (1.062185e+03 +/- 0.000000e+00)

Average pressure tensor: 
-------------------------------------------------------------------------------
 2.8149e+01  5.0205e+01 -1.7657e+01 +/- 0.0000e+00 0.0000e+00 0.0000e+00 [bar]
 5.0205e+01 -2.6233e+01 -5.2736e+01 +/- 0.0000e+00 0.0000e+00 0.0000e+00 [bar]
-1.7657e+01 -5.2736e+01  3.7847e+01 +/- 0.0000e+00 0.0000e+00 0.0000e+00 [bar]
Ideal-gas pressure:   5.018040e+02 +/ 0.000000e+00 [bar]
Excess pressure:     -4.885498e+02 +/ 0.000000e+00 [bar]
Pressure:             1.325416e+01 +/ 0.000000e+00 [bar]

Total potential energy/kʙ  -3.177714e+05 (-3.059674e+05 +/- 0.000000e+00) [K]
-------------------------------------------------------------------------------
ExternalField-molecule
    Van der Waals/kʙ        0.000000e+00 ( 0.000000e+00 +/- 0.000000e+00) [K]
Framework-molecule
    Van der Waals/kʙ        0.000000e+00 ( 0.000000e+00 +/- 0.000000e+00) [K]
    Van der Waals (Tail)/kʙ 0.000000e+00 ( 0.000000e+00 +/- 0.000000e+00) [K]
    Coulombic Real/kʙ       0.000000e+00 ( 0.000000e+00 +/- 0.000000e+00) [K]
    Coulombic Fourier/kʙ    0.000000e+00 ( 0.000000e+00 +/- 0.000000e+00) [K]
Molecule-molecule
    Van der Waals/kʙ       -2.264694e+05 (-2.227502e+05 +/- 0.000000e+00) [K]
    Van der Waals (Tail)/kʙ-5.481173e+03 (-5.397751e+03 +/- 0.000000e+00) [K]
    Coulombic Real/kʙ      -7.841878e+04 (-7.100812e+04 +/- 0.000000e+00) [K]
    Coulombic Fourier/kʙ   -7.402019e+03 (-6.811366e+03 +/- 0.000000e+00) [K]
    Molecule Intra/kʙ       0.000000e+00 ( 0.000000e+00 +/- 0.000000e+00) [K]

Current cycle: 1900 out of 5000
===============================================================================

Box:      23.35607   0.00000   0.00000  Average:  23.94979   0.00000   0.00000
           0.00000  23.35607   0.00000             0.00000  23.94979   0.00000
           0.00000   0.00000  23.35607             0.00000   0.00000  23.94979
Lengths:  23.35607  23.35607  23.35607  Average:  23.94979  23.94979  23.94979
Angles:   90.00000  90.00000  90.00000  Average:  90.00000  90.00000  90.00000
Rectangular boundary conditions

net charge:   0.00000000

component 0 (CO2) lambda:  0 occupancy:  1 (1.000000)
    net charge:   0.00000000 [e]

Amount of molecules per component :
-------------------------------------------------------------------------------
Component 0 (CO2)
    molecules:      2.000000e+02 molecules  (2.000000e+02 +/- 0.000000e+00)
    number density: 1.569751e-02 molec./A^3 (1.456813e-02 +/- 0.000000e+00)
    density:        1.146887e+03 kg/m^3     (1.064372e+03 +/- 0.000000e+00)

Average pressure tensor: 
-------------------------------------------------------------------------------
 2.9802e+01  5.2826e+01 -1.6100e+01 +/- 0.0000e+00 0.0000e+00 0.0000e+00 [bar]
 5.2826e+01 -3.5063e+01 -4.4638e+01 +/- 0.0000e+00 0.0000e+00 0.0000e+00 [bar]
-1.6100e+01 -4.4638e+01  3.4470e+01 +/- 0.0000e+00 0.0000e+00 0.0000e+00 [bar]
Ideal-gas pressure:   5.028373e+02 +/ 0.000000e+00 [bar]
Excess pressure:     -4.931007e+02 +/ 0.000000e+00 [bar]
Pressure:             9.736591e+00 +/ 0.000000e+00 [bar]

Total potential energy/kʙ  -3.320582e+05 (-3.069280e+05 +/- 0.000000e+00) [K]
-------------------------------------------------------------------------------
ExternalField-molecule
    Van der Waals/kʙ        0.000000e+00 ( 0.000000e+00 +/- 0.000000e+00) [K]
Framework-molecule
    Van der Waals/kʙ        0.000000e+00 ( 0.000000e+00 +/- 0.000000e+00) [K]
    Van der Waals (Tail)/kʙ 0.000000e+00 ( 0.000000e+00 +/- 0.000000e+00) [K]
    Coulombic Real/kʙ       0.000000e+00 ( 0.000000e+00 +/- 0.000000e+00) [K]
    Coulombic Fourier/kʙ    0.000000e+00 ( 0.000000e+00 +/- 0.000000e+00) [K]
Molecule-molecule
    Van der Waals/kʙ       -2.447774e+05 (-2.233969e+05 +/- 0.000000e+00) [K]
    Van der Waals (Tail)/kʙ-5.830381e+03 (-5.409790e+03 +/- 0.000000e+00) [K]
    Coulombic Real/kʙ      -7.487290e+04 (-7.130387e+04 +/- 0.000000e+00) [K]
    Coulombic Fourier/kʙ   -6.577524e+03 (-6.817489e+03 +/- 0.000000e+00) [K]
    Molecule Intra/kʙ       0.000000e+00 ( 0.000000e+00 +/- 0.000000e+00) [K]

Current cycle: 2000 out of 5000
===============================================================================

Box:      23.63441   0.00000   0.00000  Average:  23.93176   0.00000   0.00000
           0.00000  23.63441   0.00000             0.00000  23.93176   0.00000
           0.00000   0.00000  23.63441             0.00000   0.00000  23.93176
Lengths:  23.63441  23.63441  23.63441  Average:  23.93176  23.93176  23.93176
Angles:   90.00000  90.00000  90.00000  Average:  90.00000  90.00000  90.00000
Rectangular boundary conditions

net charge:   0.00000000

component 0 (CO2) lambda:  0 occupancy:  1 (1.000000)
    net charge:   0.00000000 [e]

Amount of molecules per component :
-------------------------------------------------------------------------------
Component 0 (CO2)
    molecules:      2.000000e+02 molecules  (2.000000e+02 +/- 0.000000e+00)
    number density: 1.514941e-02 molec./A^3 (1.460165e-02 +/- 0.000000e+00)
    density:        1.106842e+03 kg/m^3     (1.066822e+03 +/- 0.000000e+00)

Average pressure tensor: 
-------------------------------------------------------------------------------
 4.6555e+01  3.9753e+01 -8.6845e+00 +/- 0.0000e+00 0.0000e+00 0.0000e+00 [bar]
 3.9753e+01 -3.3170e+01 -4.1423e+01 +/- 0.0000e+00 0.0000e+00 0.0000e+00 [bar]
-8.6845e+00 -4.1423e+01  3.5029e+01 +/- 0.0000e+00 0.0000e+00 0.0000e+00 [bar]
Ideal-gas pressure:   5.039943e+02 +/ 0.000000e+00 [bar]
Excess pressure:     -4.878564e+02 +/ 0.000000e+00 [bar]
Pressure:             1.613790e+01 +/ 0.000000e+00 [bar]

Total potential energy/kʙ  -3.219819e+05 (-3.076225e+05 +/- 0.000000e+00) [K]
-------------------------------------------------------------------------------
ExternalField-molecule
    Van der Waals/kʙ        0.000000e+00 ( 0.000000e+00 +/- 0.000000e+00) [K]
Framework-molecule
    Van der Waals/kʙ        0.000000e+00 ( 0.000000e+00 +/- 0.000000e+00) [K]
    Van der Waals (Tail)/kʙ 0.000000e+00 ( 0.000000e+00 +/- 0.000000e+00) [K]
    Coulombic Real/kʙ       0.000000e+00 ( 0.000000e+00 +/- 0.000000e+00) [K]
    Coulombic Fourier/kʙ    0.000000e+00 ( 0.000000e+00 +/- 0.000000e+00) [K]
Molecule-molecule
    Van der Waals/kʙ       -2.384130e+05 (-2.239203e+05 +/- 0.000000e+00) [K]
    Van der Waals (Tail)/kʙ-5.626806e+03 (-5.422001e+03 +/- 0.000000e+00) [K]
    Coulombic Real/kʙ      -7.087423e+04 (-7.145777e+04 +/- 0.000000e+00) [K]
    Coulombic Fourier/kʙ   -7.067858e+03 (-6.822430e+03 +/- 0.000000e+00) [K]
    Molecule Intra/kʙ       0.000000e+00 ( 0.000000e+00 +/- 0.000000e+00) [K]

Current cycle: 2100 out of 5000
===============================================================================

Box:      23.58551   0.00000   0.00000  Average:  23.91397   0.00000   0.00000
           0.00000  23.58551   0.00000             0.00000  23.91397   0.00000
           0.00000   0.00000  23.58551             0.00000   0.00000  23.91397
Lengths:  23.58551  23.58551  23.58551  Average:  23.91397  23.91397  23.91397
Angles:   90.00000  90.00000  90.00000  Average:  90.00000  90.00000  90.00000
Rectangular boundary conditions

net charge:   0.00000000

component 0 (CO2) lambda:  0 occupancy:  1 (1.000000)
    net charge:   0.00000000 [e]

Amount of molecules per component :
-------------------------------------------------------------------------------
Component 0 (CO2)
    molecules:      2.000000e+02 molecules  (2.000000e+02 +/- 0.000000e+00)
    number density: 1.524384e-02 molec./A^3 (1.463481e-02 +/- 0.000000e+00)
    density:        1.113741e+03 kg/m^3     (1.069245e+03 +/- 0.000000e+00)

Average pressure tensor: 
-------------------------------------------------------------------------------
 4.6643e+01  3.8432e+01 -3.3631e+00 +/- 0.0000e+00 0.0000e+00 0.0000e+00 [bar]
 3.8432e+01 -3.5846e+01 -3.8584e+01 +/- 0.0000e+00 0.0000e+00 0.0000e+00 [bar]
-3.3631e+00 -3.8584e+01  4.0178e+01 +/- 0.0000e+00 0.0000e+00 0.0000e+00 [bar]
Ideal-gas pressure:   5.051390e+02 +/ 0.000000e+00 [bar]
Excess pressure:     -4.881476e+02 +/ 0.000000e+00 [bar]
Pressure:             1.699145e+01 +/ 0.000000e+00 [bar]

Total potential energy/kʙ  -3.302441e+05 (-3.086118e+05 +/- 0.000000e+00) [K]
-------------------------------------------------------------------------------
ExternalField-molecule
    Van der Waals/kʙ        0.000000e+00 ( 0.000000e+00 +/- 0.000000e+00) [K]
Framework-molecule
    Van der Waals/kʙ        0.000000e+00 ( 0.000000e+00 +/- 0.000000e+00) [K]
    Van der Waals (Tail)/kʙ 0.000000e+00 ( 0.000000e+00 +/- 0.000000e+00) [K]
[...]
    Coulombic Fourier/kʙ    0.000000e+00 ( 0.000000e+00 +/- 0.000000e+00) [K]
Molecule-molecule
    Van der Waals/kʙ       -2.181484e+05 (-2.232026e+05 +/- 2.785956e+03) [K]
    Van der Waals (Tail)/kʙ-5.419493e+03 (-5.411359e+03 +/- 4.721485e+01) [K]
    Coulombic Real/kʙ      -7.294849e+04 (-7.234089e+04 +/- 1.781855e+03) [K]
    Coulombic Fourier/kʙ   -7.129709e+03 (-6.847843e+03 +/- 1.222276e+02) [K]
    Molecule Intra/kʙ       0.000000e+00 ( 0.000000e+00 +/- 0.000000e+00) [K]

Current cycle: 4700 out of 5000
===============================================================================

Box:      24.18942   0.00000   0.00000  Average:  23.95111   0.00000   0.00000
           0.00000  24.18942   0.00000             0.00000  23.95111   0.00000
           0.00000   0.00000  24.18942             0.00000   0.00000  23.95111
Lengths:  24.18942  24.18942  24.18942  Average:  23.95111  23.95111  23.95111
Angles:   90.00000  90.00000  90.00000  Average:  90.00000  90.00000  90.00000
Rectangular boundary conditions

net charge:   0.00000000

component 0 (CO2) lambda:  0 occupancy:  1 (1.000000)
    net charge:   0.00000000 [e]

Amount of molecules per component :
-------------------------------------------------------------------------------
Component 0 (CO2)
    molecules:      2.000000e+02 molecules  (2.000000e+02 +/- 0.000000e+00)
    number density: 1.413037e-02 molec./A^3 (1.456371e-02 +/- 1.481754e-04)
    density:        1.032389e+03 kg/m^3     (1.064049e+03 +/- 1.082595e+01)

Average pressure tensor: 
-------------------------------------------------------------------------------
 3.2329e+01  4.0549e+01  3.8445e+00 +/- 4.2907e+01 5.6494e+01 3.5676e+01 [bar]
 4.0549e+01  6.2374e+01 -2.6845e+01 +/- 5.6494e+01 1.5690e+02 7.4975e+01 [bar]
 3.8445e+00 -2.6845e+01  1.6866e+00 +/- 3.5676e+01 7.4975e+01 4.1757e+01 [bar]
Ideal-gas pressure:   5.026846e+02 +/ 5.114461e+00 [bar]
Excess pressure:     -4.705547e+02 +/ 4.974140e+01 [bar]
Pressure:             3.212992e+01 +/ 4.682569e+01 [bar]

Total potential energy/kʙ  -2.930850e+05 (-3.076786e+05 +/- 3.883631e+03) [K]
-------------------------------------------------------------------------------
ExternalField-molecule
    Van der Waals/kʙ        0.000000e+00 ( 0.000000e+00 +/- 0.000000e+00) [K]
Framework-molecule
    Van der Waals/kʙ        0.000000e+00 ( 0.000000e+00 +/- 0.000000e+00) [K]
    Van der Waals (Tail)/kʙ 0.000000e+00 ( 0.000000e+00 +/- 0.000000e+00) [K]
    Coulombic Real/kʙ       0.000000e+00 ( 0.000000e+00 +/- 0.000000e+00) [K]
    Coulombic Fourier/kʙ    0.000000e+00 ( 0.000000e+00 +/- 0.000000e+00) [K]
Molecule-molecule
    Van der Waals/kʙ       -2.194065e+05 (-2.230889e+05 +/- 2.904896e+03) [K]
    Van der Waals (Tail)/kʙ-5.248314e+03 (-5.409027e+03 +/- 5.041642e+01) [K]
    Coulombic Real/kʙ      -6.292083e+04 (-7.233302e+04 +/- 1.762728e+03) [K]
    Coulombic Fourier/kʙ   -5.509386e+03 (-6.847591e+03 +/- 1.191020e+02) [K]
    Molecule Intra/kʙ       0.000000e+00 ( 0.000000e+00 +/- 0.000000e+00) [K]

Current cycle: 4800 out of 5000
===============================================================================

Box:      24.34066   0.00000   0.00000  Average:  23.95884   0.00000   0.00000
           0.00000  24.34066   0.00000             0.00000  23.95884   0.00000
           0.00000   0.00000  24.34066             0.00000   0.00000  23.95884
Lengths:  24.34066  24.34066  24.34066  Average:  23.95884  23.95884  23.95884
Angles:   90.00000  90.00000  90.00000  Average:  90.00000  90.00000  90.00000
Rectangular boundary conditions

net charge:   0.00000000

component 0 (CO2) lambda:  0 occupancy:  1 (1.000000)
    net charge:   0.00000000 [e]

Amount of molecules per component :
-------------------------------------------------------------------------------
Component 0 (CO2)
    molecules:      2.000000e+02 molecules  (2.000000e+02 +/- 0.000000e+00)
    number density: 1.386860e-02 molec./A^3 (1.454993e-02 +/- 1.753114e-04)
    density:        1.013264e+03 kg/m^3     (1.063043e+03 +/- 1.280855e+01)

Average pressure tensor: 
-------------------------------------------------------------------------------
 3.1143e+01  4.0401e+01  2.5832e+00 +/- 4.2138e+01 5.1206e+01 3.6481e+01 [bar]
 4.0401e+01  5.8875e+01 -2.7037e+01 +/- 5.1206e+01 1.3745e+02 7.4810e+01 [bar]
 2.5832e+00 -2.7037e+01 -9.0822e-01 +/- 3.6481e+01 7.4810e+01 4.3094e+01 [bar]
Ideal-gas pressure:   5.022090e+02 +/ 6.051093e+00 [bar]
Excess pressure:     -4.725056e+02 +/ 3.853884e+01 [bar]
Pressure:             2.970340e+01 +/ 3.499979e+01 [bar]

Total potential energy/kʙ  -2.889404e+05 (-3.073956e+05 +/- 4.293023e+03) [K]
-------------------------------------------------------------------------------
ExternalField-molecule
    Van der Waals/kʙ        0.000000e+00 ( 0.000000e+00 +/- 0.000000e+00) [K]
Framework-molecule
    Van der Waals/kʙ        0.000000e+00 ( 0.000000e+00 +/- 0.000000e+00) [K]
    Van der Waals (Tail)/kʙ 0.000000e+00 ( 0.000000e+00 +/- 0.000000e+00) [K]
    Coulombic Real/kʙ       0.000000e+00 ( 0.000000e+00 +/- 0.000000e+00) [K]
    Coulombic Fourier/kʙ    0.000000e+00 ( 0.000000e+00 +/- 0.000000e+00) [K]
Molecule-molecule
    Van der Waals/kʙ       -2.065019e+05 (-2.228722e+05 +/- 3.282286e+03) [K]
    Van der Waals (Tail)/kʙ-5.151087e+03 (-5.403766e+03 +/- 6.084814e+01) [K]
    Coulombic Real/kʙ      -7.055120e+04 (-7.228267e+04 +/- 1.733237e+03) [K]
    Coulombic Fourier/kʙ   -6.736193e+03 (-6.837017e+03 +/- 1.346541e+02) [K]
    Molecule Intra/kʙ       0.000000e+00 ( 0.000000e+00 +/- 0.000000e+00) [K]

Current cycle: 4900 out of 5000
===============================================================================

Box:      24.16340   0.00000   0.00000  Average:  23.96469   0.00000   0.00000
           0.00000  24.16340   0.00000             0.00000  23.96469   0.00000
           0.00000   0.00000  24.16340             0.00000   0.00000  23.96469
Lengths:  24.16340  24.16340  24.16340  Average:  23.96469  23.96469  23.96469
Angles:   90.00000  90.00000  90.00000  Average:  90.00000  90.00000  90.00000
Rectangular boundary conditions

net charge:   0.00000000

component 0 (CO2) lambda:  0 occupancy:  1 (1.000000)
    net charge:   0.00000000 [e]

Amount of molecules per component :
-------------------------------------------------------------------------------
Component 0 (CO2)
    molecules:      2.000000e+02 molecules  (2.000000e+02 +/- 0.000000e+00)
    number density: 1.417607e-02 molec./A^3 (1.453940e-02 +/- 1.905624e-04)
    density:        1.035728e+03 kg/m^3     (1.062274e+03 +/- 1.392281e+01)

Average pressure tensor: 
-------------------------------------------------------------------------------
 3.5664e+01  3.9676e+01  1.1368e+00 +/- 4.5397e+01 4.5815e+01 3.7569e+01 [bar]
 3.9676e+01  6.0479e+01 -2.5431e+01 +/- 4.5815e+01 1.3415e+02 7.3983e+01 [bar]
 1.1368e+00 -2.5431e+01 -3.3669e-01 +/- 3.7569e+01 7.3983e+01 4.2475e+01 [bar]
Ideal-gas pressure:   5.018457e+02 +/ 6.577500e+00 [bar]
Excess pressure:     -4.699103e+02 +/ 4.270703e+01 [bar]
Pressure:             3.193541e+01 +/ 3.841065e+01 [bar]

Total potential energy/kʙ  -2.949583e+05 (-3.070831e+05 +/- 4.751417e+03) [K]
-------------------------------------------------------------------------------
ExternalField-molecule
    Van der Waals/kʙ        0.000000e+00 ( 0.000000e+00 +/- 0.000000e+00) [K]
Framework-molecule
    Van der Waals/kʙ        0.000000e+00 ( 0.000000e+00 +/- 0.000000e+00) [K]
    Van der Waals (Tail)/kʙ 0.000000e+00 ( 0.000000e+00 +/- 0.000000e+00) [K]
    Coulombic Real/kʙ       0.000000e+00 ( 0.000000e+00 +/- 0.000000e+00) [K]
    Coulombic Fourier/kʙ    0.000000e+00 ( 0.000000e+00 +/- 0.000000e+00) [K]
Molecule-molecule
    Van der Waals/kʙ       -2.150782e+05 (-2.226793e+05 +/- 3.554683e+03) [K]
    Van der Waals (Tail)/kʙ-5.265287e+03 (-5.400293e+03 +/- 6.563929e+01) [K]
    Coulombic Real/kʙ      -6.849782e+04 (-7.217571e+04 +/- 1.736776e+03) [K]
    Coulombic Fourier/kʙ   -6.117037e+03 (-6.827714e+03 +/- 1.478460e+02) [K]
    Molecule Intra/kʙ       0.000000e+00 ( 0.000000e+00 +/- 0.000000e+00) [K]


Energy statistics             |  Energy [K]   | Recomputed [K]|  Drift [K]    |
===============================================================================
Total potential energy/kʙ     | -2.829960e+05 | -2.829960e+05 |  6.158496e-10 |
    external field VDW/kʙ     |  0.000000e+00 |  0.000000e+00 |  0.000000e+00 |
    external field Real/kʙ    |  0.000000e+00 |  0.000000e+00 |  0.000000e+00 |
    framework-molecule VDW/kʙ |  0.000000e+00 |  0.000000e+00 |  0.000000e+00 |
    framework-molecule Real/kʙ|  0.000000e+00 |  0.000000e+00 |  0.000000e+00 |
    molecule-molecule VDW/kʙ  | -2.097916e+05 | -2.097916e+05 |  2.800311e-10 |
    molecule-molecule Real/kʙ | -6.173328e+04 | -6.173328e+04 |  3.150350e-10 |
    Van der Waals (Tail)/kʙ   | -5.140299e+03 | -5.140299e+03 |  0.000000e+00 |
    Ewald Fourier/kʙ          |  5.430293e+03 |  5.430293e+03 |  2.078356e-11 |
    Ewald self/kʙ             | -3.673356e+06 | -3.673356e+06 |  0.000000e+00 |
    Ewald exclusion/kʙ        |  3.661595e+06 |  3.661595e+06 |  0.000000e+00 |
    intra VDW/kʙ              |  0.000000e+00 |  0.000000e+00 |  0.000000e+00 |
    intra Coulombic/kʙ        |  0.000000e+00 |  0.000000e+00 |  0.000000e+00 |
    polarization/kʙ           |  0.000000e+00 |  0.000000e+00 |  0.000000e+00 |
    dU/dlambda VDW/kʙ         |  0.000000e+00 |  0.000000e+00 |  0.000000e+00 |
    dU/dlambda Real/kʙ        |  0.000000e+00 |  0.000000e+00 |  0.000000e+00 |
    dU/dlambda Ewald/kʙ       |  0.000000e+00 |  0.000000e+00 |  0.000000e+00 |
-------------------------------------------------------------------------------


Monte-Carlo moves statistics
===============================================================================

    Volume change        all:                6585
    Volume change        total:              6585
    Volume change        constructed:        6585
    Volume change        accepted:           3567
    Volume change        fraction:       0.541686
    Volume change        max-change:     0.025000

Component 0 [CO2]
    Reinsertion (CBMC)   all:              331138
    Reinsertion (CBMC)   total:            331138
    Reinsertion (CBMC)   constructed:      294735
    Reinsertion (CBMC)   accepted:           4886
    Reinsertion (CBMC)   fraction:       0.014755
    Reinsertion (CBMC)   max-change:     0.000000

    Translation          all:              330933
    Translation          total:            110676     109946     110311
    Translation          constructed:      110676     109640     110311
    Translation          accepted:          48324      35297      59375
    Translation          fraction:       0.436626   0.321039   0.538251
    Translation          max-change:     0.800000   1.181818   0.600000

    Rotation             all:              331344
    Rotation             total:            110315     110496     110533
    Rotation             constructed:      110280     110496     110533
    Rotation             accepted:          42512      48744      59717
    Rotation             fraction:       0.385369   0.441138   0.540264
    Rotation             max-change:     1.002558   0.836923   0.614035



Production run counting of the MC moves summed over systems and components
===============================================================================

Volume change                          6585 (0.6585 [%])
Reinsertion (CBMC)                   331138 (33.1138 [%])
Translation                          330933 (33.0933 [%])
Rotation                             331344 (33.1344 [%])

Production count MC-steps:          1000000 [-]
               All summed:          1000000 [-]
               difference:                0 [-]


Production run CPU timings of the MC moves
===============================================================================

Component 0 CO2

Rotation                             47.188895 [s]
    Ewald                            13.251897 [s]
    ExternalField-Molecule            0.013048 [s]
    Framework-Molecule                0.011198 [s]
    Molecule-Molecule                32.769590 [s]
    Overhead                          1.143162 [s]

Reinsertion (CBMC)                  222.889354 [s]
    Ewald                            11.933713 [s]
    NonEwald                        210.636417 [s]
    Overhead                          0.319224 [s]

Translation                          46.471616 [s]
    Ewald                            13.217254 [s]
    ExternalField-Molecule            0.010722 [s]
    Framework-Molecule                0.017795 [s]
    Molecule-Molecule                32.177084 [s]
    Overhead                          1.048761 [s]



Volume change                         46.375322 [s]
    Ewald                              9.625499 [s]
    NonEwald                          35.266951 [s]
    Tail                               1.258387 [s]

Property sampling                     0.283405 [s]
Energy/pressure sampling:             6.304720 [s]


Production run CPU timings of the MC moves summed over systems and components
===============================================================================


Translation                          46.471616 [s]
    Ewald                            13.217254 [s]
    ExternalField-Molecule            0.010722 [s]
    Framework-Molecule                0.017795 [s]
    Molecule-Molecule                32.177084 [s]
    Overhead                          1.048761 [s]

Rotation                             47.188895 [s]
    Ewald                            13.251897 [s]
    ExternalField-Molecule            0.013048 [s]
    Framework-Molecule                0.011198 [s]
    Molecule-Molecule                32.769590 [s]
    Overhead                          1.143162 [s]

Volume change                        46.375322 [s]
    Ewald                             9.625499 [s]
    NonEwald                         35.266951 [s]
    Tail                              1.258387 [s]
    Overhead                          0.224485 [s]

Reinsertion (CBMC)                  222.889354 [s]
    Ewald                            11.933713 [s]
    NonEwald                        210.636417 [s]
    Overhead                          0.319224 [s]

Property sampling:                    0.283405 [s]
Energy/pressure sampling:             6.304720 [s]

Production simulation time:         370.226874 [s]
                All summed:         369.513312 [s]
                  Overhead:           0.713562 [s]


Initalization simulation time:       70.263812 [s]
Equilibration simulation time:        0.000000 [s]
Production simulation time:         370.226874 [s]
Total simulation time:              440.490686 [s]


Energy averages and statistics:
===============================================================================

Framework-molecule energy:
-------------------------------------------------------------------------------



Framework-molecule energy contributions per energy type:
-------------------------------------------------------------------------------



Inter-molecular energy:
-------------------------------------------------------------------------------

    Inter-molecular energy/kʙ 0-0 [CO2-CO2]:
    ---------------------------------------------------------------------------
        Block[  0] -3.102872e+05
        Block[  1] -3.048142e+05
        Block[  2] -3.063529e+05
        Block[  3] -3.113648e+05
        Block[  4] -3.010591e+05
        -----------------------------------------------------------------------
        Average  -3.067756e+05 +/-  5.197010e+03 [K]



Inter-molecular energy contributions per energy type:
-------------------------------------------------------------------------------

    Van der Waals energy/kʙ 0-0 [CO2-CO2]:
    ---------------------------------------------------------------------------
        Block[  0] -2.250036e+05
        Block[  1] -2.226920e+05
        Block[  2] -2.217409e+05
        Block[  3] -2.253091e+05
        Block[  4] -2.177673e+05
        -----------------------------------------------------------------------
        Average  -2.225026e+05 +/-  3.784439e+03 [K]

    VDW Tail-Correction energy/kʙ 0-0 [CO2-CO2]:
    ---------------------------------------------------------------------------
        Block[  0] -5.443965e+03
        Block[  1] -5.397990e+03
        Block[  2] -5.384637e+03
        Block[  3] -5.448869e+03
        Block[  4] -5.306886e+03
        -----------------------------------------------------------------------
        Average  -5.396469e+03 +/-  7.123326e+01 [K]

    Coulomb Real energy/kʙ 0-0 [CO2-CO2]:
    ---------------------------------------------------------------------------
        Block[  0] -7.298231e+04
        Block[  1] -6.993907e+04
        Block[  2] -7.242558e+04
        Block[  3] -7.360358e+04
        Block[  4] -7.132719e+04
        -----------------------------------------------------------------------
        Average  -7.205555e+04 +/-  1.799287e+03 [K]

    Coulomb Fourier energy/kʙ 0-0 [CO2-CO2]:
    ---------------------------------------------------------------------------
        Block[  0] -6.857298e+03
        Block[  1] -6.785109e+03
        Block[  2] -6.801712e+03
        Block[  3] -7.003318e+03
        Block[  4] -6.657659e+03
        -----------------------------------------------------------------------
        Average  -6.821019e+03 +/-  1.556762e+02 [K]


Total energy/kʙ
-------------------------------------------------------------------------------
    Block[  0] -3.102872e+05
    Block[  1] -3.048142e+05
    Block[  2] -3.063529e+05
    Block[  3] -3.113648e+05
    Block[  4] -3.010591e+05
    ---------------------------------------------------------------------------
    Average  -3.067756e+05 +/-  5.197010e+03 [K]

Pressure averages and statistics:
===============================================================================

Average pressure tensor: 
-------------------------------------------------------------------------------
 3.9033e+01  3.8421e+01 -5.4737e-01 +/- 4.8987e+01 4.0568e+01 3.8996e+01 [bar]
 3.8421e+01  5.3347e+01 -2.5264e+01 +/- 4.0568e+01 1.1629e+02 7.3891e+01 [bar]
-5.4737e-01 -2.5264e+01  5.6376e-01 +/- 3.8996e+01 7.3891e+01 4.1979e+01 [bar]

    Block[  0]  5.061218e+07
    Block[  1]  5.018480e+07
    Block[  2]  5.005401e+07
    Block[  3]  5.064634e+07
    Block[  4]  4.923340e+07
    ---------------------------------------------------------------------------
    Ideal gas pressure   5.014615e+07 +/-  4.279256e-02 [Pa]
                         5.014615e+02 +/-  7.105877e+00 [bar]


    Block[  0] -4.755227e+07
    Block[  1] -4.995196e+07
    Block[  2] -4.869687e+07
    Block[  3] -4.711830e+07
    Block[  4] -4.192073e+07
    ---------------------------------------------------------------------------
    Excess pressure  -4.704803e+07 +/-  3.811309e+06 [Pa]
                     -4.704803e+02 +/-  3.811309e+01 [bar]


    Block[  0]  3.059909e+06
    Block[  1]  2.328397e+05
    Block[  2]  1.357137e+06
    Block[  3]  3.528037e+06
    Block[  4]  7.312666e+06
    ---------------------------------------------------------------------------
    Pressure average   3.098118e+06 +/-  3.353653e+06 [Pa]
                       3.098118e+01 +/-  3.353653e+01 [bar]


Enthalpy of adsorption
===============================================================================

No fluctuating components present.


Densities
===============================================================================

Component 0 (CO2)
    Block[  0] 200
    Block[  1] 200
    Block[  2] 200
    Block[  3] 200
    Block[  4] 200
    -----------------------------------------------------------------------
    Density average   2.000000e+02 +/-  0.000000e+00 [molecules]
    Density average   1.452827e-02 +/-  2.058704e-04 [molec/A^3]
    Density average   1.061460e+03 +/-  1.504125e+01 [kg.m⁻³]

