Compiler and run-time data
===============================================================================
RASPA 3.0.4

Random seed: 1725996789

Compiled as a 64-bits application
Compiler: gcc Clang 18.1.8
Compile Date = Mar 15 2025, Compile Time = 19:38:51

2025-06-03 14:49:53.626710
Simulation started on Tue, Jun 03
The start time was 14:49:00

Hostname:    1NNMVV3
OS type:     Linux on x86_64
OS release:  5.15.167.4-microsoft-standard-WSL2
OS version:  #1 SMP Tue Nov 5 00:21:55 UTC 2024


Mutual consistent basic set of units:
===============================================================================

Unit of temperature: 1 [K]
Unit of length:      1e-10 [m]
Unit of time:        1e-12 [s]
Unit of mass:        1.6605402e-27 [kg]
Unit of charge:      1.60217733e-19 [C/particle]


Boltzmann constant (internal units):          0.8314464919307584 [-]
represents conversion from energy (internal units) to temperature (in Kelvin)

Derived units and their conversion factors:
===============================================================================

Unit of energy:                           1.6605402000000002e-23 [J]
Unit of energy:                           10.000008872307538 [J.mol⁻¹]
Unit of velocity:                         100 [m.s⁻¹]
Unit of force:                            1.6605402000000002e-13 [N]
Unit of diffusion:                        1.0000000000000002e-08 [m².s⁻¹]
Unit of acceleration:                     1.0000000000000002e-08 [m².s⁻¹]
Unit of torque:                           1.6605402000000002e-23 [N.m]
Unit of pressure:                         16605402 [Pa]
Unit of volume:                           1e-30 [m³]
Unit of density:                          1660.5402 [kg.m⁻³]
Unit of dynamic viscosity:                1.6605401999999997e-05 [N.s.m⁻²]
Unit of enthalpy:                         1.6605402000000002e-23 [J]
Unit of polarizability:                   1.5458657349975198e-35 [-]
Unit of Coulomb potential:                167101.08000665612 [K]
Unit of dielectric constant:              1.5458657349975193e-05 [s².C².kg⁻¹.m⁻³]
Unit of dipole moment:                    1.60217733e-29 [C.m]
Unit of Debye:                            4.803206799099162 [C.m]
Unit of electric potential:               0.00010364272224473431 [V]
Unit of electric field:                   1036427.222447343 [V.m⁻¹]
Unit of isothermal compressibility:       6.02213665167516e-08 [Pa⁻¹]
Unit of heat capacity:                    10.000008872307538 [J.mol⁻¹.K⁻¹]
Unit of volumetric expansion coefficient: 1 [K⁻¹]


Internal conversion factors:
===============================================================================

Energy (internal units) to Kelvin:      1.202724284692786 [-]
Kelvin to energy (internal units):      0.8314457542157567 [-]


System definitions
===============================================================================

Temperature:          250 [K]
Beta:                 0.0048108928702210625 [-]
Pressure:             2e+07 [Pa]
Helium void fraction: 1 [-]

Box:      30.00000   0.00000   0.00000
           0.00000  30.00000   0.00000
           0.00000   0.00000  30.00000
Lengths:  30.00000  30.00000  30.00000
Angles:   90.00000  90.00000  90.00000
Rectangular boundary conditions



Property measurement settings
===============================================================================




Pseudo-atoms
===============================================================================

  0 - C_co2    framework-atom: false
  1 - O_co2    framework-atom: false

  0 - C_co2    mass: 12.00000, charge:  0.70000
  1 - O_co2    mass: 15.99940, charge: -0.35000

  0 - C_co2    polarizability:  0.00000
  1 - O_co2    polarizability:  0.00000

  0 - J. J. Potoff et al., AIChE J. 2001, 47, 1676–1682.
  1 - J. J. Potoff et al., AIChE J. 2001, 47, 1676–1682.

Force field status
===============================================================================

Cutoff Framework-Molecule VDW:  11.00000 [Å]
Cutoff Molecule-Molecule VDW:   11.00000 [Å]
Cutoff Coulomb:                 11.00000 [Å]

Overlap-criteria VDW:           1.000000e+05 [K]

C_co2    - C_co2    Lennard-Jones p₀/kʙ:  27.00000 [K], p₁:  2.80000 [Å]
                                  shift:   0.00000 [K], tailcorrections: true
C_co2    - O_co2    Lennard-Jones p₀/kʙ:  46.18441 [K], p₁:  2.92500 [Å]
                                  shift:   0.00000 [K], tailcorrections: true
O_co2    - O_co2    Lennard-Jones p₀/kʙ:  79.00000 [K], p₁:  3.05000 [Å]
                                  shift:   0.00000 [K], tailcorrections: true

Ewald precision: 1e-06
Ewald alpha: 0.2903408740940883
Ewald k-vectors: 9 9 9


Component definitions
===============================================================================

Component 0 [CO2]

    Type: Adsorbate

    Critical temperature:  304.1282 [K]
    Critical pressure:     7377300 [Pa]
    Acentric factor:       0.22394 [-]

    Mol-fraction:                 1 [-]
    Swappable:                   false

    Mass:                         43.9988 [-]
    Bulk fluid density:           0 [-]
    Compressibility:              0 [-]
    Excess molecules:             0 [-]

    Number Of Atoms:    3
    CBMC starting bead: 0
      0: O_co2  position  0.00000 -0.00000  1.16000, charge -0.35000
      1: C_co2  position  0.00000 -0.00000  0.00000, charge  0.70000
      2: O_co2  position  0.00000 -0.00000 -1.16000, charge -0.35000
    Diagonalized inertia-vector:      43.05758528 43.05758528 0.00000000
    Translational degrees of freedom: 3
    Rotational degrees of freedom:    2
    Shape of the molecule is: 'Linear'
    Net-charge:        0.00000000 [e]

    Move probabilities:
    Translation:                   0.331126 [-]
    Random translation:            0.000000 [-]
    Rotation:                      0.331126 [-]
    Random rotation:               0.000000 [-]
    Volume change:                 0.006623 [-]
    Reinsertion (CBMC):            0.331126 [-]
    Identity change (CBMC):        0.000000 [-]
    Swap:                          0.000000 [-]
    Swap (CBMC):                   0.000000 [-]
    Swap (CFCMC):                  0.000000 [-]
    Swap (CB/CFCMC):               0.000000 [-]
    Gibbs volume:                  0.000000 [-]
    Gibbs swap (CBMC):             0.000000 [-]
    Gibbs swap (CFCMC):            0.000000 [-]
    Widom:                         0.000000 [-]
    Widom (CFCMC):                 0.000000 [-]
    Widom (CB/CFCMC):              0.000000 [-]
    Parallel tempering:            0.000000 [-]
    Hybrid MC:                     0.000000 [-]

    number of blocking-pockets: 0

    number of bonds: 0





Number of pseudo-atoms
===============================================================================

Component   0 (CO2)
-------------------------------------------------------------------------------
    index   0 (C_co2): 200 atoms
    index   1 (O_co2): 400 atoms

Total number of pseudo-atoms:
-------------------------------------------------------------------------------
    index   0 (C_co2): 200 atoms
    index   1 (O_co2): 400 atoms




Energy status Recomputed from scratch
===============================================================================

Total potential energy/kʙ       -9.294310e+04 [K]
    external field VDW/kʙ        0.000000e+00 [K]
    external field Real/kʙ       0.000000e+00 [K]
    framework-molecule VDW/kʙ    0.000000e+00 [K]
    framework-molecule Real/kʙ   0.000000e+00 [K]
    molecule-molecule VDW/kʙ    -7.299079e+04 [K]
    molecule-molecule Real/kʙ   -1.449143e+04 [K]
    Van der Waals (Tail)/kʙ     -3.571688e+03 [K]
    Ewald Fourier/kʙ             1.626391e+04 [K]
    Ewald self/kʙ               -4.023739e+06 [K]
    Ewald exclusion/kʙ           4.005586e+06 [K]
    intra VDW/kʙ                 0.000000e+00 [K]
    intra Coulombic/kʙ           0.000000e+00 [K]
    polarization/kʙ              0.000000e+00 [K]
    dU/dlambda VDW/kʙ            0.000000e+00 [K]
    dU/dlambda Real/kʙ           0.000000e+00 [K]
    dU/dlambda Ewald/kʙ          0.000000e+00 [K]





Initialization: Current cycle: 0 out of 1000
===============================================================================

Box:      30.65095   0.00000   0.00000
           0.00000  30.65095   0.00000
           0.00000   0.00000  30.65095
Lengths:  30.65095  30.65095  30.65095
Angles:   90.00000  90.00000  90.00000
Rectangular boundary conditions

net charge:   0.00000000

component   0 (CO2) lambda:  0 occupancy:  1 (1.000000)
    net charge:   0.00000000 [e]

Amount of molecules per component :
-------------------------------------------------------------------------------
Component 0 (CO2)
    molecules:         2.000000e+02 molecules
    number density:    6.945417e-03 molec/A^3
    density:           5.074441e+02 kg/m^3

Total potential energy/kʙ       -1.044622e+05 [K]
-------------------------------------------------------------------------------
    external field VDW/kʙ        0.000000e+00 [K]
    external field Real/kʙ       0.000000e+00 [K]
    framework-molecule VDW/kʙ    0.000000e+00 [K]
    framework-molecule Real/kʙ   0.000000e+00 [K]
    molecule-molecule VDW/kʙ    -8.129778e+04 [K]
    molecule-molecule Real/kʙ   -1.686410e+04 [K]
    Van der Waals (Tail)/kʙ     -3.348927e+03 [K]
    Ewald Fourier/kʙ             1.520169e+04 [K]
    Ewald self/kʙ               -4.023739e+06 [K]
    Ewald exclusion/kʙ           4.005586e+06 [K]
    intra VDW/kʙ                 0.000000e+00 [K]
    intra Coulombic/kʙ           0.000000e+00 [K]
    polarization/kʙ              0.000000e+00 [K]
    dU/dlambda VDW/kʙ            0.000000e+00 [K]
    dU/dlambda Real/kʙ           0.000000e+00 [K]
    dU/dlambda Ewald/kʙ          0.000000e+00 [K]


Initialization: Current cycle: 100 out of 1000
===============================================================================

Box:      26.36193   0.00000   0.00000
           0.00000  26.36193   0.00000
           0.00000   0.00000  26.36193
Lengths:  26.36193  26.36193  26.36193
Angles:   90.00000  90.00000  90.00000
Rectangular boundary conditions

net charge:   0.00000000

component   0 (CO2) lambda:  0 occupancy:  1 (1.000000)
    net charge:   0.00000000 [e]

Amount of molecules per component :
-------------------------------------------------------------------------------
Component 0 (CO2)
    molecules:         2.000000e+02 molecules
    number density:    1.091688e-02 molec/A^3
    density:           7.976057e+02 kg/m^3

Total potential energy/kʙ       -2.282578e+05 [K]
-------------------------------------------------------------------------------
    external field VDW/kʙ        0.000000e+00 [K]
    external field Real/kʙ       0.000000e+00 [K]
    framework-molecule VDW/kʙ    0.000000e+00 [K]
    framework-molecule Real/kʙ   0.000000e+00 [K]
    molecule-molecule VDW/kʙ    -1.712290e+05 [K]
    molecule-molecule Real/kʙ   -4.482706e+04 [K]
    Van der Waals (Tail)/kʙ     -5.263877e+03 [K]
    Ewald Fourier/kʙ             1.121526e+04 [K]
    Ewald self/kʙ               -4.023739e+06 [K]
    Ewald exclusion/kʙ           4.005586e+06 [K]
    intra VDW/kʙ                 0.000000e+00 [K]
    intra Coulombic/kʙ           0.000000e+00 [K]
    polarization/kʙ              0.000000e+00 [K]
    dU/dlambda VDW/kʙ            0.000000e+00 [K]
    dU/dlambda Real/kʙ           0.000000e+00 [K]
    dU/dlambda Ewald/kʙ          0.000000e+00 [K]


Initialization: Current cycle: 200 out of 1000
===============================================================================

Box:      24.94226   0.00000   0.00000
           0.00000  24.94226   0.00000
           0.00000   0.00000  24.94226
Lengths:  24.94226  24.94226  24.94226
Angles:   90.00000  90.00000  90.00000
Rectangular boundary conditions

net charge:   0.00000000

component   0 (CO2) lambda:  0 occupancy:  1 (1.000000)
    net charge:   0.00000000 [e]

Amount of molecules per component :
-------------------------------------------------------------------------------
Component 0 (CO2)
    molecules:         2.000000e+02 molecules
    number density:    1.288910e-02 molec/A^3
    density:           9.416995e+02 kg/m^3

Total potential energy/kʙ       -2.615177e+05 [K]
-------------------------------------------------------------------------------
    external field VDW/kʙ        0.000000e+00 [K]
    external field Real/kʙ       0.000000e+00 [K]
    framework-molecule VDW/kʙ    0.000000e+00 [K]
    framework-molecule Real/kʙ   0.000000e+00 [K]
    molecule-molecule VDW/kʙ    -1.942113e+05 [K]
    molecule-molecule Real/kʙ   -5.203212e+04 [K]
    Van der Waals (Tail)/kʙ     -6.214838e+03 [K]
    Ewald Fourier/kʙ             9.093631e+03 [K]
    Ewald self/kʙ               -4.023739e+06 [K]
    Ewald exclusion/kʙ           4.005586e+06 [K]
    intra VDW/kʙ                 0.000000e+00 [K]
    intra Coulombic/kʙ           0.000000e+00 [K]
    polarization/kʙ              0.000000e+00 [K]
    dU/dlambda VDW/kʙ            0.000000e+00 [K]
    dU/dlambda Real/kʙ           0.000000e+00 [K]
    dU/dlambda Ewald/kʙ          0.000000e+00 [K]


Initialization: Current cycle: 300 out of 1000
===============================================================================

Box:      24.48688   0.00000   0.00000
           0.00000  24.48688   0.00000
           0.00000   0.00000  24.48688
Lengths:  24.48688  24.48688  24.48688
Angles:   90.00000  90.00000  90.00000
Rectangular boundary conditions

net charge:   0.00000000

component   0 (CO2) lambda:  0 occupancy:  1 (1.000000)
    net charge:   0.00000000 [e]

Amount of molecules per component :
-------------------------------------------------------------------------------
Component 0 (CO2)
    molecules:         2.000000e+02 molecules
    number density:    1.362164e-02 molec/A^3
    density:           9.952206e+02 kg/m^3

Total potential energy/kʙ       -2.874617e+05 [K]
-------------------------------------------------------------------------------
    external field VDW/kʙ        0.000000e+00 [K]
    external field Real/kʙ       0.000000e+00 [K]
    framework-molecule VDW/kʙ    0.000000e+00 [K]
    framework-molecule Real/kʙ   0.000000e+00 [K]
    molecule-molecule VDW/kʙ    -2.060857e+05 [K]
    molecule-molecule Real/kʙ   -6.528519e+04 [K]
    Van der Waals (Tail)/kʙ     -6.568055e+03 [K]
    Ewald Fourier/kʙ             8.630250e+03 [K]
    Ewald self/kʙ               -4.023739e+06 [K]
    Ewald exclusion/kʙ           4.005586e+06 [K]
    intra VDW/kʙ                 0.000000e+00 [K]
    intra Coulombic/kʙ           0.000000e+00 [K]
    polarization/kʙ              0.000000e+00 [K]
    dU/dlambda VDW/kʙ            0.000000e+00 [K]
    dU/dlambda Real/kʙ           0.000000e+00 [K]
    dU/dlambda Ewald/kʙ          0.000000e+00 [K]


Initialization: Current cycle: 400 out of 1000
===============================================================================

Box:      24.20443   0.00000   0.00000
           0.00000  24.20443   0.00000
           0.00000   0.00000  24.20443
Lengths:  24.20443  24.20443  24.20443
Angles:   90.00000  90.00000  90.00000
Rectangular boundary conditions

net charge:   0.00000000

component   0 (CO2) lambda:  0 occupancy:  1 (1.000000)
    net charge:   0.00000000 [e]

Amount of molecules per component :
-------------------------------------------------------------------------------
Component 0 (CO2)
    molecules:         2.000000e+02 molecules
    number density:    1.410410e-02 molec/A^3
    density:           1.030470e+03 kg/m^3

Total potential energy/kʙ       -3.016850e+05 [K]
-------------------------------------------------------------------------------
    external field VDW/kʙ        0.000000e+00 [K]
    external field Real/kʙ       0.000000e+00 [K]
    framework-molecule VDW/kʙ    0.000000e+00 [K]
    framework-molecule Real/kʙ   0.000000e+00 [K]
    molecule-molecule VDW/kʙ    -2.172221e+05 [K]
    molecule-molecule Real/kʙ   -6.745731e+04 [K]
    Van der Waals (Tail)/kʙ     -6.800688e+03 [K]
    Ewald Fourier/kʙ             7.948137e+03 [K]
    Ewald self/kʙ               -4.023739e+06 [K]
    Ewald exclusion/kʙ           4.005586e+06 [K]
    intra VDW/kʙ                 0.000000e+00 [K]
    intra Coulombic/kʙ           0.000000e+00 [K]
    polarization/kʙ              0.000000e+00 [K]
    dU/dlambda VDW/kʙ            0.000000e+00 [K]
    dU/dlambda Real/kʙ           0.000000e+00 [K]
    dU/dlambda Ewald/kʙ          0.000000e+00 [K]


Initialization: Current cycle: 500 out of 1000
===============================================================================

Box:      24.35501   0.00000   0.00000
           0.00000  24.35501   0.00000
           0.00000   0.00000  24.35501
Lengths:  24.35501  24.35501  24.35501
Angles:   90.00000  90.00000  90.00000
Rectangular boundary conditions

net charge:   0.00000000

component   0 (CO2) lambda:  0 occupancy:  1 (1.000000)
    net charge:   0.00000000 [e]

Amount of molecules per component :
-------------------------------------------------------------------------------
Component 0 (CO2)
    molecules:         2.000000e+02 molecules
    number density:    1.384411e-02 molec/A^3
    density:           1.011474e+03 kg/m^3

Total potential energy/kʙ       -2.945401e+05 [K]
-------------------------------------------------------------------------------
    external field VDW/kʙ        0.000000e+00 [K]
    external field Real/kʙ       0.000000e+00 [K]
    framework-molecule VDW/kʙ    0.000000e+00 [K]
    framework-molecule Real/kʙ   0.000000e+00 [K]
    molecule-molecule VDW/kʙ    -2.082617e+05 [K]
    molecule-molecule Real/kʙ   -6.888725e+04 [K]
    Van der Waals (Tail)/kʙ     -6.675325e+03 [K]
    Ewald Fourier/kʙ             7.437196e+03 [K]
    Ewald self/kʙ               -4.023739e+06 [K]
    Ewald exclusion/kʙ           4.005586e+06 [K]
    intra VDW/kʙ                 0.000000e+00 [K]
    intra Coulombic/kʙ           0.000000e+00 [K]
    polarization/kʙ              0.000000e+00 [K]
    dU/dlambda VDW/kʙ            0.000000e+00 [K]
    dU/dlambda Real/kʙ           0.000000e+00 [K]
    dU/dlambda Ewald/kʙ          0.000000e+00 [K]


Initialization: Current cycle: 600 out of 1000
===============================================================================

Box:      24.08629   0.00000   0.00000
           0.00000  24.08629   0.00000
           0.00000   0.00000  24.08629
Lengths:  24.08629  24.08629  24.08629
Angles:   90.00000  90.00000  90.00000
Rectangular boundary conditions

net charge:   0.00000000

component   0 (CO2) lambda:  0 occupancy:  1 (1.000000)
    net charge:   0.00000000 [e]

Amount of molecules per component :
-------------------------------------------------------------------------------
Component 0 (CO2)
    molecules:         2.000000e+02 molecules
    number density:    1.431266e-02 molec/A^3
    density:           1.045707e+03 kg/m^3

Total potential energy/kʙ       -2.904133e+05 [K]
-------------------------------------------------------------------------------
    external field VDW/kʙ        0.000000e+00 [K]
    external field Real/kʙ       0.000000e+00 [K]
    framework-molecule VDW/kʙ    0.000000e+00 [K]
    framework-molecule Real/kʙ   0.000000e+00 [K]
    molecule-molecule VDW/kʙ    -2.172150e+05 [K]
    molecule-molecule Real/kʙ   -5.618094e+04 [K]
    Van der Waals (Tail)/kʙ     -6.901248e+03 [K]
    Ewald Fourier/kʙ             8.036955e+03 [K]
    Ewald self/kʙ               -4.023739e+06 [K]
    Ewald exclusion/kʙ           4.005586e+06 [K]
    intra VDW/kʙ                 0.000000e+00 [K]
    intra Coulombic/kʙ           0.000000e+00 [K]
    polarization/kʙ              0.000000e+00 [K]
    dU/dlambda VDW/kʙ            0.000000e+00 [K]
    dU/dlambda Real/kʙ           0.000000e+00 [K]
    dU/dlambda Ewald/kʙ          0.000000e+00 [K]


Initialization: Current cycle: 700 out of 1000
===============================================================================

Box:      24.09970   0.00000   0.00000
           0.00000  24.09970   0.00000
           0.00000   0.00000  24.09970
Lengths:  24.09970  24.09970  24.09970
Angles:   90.00000  90.00000  90.00000
Rectangular boundary conditions

net charge:   0.00000000

component   0 (CO2) lambda:  0 occupancy:  1 (1.000000)
    net charge:   0.00000000 [e]

Amount of molecules per component :
-------------------------------------------------------------------------------
Component 0 (CO2)
    molecules:         2.000000e+02 molecules
    number density:    1.428877e-02 molec/A^3
    density:           1.043962e+03 kg/m^3

Total potential energy/kʙ       -2.955790e+05 [K]
-------------------------------------------------------------------------------
    external field VDW/kʙ        0.000000e+00 [K]
    external field Real/kʙ       0.000000e+00 [K]
    framework-molecule VDW/kʙ    0.000000e+00 [K]
    framework-molecule Real/kʙ   0.000000e+00 [K]
    molecule-molecule VDW/kʙ    -2.185470e+05 [K]
    molecule-molecule Real/kʙ   -6.049251e+04 [K]
    Van der Waals (Tail)/kʙ     -6.889730e+03 [K]
    Ewald Fourier/kʙ             8.503326e+03 [K]
    Ewald self/kʙ               -4.023739e+06 [K]
    Ewald exclusion/kʙ           4.005586e+06 [K]
    intra VDW/kʙ                 0.000000e+00 [K]
    intra Coulombic/kʙ           0.000000e+00 [K]
    polarization/kʙ              0.000000e+00 [K]
    dU/dlambda VDW/kʙ            0.000000e+00 [K]
    dU/dlambda Real/kʙ           0.000000e+00 [K]
    dU/dlambda Ewald/kʙ          0.000000e+00 [K]


Initialization: Current cycle: 800 out of 1000
===============================================================================

Box:      24.04511   0.00000   0.00000
           0.00000  24.04511   0.00000
           0.00000   0.00000  24.04511
Lengths:  24.04511  24.04511  24.04511
Angles:   90.00000  90.00000  90.00000
Rectangular boundary conditions

net charge:   0.00000000

component   0 (CO2) lambda:  0 occupancy:  1 (1.000000)
    net charge:   0.00000000 [e]

Amount of molecules per component :
-------------------------------------------------------------------------------
Component 0 (CO2)
    molecules:         2.000000e+02 molecules
    number density:    1.438631e-02 molec/A^3
    density:           1.051089e+03 kg/m^3

Total potential energy/kʙ       -3.031729e+05 [K]
-------------------------------------------------------------------------------
    external field VDW/kʙ        0.000000e+00 [K]
    external field Real/kʙ       0.000000e+00 [K]
    framework-molecule VDW/kʙ    0.000000e+00 [K]
    framework-molecule Real/kʙ   0.000000e+00 [K]
    molecule-molecule VDW/kʙ    -2.229329e+05 [K]
    molecule-molecule Real/kʙ   -6.376095e+04 [K]
    Van der Waals (Tail)/kʙ     -6.936762e+03 [K]
    Ewald Fourier/kʙ             8.610786e+03 [K]
    Ewald self/kʙ               -4.023739e+06 [K]
    Ewald exclusion/kʙ           4.005586e+06 [K]
    intra VDW/kʙ                 0.000000e+00 [K]
    intra Coulombic/kʙ           0.000000e+00 [K]
    polarization/kʙ              0.000000e+00 [K]
    dU/dlambda VDW/kʙ            0.000000e+00 [K]
    dU/dlambda Real/kʙ           0.000000e+00 [K]
    dU/dlambda Ewald/kʙ          0.000000e+00 [K]


Initialization: Current cycle: 900 out of 1000
===============================================================================

Box:      23.83879   0.00000   0.00000
           0.00000  23.83879   0.00000
           0.00000   0.00000  23.83879
Lengths:  23.83879  23.83879  23.83879
Angles:   90.00000  90.00000  90.00000
Rectangular boundary conditions

net charge:   0.00000000

component   0 (CO2) lambda:  0 occupancy:  1 (1.000000)
    net charge:   0.00000000 [e]

Amount of molecules per component :
-------------------------------------------------------------------------------
Component 0 (CO2)
    molecules:         2.000000e+02 molecules
    number density:    1.476309e-02 molec/A^3
    density:           1.078617e+03 kg/m^3

Total potential energy/kʙ       -3.092231e+05 [K]
-------------------------------------------------------------------------------
    external field VDW/kʙ        0.000000e+00 [K]
    external field Real/kʙ       0.000000e+00 [K]
    framework-molecule VDW/kʙ    0.000000e+00 [K]
    framework-molecule Real/kʙ   0.000000e+00 [K]
    molecule-molecule VDW/kʙ    -2.242107e+05 [K]
    molecule-molecule Real/kʙ   -6.750810e+04 [K]
    Van der Waals (Tail)/kʙ     -7.118438e+03 [K]
    Ewald Fourier/kʙ             7.767185e+03 [K]
    Ewald self/kʙ               -4.023739e+06 [K]
    Ewald exclusion/kʙ           4.005586e+06 [K]
    intra VDW/kʙ                 0.000000e+00 [K]
    intra Coulombic/kʙ           0.000000e+00 [K]
    polarization/kʙ              0.000000e+00 [K]
    dU/dlambda VDW/kʙ            0.000000e+00 [K]
    dU/dlambda Real/kʙ           0.000000e+00 [K]
    dU/dlambda Ewald/kʙ          0.000000e+00 [K]


Current cycle: 0 out of 5000
===============================================================================

Box:      23.73250   0.00000   0.00000  Average:  23.73250   0.00000   0.00000
           0.00000  23.73250   0.00000             0.00000  23.73250   0.00000
           0.00000   0.00000  23.73250             0.00000   0.00000  23.73250
Lengths:  23.73250  23.73250  23.73250  Average:  23.73250  23.73250  23.73250
Angles:   90.00000  90.00000  90.00000  Average:  90.00000  90.00000  90.00000
Rectangular boundary conditions

net charge:   0.00000000

component 0 (CO2) lambda:  0 occupancy:  1 (1.000000)
    net charge:   0.00000000 [e]

Amount of molecules per component :
-------------------------------------------------------------------------------
Component 0 (CO2)
    molecules:      2.000000e+02 molecules  (2.000000e+02 +/- 0.000000e+00)
    number density: 1.496233e-02 molec./A^3 (1.496233e-02 +/- 0.000000e+00)
    density:        1.093174e+03 kg/m^3     (1.093174e+03 +/- 0.000000e+00)

Average pressure tensor: 
-------------------------------------------------------------------------------
 5.1644e+02  0.0000e+00  0.0000e+00 +/- 0.0000e+00 0.0000e+00 0.0000e+00 [bar]
 0.0000e+00  5.1644e+02  0.0000e+00 +/- 0.0000e+00 0.0000e+00 0.0000e+00 [bar]
 0.0000e+00  0.0000e+00  5.1644e+02 +/- 0.0000e+00 0.0000e+00 0.0000e+00 [bar]
Ideal-gas pressure:   5.164437e+02 +/ 0.000000e+00 [bar]
Excess pressure:      0.000000e+00 +/ 0.000000e+00 [bar]
Pressure:             5.164437e+02 +/ 0.000000e+00 [bar]

Total potential energy/kʙ  -3.110678e+05 (-3.110678e+05 +/- 0.000000e+00) [K]
-------------------------------------------------------------------------------
ExternalField-molecule
    Van der Waals/kʙ        0.000000e+00 ( 0.000000e+00 +/- 0.000000e+00) [K]
Framework-molecule
    Van der Waals/kʙ        0.000000e+00 ( 0.000000e+00 +/- 0.000000e+00) [K]
    Van der Waals (Tail)/kʙ 0.000000e+00 ( 0.000000e+00 +/- 0.000000e+00) [K]
    Coulombic Real/kʙ       0.000000e+00 ( 0.000000e+00 +/- 0.000000e+00) [K]
    Coulombic Fourier/kʙ    0.000000e+00 ( 0.000000e+00 +/- 0.000000e+00) [K]
Molecule-molecule
    Van der Waals/kʙ       -2.263752e+05 (-2.263752e+05 +/- 0.000000e+00) [K]
    Van der Waals (Tail)/kʙ-7.214506e+03 (-7.214506e+03 +/- 0.000000e+00) [K]
    Coulombic Real/kʙ      -6.793494e+04 (-6.793494e+04 +/- 0.000000e+00) [K]
    Coulombic Fourier/kʙ   -9.543130e+03 (-9.543130e+03 +/- 0.000000e+00) [K]
    Molecule Intra/kʙ       0.000000e+00 ( 0.000000e+00 +/- 0.000000e+00) [K]

Current cycle: 100 out of 5000
===============================================================================

Box:      24.11601   0.00000   0.00000  Average:  23.87510   0.00000   0.00000
           0.00000  24.11601   0.00000             0.00000  23.87510   0.00000
           0.00000   0.00000  24.11601             0.00000   0.00000  23.87510
Lengths:  24.11601  24.11601  24.11601  Average:  23.87510  23.87510  23.87510
Angles:   90.00000  90.00000  90.00000  Average:  90.00000  90.00000  90.00000
Rectangular boundary conditions

net charge:   0.00000000

component 0 (CO2) lambda:  0 occupancy:  1 (1.000000)
    net charge:   0.00000000 [e]

Amount of molecules per component :
-------------------------------------------------------------------------------
Component 0 (CO2)
    molecules:      2.000000e+02 molecules  (2.000000e+02 +/- 0.000000e+00)
    number density: 1.425981e-02 molec./A^3 (1.469763e-02 +/- 0.000000e+00)
    density:        1.041846e+03 kg/m^3     (1.073834e+03 +/- 0.000000e+00)

Average pressure tensor: 
-------------------------------------------------------------------------------
 1.3115e+02  7.3403e+01 -1.5651e+02 +/- 0.0000e+00 0.0000e+00 0.0000e+00 [bar]
 7.3403e+01  6.6708e+01 -5.9016e+01 +/- 0.0000e+00 0.0000e+00 0.0000e+00 [bar]
-1.5651e+02 -5.9016e+01  2.5671e+02 +/- 0.0000e+00 0.0000e+00 0.0000e+00 [bar]
Ideal-gas pressure:   5.073073e+02 +/ 0.000000e+00 [bar]
Excess pressure:     -3.557840e+02 +/ 0.000000e+00 [bar]
Pressure:             1.515233e+02 +/ 0.000000e+00 [bar]

Total potential energy/kʙ  -3.009622e+05 (-3.058653e+05 +/- 0.000000e+00) [K]
-------------------------------------------------------------------------------
ExternalField-molecule
    Van der Waals/kʙ        0.000000e+00 ( 0.000000e+00 +/- 0.000000e+00) [K]
Framework-molecule
    Van der Waals/kʙ        0.000000e+00 ( 0.000000e+00 +/- 0.000000e+00) [K]
    Van der Waals (Tail)/kʙ 0.000000e+00 ( 0.000000e+00 +/- 0.000000e+00) [K]
    Coulombic Real/kʙ       0.000000e+00 ( 0.000000e+00 +/- 0.000000e+00) [K]
    Coulombic Fourier/kʙ    0.000000e+00 ( 0.000000e+00 +/- 0.000000e+00) [K]
Molecule-molecule
    Van der Waals/kʙ       -2.192551e+05 (-2.239180e+05 +/- 0.000000e+00) [K]
    Van der Waals (Tail)/kʙ-6.875765e+03 (-7.066939e+03 +/- 0.000000e+00) [K]
    Coulombic Real/kʙ      -6.558726e+04 (-6.499666e+04 +/- 0.000000e+00) [K]
    Coulombic Fourier/kʙ   -9.244096e+03 (-9.883759e+03 +/- 0.000000e+00) [K]
    Molecule Intra/kʙ       0.000000e+00 ( 0.000000e+00 +/- 0.000000e+00) [K]

Current cycle: 200 out of 5000
===============================================================================

Box:      24.06876   0.00000   0.00000  Average:  23.96198   0.00000   0.00000
           0.00000  24.06876   0.00000             0.00000  23.96198   0.00000
           0.00000   0.00000  24.06876             0.00000   0.00000  23.96198
Lengths:  24.06876  24.06876  24.06876  Average:  23.96198  23.96198  23.96198
Angles:   90.00000  90.00000  90.00000  Average:  90.00000  90.00000  90.00000
Rectangular boundary conditions

net charge:   0.00000000

component 0 (CO2) lambda:  0 occupancy:  1 (1.000000)
    net charge:   0.00000000 [e]

Amount of molecules per component :
-------------------------------------------------------------------------------
Component 0 (CO2)
    molecules:      2.000000e+02 molecules  (2.000000e+02 +/- 0.000000e+00)
    number density: 1.434395e-02 molec./A^3 (1.454025e-02 +/- 0.000000e+00)
    density:        1.047993e+03 kg/m^3     (1.062336e+03 +/- 0.000000e+00)

Average pressure tensor: 
-------------------------------------------------------------------------------
 2.6873e+02  7.6734e+01 -6.7453e+01 +/- 0.0000e+00 0.0000e+00 0.0000e+00 [bar]
 7.6734e+01  5.4064e+01 -1.9536e+01 +/- 0.0000e+00 0.0000e+00 0.0000e+00 [bar]
-6.7453e+01 -1.9536e+01  1.9444e+02 +/- 0.0000e+00 0.0000e+00 0.0000e+00 [bar]
Ideal-gas pressure:   5.018752e+02 +/ 0.000000e+00 [bar]
Excess pressure:     -3.294651e+02 +/ 0.000000e+00 [bar]
Pressure:             1.724101e+02 +/ 0.000000e+00 [bar]

Total potential energy/kʙ  -2.946130e+05 (-3.031130e+05 +/- 0.000000e+00) [K]
-------------------------------------------------------------------------------
ExternalField-molecule
    Van der Waals/kʙ        0.000000e+00 ( 0.000000e+00 +/- 0.000000e+00) [K]
Framework-molecule
    Van der Waals/kʙ        0.000000e+00 ( 0.000000e+00 +/- 0.000000e+00) [K]
    Van der Waals (Tail)/kʙ 0.000000e+00 ( 0.000000e+00 +/- 0.000000e+00) [K]
    Coulombic Real/kʙ       0.000000e+00 ( 0.000000e+00 +/- 0.000000e+00) [K]
    Coulombic Fourier/kʙ    0.000000e+00 ( 0.000000e+00 +/- 0.000000e+00) [K]
Molecule-molecule
    Van der Waals/kʙ       -2.142296e+05 (-2.195199e+05 +/- 0.000000e+00) [K]
    Van der Waals (Tail)/kʙ-6.916335e+03 (-7.005876e+03 +/- 0.000000e+00) [K]
    Coulombic Real/kʙ      -6.375048e+04 (-6.653370e+04 +/- 0.000000e+00) [K]
    Coulombic Fourier/kʙ   -9.716585e+03 (-1.005356e+04 +/- 0.000000e+00) [K]
    Molecule Intra/kʙ       0.000000e+00 ( 0.000000e+00 +/- 0.000000e+00) [K]

Current cycle: 300 out of 5000
===============================================================================

Box:      23.71905   0.00000   0.00000  Average:  23.98951   0.00000   0.00000
           0.00000  23.71905   0.00000             0.00000  23.98951   0.00000
           0.00000   0.00000  23.71905             0.00000   0.00000  23.98951
Lengths:  23.71905  23.71905  23.71905  Average:  23.98951  23.98951  23.98951
Angles:   90.00000  90.00000  90.00000  Average:  90.00000  90.00000  90.00000
Rectangular boundary conditions

net charge:   0.00000000

component 0 (CO2) lambda:  0 occupancy:  1 (1.000000)
    net charge:   0.00000000 [e]

Amount of molecules per component :
-------------------------------------------------------------------------------
Component 0 (CO2)
    molecules:      2.000000e+02 molecules  (2.000000e+02 +/- 0.000000e+00)
    number density: 1.498780e-02 molec./A^3 (1.449014e-02 +/- 0.000000e+00)
    density:        1.095034e+03 kg/m^3     (1.058674e+03 +/- 0.000000e+00)

Average pressure tensor: 
-------------------------------------------------------------------------------
 2.6399e+02  3.8676e+01  7.8408e-01 +/- 0.0000e+00 0.0000e+00 0.0000e+00 [bar]
 3.8676e+01  1.1005e+02 -1.0855e+01 +/- 0.0000e+00 0.0000e+00 0.0000e+00 [bar]
 7.8408e-01 -1.0855e+01  1.9917e+02 +/- 0.0000e+00 0.0000e+00 0.0000e+00 [bar]
Ideal-gas pressure:   5.001454e+02 +/ 0.000000e+00 [bar]
Excess pressure:     -3.090738e+02 +/ 0.000000e+00 [bar]
Pressure:             1.910716e+02 +/ 0.000000e+00 [bar]

Total potential energy/kʙ  -3.136506e+05 (-3.023859e+05 +/- 0.000000e+00) [K]
-------------------------------------------------------------------------------
ExternalField-molecule
    Van der Waals/kʙ        0.000000e+00 ( 0.000000e+00 +/- 0.000000e+00) [K]
Framework-molecule
    Van der Waals/kʙ        0.000000e+00 ( 0.000000e+00 +/- 0.000000e+00) [K]
    Van der Waals (Tail)/kʙ 0.000000e+00 ( 0.000000e+00 +/- 0.000000e+00) [K]
    Coulombic Real/kʙ       0.000000e+00 ( 0.000000e+00 +/- 0.000000e+00) [K]
    Coulombic Fourier/kʙ    0.000000e+00 ( 0.000000e+00 +/- 0.000000e+00) [K]
Molecule-molecule
    Van der Waals/kʙ       -2.261223e+05 (-2.190707e+05 +/- 0.000000e+00) [K]
    Van der Waals (Tail)/kʙ-7.226786e+03 (-6.989366e+03 +/- 0.000000e+00) [K]
    Coulombic Real/kʙ      -7.000331e+04 (-6.635410e+04 +/- 0.000000e+00) [K]
    Coulombic Fourier/kʙ   -1.029819e+04 (-9.971748e+03 +/- 0.000000e+00) [K]
    Molecule Intra/kʙ       0.000000e+00 ( 0.000000e+00 +/- 0.000000e+00) [K]

Current cycle: 400 out of 5000
===============================================================================

Box:      23.69979   0.00000   0.00000  Average:  23.95307   0.00000   0.00000
           0.00000  23.69979   0.00000             0.00000  23.95307   0.00000
           0.00000   0.00000  23.69979             0.00000   0.00000  23.95307
Lengths:  23.69979  23.69979  23.69979  Average:  23.95307  23.95307  23.95307
Angles:   90.00000  90.00000  90.00000  Average:  90.00000  90.00000  90.00000
Rectangular boundary conditions

net charge:   0.00000000

component 0 (CO2) lambda:  0 occupancy:  1 (1.000000)
    net charge:   0.00000000 [e]

Amount of molecules per component :
-------------------------------------------------------------------------------
Component 0 (CO2)
    molecules:      2.000000e+02 molecules  (2.000000e+02 +/- 0.000000e+00)
    number density: 1.502437e-02 molec./A^3 (1.455640e-02 +/- 0.000000e+00)
    density:        1.097706e+03 kg/m^3     (1.063515e+03 +/- 0.000000e+00)

Average pressure tensor: 
-------------------------------------------------------------------------------
 2.6525e+02 -1.7127e+01  1.9279e+01 +/- 0.0000e+00 0.0000e+00 0.0000e+00 [bar]
-1.7127e+01  1.2688e+02 -2.1493e+01 +/- 0.0000e+00 0.0000e+00 0.0000e+00 [bar]
 1.9279e+01 -2.1493e+01  1.4468e+02 +/- 0.0000e+00 0.0000e+00 0.0000e+00 [bar]
Ideal-gas pressure:   5.024323e+02 +/ 0.000000e+00 [bar]
Excess pressure:     -3.234962e+02 +/ 0.000000e+00 [bar]
Pressure:             1.789361e+02 +/ 0.000000e+00 [bar]

Total potential energy/kʙ  -3.121504e+05 (-3.032108e+05 +/- 0.000000e+00) [K]
-------------------------------------------------------------------------------
ExternalField-molecule
    Van der Waals/kʙ        0.000000e+00 ( 0.000000e+00 +/- 0.000000e+00) [K]
Framework-molecule
    Van der Waals/kʙ        0.000000e+00 ( 0.000000e+00 +/- 0.000000e+00) [K]
    Van der Waals (Tail)/kʙ 0.000000e+00 ( 0.000000e+00 +/- 0.000000e+00) [K]
    Coulombic Real/kʙ       0.000000e+00 ( 0.000000e+00 +/- 0.000000e+00) [K]
    Coulombic Fourier/kʙ    0.000000e+00 ( 0.000000e+00 +/- 0.000000e+00) [K]
Molecule-molecule
    Van der Waals/kʙ       -2.308925e+05 (-2.199886e+05 +/- 0.000000e+00) [K]
    Van der Waals (Tail)/kʙ-7.244420e+03 (-7.015969e+03 +/- 0.000000e+00) [K]
    Coulombic Real/kʙ      -6.430727e+04 (-6.621121e+04 +/- 0.000000e+00) [K]
    Coulombic Fourier/kʙ   -9.706216e+03 (-9.995029e+03 +/- 0.000000e+00) [K]
    Molecule Intra/kʙ       0.000000e+00 ( 0.000000e+00 +/- 0.000000e+00) [K]

Current cycle: 500 out of 5000
===============================================================================

Box:      23.84573   0.00000   0.00000  Average:  23.90908   0.00000   0.00000
           0.00000  23.84573   0.00000             0.00000  23.90908   0.00000
           0.00000   0.00000  23.84573             0.00000   0.00000  23.90908
Lengths:  23.84573  23.84573  23.84573  Average:  23.90908  23.90908  23.90908
Angles:   90.00000  90.00000  90.00000  Average:  90.00000  90.00000  90.00000
Rectangular boundary conditions

net charge:   0.00000000

component 0 (CO2) lambda:  0 occupancy:  1 (1.000000)
    net charge:   0.00000000 [e]

Amount of molecules per component :
-------------------------------------------------------------------------------
Component 0 (CO2)
    molecules:      2.000000e+02 molecules  (2.000000e+02 +/- 0.000000e+00)
    number density: 1.475020e-02 molec./A^3 (1.463747e-02 +/- 0.000000e+00)
    density:        1.077675e+03 kg/m^3     (1.069439e+03 +/- 0.000000e+00)

Average pressure tensor: 
-------------------------------------------------------------------------------
 2.9169e+02 -1.1728e+01  2.0555e+01 +/- 0.0000e+00 0.0000e+00 0.0000e+00 [bar]
-1.1728e+01  1.2295e+02 -6.4392e+01 +/- 0.0000e+00 0.0000e+00 0.0000e+00 [bar]
 2.0555e+01 -6.4392e+01  9.9564e+01 +/- 0.0000e+00 0.0000e+00 0.0000e+00 [bar]
Ideal-gas pressure:   5.052307e+02 +/ 0.000000e+00 [bar]
Excess pressure:     -3.338274e+02 +/ 0.000000e+00 [bar]
Pressure:             1.714033e+02 +/ 0.000000e+00 [bar]

Total potential energy/kʙ  -3.180863e+05 (-3.048607e+05 +/- 0.000000e+00) [K]
-------------------------------------------------------------------------------
ExternalField-molecule
    Van der Waals/kʙ        0.000000e+00 ( 0.000000e+00 +/- 0.000000e+00) [K]
Framework-molecule
    Van der Waals/kʙ        0.000000e+00 ( 0.000000e+00 +/- 0.000000e+00) [K]
    Van der Waals (Tail)/kʙ 0.000000e+00 ( 0.000000e+00 +/- 0.000000e+00) [K]
    Coulombic Real/kʙ       0.000000e+00 ( 0.000000e+00 +/- 0.000000e+00) [K]
    Coulombic Fourier/kʙ    0.000000e+00 ( 0.000000e+00 +/- 0.000000e+00) [K]
Molecule-molecule
    Van der Waals/kʙ       -2.300057e+05 (-2.214673e+05 +/- 0.000000e+00) [K]
    Van der Waals (Tail)/kʙ-7.112221e+03 (-7.051595e+03 +/- 0.000000e+00) [K]
    Coulombic Real/kʙ      -7.010818e+04 (-6.627863e+04 +/- 0.000000e+00) [K]
    Coulombic Fourier/kʙ   -1.086017e+04 (-1.006317e+04 +/- 0.000000e+00) [K]
    Molecule Intra/kʙ       0.000000e+00 ( 0.000000e+00 +/- 0.000000e+00) [K]

Current cycle: 600 out of 5000
===============================================================================

Box:      23.76736   0.00000   0.00000  Average:  23.90175   0.00000   0.00000
           0.00000  23.76736   0.00000             0.00000  23.90175   0.00000
           0.00000   0.00000  23.76736             0.00000   0.00000  23.90175
Lengths:  23.76736  23.76736  23.76736  Average:  23.90175  23.90175  23.90175
Angles:   90.00000  90.00000  90.00000  Average:  90.00000  90.00000  90.00000
Rectangular boundary conditions

net charge:   0.00000000

component 0 (CO2) lambda:  0 occupancy:  1 (1.000000)
    net charge:   0.00000000 [e]

Amount of molecules per component :
-------------------------------------------------------------------------------
Component 0 (CO2)
    molecules:      2.000000e+02 molecules  (2.000000e+02 +/- 0.000000e+00)
    number density: 1.489661e-02 molec./A^3 (1.465051e-02 +/- 0.000000e+00)
    density:        1.088372e+03 kg/m^3     (1.070392e+03 +/- 0.000000e+00)

Average pressure tensor: 
-------------------------------------------------------------------------------
 2.8564e+02 -2.0154e+01  7.1700e+00 +/- 0.0000e+00 0.0000e+00 0.0000e+00 [bar]
-2.0154e+01  1.1757e+02 -8.7169e+01 +/- 0.0000e+00 0.0000e+00 0.0000e+00 [bar]
 7.1700e+00 -8.7169e+01  9.2638e+01 +/- 0.0000e+00 0.0000e+00 0.0000e+00 [bar]
Ideal-gas pressure:   5.056810e+02 +/ 0.000000e+00 [bar]
Excess pressure:     -3.404014e+02 +/ 0.000000e+00 [bar]
Pressure:             1.652796e+02 +/ 0.000000e+00 [bar]

Total potential energy/kʙ  -3.047341e+05 (-3.056359e+05 +/- 0.000000e+00) [K]
-------------------------------------------------------------------------------
ExternalField-molecule
    Van der Waals/kʙ        0.000000e+00 ( 0.000000e+00 +/- 0.000000e+00) [K]
Framework-molecule
    Van der Waals/kʙ        0.000000e+00 ( 0.000000e+00 +/- 0.000000e+00) [K]
    Van der Waals (Tail)/kʙ 0.000000e+00 ( 0.000000e+00 +/- 0.000000e+00) [K]
    Coulombic Real/kʙ       0.000000e+00 ( 0.000000e+00 +/- 0.000000e+00) [K]
    Coulombic Fourier/kʙ    0.000000e+00 ( 0.000000e+00 +/- 0.000000e+00) [K]
Molecule-molecule
    Van der Waals/kʙ       -2.181653e+05 (-2.216352e+05 +/- 0.000000e+00) [K]
    Van der Waals (Tail)/kʙ-7.182815e+03 (-7.060860e+03 +/- 0.000000e+00) [K]
    Coulombic Real/kʙ      -6.974596e+04 (-6.688940e+04 +/- 0.000000e+00) [K]
    Coulombic Fourier/kʙ   -9.640039e+03 (-1.005046e+04 +/- 0.000000e+00) [K]
    Molecule Intra/kʙ       0.000000e+00 ( 0.000000e+00 +/- 0.000000e+00) [K]

Current cycle: 700 out of 5000
===============================================================================

Box:      23.64432   0.00000   0.00000  Average:  23.89661   0.00000   0.00000
           0.00000  23.64432   0.00000             0.00000  23.89661   0.00000
           0.00000   0.00000  23.64432             0.00000   0.00000  23.89661
Lengths:  23.64432  23.64432  23.64432  Average:  23.89661  23.89661  23.89661
Angles:   90.00000  90.00000  90.00000  Average:  90.00000  90.00000  90.00000
Rectangular boundary conditions

net charge:   0.00000000

component 0 (CO2) lambda:  0 occupancy:  1 (1.000000)
    net charge:   0.00000000 [e]

Amount of molecules per component :
-------------------------------------------------------------------------------
Component 0 (CO2)
    molecules:      2.000000e+02 molecules  (2.000000e+02 +/- 0.000000e+00)
    number density: 1.513036e-02 molec./A^3 (1.465975e-02 +/- 0.000000e+00)
    density:        1.105450e+03 kg/m^3     (1.071067e+03 +/- 0.000000e+00)

Average pressure tensor: 
-------------------------------------------------------------------------------
 2.7709e+02 -2.9739e+01 -9.9569e+00 +/- 0.0000e+00 0.0000e+00 0.0000e+00 [bar]
-2.9739e+01  1.7363e+02 -1.0844e+02 +/- 0.0000e+00 0.0000e+00 0.0000e+00 [bar]
-9.9569e+00 -1.0844e+02  6.3672e+01 +/- 0.0000e+00 0.0000e+00 0.0000e+00 [bar]
Ideal-gas pressure:   5.059998e+02 +/ 0.000000e+00 [bar]
Excess pressure:     -3.345347e+02 +/ 0.000000e+00 [bar]
Pressure:             1.714651e+02 +/ 0.000000e+00 [bar]

Total potential energy/kʙ  -3.112975e+05 (-3.054235e+05 +/- 0.000000e+00) [K]
-------------------------------------------------------------------------------
ExternalField-molecule
    Van der Waals/kʙ        0.000000e+00 ( 0.000000e+00 +/- 0.000000e+00) [K]
Framework-molecule
    Van der Waals/kʙ        0.000000e+00 ( 0.000000e+00 +/- 0.000000e+00) [K]
    Van der Waals (Tail)/kʙ 0.000000e+00 ( 0.000000e+00 +/- 0.000000e+00) [K]
    Coulombic Real/kʙ       0.000000e+00 ( 0.000000e+00 +/- 0.000000e+00) [K]
    Coulombic Fourier/kʙ    0.000000e+00 ( 0.000000e+00 +/- 0.000000e+00) [K]
Molecule-molecule
    Van der Waals/kʙ       -2.217711e+05 (-2.214016e+05 +/- 0.000000e+00) [K]
    Van der Waals (Tail)/kʙ-7.295525e+03 (-7.062705e+03 +/- 0.000000e+00) [K]
    Coulombic Real/kʙ      -7.194479e+04 (-6.691520e+04 +/- 0.000000e+00) [K]
    Coulombic Fourier/kʙ   -1.028611e+04 (-1.004402e+04 +/- 0.000000e+00) [K]
    Molecule Intra/kʙ       0.000000e+00 ( 0.000000e+00 +/- 0.000000e+00) [K]

Current cycle: 800 out of 5000
===============================================================================

Box:      23.65238   0.00000   0.00000  Average:  23.87203   0.00000   0.00000
           0.00000  23.65238   0.00000             0.00000  23.87203   0.00000
           0.00000   0.00000  23.65238             0.00000   0.00000  23.87203
Lengths:  23.65238  23.65238  23.65238  Average:  23.87203  23.87203  23.87203
Angles:   90.00000  90.00000  90.00000  Average:  90.00000  90.00000  90.00000
Rectangular boundary conditions

net charge:   0.00000000

component 0 (CO2) lambda:  0 occupancy:  1 (1.000000)
    net charge:   0.00000000 [e]

Amount of molecules per component :
-------------------------------------------------------------------------------
Component 0 (CO2)
    molecules:      2.000000e+02 molecules  (2.000000e+02 +/- 0.000000e+00)
    number density: 1.511490e-02 molec./A^3 (1.470540e-02 +/- 0.000000e+00)
    density:        1.104321e+03 kg/m^3     (1.074402e+03 +/- 0.000000e+00)

Average pressure tensor: 
-------------------------------------------------------------------------------
 2.8096e+02  1.4609e+00 -2.5326e+01 +/- 0.0000e+00 0.0000e+00 0.0000e+00 [bar]
 1.4609e+00  1.7317e+02 -1.2207e+02 +/- 0.0000e+00 0.0000e+00 0.0000e+00 [bar]
-2.5326e+01 -1.2207e+02  7.2937e+01 +/- 0.0000e+00 0.0000e+00 0.0000e+00 [bar]
Ideal-gas pressure:   5.075755e+02 +/ 0.000000e+00 [bar]
Excess pressure:     -3.318866e+02 +/ 0.000000e+00 [bar]
Pressure:             1.756888e+02 +/ 0.000000e+00 [bar]

Total potential energy/kʙ  -3.195057e+05 (-3.062136e+05 +/- 0.000000e+00) [K]
-------------------------------------------------------------------------------
ExternalField-molecule
    Van der Waals/kʙ        0.000000e+00 ( 0.000000e+00 +/- 0.000000e+00) [K]
Framework-molecule
    Van der Waals/kʙ        0.000000e+00 ( 0.000000e+00 +/- 0.000000e+00) [K]
    Van der Waals (Tail)/kʙ 0.000000e+00 ( 0.000000e+00 +/- 0.000000e+00) [K]
    Coulombic Real/kʙ       0.000000e+00 ( 0.000000e+00 +/- 0.000000e+00) [K]
    Coulombic Fourier/kʙ    0.000000e+00 ( 0.000000e+00 +/- 0.000000e+00) [K]
Molecule-molecule
    Van der Waals/kʙ       -2.325203e+05 (-2.220350e+05 +/- 0.000000e+00) [K]
    Van der Waals (Tail)/kʙ-7.288072e+03 (-7.083887e+03 +/- 0.000000e+00) [K]
    Coulombic Real/kʙ      -6.901317e+04 (-6.696492e+04 +/- 0.000000e+00) [K]
    Coulombic Fourier/kʙ   -1.068413e+04 (-1.012973e+04 +/- 0.000000e+00) [K]
    Molecule Intra/kʙ       0.000000e+00 ( 0.000000e+00 +/- 0.000000e+00) [K]

Current cycle: 900 out of 5000
===============================================================================

Box:      23.36062   0.00000   0.00000  Average:  23.82449   0.00000   0.00000
           0.00000  23.36062   0.00000             0.00000  23.82449   0.00000
           0.00000   0.00000  23.36062             0.00000   0.00000  23.82449
Lengths:  23.36062  23.36062  23.36062  Average:  23.82449  23.82449  23.82449
Angles:   90.00000  90.00000  90.00000  Average:  90.00000  90.00000  90.00000
Rectangular boundary conditions

net charge:   0.00000000

component 0 (CO2) lambda:  0 occupancy:  1 (1.000000)
    net charge:   0.00000000 [e]

Amount of molecules per component :
-------------------------------------------------------------------------------
Component 0 (CO2)
    molecules:      2.000000e+02 molecules  (2.000000e+02 +/- 0.000000e+00)
    number density: 1.568833e-02 molec./A^3 (1.479626e-02 +/- 0.000000e+00)
    density:        1.146216e+03 kg/m^3     (1.081040e+03 +/- 0.000000e+00)

Average pressure tensor: 
-------------------------------------------------------------------------------
 2.5926e+02 -1.6932e+00 -2.5029e+01 +/- 0.0000e+00 0.0000e+00 0.0000e+00 [bar]
-1.6932e+00  1.8219e+02 -1.2591e+02 +/- 0.0000e+00 0.0000e+00 0.0000e+00 [bar]
-2.5029e+01 -1.2591e+02  7.8448e+01 +/- 0.0000e+00 0.0000e+00 0.0000e+00 [bar]
Ideal-gas pressure:   5.107116e+02 +/ 0.000000e+00 [bar]
Excess pressure:     -3.374100e+02 +/ 0.000000e+00 [bar]
Pressure:             1.733016e+02 +/ 0.000000e+00 [bar]

Total potential energy/kʙ  -3.383991e+05 (-3.087323e+05 +/- 0.000000e+00) [K]
-------------------------------------------------------------------------------
ExternalField-molecule
    Van der Waals/kʙ        0.000000e+00 ( 0.000000e+00 +/- 0.000000e+00) [K]
Framework-molecule
    Van der Waals/kʙ        0.000000e+00 ( 0.000000e+00 +/- 0.000000e+00) [K]
    Van der Waals (Tail)/kʙ 0.000000e+00 ( 0.000000e+00 +/- 0.000000e+00) [K]
    Coulombic Real/kʙ       0.000000e+00 ( 0.000000e+00 +/- 0.000000e+00) [K]
    Coulombic Fourier/kʙ    0.000000e+00 ( 0.000000e+00 +/- 0.000000e+00) [K]
Molecule-molecule
    Van der Waals/kʙ       -2.423721e+05 (-2.237015e+05 +/- 0.000000e+00) [K]
    Van der Waals (Tail)/kʙ-7.564567e+03 (-7.127746e+03 +/- 0.000000e+00) [K]
    Coulombic Real/kʙ      -7.722814e+04 (-6.768324e+04 +/- 0.000000e+00) [K]
    Coulombic Fourier/kʙ   -1.123428e+04 (-1.021985e+04 +/- 0.000000e+00) [K]
    Molecule Intra/kʙ       0.000000e+00 ( 0.000000e+00 +/- 0.000000e+00) [K]

Current cycle: 1000 out of 5000
===============================================================================

Box:      23.39796   0.00000   0.00000  Average:  23.78889   0.00000   0.00000
           0.00000  23.39796   0.00000             0.00000  23.78889   0.00000
           0.00000   0.00000  23.39796             0.00000   0.00000  23.78889
Lengths:  23.39796  23.39796  23.39796  Average:  23.78889  23.78889  23.78889
Angles:   90.00000  90.00000  90.00000  Average:  90.00000  90.00000  90.00000
Rectangular boundary conditions

net charge:   0.00000000

component 0 (CO2) lambda:  0 occupancy:  1 (1.000000)
    net charge:   0.00000000 [e]

Amount of molecules per component :
-------------------------------------------------------------------------------
Component 0 (CO2)
    molecules:      2.000000e+02 molecules  (2.000000e+02 +/- 0.000000e+00)
    number density: 1.561334e-02 molec./A^3 (1.486407e-02 +/- 0.000000e+00)
    density:        1.140737e+03 kg/m^3     (1.085994e+03 +/- 0.000000e+00)

Average pressure tensor: 
-------------------------------------------------------------------------------
 2.4204e+02 -1.0162e+01 -2.5558e+01 +/- 0.0000e+00 0.0000e+00 0.0000e+00 [bar]
-1.0162e+01  1.9526e+02 -1.2383e+02 +/- 0.0000e+00 0.0000e+00 0.0000e+00 [bar]
-2.5558e+01 -1.2383e+02  8.1865e+01 +/- 0.0000e+00 0.0000e+00 0.0000e+00 [bar]
Ideal-gas pressure:   5.130520e+02 +/ 0.000000e+00 [bar]
Excess pressure:     -3.400001e+02 +/ 0.000000e+00 [bar]
Pressure:             1.730519e+02 +/ 0.000000e+00 [bar]

Total potential energy/kʙ  -3.287780e+05 (-3.108811e+05 +/- 0.000000e+00) [K]
-------------------------------------------------------------------------------
ExternalField-molecule
    Van der Waals/kʙ        0.000000e+00 ( 0.000000e+00 +/- 0.000000e+00) [K]
Framework-molecule
    Van der Waals/kʙ        0.000000e+00 ( 0.000000e+00 +/- 0.000000e+00) [K]
    Van der Waals (Tail)/kʙ 0.000000e+00 ( 0.000000e+00 +/- 0.000000e+00) [K]
    Coulombic Real/kʙ       0.000000e+00 ( 0.000000e+00 +/- 0.000000e+00) [K]
    Coulombic Fourier/kʙ    0.000000e+00 ( 0.000000e+00 +/- 0.000000e+00) [K]
Molecule-molecule
    Van der Waals/kʙ       -2.370370e+05 (-2.249481e+05 +/- 0.000000e+00) [K]
    Van der Waals (Tail)/kʙ-7.528407e+03 (-7.161315e+03 +/- 0.000000e+00) [K]
    Coulombic Real/kʙ      -7.410318e+04 (-6.848378e+04 +/- 0.000000e+00) [K]
    Coulombic Fourier/kʙ   -1.010944e+04 (-1.028792e+04 +/- 0.000000e+00) [K]
    Molecule Intra/kʙ       0.000000e+00 ( 0.000000e+00 +/- 0.000000e+00) [K]

Current cycle: 1100 out of 5000
===============================================================================

Box:      23.59998   0.00000   0.00000  Average:  23.76560   0.00000   0.00000
           0.00000  23.59998   0.00000             0.00000  23.76560   0.00000
           0.00000   0.00000  23.59998             0.00000   0.00000  23.76560
Lengths:  23.59998  23.59998  23.59998  Average:  23.76560  23.76560  23.76560
Angles:   90.00000  90.00000  90.00000  Average:  90.00000  90.00000  90.00000
Rectangular boundary conditions

net charge:   0.00000000

component 0 (CO2) lambda:  0 occupancy:  1 (1.000000)
    net charge:   0.00000000 [e]

Amount of molecules per component :
-------------------------------------------------------------------------------
Component 0 (CO2)
    molecules:      2.000000e+02 molecules  (2.000000e+02 +/- 0.000000e+00)
    number density: 1.521582e-02 molec./A^3 (1.490811e-02 +/- 0.000000e+00)
    density:        1.111694e+03 kg/m^3     (1.089212e+03 +/- 0.000000e+00)

Average pressure tensor: 
-------------------------------------------------------------------------------
 2.5552e+02 -3.5547e+00 -1.0713e+01 +/- 0.0000e+00 0.0000e+00 0.0000e+00 [bar]
-3.5547e+00  1.9181e+02 -1.2636e+02 +/- 0.0000e+00 0.0000e+00 0.0000e+00 [bar]
-1.0713e+01 -1.2636e+02  8.4273e+01 +/- 0.0000e+00 0.0000e+00 0.0000e+00 [bar]
Ideal-gas pressure:   5.145723e+02 +/ 0.000000e+00 [bar]
Excess pressure:     -3.373695e+02 +/ 0.000000e+00 [bar]
Pressure:             1.772028e+02 +/ 0.000000e+00 [bar]

Total potential energy/kʙ  -3.213754e+05 (-3.124843e+05 +/- 0.000000e+00) [K]
-------------------------------------------------------------------------------
ExternalField-molecule
    Van der Waals/kʙ        0.000000e+00 ( 0.000000e+00 +/- 0.000000e+00) [K]
Framework-molecule
    Van der Waals/kʙ        0.000000e+00 ( 0.000000e+00 +/- 0.000000e+00) [K]
    Van der Waals (Tail)/kʙ 0.000000e+00 ( 0.000000e+00 +/- 0.000000e+00) [K]
    Coulombic Real/kʙ       0.000000e+00 ( 0.000000e+00 +/- 0.000000e+00) [K]
    Coulombic Fourier/kʙ    0.000000e+00 ( 0.000000e+00 +/- 0.000000e+00) [K]
Molecule-molecule
    Van der Waals/kʙ       -2.297328e+05 (-2.257454e+05 +/- 0.000000e+00) [K]
    Van der Waals (Tail)/kʙ-7.336731e+03 (-7.181252e+03 +/- 0.000000e+00) [K]
    Coulombic Real/kʙ      -7.343141e+04 (-6.925206e+04 +/- 0.000000e+00) [K]
    Coulombic Fourier/kʙ   -1.087446e+04 (-1.030560e+04 +/- 0.000000e+00) [K]
    Molecule Intra/kʙ       0.000000e+00 ( 0.000000e+00 +/- 0.000000e+00) [K]

Current cycle: 1200 out of 5000
===============================================================================

Box:      23.93850   0.00000   0.00000  Average:  23.77579   0.00000   0.00000
           0.00000  23.93850   0.00000             0.00000  23.77579   0.00000
           0.00000   0.00000  23.93850             0.00000   0.00000  23.77579
Lengths:  23.93850  23.93850  23.93850  Average:  23.77579  23.77579  23.77579
Angles:   90.00000  90.00000  90.00000  Average:  90.00000  90.00000  90.00000
Rectangular boundary conditions

net charge:   0.00000000

component 0 (CO2) lambda:  0 occupancy:  1 (1.000000)
    net charge:   0.00000000 [e]

Amount of molecules per component :
-------------------------------------------------------------------------------
Component 0 (CO2)
    molecules:      2.000000e+02 molecules  (2.000000e+02 +/- 0.000000e+00)
    number density: 1.457938e-02 molec./A^3 (1.488878e-02 +/- 0.000000e+00)
    density:        1.065194e+03 kg/m^3     (1.087800e+03 +/- 0.000000e+00)

Average pressure tensor: 
-------------------------------------------------------------------------------
 2.5932e+02  1.3978e+01 -5.7972e+00 +/- 0.0000e+00 0.0000e+00 0.0000e+00 [bar]
 1.3978e+01  1.8430e+02 -1.2696e+02 +/- 0.0000e+00 0.0000e+00 0.0000e+00 [bar]
-5.7972e+00 -1.2696e+02  7.3673e+01 +/- 0.0000e+00 0.0000e+00 0.0000e+00 [bar]
Ideal-gas pressure:   5.139049e+02 +/ 0.000000e+00 [bar]
Excess pressure:     -3.414712e+02 +/ 0.000000e+00 [bar]
Pressure:             1.724337e+02 +/ 0.000000e+00 [bar]

Total potential energy/kʙ  -2.999457e+05 (-3.118963e+05 +/- 0.000000e+00) [K]
-------------------------------------------------------------------------------
ExternalField-molecule
    Van der Waals/kʙ        0.000000e+00 ( 0.000000e+00 +/- 0.000000e+00) [K]
Framework-molecule
    Van der Waals/kʙ        0.000000e+00 ( 0.000000e+00 +/- 0.000000e+00) [K]
    Van der Waals (Tail)/kʙ 0.000000e+00 ( 0.000000e+00 +/- 0.000000e+00) [K]
    Coulombic Real/kʙ       0.000000e+00 ( 0.000000e+00 +/- 0.000000e+00) [K]
    Coulombic Fourier/kʙ    0.000000e+00 ( 0.000000e+00 +/- 0.000000e+00) [K]
Molecule-molecule
    Van der Waals/kʙ       -2.174581e+05 (-2.252793e+05 +/- 0.000000e+00) [K]
    Van der Waals (Tail)/kʙ-7.029854e+03 (-7.171226e+03 +/- 0.000000e+00) [K]
    Coulombic Real/kʙ      -6.451626e+04 (-6.911104e+04 +/- 0.000000e+00) [K]
    Coulombic Fourier/kʙ   -1.094149e+04 (-1.033466e+04 +/- 0.000000e+00) [K]
    Molecule Intra/kʙ       0.000000e+00 ( 0.000000e+00 +/- 0.000000e+00) [K]

Current cycle: 1300 out of 5000
===============================================================================

Box:      23.56583   0.00000   0.00000  Average:  23.77250   0.00000   0.00000
           0.00000  23.56583   0.00000             0.00000  23.77250   0.00000
           0.00000   0.00000  23.56583             0.00000   0.00000  23.77250
Lengths:  23.56583  23.56583  23.56583  Average:  23.77250  23.77250  23.77250
Angles:   90.00000  90.00000  90.00000  Average:  90.00000  90.00000  90.00000
Rectangular boundary conditions

net charge:   0.00000000

component 0 (CO2) lambda:  0 occupancy:  1 (1.000000)
    net charge:   0.00000000 [e]

Amount of molecules per component :
-------------------------------------------------------------------------------
Component 0 (CO2)
    molecules:      2.000000e+02 molecules  (2.000000e+02 +/- 0.000000e+00)
    number density: 1.528206e-02 molec./A^3 (1.489450e-02 +/- 0.000000e+00)
    density:        1.116534e+03 kg/m^3     (1.088218e+03 +/- 0.000000e+00)

Average pressure tensor: 
-------------------------------------------------------------------------------
 2.6335e+02  1.2071e+01 -1.2052e+01 +/- 0.0000e+00 0.0000e+00 0.0000e+00 [bar]
 1.2071e+01  1.8129e+02 -9.6110e+01 +/- 0.0000e+00 0.0000e+00 0.0000e+00 [bar]
-1.2052e+01 -9.6110e+01  9.2126e+01 +/- 0.0000e+00 0.0000e+00 0.0000e+00 [bar]
Ideal-gas pressure:   5.141025e+02 +/ 0.000000e+00 [bar]
Excess pressure:     -3.351794e+02 +/ 0.000000e+00 [bar]
Pressure:             1.789231e+02 +/ 0.000000e+00 [bar]

Total potential energy/kʙ  -3.208138e+05 (-3.121057e+05 +/- 0.000000e+00) [K]
-------------------------------------------------------------------------------
ExternalField-molecule
    Van der Waals/kʙ        0.000000e+00 ( 0.000000e+00 +/- 0.000000e+00) [K]
Framework-molecule
    Van der Waals/kʙ        0.000000e+00 ( 0.000000e+00 +/- 0.000000e+00) [K]
    Van der Waals (Tail)/kʙ 0.000000e+00 ( 0.000000e+00 +/- 0.000000e+00) [K]
    Coulombic Real/kʙ       0.000000e+00 ( 0.000000e+00 +/- 0.000000e+00) [K]
    Coulombic Fourier/kʙ    0.000000e+00 ( 0.000000e+00 +/- 0.000000e+00) [K]
Molecule-molecule
    Van der Waals/kʙ       -2.276351e+05 (-2.253198e+05 +/- 0.000000e+00) [K]
    Van der Waals (Tail)/kʙ-7.368674e+03 (-7.176468e+03 +/- 0.000000e+00) [K]
    Coulombic Real/kʙ      -7.533090e+04 (-6.926022e+04 +/- 0.000000e+00) [K]
    Coulombic Fourier/kʙ   -1.047911e+04 (-1.034928e+04 +/- 0.000000e+00) [K]
    Molecule Intra/kʙ       0.000000e+00 ( 0.000000e+00 +/- 0.000000e+00) [K]

Current cycle: 1400 out of 5000
===============================================================================

Box:      23.72895   0.00000   0.00000  Average:  23.76893   0.00000   0.00000
           0.00000  23.72895   0.00000             0.00000  23.76893   0.00000
           0.00000   0.00000  23.72895             0.00000   0.00000  23.76893
Lengths:  23.72895  23.72895  23.72895  Average:  23.76893  23.76893  23.76893
Angles:   90.00000  90.00000  90.00000  Average:  90.00000  90.00000  90.00000
Rectangular boundary conditions

net charge:   0.00000000

component 0 (CO2) lambda:  0 occupancy:  1 (1.000000)
    net charge:   0.00000000 [e]

Amount of molecules per component :
-------------------------------------------------------------------------------
Component 0 (CO2)
    molecules:      2.000000e+02 molecules  (2.000000e+02 +/- 0.000000e+00)
    number density: 1.496907e-02 molec./A^3 (1.490078e-02 +/- 0.000000e+00)
    density:        1.093666e+03 kg/m^3     (1.088677e+03 +/- 0.000000e+00)

Average pressure tensor: 
-------------------------------------------------------------------------------
 2.6820e+02  1.0935e+01 -2.1404e+01 +/- 0.0000e+00 0.0000e+00 0.0000e+00 [bar]
 1.0935e+01  1.9068e+02 -7.4595e+01 +/- 0.0000e+00 0.0000e+00 0.0000e+00 [bar]
-2.1404e+01 -7.4595e+01  1.0846e+02 +/- 0.0000e+00 0.0000e+00 0.0000e+00 [bar]
Ideal-gas pressure:   5.143193e+02 +/ 0.000000e+00 [bar]
Excess pressure:     -3.252050e+02 +/ 0.000000e+00 [bar]
Pressure:             1.891143e+02 +/ 0.000000e+00 [bar]

Total potential energy/kʙ  -3.196730e+05 (-3.126161e+05 +/- 0.000000e+00) [K]
-------------------------------------------------------------------------------
ExternalField-molecule
    Van der Waals/kʙ        0.000000e+00 ( 0.000000e+00 +/- 0.000000e+00) [K]
Framework-molecule
    Van der Waals/kʙ        0.000000e+00 ( 0.000000e+00 +/- 0.000000e+00) [K]
    Van der Waals (Tail)/kʙ 0.000000e+00 ( 0.000000e+00 +/- 0.000000e+00) [K]
    Coulombic Real/kʙ       0.000000e+00 ( 0.000000e+00 +/- 0.000000e+00) [K]
    Coulombic Fourier/kʙ    0.000000e+00 ( 0.000000e+00 +/- 0.000000e+00) [K]
Molecule-molecule
    Van der Waals/kʙ       -2.242175e+05 (-2.255095e+05 +/- 0.000000e+00) [K]
    Van der Waals (Tail)/kʙ-7.217753e+03 (-7.180821e+03 +/- 0.000000e+00) [K]
    Coulombic Real/kʙ      -7.732891e+04 (-6.956027e+04 +/- 0.000000e+00) [K]
    Coulombic Fourier/kʙ   -1.090882e+04 (-1.036551e+04 +/- 0.000000e+00) [K]
    Molecule Intra/kʙ       0.000000e+00 ( 0.000000e+00 +/- 0.000000e+00) [K]

Current cycle: 1500 out of 5000
===============================================================================

Box:      23.69045   0.00000   0.00000  Average:  23.76711   0.00000   0.00000
           0.00000  23.69045   0.00000             0.00000  23.76711   0.00000
           0.00000   0.00000  23.69045             0.00000   0.00000  23.76711
Lengths:  23.69045  23.69045  23.69045  Average:  23.76711  23.76711  23.76711
Angles:   90.00000  90.00000  90.00000  Average:  90.00000  90.00000  90.00000
Rectangular boundary conditions

net charge:   0.00000000

component 0 (CO2) lambda:  0 occupancy:  1 (1.000000)
    net charge:   0.00000000 [e]

Amount of molecules per component :
-------------------------------------------------------------------------------
Component 0 (CO2)
    molecules:      2.000000e+02 molecules  (2.000000e+02 +/- 0.000000e+00)
    number density: 1.504215e-02 molec./A^3 (1.490379e-02 +/- 0.000000e+00)
    density:        1.099005e+03 kg/m^3     (1.088896e+03 +/- 0.000000e+00)

Average pressure tensor: 
-------------------------------------------------------------------------------
 2.6702e+02  1.8210e+01 -2.7145e+01 +/- 0.0000e+00 0.0000e+00 0.0000e+00 [bar]
 1.8210e+01  1.8593e+02 -5.3804e+01 +/- 0.0000e+00 0.0000e+00 0.0000e+00 [bar]
-2.7145e+01 -5.3804e+01  1.1195e+02 +/- 0.0000e+00 0.0000e+00 0.0000e+00 [bar]
Ideal-gas pressure:   5.144230e+02 +/ 0.000000e+00 [bar]
Excess pressure:     -3.261250e+02 +/ 0.000000e+00 [bar]
Pressure:             1.882980e+02 +/ 0.000000e+00 [bar]

Total potential energy/kʙ  -3.234618e+05 (-3.132496e+05 +/- 0.000000e+00) [K]
-------------------------------------------------------------------------------
ExternalField-molecule
    Van der Waals/kʙ        0.000000e+00 ( 0.000000e+00 +/- 0.000000e+00) [K]
Framework-molecule
    Van der Waals/kʙ        0.000000e+00 ( 0.000000e+00 +/- 0.000000e+00) [K]
    Van der Waals (Tail)/kʙ 0.000000e+00 ( 0.000000e+00 +/- 0.000000e+00) [K]
    Coulombic Real/kʙ       0.000000e+00 ( 0.000000e+00 +/- 0.000000e+00) [K]
    Coulombic Fourier/kʙ    0.000000e+00 ( 0.000000e+00 +/- 0.000000e+00) [K]
Molecule-molecule
    Van der Waals/kʙ       -2.365655e+05 (-2.256845e+05 +/- 0.000000e+00) [K]
    Van der Waals (Tail)/kʙ-7.252990e+03 (-7.183884e+03 +/- 0.000000e+00) [K]
    Coulombic Real/kʙ      -6.953428e+04 (-6.997824e+04 +/- 0.000000e+00) [K]
    Coulombic Fourier/kʙ   -1.010907e+04 (-1.040301e+04 +/- 0.000000e+00) [K]
    Molecule Intra/kʙ       0.000000e+00 ( 0.000000e+00 +/- 0.000000e+00) [K]

Current cycle: 1600 out of 5000
===============================================================================

Box:      23.55151   0.00000   0.00000  Average:  23.75927   0.00000   0.00000
           0.00000  23.55151   0.00000             0.00000  23.75927   0.00000
           0.00000   0.00000  23.55151             0.00000   0.00000  23.75927
Lengths:  23.55151  23.55151  23.55151  Average:  23.75927  23.75927  23.75927
Angles:   90.00000  90.00000  90.00000  Average:  90.00000  90.00000  90.00000
Rectangular boundary conditions

net charge:   0.00000000

component 0 (CO2) lambda:  0 occupancy:  1 (1.000000)
    net charge:   0.00000000 [e]

Amount of molecules per component :
-------------------------------------------------------------------------------
Component 0 (CO2)
    molecules:      2.000000e+02 molecules  (2.000000e+02 +/- 0.000000e+00)
    number density: 1.530995e-02 molec./A^3 (1.491834e-02 +/- 0.000000e+00)
    density:        1.118571e+03 kg/m^3     (1.089960e+03 +/- 0.000000e+00)

Average pressure tensor: 
-------------------------------------------------------------------------------
 2.6198e+02  1.8448e+01 -3.5505e+01 +/- 0.0000e+00 0.0000e+00 0.0000e+00 [bar]
 1.8448e+01  1.8261e+02 -5.1736e+01 +/- 0.0000e+00 0.0000e+00 0.0000e+00 [bar]
-3.5505e+01 -5.1736e+01  1.0484e+02 +/- 0.0000e+00 0.0000e+00 0.0000e+00 [bar]
Ideal-gas pressure:   5.149254e+02 +/ 0.000000e+00 [bar]
Excess pressure:     -3.317847e+02 +/ 0.000000e+00 [bar]
Pressure:             1.831407e+02 +/ 0.000000e+00 [bar]

Total potential energy/kʙ  -3.191972e+05 (-3.136621e+05 +/- 0.000000e+00) [K]
-------------------------------------------------------------------------------
ExternalField-molecule
    Van der Waals/kʙ        0.000000e+00 ( 0.000000e+00 +/- 0.000000e+00) [K]
Framework-molecule
    Van der Waals/kʙ        0.000000e+00 ( 0.000000e+00 +/- 0.000000e+00) [K]
    Van der Waals (Tail)/kʙ 0.000000e+00 ( 0.000000e+00 +/- 0.000000e+00) [K]
    Coulombic Real/kʙ       0.000000e+00 ( 0.000000e+00 +/- 0.000000e+00) [K]
    Coulombic Fourier/kʙ    0.000000e+00 ( 0.000000e+00 +/- 0.000000e+00) [K]
Molecule-molecule
    Van der Waals/kʙ       -2.303170e+05 (-2.260028e+05 +/- 0.000000e+00) [K]
    Van der Waals (Tail)/kʙ-7.382118e+03 (-7.191891e+03 +/- 0.000000e+00) [K]
    Coulombic Real/kʙ      -7.077901e+04 (-7.006769e+04 +/- 0.000000e+00) [K]
    Coulombic Fourier/kʙ   -1.071910e+04 (-1.039975e+04 +/- 0.000000e+00) [K]
    Molecule Intra/kʙ       0.000000e+00 ( 0.000000e+00 +/- 0.000000e+00) [K]

Current cycle: 1700 out of 5000
===============================================================================

Box:      23.52843   0.00000   0.00000  Average:  23.74768   0.00000   0.00000
           0.00000  23.52843   0.00000             0.00000  23.74768   0.00000
           0.00000   0.00000  23.52843             0.00000   0.00000  23.74768
Lengths:  23.52843  23.52843  23.52843  Average:  23.74768  23.74768  23.74768
Angles:   90.00000  90.00000  90.00000  Average:  90.00000  90.00000  90.00000
Rectangular boundary conditions

net charge:   0.00000000

component 0 (CO2) lambda:  0 occupancy:  1 (1.000000)
    net charge:   0.00000000 [e]

Amount of molecules per component :
-------------------------------------------------------------------------------
Component 0 (CO2)
    molecules:      2.000000e+02 molecules  (2.000000e+02 +/- 0.000000e+00)
    number density: 1.535505e-02 molec./A^3 (1.494018e-02 +/- 0.000000e+00)
    density:        1.121867e+03 kg/m^3     (1.091555e+03 +/- 0.000000e+00)

Average pressure tensor: 
-------------------------------------------------------------------------------
 2.6748e+02  2.3708e+01 -3.2781e+01 +/- 0.0000e+00 0.0000e+00 0.0000e+00 [bar]
 2.3708e+01  1.7379e+02 -4.6537e+01 +/- 0.0000e+00 0.0000e+00 0.0000e+00 [bar]
-3.2781e+01 -4.6537e+01  1.0013e+02 +/- 0.0000e+00 0.0000e+00 0.0000e+00 [bar]
Ideal-gas pressure:   5.156789e+02 +/ 0.000000e+00 [bar]
Excess pressure:     -3.352118e+02 +/ 0.000000e+00 [bar]
Pressure:             1.804671e+02 +/ 0.000000e+00 [bar]

Total potential energy/kʙ  -3.287876e+05 (-3.142623e+05 +/- 0.000000e+00) [K]
-------------------------------------------------------------------------------
ExternalField-molecule
    Van der Waals/kʙ        0.000000e+00 ( 0.000000e+00 +/- 0.000000e+00) [K]
Framework-molecule
    Van der Waals/kʙ        0.000000e+00 ( 0.000000e+00 +/- 0.000000e+00) [K]
    Van der Waals (Tail)/kʙ 0.000000e+00 ( 0.000000e+00 +/- 0.000000e+00) [K]
    Coulombic Real/kʙ       0.000000e+00 ( 0.000000e+00 +/- 0.000000e+00) [K]
    Coulombic Fourier/kʙ    0.000000e+00 ( 0.000000e+00 +/- 0.000000e+00) [K]
Molecule-molecule
    Van der Waals/kʙ       -2.364325e+05 (-2.264555e+05 +/- 0.000000e+00) [K]
    Van der Waals (Tail)/kʙ-7.403868e+03 (-7.201247e+03 +/- 0.000000e+00) [K]
    Coulombic Real/kʙ      -7.446653e+04 (-7.017584e+04 +/- 0.000000e+00) [K]
    Coulombic Fourier/kʙ   -1.048470e+04 (-1.042969e+04 +/- 0.000000e+00) [K]
    Molecule Intra/kʙ       0.000000e+00 ( 0.000000e+00 +/- 0.000000e+00) [K]

Current cycle: 1800 out of 5000
===============================================================================

Box:      23.62912   0.00000   0.00000  Average:  23.74025   0.00000   0.00000
           0.00000  23.62912   0.00000             0.00000  23.74025   0.00000
           0.00000   0.00000  23.62912             0.00000   0.00000  23.74025
Lengths:  23.62912  23.62912  23.62912  Average:  23.74025  23.74025  23.74025
Angles:   90.00000  90.00000  90.00000  Average:  90.00000  90.00000  90.00000
Rectangular boundary conditions

net charge:   0.00000000

component 0 (CO2) lambda:  0 occupancy:  1 (1.000000)
    net charge:   0.00000000 [e]

Amount of molecules per component :
-------------------------------------------------------------------------------
Component 0 (CO2)
    molecules:      2.000000e+02 molecules  (2.000000e+02 +/- 0.000000e+00)
    number density: 1.515960e-02 molec./A^3 (1.495404e-02 +/- 0.000000e+00)
    density:        1.107586e+03 kg/m^3     (1.092568e+03 +/- 0.000000e+00)

Average pressure tensor: 
-------------------------------------------------------------------------------
 2.6224e+02  3.2412e+01 -2.4375e+01 +/- 0.0000e+00 0.0000e+00 0.0000e+00 [bar]
 3.2412e+01  1.7231e+02 -3.2901e+01 +/- 0.0000e+00 0.0000e+00 0.0000e+00 [bar]
-2.4375e+01 -3.2901e+01  9.5043e+01 +/- 0.0000e+00 0.0000e+00 0.0000e+00 [bar]
Ideal-gas pressure:   5.161576e+02 +/ 0.000000e+00 [bar]
Excess pressure:     -3.396262e+02 +/ 0.000000e+00 [bar]
Pressure:             1.765314e+02 +/ 0.000000e+00 [bar]

Total potential energy/kʙ  -3.243399e+05 (-3.146693e+05 +/- 0.000000e+00) [K]
-------------------------------------------------------------------------------
ExternalField-molecule
    Van der Waals/kʙ        0.000000e+00 ( 0.000000e+00 +/- 0.000000e+00) [K]
Framework-molecule
    Van der Waals/kʙ        0.000000e+00 ( 0.000000e+00 +/- 0.000000e+00) [K]
    Van der Waals (Tail)/kʙ 0.000000e+00 ( 0.000000e+00 +/- 0.000000e+00) [K]
    Coulombic Real/kʙ       0.000000e+00 ( 0.000000e+00 +/- 0.000000e+00) [K]
    Coulombic Fourier/kʙ    0.000000e+00 ( 0.000000e+00 +/- 0.000000e+00) [K]
Molecule-molecule
    Van der Waals/kʙ       -2.306696e+05 (-2.267275e+05 +/- 0.000000e+00) [K]
    Van der Waals (Tail)/kʙ-7.309622e+03 (-7.207362e+03 +/- 0.000000e+00) [K]
    Coulombic Real/kʙ      -7.596076e+04 (-7.032372e+04 +/- 0.000000e+00) [K]
    Coulombic Fourier/kʙ   -1.039990e+04 (-1.041076e+04 +/- 0.000000e+00) [K]
    Molecule Intra/kʙ       0.000000e+00 ( 0.000000e+00 +/- 0.000000e+00) [K]

Current cycle: 1900 out of 5000
===============================================================================

Box:      23.79197   0.00000   0.00000  Average:  23.73603   0.00000   0.00000
           0.00000  23.79197   0.00000             0.00000  23.73603   0.00000
           0.00000   0.00000  23.79197             0.00000   0.00000  23.73603
Lengths:  23.79197  23.79197  23.79197  Average:  23.73603  23.73603  23.73603
Angles:   90.00000  90.00000  90.00000  Average:  90.00000  90.00000  90.00000
Rectangular boundary conditions

net charge:   0.00000000

component 0 (CO2) lambda:  0 occupancy:  1 (1.000000)
    net charge:   0.00000000 [e]

Amount of molecules per component :
-------------------------------------------------------------------------------
Component 0 (CO2)
    molecules:      2.000000e+02 molecules  (2.000000e+02 +/- 0.000000e+00)
    number density: 1.485043e-02 molec./A^3 (1.496187e-02 +/- 0.000000e+00)
    density:        1.084998e+03 kg/m^3     (1.093140e+03 +/- 0.000000e+00)

Average pressure tensor: 
-------------------------------------------------------------------------------
 2.4962e+02  2.4849e+01 -2.0349e+01 +/- 0.0000e+00 0.0000e+00 0.0000e+00 [bar]
 2.4849e+01  1.7213e+02 -3.3935e+01 +/- 0.0000e+00 0.0000e+00 0.0000e+00 [bar]
-2.0349e+01 -3.3935e+01  1.0646e+02 +/- 0.0000e+00 0.0000e+00 0.0000e+00 [bar]
Ideal-gas pressure:   5.164279e+02 +/ 0.000000e+00 [bar]
Excess pressure:     -3.403593e+02 +/ 0.000000e+00 [bar]
Pressure:             1.760686e+02 +/ 0.000000e+00 [bar]

Total potential energy/kʙ  -3.197599e+05 (-3.149987e+05 +/- 0.000000e+00) [K]
-------------------------------------------------------------------------------
ExternalField-molecule
    Van der Waals/kʙ        0.000000e+00 ( 0.000000e+00 +/- 0.000000e+00) [K]
Framework-molecule
    Van der Waals/kʙ        0.000000e+00 ( 0.000000e+00 +/- 0.000000e+00) [K]
    Van der Waals (Tail)/kʙ 0.000000e+00 ( 0.000000e+00 +/- 0.000000e+00) [K]
    Coulombic Real/kʙ       0.000000e+00 ( 0.000000e+00 +/- 0.000000e+00) [K]
    Coulombic Fourier/kʙ    0.000000e+00 ( 0.000000e+00 +/- 0.000000e+00) [K]
Molecule-molecule
    Van der Waals/kʙ       -2.256081e+05 (-2.268237e+05 +/- 0.000000e+00) [K]
    Van der Waals (Tail)/kʙ-7.160548e+03 (-7.210974e+03 +/- 0.000000e+00) [K]
    Coulombic Real/kʙ      -7.723419e+04 (-7.057189e+04 +/- 0.000000e+00) [K]
    Coulombic Fourier/kʙ   -9.757134e+03 (-1.039212e+04 +/- 0.000000e+00) [K]
    Molecule Intra/kʙ       0.000000e+00 ( 0.000000e+00 +/- 0.000000e+00) [K]

Current cycle: 2000 out of 5000
===============================================================================

Box:      23.64414   0.00000   0.00000  Average:  23.74001   0.00000   0.00000
           0.00000  23.64414   0.00000             0.00000  23.74001   0.00000
           0.00000   0.00000  23.64414             0.00000   0.00000  23.74001
Lengths:  23.64414  23.64414  23.64414  Average:  23.74001  23.74001  23.74001
Angles:   90.00000  90.00000  90.00000  Average:  90.00000  90.00000  90.00000
Rectangular boundary conditions

net charge:   0.00000000

component 0 (CO2) lambda:  0 occupancy:  1 (1.000000)
    net charge:   0.00000000 [e]

Amount of molecules per component :
-------------------------------------------------------------------------------
Component 0 (CO2)
    molecules:      2.000000e+02 molecules  (2.000000e+02 +/- 0.000000e+00)
    number density: 1.513072e-02 molec./A^3 (1.495416e-02 +/- 0.000000e+00)
    density:        1.105476e+03 kg/m^3     (1.092577e+03 +/- 0.000000e+00)

Average pressure tensor: 
-------------------------------------------------------------------------------
 2.3873e+02  2.2939e+01 -1.6439e+01 +/- 0.0000e+00 0.0000e+00 0.0000e+00 [bar]
 2.2939e+01  1.6736e+02 -1.7640e+01 +/- 0.0000e+00 0.0000e+00 0.0000e+00 [bar]
-1.6439e+01 -1.7640e+01  1.2281e+02 +/- 0.0000e+00 0.0000e+00 0.0000e+00 [bar]
Ideal-gas pressure:   5.161618e+02 +/ 0.000000e+00 [bar]
Excess pressure:     -3.398631e+02 +/ 0.000000e+00 [bar]
Pressure:             1.762986e+02 +/ 0.000000e+00 [bar]

Total potential energy/kʙ  -3.190340e+05 (-3.148747e+05 +/- 0.000000e+00) [K]
-------------------------------------------------------------------------------
ExternalField-molecule
    Van der Waals/kʙ        0.000000e+00 ( 0.000000e+00 +/- 0.000000e+00) [K]
Framework-molecule
    Van der Waals/kʙ        0.000000e+00 ( 0.000000e+00 +/- 0.000000e+00) [K]
    Van der Waals (Tail)/kʙ 0.000000e+00 ( 0.000000e+00 +/- 0.000000e+00) [K]
    Coulombic Real/kʙ       0.000000e+00 ( 0.000000e+00 +/- 0.000000e+00) [K]
    Coulombic Fourier/kʙ    0.000000e+00 ( 0.000000e+00 +/- 0.000000e+00) [K]
Molecule-molecule
    Van der Waals/kʙ       -2.278520e+05 (-2.266900e+05 +/- 0.000000e+00) [K]
    Van der Waals (Tail)/kʙ-7.295700e+03 (-7.208954e+03 +/- 0.000000e+00) [K]
    Coulombic Real/kʙ      -7.282755e+04 (-7.058730e+04 +/- 0.000000e+00) [K]
    Coulombic Fourier/kʙ   -1.105884e+04 (-1.038845e+04 +/- 0.000000e+00) [K]
    Molecule Intra/kʙ       0.000000e+00 ( 0.000000e+00 +/- 0.000000e+00) [K]

Current cycle: 2100 out of 5000
===============================================================================

Box:      23.59199   0.00000   0.00000  Average:  23.73783   0.00000   0.00000
           0.00000  23.59199   0.00000             0.00000  23.73783   0.00000
           0.00000   0.00000  23.59199             0.00000   0.00000  23.73783
Lengths:  23.59199  23.59199  23.59199  Average:  23.73783  23.73783  23.73783
Angles:   90.00000  90.00000  90.00000  Average:  90.00000  90.00000  90.00000
Rectangular boundary conditions

net charge:   0.00000000

component 0 (CO2) lambda:  0 occupancy:  1 (1.000000)
    net charge:   0.00000000 [e]

Amount of molecules per component :
-------------------------------------------------------------------------------
Component 0 (CO2)
    molecules:      2.000000e+02 molecules  (2.000000e+02 +/- 0.000000e+00)
    number density: 1.523128e-02 molec./A^3 (1.495806e-02 +/- 0.000000e+00)
    density:        1.112824e+03 kg/m^3     (1.092862e+03 +/- 0.000000e+00)

Average pressure tensor: 
-------------------------------------------------------------------------------
 2.4001e+02  2.4237e+01 -1.6741e+01 +/- 0.0000e+00 0.0000e+00 0.0000e+00 [bar]
 2.4237e+01  1.7988e+02 -2.2467e+00 +/- 0.0000e+00 0.0000e+00 0.0000e+00 [bar]
-1.6741e+01 -2.2467e+00  1.2378e+02 +/- 0.0000e+00 0.0000e+00 0.0000e+00 [bar]
Ideal-gas pressure:   5.162964e+02 +/ 0.000000e+00 [bar]
Excess pressure:     -3.350745e+02 +/ 0.000000e+00 [bar]
Pressure:             1.812219e+02 +/ 0.000000e+00 [bar]

Total potential energy/kʙ  -3.118411e+05 (-3.148378e+05 +/- 0.000000e+00) [K]
-------------------------------------------------------------------------------
ExternalField-molecule
    Van der Waals/kʙ        0.000000e+00 ( 0.000000e+00 +/- 0.000000e+00) [K]
Framework-molecule
    Van der Waals/kʙ        0.000000e+00 ( 0.000000e+00 +/- 0.000000e+00) [K]
    Van der Waals (Tail)/kʙ 0.000000e+00 ( 0.000000e+00 +/- 0.000000e+00) [K]
[...]
    Coulombic Fourier/kʙ    0.000000e+00 ( 0.000000e+00 +/- 0.000000e+00) [K]
Molecule-molecule
    Van der Waals/kʙ       -2.202479e+05 (-2.275473e+05 +/- 2.447147e+03) [K]
    Van der Waals (Tail)/kʙ-7.240342e+03 (-7.237958e+03 +/- 7.638290e+01) [K]
    Coulombic Real/kʙ      -7.135632e+04 (-7.047917e+04 +/- 1.918922e+03) [K]
    Coulombic Fourier/kʙ   -1.067182e+04 (-1.053176e+04 +/- 2.875536e+02) [K]
    Molecule Intra/kʙ       0.000000e+00 ( 0.000000e+00 +/- 0.000000e+00) [K]

Current cycle: 4700 out of 5000
===============================================================================

Box:      23.48038   0.00000   0.00000  Average:  23.70908   0.00000   0.00000
           0.00000  23.48038   0.00000             0.00000  23.70908   0.00000
           0.00000   0.00000  23.48038             0.00000   0.00000  23.70908
Lengths:  23.48038  23.48038  23.48038  Average:  23.70908  23.70908  23.70908
Angles:   90.00000  90.00000  90.00000  Average:  90.00000  90.00000  90.00000
Rectangular boundary conditions

net charge:   0.00000000

component 0 (CO2) lambda:  0 occupancy:  1 (1.000000)
    net charge:   0.00000000 [e]

Amount of molecules per component :
-------------------------------------------------------------------------------
Component 0 (CO2)
    molecules:      2.000000e+02 molecules  (2.000000e+02 +/- 0.000000e+00)
    number density: 1.544952e-02 molec./A^3 (1.501183e-02 +/- 1.564862e-04)
    density:        1.128768e+03 kg/m^3     (1.096790e+03 +/- 1.143315e+01)

Average pressure tensor: 
-------------------------------------------------------------------------------
 2.0401e+02  3.0652e+01 -2.7316e+01 +/- 6.1972e+01 3.6409e+01 4.6952e+01 [bar]
 3.0652e+01  1.8829e+02  8.0829e+00 +/- 3.6409e+01 6.1256e+01 1.0470e+02 [bar]
-2.7316e+01  8.0829e+00  1.5244e+02 +/- 4.6952e+01 1.0470e+02 7.4618e+01 [bar]
Ideal-gas pressure:   5.181523e+02 +/ 5.401316e+00 [bar]
Excess pressure:     -3.365717e+02 +/ 2.209421e+01 [bar]
Pressure:             1.815806e+02 +/ 2.280177e+01 [bar]

Total potential energy/kʙ  -3.314486e+05 (-3.158048e+05 +/- 4.161176e+03) [K]
-------------------------------------------------------------------------------
ExternalField-molecule
    Van der Waals/kʙ        0.000000e+00 ( 0.000000e+00 +/- 0.000000e+00) [K]
Framework-molecule
    Van der Waals/kʙ        0.000000e+00 ( 0.000000e+00 +/- 0.000000e+00) [K]
    Van der Waals (Tail)/kʙ 0.000000e+00 ( 0.000000e+00 +/- 0.000000e+00) [K]
    Coulombic Real/kʙ       0.000000e+00 ( 0.000000e+00 +/- 0.000000e+00) [K]
    Coulombic Fourier/kʙ    0.000000e+00 ( 0.000000e+00 +/- 0.000000e+00) [K]
Molecule-molecule
    Van der Waals/kʙ       -2.354277e+05 (-2.275015e+05 +/- 2.466806e+03) [K]
    Van der Waals (Tail)/kʙ-7.449415e+03 (-7.237244e+03 +/- 7.539660e+01) [K]
    Coulombic Real/kʙ      -7.741328e+04 (-7.052673e+04 +/- 1.908346e+03) [K]
    Coulombic Fourier/kʙ   -1.115823e+04 (-1.053941e+04 +/- 2.670776e+02) [K]
    Molecule Intra/kʙ       0.000000e+00 ( 0.000000e+00 +/- 0.000000e+00) [K]

Current cycle: 4800 out of 5000
===============================================================================

Box:      23.53154   0.00000   0.00000  Average:  23.70495   0.00000   0.00000
           0.00000  23.53154   0.00000             0.00000  23.70495   0.00000
           0.00000   0.00000  23.53154             0.00000   0.00000  23.70495
Lengths:  23.53154  23.53154  23.53154  Average:  23.70495  23.70495  23.70495
Angles:   90.00000  90.00000  90.00000  Average:  90.00000  90.00000  90.00000
Rectangular boundary conditions

net charge:   0.00000000

component 0 (CO2) lambda:  0 occupancy:  1 (1.000000)
    net charge:   0.00000000 [e]

Amount of molecules per component :
-------------------------------------------------------------------------------
Component 0 (CO2)
    molecules:      2.000000e+02 molecules  (2.000000e+02 +/- 0.000000e+00)
    number density: 1.534896e-02 molec./A^3 (1.501970e-02 +/- 1.416297e-04)
    density:        1.121421e+03 kg/m^3     (1.097365e+03 +/- 1.034771e+01)

Average pressure tensor: 
-------------------------------------------------------------------------------
 2.1108e+02  3.0532e+01 -2.7990e+01 +/- 7.4158e+01 3.4786e+01 4.5305e+01 [bar]
 3.0532e+01  1.8475e+02  4.2210e+00 +/- 3.4786e+01 6.4397e+01 1.0754e+02 [bar]
-2.7990e+01  4.2210e+00  1.5158e+02 +/- 4.5305e+01 1.0754e+02 7.3839e+01 [bar]
Ideal-gas pressure:   5.184240e+02 +/ 4.888528e+00 [bar]
Excess pressure:     -3.359529e+02 +/ 2.167413e+01 [bar]
Pressure:             1.824712e+02 +/ 2.182595e+01 [bar]

Total potential energy/kʙ  -3.281476e+05 (-3.160398e+05 +/- 4.013635e+03) [K]
-------------------------------------------------------------------------------
ExternalField-molecule
    Van der Waals/kʙ        0.000000e+00 ( 0.000000e+00 +/- 0.000000e+00) [K]
Framework-molecule
    Van der Waals/kʙ        0.000000e+00 ( 0.000000e+00 +/- 0.000000e+00) [K]
    Van der Waals (Tail)/kʙ 0.000000e+00 ( 0.000000e+00 +/- 0.000000e+00) [K]
    Coulombic Real/kʙ       0.000000e+00 ( 0.000000e+00 +/- 0.000000e+00) [K]
    Coulombic Fourier/kʙ    0.000000e+00 ( 0.000000e+00 +/- 0.000000e+00) [K]
Molecule-molecule
    Van der Waals/kʙ       -2.359146e+05 (-2.276622e+05 +/- 2.286838e+03) [K]
    Van der Waals (Tail)/kʙ-7.400929e+03 (-7.240801e+03 +/- 6.957457e+01) [K]
    Coulombic Real/kʙ      -7.431446e+04 (-7.059684e+04 +/- 1.922492e+03) [K]
    Coulombic Fourier/kʙ   -1.051763e+04 (-1.053999e+04 +/- 2.627495e+02) [K]
    Molecule Intra/kʙ       0.000000e+00 ( 0.000000e+00 +/- 0.000000e+00) [K]

Current cycle: 4900 out of 5000
===============================================================================

Box:      23.47349   0.00000   0.00000  Average:  23.70084   0.00000   0.00000
           0.00000  23.47349   0.00000             0.00000  23.70084   0.00000
           0.00000   0.00000  23.47349             0.00000   0.00000  23.70084
Lengths:  23.47349  23.47349  23.47349  Average:  23.70084  23.70084  23.70084
Angles:   90.00000  90.00000  90.00000  Average:  90.00000  90.00000  90.00000
Rectangular boundary conditions

net charge:   0.00000000

component 0 (CO2) lambda:  0 occupancy:  1 (1.000000)
    net charge:   0.00000000 [e]

Amount of molecules per component :
-------------------------------------------------------------------------------
Component 0 (CO2)
    molecules:      2.000000e+02 molecules  (2.000000e+02 +/- 0.000000e+00)
    number density: 1.546311e-02 molec./A^3 (1.502758e-02 +/- 1.352727e-04)
    density:        1.129761e+03 kg/m^3     (1.097941e+03 +/- 9.883257e+00)

Average pressure tensor: 
-------------------------------------------------------------------------------
 2.1571e+02  2.6196e+01 -2.5083e+01 +/- 8.0723e+01 2.9369e+01 3.6111e+01 [bar]
 2.6196e+01  1.8178e+02 -5.8459e-01 +/- 2.9369e+01 6.7203e+01 1.1167e+02 [bar]
-2.5083e+01 -5.8459e-01  1.4831e+02 +/- 3.6111e+01 1.1167e+02 7.7258e+01 [bar]
Ideal-gas pressure:   5.186958e+02 +/ 4.669108e+00 [bar]
Excess pressure:     -3.367620e+02 +/ 2.201692e+01 [bar]
Pressure:             1.819338e+02 +/ 2.208114e+01 [bar]

Total potential energy/kʙ  -3.248834e+05 (-3.162556e+05 +/- 4.032319e+03) [K]
-------------------------------------------------------------------------------
ExternalField-molecule
    Van der Waals/kʙ        0.000000e+00 ( 0.000000e+00 +/- 0.000000e+00) [K]
Framework-molecule
    Van der Waals/kʙ        0.000000e+00 ( 0.000000e+00 +/- 0.000000e+00) [K]
    Van der Waals (Tail)/kʙ 0.000000e+00 ( 0.000000e+00 +/- 0.000000e+00) [K]
    Coulombic Real/kʙ       0.000000e+00 ( 0.000000e+00 +/- 0.000000e+00) [K]
    Coulombic Fourier/kʙ    0.000000e+00 ( 0.000000e+00 +/- 0.000000e+00) [K]
Molecule-molecule
    Van der Waals/kʙ       -2.351933e+05 (-2.278259e+05 +/- 2.266643e+03) [K]
    Van der Waals (Tail)/kʙ-7.455970e+03 (-7.244082e+03 +/- 6.727368e+01) [K]
    Coulombic Real/kʙ      -7.182969e+04 (-7.064544e+04 +/- 1.941393e+03) [K]
    Coulombic Fourier/kʙ   -1.040447e+04 (-1.054023e+04 +/- 2.600713e+02) [K]
    Molecule Intra/kʙ       0.000000e+00 ( 0.000000e+00 +/- 0.000000e+00) [K]


Energy statistics             |  Energy [K]   | Recomputed [K]|  Drift [K]    |
===============================================================================
Total potential energy/kʙ     | -3.166951e+05 | -3.166951e+05 |  1.830047e-09 |
    external field VDW/kʙ     |  0.000000e+00 |  0.000000e+00 |  0.000000e+00 |
    external field Real/kʙ    |  0.000000e+00 |  0.000000e+00 |  0.000000e+00 |
    framework-molecule VDW/kʙ |  0.000000e+00 |  0.000000e+00 |  0.000000e+00 |
    framework-molecule Real/kʙ|  0.000000e+00 |  0.000000e+00 |  0.000000e+00 |
    molecule-molecule VDW/kʙ  | -2.240727e+05 | -2.240727e+05 |  1.190132e-09 |
    molecule-molecule Real/kʙ | -7.417129e+04 | -7.417129e+04 |  6.125680e-10 |
    Van der Waals (Tail)/kʙ   | -7.177401e+03 | -7.177401e+03 |  0.000000e+00 |
    Ewald Fourier/kʙ          |  6.879358e+03 |  6.879358e+03 |  2.734678e-11 |
    Ewald self/kʙ             | -4.023739e+06 | -4.023739e+06 |  0.000000e+00 |
    Ewald exclusion/kʙ        |  4.005586e+06 |  4.005586e+06 |  0.000000e+00 |
    intra VDW/kʙ              |  0.000000e+00 |  0.000000e+00 |  0.000000e+00 |
    intra Coulombic/kʙ        |  0.000000e+00 |  0.000000e+00 |  0.000000e+00 |
    polarization/kʙ           |  0.000000e+00 |  0.000000e+00 |  0.000000e+00 |
    dU/dlambda VDW/kʙ         |  0.000000e+00 |  0.000000e+00 |  0.000000e+00 |
    dU/dlambda Real/kʙ        |  0.000000e+00 |  0.000000e+00 |  0.000000e+00 |
    dU/dlambda Ewald/kʙ       |  0.000000e+00 |  0.000000e+00 |  0.000000e+00 |
-------------------------------------------------------------------------------


Monte-Carlo moves statistics
===============================================================================

    Volume change        all:                6660
    Volume change        total:              6660
    Volume change        constructed:        6660
    Volume change        accepted:           1494
    Volume change        fraction:       0.224324
    Volume change        max-change:     0.066667

Component 0 [CO2]
    Reinsertion (CBMC)   all:              331685
    Reinsertion (CBMC)   total:            331685
    Reinsertion (CBMC)   constructed:      283204
    Reinsertion (CBMC)   accepted:           2737
    Reinsertion (CBMC)   fraction:       0.008252
    Reinsertion (CBMC)   max-change:     0.000000

    Translation          all:              331008
    Translation          total:            110234     110446     110328
    Translation          constructed:      110234     110446     110328
    Translation          accepted:          49169      49614      56845
    Translation          fraction:       0.446042   0.449215   0.515236
    Translation          max-change:     0.750000   0.742424   0.608696

    Rotation             all:              330647
    Rotation             total:            110162     110183     110302
    Rotation             constructed:      110161     110180     109889
    Rotation             accepted:          50544      51878      33960
    Rotation             fraction:       0.458815   0.470835   0.307882
    Rotation             max-change:     0.760870   0.731429   1.298611



Production run counting of the MC moves summed over systems and components
===============================================================================

Volume change                          6660 (0.6660 [%])
Reinsertion (CBMC)                   331685 (33.1685 [%])
Translation                          331008 (33.1008 [%])
Rotation                             330647 (33.0647 [%])

Production count MC-steps:          1000000 [-]
               All summed:          1000000 [-]
               difference:                0 [-]


Production run CPU timings of the MC moves
===============================================================================

Component 0 CO2

Rotation                             31.152498 [s]
    Ewald                            10.639664 [s]
    ExternalField-Molecule            0.010861 [s]
    Framework-Molecule                0.015161 [s]
    Molecule-Molecule                19.724422 [s]
    Overhead                          0.762390 [s]

Reinsertion (CBMC)                  141.190898 [s]
    Ewald                             9.338237 [s]
    NonEwald                        131.614684 [s]
    Overhead                          0.237977 [s]

Translation                          31.318516 [s]
    Ewald                            10.670412 [s]
    ExternalField-Molecule            0.017559 [s]
    Framework-Molecule                0.021998 [s]
    Molecule-Molecule                19.788916 [s]
    Overhead                          0.819631 [s]



Volume change                         31.974901 [s]
    Ewald                              8.962259 [s]
    NonEwald                          21.879753 [s]
    Tail                               0.913503 [s]

Property sampling                     0.766752 [s]
Energy/pressure sampling:             4.399749 [s]


Production run CPU timings of the MC moves summed over systems and components
===============================================================================


Translation                          31.318516 [s]
    Ewald                            10.670412 [s]
    ExternalField-Molecule            0.017559 [s]
    Framework-Molecule                0.021998 [s]
    Molecule-Molecule                19.788916 [s]
    Overhead                          0.819631 [s]

Rotation                             31.152498 [s]
    Ewald                            10.639664 [s]
    ExternalField-Molecule            0.010861 [s]
    Framework-Molecule                0.015161 [s]
    Molecule-Molecule                19.724422 [s]
    Overhead                          0.762390 [s]

Volume change                        31.974901 [s]
    Ewald                             8.962259 [s]
    NonEwald                         21.879753 [s]
    Tail                              0.913503 [s]
    Overhead                          0.219386 [s]

Reinsertion (CBMC)                  141.190898 [s]
    Ewald                             9.338237 [s]
    NonEwald                        131.614684 [s]
    Overhead                          0.237977 [s]

Property sampling:                    0.766752 [s]
Energy/pressure sampling:             4.399749 [s]

Production simulation time:         241.361015 [s]
                All summed:         240.803314 [s]
                  Overhead:           0.557701 [s]


Initalization simulation time:       39.740959 [s]
Equilibration simulation time:        0.000000 [s]
Production simulation time:         241.361015 [s]
Total simulation time:              281.101974 [s]


Energy averages and statistics:
===============================================================================

Framework-molecule energy:
-------------------------------------------------------------------------------



Framework-molecule energy contributions per energy type:
-------------------------------------------------------------------------------



Inter-molecular energy:
-------------------------------------------------------------------------------

    Inter-molecular energy/kʙ 0-0 [CO2-CO2]:
    ---------------------------------------------------------------------------
        Block[  0] -3.107021e+05
        Block[  1] -3.190058e+05
        Block[  2] -3.180408e+05
        Block[  3] -3.166782e+05
        Block[  4] -3.172302e+05
        -----------------------------------------------------------------------
        Average  -3.163314e+05 +/-  4.055784e+03 [K]



Inter-molecular energy contributions per energy type:
-------------------------------------------------------------------------------

    Van der Waals energy/kʙ 0-0 [CO2-CO2]:
    ---------------------------------------------------------------------------
        Block[  0] -2.248272e+05
        Block[  1] -2.285413e+05
        Block[  2] -2.297628e+05
        Block[  3] -2.279403e+05
        Block[  4] -2.281928e+05
        -----------------------------------------------------------------------
        Average  -2.278529e+05 +/-  2.272244e+03 [K]

    VDW Tail-Correction energy/kʙ 0-0 [CO2-CO2]:
    ---------------------------------------------------------------------------
        Block[  0] -7.157644e+03
        Block[  1] -7.259397e+03
        Block[  2] -7.302098e+03
        Block[  3] -7.267459e+03
        Block[  4] -7.237065e+03
        -----------------------------------------------------------------------
        Average  -7.244732e+03 +/-  6.704357e+01 [K]

    Coulomb Real energy/kʙ 0-0 [CO2-CO2]:
    ---------------------------------------------------------------------------
        Block[  0] -6.842758e+04
        Block[  1] -7.272462e+04
        Block[  2] -7.015316e+04
        Block[  3] -7.080044e+04
        Block[  4] -7.134262e+04
        -----------------------------------------------------------------------
        Average  -7.068968e+04 +/-  1.961406e+03 [K]

    Coulomb Fourier energy/kʙ 0-0 [CO2-CO2]:
    ---------------------------------------------------------------------------
        Block[  0] -1.028970e+04
        Block[  1] -1.048049e+04
        Block[  2] -1.082272e+04
        Block[  3] -1.067000e+04
        Block[  4] -1.045773e+04
        -----------------------------------------------------------------------
        Average  -1.054413e+04 +/-  2.557117e+02 [K]


Total energy/kʙ
-------------------------------------------------------------------------------
    Block[  0] -3.107021e+05
    Block[  1] -3.190058e+05
    Block[  2] -3.180408e+05
    Block[  3] -3.166782e+05
    Block[  4] -3.172302e+05
    ---------------------------------------------------------------------------
    Average  -3.163314e+05 +/-  4.055784e+03 [K]

Pressure averages and statistics:
===============================================================================

Average pressure tensor: 
-------------------------------------------------------------------------------
 2.1279e+02  2.3730e+01 -2.2772e+01 +/- 7.1518e+01 2.9223e+01 3.1059e+01 [bar]
 2.3730e+01  1.8221e+02 -5.2391e-01 +/- 2.9223e+01 6.5566e+01 1.1012e+02 [bar]
-2.2772e+01 -5.2391e-01  1.5180e+02 +/- 3.1059e+01 1.1012e+02 7.0450e+01 [bar]

    Block[  0]  5.130262e+07
    Block[  1]  5.192913e+07
    Block[  2]  5.233776e+07
    Block[  3]  5.198769e+07
    Block[  4]  5.182077e+07
    ---------------------------------------------------------------------------
    Ideal gas pressure   5.187559e+07 +/-  2.798196e-02 [Pa]
                         5.187559e+02 +/-  4.646517e+00 [bar]


    Block[  0] -3.401334e+07
    Block[  1] -3.394617e+07
    Block[  2] -3.544805e+07
    Block[  3] -3.070573e+07
    Block[  4] -3.413182e+07
    ---------------------------------------------------------------------------
    Excess pressure  -3.364902e+07 +/-  2.181731e+06 [Pa]
                     -3.364902e+02 +/-  2.181731e+01 [bar]


    Block[  0]  1.728927e+07
    Block[  1]  1.798296e+07
    Block[  2]  1.688970e+07
    Block[  3]  2.128196e+07
    Block[  4]  1.768896e+07
    ---------------------------------------------------------------------------
    Pressure average   1.822657e+07 +/-  2.181372e+06 [Pa]
                       1.822657e+02 +/-  2.181372e+01 [bar]


Enthalpy of adsorption
===============================================================================

No fluctuating components present.


Densities
===============================================================================

Component 0 (CO2)
    Block[  0] 200
    Block[  1] 200
    Block[  2] 200
    Block[  3] 200
    Block[  4] 200
    -----------------------------------------------------------------------
    Density average   2.000000e+02 +/-  0.000000e+00 [molecules]
    Density average   1.502932e-02 +/-  1.346182e-04 [molec/A^3]
    Density average   1.098068e+03 +/-  9.835437e+00 [kg.m⁻³]

