Compiler and run-time data
===============================================================================
RASPA 3.0.4

Random seed: 2614570654

Compiled as a 64-bits application
Compiler: gcc Ubuntu Clang 18.1.3 (1ubuntu1)
Compile Date = Mar 15 2025, Compile Time = 19:39:45

2025-06-02 13:21:36.152345
Simulation started on Mon, Jun 02
The start time was 13:21:00

Hostname:    c062
OS type:     Linux on x86_64
OS release:  6.8.0-58-generic
OS version:  #60-Ubuntu SMP PREEMPT_DYNAMIC Fri Mar 14 18:29:48 UTC 2025


Mutual consistent basic set of units:
===============================================================================

Unit of temperature: 1 [K]
Unit of length:      1e-10 [m]
Unit of time:        1e-12 [s]
Unit of mass:        1.6605402e-27 [kg]
Unit of charge:      1.60217733e-19 [C/particle]


Boltzmann constant (internal units):          0.8314464919307584 [-]
represents conversion from energy (internal units) to temperature (in Kelvin)

Derived units and their conversion factors:
===============================================================================

Unit of energy:                           1.6605402000000002e-23 [J]
Unit of energy:                           10.000008872307538 [J.mol⁻¹]
Unit of velocity:                         100 [m.s⁻¹]
Unit of force:                            1.6605402000000002e-13 [N]
Unit of diffusion:                        1.0000000000000002e-08 [m².s⁻¹]
Unit of acceleration:                     1.0000000000000002e-08 [m².s⁻¹]
Unit of torque:                           1.6605402000000002e-23 [N.m]
Unit of pressure:                         16605402 [Pa]
Unit of volume:                           1e-30 [m³]
Unit of density:                          1660.5402 [kg.m⁻³]
Unit of dynamic viscosity:                1.6605401999999997e-05 [N.s.m⁻²]
Unit of enthalpy:                         1.6605402000000002e-23 [J]
Unit of polarizability:                   1.5458657349975198e-35 [-]
Unit of Coulomb potential:                167101.08000665612 [K]
Unit of dielectric constant:              1.5458657349975193e-05 [s².C².kg⁻¹.m⁻³]
Unit of dipole moment:                    1.60217733e-29 [C.m]
Unit of Debye:                            4.803206799099162 [C.m]
Unit of electric potential:               0.00010364272224473431 [V]
Unit of electric field:                   1036427.222447343 [V.m⁻¹]
Unit of isothermal compressibility:       6.02213665167516e-08 [Pa⁻¹]
Unit of heat capacity:                    10.000008872307538 [J.mol⁻¹.K⁻¹]
Unit of volumetric expansion coefficient: 1 [K⁻¹]


Internal conversion factors:
===============================================================================

Energy (internal units) to Kelvin:      1.202724284692786 [-]
Kelvin to energy (internal units):      0.8314457542157567 [-]


System definitions
===============================================================================

Temperature:          250 [K]
Beta:                 0.0048108928702210625 [-]
Pressure:             2e+07 [Pa]
Helium void fraction: 1 [-]

Box:      30.00000   0.00000   0.00000
           0.00000  30.00000   0.00000
           0.00000   0.00000  30.00000
Lengths:  30.00000  30.00000  30.00000
Angles:   90.00000  90.00000  90.00000
Rectangular boundary conditions



Property measurement settings
===============================================================================




Pseudo-atoms
===============================================================================

  0 - C_co2    framework-atom: false
  1 - O_co2    framework-atom: false

  0 - C_co2    mass: 12.00000, charge:  0.70000
  1 - O_co2    mass: 15.99940, charge: -0.35000

  0 - C_co2    polarizability:  0.00000
  1 - O_co2    polarizability:  0.00000

  0 - J. J. Potoff et al., AIChE J. 2001, 47, 1676–1682.
  1 - J. J. Potoff et al., AIChE J. 2001, 47, 1676–1682.

Force field status
===============================================================================

Cutoff Framework-Molecule VDW:  11.00000 [Å]
Cutoff Molecule-Molecule VDW:   11.00000 [Å]
Cutoff Coulomb:                 11.00000 [Å]

Overlap-criteria VDW:           1.000000e+05 [K]

C_co2    - C_co2    Lennard-Jones p₀/kʙ:  27.00000 [K], p₁:  2.80000 [Å]
                                  shift:   0.00000 [K], tailcorrections: true
C_co2    - O_co2    Lennard-Jones p₀/kʙ:  46.18441 [K], p₁:  2.92500 [Å]
                                  shift:   0.00000 [K], tailcorrections: true
O_co2    - O_co2    Lennard-Jones p₀/kʙ:  79.00000 [K], p₁:  3.05000 [Å]
                                  shift:   0.00000 [K], tailcorrections: true

Ewald precision: 1e-06
Ewald alpha: 0.2903408740940883
Ewald k-vectors: 9 9 9


Component definitions
===============================================================================

Component 0 [CO2]

    Type: Adsorbate

    Critical temperature:  304.1282 [K]
    Critical pressure:     7377300 [Pa]
    Acentric factor:       0.22394 [-]

    Mol-fraction:                 1 [-]
    Swappable:                   false

    Mass:                         43.9988 [-]
    Bulk fluid density:           0 [-]
    Compressibility:              0 [-]
    Excess molecules:             0 [-]

    Number Of Atoms:    3
    CBMC starting bead: 0
      0: O_co2  position  0.00000 -0.00000  1.16000, charge -0.35000
      1: C_co2  position  0.00000 -0.00000  0.00000, charge  0.70000
      2: O_co2  position  0.00000 -0.00000 -1.16000, charge -0.35000
    Diagonalized inertia-vector:      43.05758528 43.05758528 0.00000000
    Translational degrees of freedom: 3
    Rotational degrees of freedom:    2
    Shape of the molecule is: 'Linear'
    Net-charge:        0.00000000 [e]

    Move probabilities:
    Translation:                   0.331126 [-]
    Random translation:            0.000000 [-]
    Rotation:                      0.331126 [-]
    Random rotation:               0.000000 [-]
    Volume change:                 0.006623 [-]
    Reinsertion (CBMC):            0.331126 [-]
    Identity change (CBMC):        0.000000 [-]
    Swap:                          0.000000 [-]
    Swap (CBMC):                   0.000000 [-]
    Swap (CFCMC):                  0.000000 [-]
    Swap (CB/CFCMC):               0.000000 [-]
    Gibbs volume:                  0.000000 [-]
    Gibbs swap (CBMC):             0.000000 [-]
    Gibbs swap (CFCMC):            0.000000 [-]
    Widom:                         0.000000 [-]
    Widom (CFCMC):                 0.000000 [-]
    Widom (CB/CFCMC):              0.000000 [-]
    Parallel tempering:            0.000000 [-]
    Hybrid MC:                     0.000000 [-]

    number of blocking-pockets: 0

    number of bonds: 0





Number of pseudo-atoms
===============================================================================

Component   0 (CO2)
-------------------------------------------------------------------------------
    index   0 (C_co2): 200 atoms
    index   1 (O_co2): 400 atoms

Total number of pseudo-atoms:
-------------------------------------------------------------------------------
    index   0 (C_co2): 200 atoms
    index   1 (O_co2): 400 atoms




Energy status Recomputed from scratch
===============================================================================

Total potential energy/kʙ       -9.294310e+04 [K]
    external field VDW/kʙ        0.000000e+00 [K]
    external field Real/kʙ       0.000000e+00 [K]
    framework-molecule VDW/kʙ    0.000000e+00 [K]
    framework-molecule Real/kʙ   0.000000e+00 [K]
    molecule-molecule VDW/kʙ    -7.299079e+04 [K]
    molecule-molecule Real/kʙ   -1.449143e+04 [K]
    Van der Waals (Tail)/kʙ     -3.571688e+03 [K]
    Ewald Fourier/kʙ             1.626391e+04 [K]
    Ewald self/kʙ               -4.023739e+06 [K]
    Ewald exclusion/kʙ           4.005586e+06 [K]
    intra VDW/kʙ                 0.000000e+00 [K]
    intra Coulombic/kʙ           0.000000e+00 [K]
    polarization/kʙ              0.000000e+00 [K]
    dU/dlambda VDW/kʙ            0.000000e+00 [K]
    dU/dlambda Real/kʙ           0.000000e+00 [K]
    dU/dlambda Ewald/kʙ          0.000000e+00 [K]





Initialization: Current cycle: 0 out of 1000
===============================================================================

Box:      30.00000   0.00000   0.00000
           0.00000  30.00000   0.00000
           0.00000   0.00000  30.00000
Lengths:  30.00000  30.00000  30.00000
Angles:   90.00000  90.00000  90.00000
Rectangular boundary conditions

net charge:   0.00000000

component   0 (CO2) lambda:  0 occupancy:  1 (1.000000)
    net charge:   0.00000000 [e]

Amount of molecules per component :
-------------------------------------------------------------------------------
Component 0 (CO2)
    molecules:         2.000000e+02 molecules
    number density:    7.407407e-03 molec/A^3
    density:           5.411979e+02 kg/m^3

Total potential energy/kʙ       -1.297514e+05 [K]
-------------------------------------------------------------------------------
    external field VDW/kʙ        0.000000e+00 [K]
    external field Real/kʙ       0.000000e+00 [K]
    framework-molecule VDW/kʙ    0.000000e+00 [K]
    framework-molecule Real/kʙ   0.000000e+00 [K]
    molecule-molecule VDW/kʙ    -1.057421e+05 [K]
    molecule-molecule Real/kʙ   -1.796886e+04 [K]
    Van der Waals (Tail)/kʙ     -3.571688e+03 [K]
    Ewald Fourier/kʙ             1.568433e+04 [K]
    Ewald self/kʙ               -4.023739e+06 [K]
    Ewald exclusion/kʙ           4.005586e+06 [K]
    intra VDW/kʙ                 0.000000e+00 [K]
    intra Coulombic/kʙ           0.000000e+00 [K]
    polarization/kʙ              0.000000e+00 [K]
    dU/dlambda VDW/kʙ            0.000000e+00 [K]
    dU/dlambda Real/kʙ           0.000000e+00 [K]
    dU/dlambda Ewald/kʙ          0.000000e+00 [K]


Initialization: Current cycle: 100 out of 1000
===============================================================================

Box:      25.99398   0.00000   0.00000
           0.00000  25.99398   0.00000
           0.00000   0.00000  25.99398
Lengths:  25.99398  25.99398  25.99398
Angles:   90.00000  90.00000  90.00000
Rectangular boundary conditions

net charge:   0.00000000

component   0 (CO2) lambda:  0 occupancy:  1 (1.000000)
    net charge:   0.00000000 [e]

Amount of molecules per component :
-------------------------------------------------------------------------------
Component 0 (CO2)
    molecules:         2.000000e+02 molecules
    number density:    1.138706e-02 molec/A^3
    density:           8.319579e+02 kg/m^3

Total potential energy/kʙ       -2.392382e+05 [K]
-------------------------------------------------------------------------------
    external field VDW/kʙ        0.000000e+00 [K]
    external field Real/kʙ       0.000000e+00 [K]
    framework-molecule VDW/kʙ    0.000000e+00 [K]
    framework-molecule Real/kʙ   0.000000e+00 [K]
    molecule-molecule VDW/kʙ    -1.725602e+05 [K]
    molecule-molecule Real/kʙ   -5.334575e+04 [K]
    Van der Waals (Tail)/kʙ     -5.490587e+03 [K]
    Ewald Fourier/kʙ             1.031142e+04 [K]
    Ewald self/kʙ               -4.023739e+06 [K]
    Ewald exclusion/kʙ           4.005586e+06 [K]
    intra VDW/kʙ                 0.000000e+00 [K]
    intra Coulombic/kʙ           0.000000e+00 [K]
    polarization/kʙ              0.000000e+00 [K]
    dU/dlambda VDW/kʙ            0.000000e+00 [K]
    dU/dlambda Real/kʙ           0.000000e+00 [K]
    dU/dlambda Ewald/kʙ          0.000000e+00 [K]


Initialization: Current cycle: 200 out of 1000
===============================================================================

Box:      24.83085   0.00000   0.00000
           0.00000  24.83085   0.00000
           0.00000   0.00000  24.83085
Lengths:  24.83085  24.83085  24.83085
Angles:   90.00000  90.00000  90.00000
Rectangular boundary conditions

net charge:   0.00000000

component   0 (CO2) lambda:  0 occupancy:  1 (1.000000)
    net charge:   0.00000000 [e]

Amount of molecules per component :
-------------------------------------------------------------------------------
Component 0 (CO2)
    molecules:         2.000000e+02 molecules
    number density:    1.306337e-02 molec/A^3
    density:           9.544322e+02 kg/m^3

Total potential energy/kʙ       -2.707450e+05 [K]
-------------------------------------------------------------------------------
    external field VDW/kʙ        0.000000e+00 [K]
    external field Real/kʙ       0.000000e+00 [K]
    framework-molecule VDW/kʙ    0.000000e+00 [K]
    framework-molecule Real/kʙ   0.000000e+00 [K]
    molecule-molecule VDW/kʙ    -1.933540e+05 [K]
    molecule-molecule Real/kʙ   -6.111295e+04 [K]
    Van der Waals (Tail)/kʙ     -6.298869e+03 [K]
    Ewald Fourier/kʙ             8.173902e+03 [K]
    Ewald self/kʙ               -4.023739e+06 [K]
    Ewald exclusion/kʙ           4.005586e+06 [K]
    intra VDW/kʙ                 0.000000e+00 [K]
    intra Coulombic/kʙ           0.000000e+00 [K]
    polarization/kʙ              0.000000e+00 [K]
    dU/dlambda VDW/kʙ            0.000000e+00 [K]
    dU/dlambda Real/kʙ           0.000000e+00 [K]
    dU/dlambda Ewald/kʙ          0.000000e+00 [K]


Initialization: Current cycle: 300 out of 1000
===============================================================================

Box:      24.36105   0.00000   0.00000
           0.00000  24.36105   0.00000
           0.00000   0.00000  24.36105
Lengths:  24.36105  24.36105  24.36105
Angles:   90.00000  90.00000  90.00000
Rectangular boundary conditions

net charge:   0.00000000

component   0 (CO2) lambda:  0 occupancy:  1 (1.000000)
    net charge:   0.00000000 [e]

Amount of molecules per component :
-------------------------------------------------------------------------------
Component 0 (CO2)
    molecules:         2.000000e+02 molecules
    number density:    1.383382e-02 molec/A^3
    density:           1.010723e+03 kg/m^3

Total potential energy/kʙ       -2.853388e+05 [K]
-------------------------------------------------------------------------------
    external field VDW/kʙ        0.000000e+00 [K]
    external field Real/kʙ       0.000000e+00 [K]
    framework-molecule VDW/kʙ    0.000000e+00 [K]
    framework-molecule Real/kʙ   0.000000e+00 [K]
    molecule-molecule VDW/kʙ    -2.047079e+05 [K]
    molecule-molecule Real/kʙ   -6.363461e+04 [K]
    Van der Waals (Tail)/kʙ     -6.670364e+03 [K]
    Ewald Fourier/kʙ             7.827181e+03 [K]
    Ewald self/kʙ               -4.023739e+06 [K]
    Ewald exclusion/kʙ           4.005586e+06 [K]
    intra VDW/kʙ                 0.000000e+00 [K]
    intra Coulombic/kʙ           0.000000e+00 [K]
    polarization/kʙ              0.000000e+00 [K]
    dU/dlambda VDW/kʙ            0.000000e+00 [K]
    dU/dlambda Real/kʙ           0.000000e+00 [K]
    dU/dlambda Ewald/kʙ          0.000000e+00 [K]


Initialization: Current cycle: 400 out of 1000
===============================================================================

Box:      24.08323   0.00000   0.00000
           0.00000  24.08323   0.00000
           0.00000   0.00000  24.08323
Lengths:  24.08323  24.08323  24.08323
Angles:   90.00000  90.00000  90.00000
Rectangular boundary conditions

net charge:   0.00000000

component   0 (CO2) lambda:  0 occupancy:  1 (1.000000)
    net charge:   0.00000000 [e]

Amount of molecules per component :
-------------------------------------------------------------------------------
Component 0 (CO2)
    molecules:         2.000000e+02 molecules
    number density:    1.431811e-02 molec/A^3
    density:           1.046105e+03 kg/m^3

Total potential energy/kʙ       -3.035586e+05 [K]
-------------------------------------------------------------------------------
    external field VDW/kʙ        0.000000e+00 [K]
    external field Real/kʙ       0.000000e+00 [K]
    framework-molecule VDW/kʙ    0.000000e+00 [K]
    framework-molecule Real/kʙ   0.000000e+00 [K]
    molecule-molecule VDW/kʙ    -2.180556e+05 [K]
    molecule-molecule Real/kʙ   -6.744563e+04 [K]
    Van der Waals (Tail)/kʙ     -6.903875e+03 [K]
    Ewald Fourier/kʙ             6.999657e+03 [K]
    Ewald self/kʙ               -4.023739e+06 [K]
    Ewald exclusion/kʙ           4.005586e+06 [K]
    intra VDW/kʙ                 0.000000e+00 [K]
    intra Coulombic/kʙ           0.000000e+00 [K]
    polarization/kʙ              0.000000e+00 [K]
    dU/dlambda VDW/kʙ            0.000000e+00 [K]
    dU/dlambda Real/kʙ           0.000000e+00 [K]
    dU/dlambda Ewald/kʙ          0.000000e+00 [K]


Initialization: Current cycle: 500 out of 1000
===============================================================================

Box:      23.62050   0.00000   0.00000
           0.00000  23.62050   0.00000
           0.00000   0.00000  23.62050
Lengths:  23.62050  23.62050  23.62050
Angles:   90.00000  90.00000  90.00000
Rectangular boundary conditions

net charge:   0.00000000

component   0 (CO2) lambda:  0 occupancy:  1 (1.000000)
    net charge:   0.00000000 [e]

Amount of molecules per component :
-------------------------------------------------------------------------------
Component 0 (CO2)
    molecules:         2.000000e+02 molecules
    number density:    1.517620e-02 molec/A^3
    density:           1.108799e+03 kg/m^3

Total potential energy/kʙ       -3.135293e+05 [K]
-------------------------------------------------------------------------------
    external field VDW/kʙ        0.000000e+00 [K]
    external field Real/kʙ       0.000000e+00 [K]
    framework-molecule VDW/kʙ    0.000000e+00 [K]
    framework-molecule Real/kʙ   0.000000e+00 [K]
    molecule-molecule VDW/kʙ    -2.278552e+05 [K]
    molecule-molecule Real/kʙ   -6.830036e+04 [K]
    Van der Waals (Tail)/kʙ     -7.317626e+03 [K]
    Ewald Fourier/kʙ             8.096977e+03 [K]
    Ewald self/kʙ               -4.023739e+06 [K]
    Ewald exclusion/kʙ           4.005586e+06 [K]
    intra VDW/kʙ                 0.000000e+00 [K]
    intra Coulombic/kʙ           0.000000e+00 [K]
    polarization/kʙ              0.000000e+00 [K]
    dU/dlambda VDW/kʙ            0.000000e+00 [K]
    dU/dlambda Real/kʙ           0.000000e+00 [K]
    dU/dlambda Ewald/kʙ          0.000000e+00 [K]


Initialization: Current cycle: 600 out of 1000
===============================================================================

Box:      23.90422   0.00000   0.00000
           0.00000  23.90422   0.00000
           0.00000   0.00000  23.90422
Lengths:  23.90422  23.90422  23.90422
Angles:   90.00000  90.00000  90.00000
Rectangular boundary conditions

net charge:   0.00000000

component   0 (CO2) lambda:  0 occupancy:  1 (1.000000)
    net charge:   0.00000000 [e]

Amount of molecules per component :
-------------------------------------------------------------------------------
Component 0 (CO2)
    molecules:         2.000000e+02 molecules
    number density:    1.464221e-02 molec/A^3
    density:           1.069785e+03 kg/m^3

Total potential energy/kʙ       -3.068977e+05 [K]
-------------------------------------------------------------------------------
    external field VDW/kʙ        0.000000e+00 [K]
    external field Real/kʙ       0.000000e+00 [K]
    framework-molecule VDW/kʙ    0.000000e+00 [K]
    framework-molecule Real/kʙ   0.000000e+00 [K]
    molecule-molecule VDW/kʙ    -2.208388e+05 [K]
    molecule-molecule Real/kʙ   -6.858797e+04 [K]
    Van der Waals (Tail)/kʙ     -7.060148e+03 [K]
    Ewald Fourier/kʙ             7.742343e+03 [K]
    Ewald self/kʙ               -4.023739e+06 [K]
    Ewald exclusion/kʙ           4.005586e+06 [K]
    intra VDW/kʙ                 0.000000e+00 [K]
    intra Coulombic/kʙ           0.000000e+00 [K]
    polarization/kʙ              0.000000e+00 [K]
    dU/dlambda VDW/kʙ            0.000000e+00 [K]
    dU/dlambda Real/kʙ           0.000000e+00 [K]
    dU/dlambda Ewald/kʙ          0.000000e+00 [K]


Initialization: Current cycle: 700 out of 1000
===============================================================================

Box:      23.88403   0.00000   0.00000
           0.00000  23.88403   0.00000
           0.00000   0.00000  23.88403
Lengths:  23.88403  23.88403  23.88403
Angles:   90.00000  90.00000  90.00000
Rectangular boundary conditions

net charge:   0.00000000

component   0 (CO2) lambda:  0 occupancy:  1 (1.000000)
    net charge:   0.00000000 [e]

Amount of molecules per component :
-------------------------------------------------------------------------------
Component 0 (CO2)
    molecules:         2.000000e+02 molecules
    number density:    1.467937e-02 molec/A^3
    density:           1.072500e+03 kg/m^3

Total potential energy/kʙ       -3.057171e+05 [K]
-------------------------------------------------------------------------------
    external field VDW/kʙ        0.000000e+00 [K]
    external field Real/kʙ       0.000000e+00 [K]
    framework-molecule VDW/kʙ    0.000000e+00 [K]
    framework-molecule Real/kʙ   0.000000e+00 [K]
    molecule-molecule VDW/kʙ    -2.202460e+05 [K]
    molecule-molecule Real/kʙ   -6.805859e+04 [K]
    Van der Waals (Tail)/kʙ     -7.078067e+03 [K]
    Ewald Fourier/kʙ             7.818653e+03 [K]
    Ewald self/kʙ               -4.023739e+06 [K]
    Ewald exclusion/kʙ           4.005586e+06 [K]
    intra VDW/kʙ                 0.000000e+00 [K]
    intra Coulombic/kʙ           0.000000e+00 [K]
    polarization/kʙ              0.000000e+00 [K]
    dU/dlambda VDW/kʙ            0.000000e+00 [K]
    dU/dlambda Real/kʙ           0.000000e+00 [K]
    dU/dlambda Ewald/kʙ          0.000000e+00 [K]


Initialization: Current cycle: 800 out of 1000
===============================================================================

Box:      23.99480   0.00000   0.00000
           0.00000  23.99480   0.00000
           0.00000   0.00000  23.99480
Lengths:  23.99480  23.99480  23.99480
Angles:   90.00000  90.00000  90.00000
Rectangular boundary conditions

net charge:   0.00000000

component   0 (CO2) lambda:  0 occupancy:  1 (1.000000)
    net charge:   0.00000000 [e]

Amount of molecules per component :
-------------------------------------------------------------------------------
Component 0 (CO2)
    molecules:         2.000000e+02 molecules
    number density:    1.447701e-02 molec/A^3
    density:           1.057715e+03 kg/m^3

Total potential energy/kʙ       -3.064708e+05 [K]
-------------------------------------------------------------------------------
    external field VDW/kʙ        0.000000e+00 [K]
    external field Real/kʙ       0.000000e+00 [K]
    framework-molecule VDW/kʙ    0.000000e+00 [K]
    framework-molecule Real/kʙ   0.000000e+00 [K]
    molecule-molecule VDW/kʙ    -2.198559e+05 [K]
    molecule-molecule Real/kʙ   -6.915049e+04 [K]
    Van der Waals (Tail)/kʙ     -6.980494e+03 [K]
    Ewald Fourier/kʙ             7.669146e+03 [K]
    Ewald self/kʙ               -4.023739e+06 [K]
    Ewald exclusion/kʙ           4.005586e+06 [K]
    intra VDW/kʙ                 0.000000e+00 [K]
    intra Coulombic/kʙ           0.000000e+00 [K]
    polarization/kʙ              0.000000e+00 [K]
    dU/dlambda VDW/kʙ            0.000000e+00 [K]
    dU/dlambda Real/kʙ           0.000000e+00 [K]
    dU/dlambda Ewald/kʙ          0.000000e+00 [K]


Initialization: Current cycle: 900 out of 1000
===============================================================================

Box:      24.13406   0.00000   0.00000
           0.00000  24.13406   0.00000
           0.00000   0.00000  24.13406
Lengths:  24.13406  24.13406  24.13406
Angles:   90.00000  90.00000  90.00000
Rectangular boundary conditions

net charge:   0.00000000

component   0 (CO2) lambda:  0 occupancy:  1 (1.000000)
    net charge:   0.00000000 [e]

Amount of molecules per component :
-------------------------------------------------------------------------------
Component 0 (CO2)
    molecules:         2.000000e+02 molecules
    number density:    1.422783e-02 molec/A^3
    density:           1.039510e+03 kg/m^3

Total potential energy/kʙ       -2.972105e+05 [K]
-------------------------------------------------------------------------------
    external field VDW/kʙ        0.000000e+00 [K]
    external field Real/kʙ       0.000000e+00 [K]
    framework-molecule VDW/kʙ    0.000000e+00 [K]
    framework-molecule Real/kʙ   0.000000e+00 [K]
    molecule-molecule VDW/kʙ    -2.138417e+05 [K]
    molecule-molecule Real/kʙ   -6.578362e+04 [K]
    Van der Waals (Tail)/kʙ     -6.860347e+03 [K]
    Ewald Fourier/kʙ             7.428299e+03 [K]
    Ewald self/kʙ               -4.023739e+06 [K]
    Ewald exclusion/kʙ           4.005586e+06 [K]
    intra VDW/kʙ                 0.000000e+00 [K]
    intra Coulombic/kʙ           0.000000e+00 [K]
    polarization/kʙ              0.000000e+00 [K]
    dU/dlambda VDW/kʙ            0.000000e+00 [K]
    dU/dlambda Real/kʙ           0.000000e+00 [K]
    dU/dlambda Ewald/kʙ          0.000000e+00 [K]


Current cycle: 0 out of 5000
===============================================================================

Box:      23.79751   0.00000   0.00000  Average:  23.79751   0.00000   0.00000
           0.00000  23.79751   0.00000             0.00000  23.79751   0.00000
           0.00000   0.00000  23.79751             0.00000   0.00000  23.79751
Lengths:  23.79751  23.79751  23.79751  Average:  23.79751  23.79751  23.79751
Angles:   90.00000  90.00000  90.00000  Average:  90.00000  90.00000  90.00000
Rectangular boundary conditions

net charge:   0.00000000

component 0 (CO2) lambda:  0 occupancy:  1 (1.000000)
    net charge:   0.00000000 [e]

Amount of molecules per component :
-------------------------------------------------------------------------------
Component 0 (CO2)
    molecules:      2.000000e+02 molecules  (2.000000e+02 +/- 0.000000e+00)
    number density: 1.484005e-02 molec./A^3 (1.484005e-02 +/- 0.000000e+00)
    density:        1.084239e+03 kg/m^3     (1.084239e+03 +/- 0.000000e+00)

Average pressure tensor: 
-------------------------------------------------------------------------------
 5.1222e+02  0.0000e+00  0.0000e+00 +/- 0.0000e+00 0.0000e+00 0.0000e+00 [bar]
 0.0000e+00  5.1222e+02  0.0000e+00 +/- 0.0000e+00 0.0000e+00 0.0000e+00 [bar]
 0.0000e+00  0.0000e+00  5.1222e+02 +/- 0.0000e+00 0.0000e+00 0.0000e+00 [bar]
Ideal-gas pressure:   5.122229e+02 +/ 0.000000e+00 [bar]
Excess pressure:      0.000000e+00 +/ 0.000000e+00 [bar]
Pressure:             5.122229e+02 +/ 0.000000e+00 [bar]

Total potential energy/kʙ  -3.144866e+05 (-3.144866e+05 +/- 0.000000e+00) [K]
-------------------------------------------------------------------------------
ExternalField-molecule
    Van der Waals/kʙ        0.000000e+00 ( 0.000000e+00 +/- 0.000000e+00) [K]
Framework-molecule
    Van der Waals/kʙ        0.000000e+00 ( 0.000000e+00 +/- 0.000000e+00) [K]
    Van der Waals (Tail)/kʙ 0.000000e+00 ( 0.000000e+00 +/- 0.000000e+00) [K]
    Coulombic Real/kʙ       0.000000e+00 ( 0.000000e+00 +/- 0.000000e+00) [K]
    Coulombic Fourier/kʙ    0.000000e+00 ( 0.000000e+00 +/- 0.000000e+00) [K]
Molecule-molecule
    Van der Waals/kʙ       -2.258583e+05 (-2.258583e+05 +/- 0.000000e+00) [K]
    Van der Waals (Tail)/kʙ-7.155543e+03 (-7.155543e+03 +/- 0.000000e+00) [K]
    Coulombic Real/kʙ      -7.104972e+04 (-7.104972e+04 +/- 0.000000e+00) [K]
    Coulombic Fourier/kʙ   -1.042309e+04 (-1.042309e+04 +/- 0.000000e+00) [K]
    Molecule Intra/kʙ       0.000000e+00 ( 0.000000e+00 +/- 0.000000e+00) [K]

Current cycle: 100 out of 5000
===============================================================================

Box:      23.88795   0.00000   0.00000  Average:  23.86350   0.00000   0.00000
           0.00000  23.88795   0.00000             0.00000  23.86350   0.00000
           0.00000   0.00000  23.88795             0.00000   0.00000  23.86350
Lengths:  23.88795  23.88795  23.88795  Average:  23.86350  23.86350  23.86350
Angles:   90.00000  90.00000  90.00000  Average:  90.00000  90.00000  90.00000
Rectangular boundary conditions

net charge:   0.00000000

component 0 (CO2) lambda:  0 occupancy:  1 (1.000000)
    net charge:   0.00000000 [e]

Amount of molecules per component :
-------------------------------------------------------------------------------
Component 0 (CO2)
    molecules:      2.000000e+02 molecules  (2.000000e+02 +/- 0.000000e+00)
    number density: 1.467213e-02 molec./A^3 (1.471952e-02 +/- 0.000000e+00)
    density:        1.071971e+03 kg/m^3     (1.075433e+03 +/- 0.000000e+00)

Average pressure tensor: 
-------------------------------------------------------------------------------
 1.3755e+02 -1.5234e+01  1.4132e+01 +/- 0.0000e+00 0.0000e+00 0.0000e+00 [bar]
-1.5234e+01  4.8308e+02  1.5744e+02 +/- 0.0000e+00 0.0000e+00 0.0000e+00 [bar]
 1.4132e+01  1.5744e+02  1.7353e+02 +/- 0.0000e+00 0.0000e+00 0.0000e+00 [bar]
Ideal-gas pressure:   5.080626e+02 +/ 0.000000e+00 [bar]
Excess pressure:     -2.433418e+02 +/ 0.000000e+00 [bar]
Pressure:             2.647208e+02 +/ 0.000000e+00 [bar]

Total potential energy/kʙ  -2.974611e+05 (-3.087675e+05 +/- 0.000000e+00) [K]
-------------------------------------------------------------------------------
ExternalField-molecule
    Van der Waals/kʙ        0.000000e+00 ( 0.000000e+00 +/- 0.000000e+00) [K]
Framework-molecule
    Van der Waals/kʙ        0.000000e+00 ( 0.000000e+00 +/- 0.000000e+00) [K]
    Van der Waals (Tail)/kʙ 0.000000e+00 ( 0.000000e+00 +/- 0.000000e+00) [K]
    Coulombic Real/kʙ       0.000000e+00 ( 0.000000e+00 +/- 0.000000e+00) [K]
    Coulombic Fourier/kʙ    0.000000e+00 ( 0.000000e+00 +/- 0.000000e+00) [K]
Molecule-molecule
    Van der Waals/kʙ       -2.134368e+05 (-2.242182e+05 +/- 0.000000e+00) [K]
    Van der Waals (Tail)/kʙ-7.074576e+03 (-7.137242e+03 +/- 0.000000e+00) [K]
    Coulombic Real/kʙ      -6.690721e+04 (-6.737828e+04 +/- 0.000000e+00) [K]
    Coulombic Fourier/kʙ   -1.004245e+04 (-1.003381e+04 +/- 0.000000e+00) [K]
    Molecule Intra/kʙ       0.000000e+00 ( 0.000000e+00 +/- 0.000000e+00) [K]

Current cycle: 200 out of 5000
===============================================================================

Box:      23.87468   0.00000   0.00000  Average:  23.89355   0.00000   0.00000
           0.00000  23.87468   0.00000             0.00000  23.89355   0.00000
           0.00000   0.00000  23.87468             0.00000   0.00000  23.89355
Lengths:  23.87468  23.87468  23.87468  Average:  23.89355  23.89355  23.89355
Angles:   90.00000  90.00000  90.00000  Average:  90.00000  90.00000  90.00000
Rectangular boundary conditions

net charge:   0.00000000

component 0 (CO2) lambda:  0 occupancy:  1 (1.000000)
    net charge:   0.00000000 [e]

Amount of molecules per component :
-------------------------------------------------------------------------------
Component 0 (CO2)
    molecules:      2.000000e+02 molecules  (2.000000e+02 +/- 0.000000e+00)
    number density: 1.469662e-02 molec./A^3 (1.466361e-02 +/- 0.000000e+00)
    density:        1.073760e+03 kg/m^3     (1.071349e+03 +/- 0.000000e+00)

Average pressure tensor: 
-------------------------------------------------------------------------------
 2.4157e+02  8.0757e+01  1.2888e+01 +/- 0.0000e+00 0.0000e+00 0.0000e+00 [bar]
 8.0757e+01  3.6769e+02  1.3948e+02 +/- 0.0000e+00 0.0000e+00 0.0000e+00 [bar]
 1.2888e+01  1.3948e+02  2.5184e+02 +/- 0.0000e+00 0.0000e+00 0.0000e+00 [bar]
Ideal-gas pressure:   5.061331e+02 +/ 0.000000e+00 [bar]
Excess pressure:     -2.190994e+02 +/ 0.000000e+00 [bar]
Pressure:             2.870337e+02 +/ 0.000000e+00 [bar]

Total potential energy/kʙ  -3.140240e+05 (-3.082807e+05 +/- 0.000000e+00) [K]
-------------------------------------------------------------------------------
ExternalField-molecule
    Van der Waals/kʙ        0.000000e+00 ( 0.000000e+00 +/- 0.000000e+00) [K]
Framework-molecule
    Van der Waals/kʙ        0.000000e+00 ( 0.000000e+00 +/- 0.000000e+00) [K]
    Van der Waals (Tail)/kʙ 0.000000e+00 ( 0.000000e+00 +/- 0.000000e+00) [K]
    Coulombic Real/kʙ       0.000000e+00 ( 0.000000e+00 +/- 0.000000e+00) [K]
    Coulombic Fourier/kʙ    0.000000e+00 ( 0.000000e+00 +/- 0.000000e+00) [K]
Molecule-molecule
    Van der Waals/kʙ       -2.235078e+05 (-2.220943e+05 +/- 0.000000e+00) [K]
    Van der Waals (Tail)/kʙ-7.086387e+03 (-7.088005e+03 +/- 0.000000e+00) [K]
    Coulombic Real/kʙ      -7.349758e+04 (-6.917425e+04 +/- 0.000000e+00) [K]
    Coulombic Fourier/kʙ   -9.932231e+03 (-9.924190e+03 +/- 0.000000e+00) [K]
    Molecule Intra/kʙ       0.000000e+00 ( 0.000000e+00 +/- 0.000000e+00) [K]

Current cycle: 300 out of 5000
===============================================================================

Box:      23.98551   0.00000   0.00000  Average:  23.84335   0.00000   0.00000
           0.00000  23.98551   0.00000             0.00000  23.84335   0.00000
           0.00000   0.00000  23.98551             0.00000   0.00000  23.84335
Lengths:  23.98551  23.98551  23.98551  Average:  23.84335  23.84335  23.84335
Angles:   90.00000  90.00000  90.00000  Average:  90.00000  90.00000  90.00000
Rectangular boundary conditions

net charge:   0.00000000

component 0 (CO2) lambda:  0 occupancy:  1 (1.000000)
    net charge:   0.00000000 [e]

Amount of molecules per component :
-------------------------------------------------------------------------------
Component 0 (CO2)
    molecules:      2.000000e+02 molecules  (2.000000e+02 +/- 0.000000e+00)
    number density: 1.449384e-02 molec./A^3 (1.475732e-02 +/- 0.000000e+00)
    density:        1.058944e+03 kg/m^3     (1.078195e+03 +/- 0.000000e+00)

Average pressure tensor: 
-------------------------------------------------------------------------------
 2.2405e+02  1.3261e+02  8.6414e+01 +/- 0.0000e+00 0.0000e+00 0.0000e+00 [bar]
 1.3261e+02  2.8795e+02  1.8967e+02 +/- 0.0000e+00 0.0000e+00 0.0000e+00 [bar]
 8.6414e+01  1.8967e+02  2.4366e+02 +/- 0.0000e+00 0.0000e+00 0.0000e+00 [bar]
Ideal-gas pressure:   5.093674e+02 +/ 0.000000e+00 [bar]
Excess pressure:     -2.574847e+02 +/ 0.000000e+00 [bar]
Pressure:             2.518827e+02 +/ 0.000000e+00 [bar]

Total potential energy/kʙ  -3.087835e+05 (-3.109185e+05 +/- 0.000000e+00) [K]
-------------------------------------------------------------------------------
ExternalField-molecule
    Van der Waals/kʙ        0.000000e+00 ( 0.000000e+00 +/- 0.000000e+00) [K]
Framework-molecule
    Van der Waals/kʙ        0.000000e+00 ( 0.000000e+00 +/- 0.000000e+00) [K]
    Van der Waals (Tail)/kʙ 0.000000e+00 ( 0.000000e+00 +/- 0.000000e+00) [K]
    Coulombic Real/kʙ       0.000000e+00 ( 0.000000e+00 +/- 0.000000e+00) [K]
    Coulombic Fourier/kʙ    0.000000e+00 ( 0.000000e+00 +/- 0.000000e+00) [K]
Molecule-molecule
    Van der Waals/kʙ       -2.243563e+05 (-2.238467e+05 +/- 0.000000e+00) [K]
    Van der Waals (Tail)/kʙ-6.988607e+03 (-7.122655e+03 +/- 0.000000e+00) [K]
    Coulombic Real/kʙ      -6.729455e+04 (-6.985450e+04 +/- 0.000000e+00) [K]
    Coulombic Fourier/kʙ   -1.014405e+04 (-1.009464e+04 +/- 0.000000e+00) [K]
    Molecule Intra/kʙ       0.000000e+00 ( 0.000000e+00 +/- 0.000000e+00) [K]

Current cycle: 400 out of 5000
===============================================================================

Box:      23.58964   0.00000   0.00000  Average:  23.82785   0.00000   0.00000
           0.00000  23.58964   0.00000             0.00000  23.82785   0.00000
           0.00000   0.00000  23.58964             0.00000   0.00000  23.82785
Lengths:  23.58964  23.58964  23.58964  Average:  23.82785  23.82785  23.82785
Angles:   90.00000  90.00000  90.00000  Average:  90.00000  90.00000  90.00000
Rectangular boundary conditions

net charge:   0.00000000

component 0 (CO2) lambda:  0 occupancy:  1 (1.000000)
    net charge:   0.00000000 [e]

Amount of molecules per component :
-------------------------------------------------------------------------------
Component 0 (CO2)
    molecules:      2.000000e+02 molecules  (2.000000e+02 +/- 0.000000e+00)
    number density: 1.523582e-02 molec./A^3 (1.478686e-02 +/- 0.000000e+00)
    density:        1.113155e+03 kg/m^3     (1.080353e+03 +/- 0.000000e+00)

Average pressure tensor: 
-------------------------------------------------------------------------------
 2.2239e+02  1.1631e+02  4.5319e+01 +/- 0.0000e+00 0.0000e+00 0.0000e+00 [bar]
 1.1631e+02  3.2372e+02  1.6934e+02 +/- 0.0000e+00 0.0000e+00 0.0000e+00 [bar]
 4.5319e+01  1.6934e+02  1.9584e+02 +/- 0.0000e+00 0.0000e+00 0.0000e+00 [bar]
Ideal-gas pressure:   5.103872e+02 +/ 0.000000e+00 [bar]
Excess pressure:     -2.630682e+02 +/ 0.000000e+00 [bar]
Pressure:             2.473190e+02 +/ 0.000000e+00 [bar]

Total potential energy/kʙ  -3.175927e+05 (-3.116411e+05 +/- 0.000000e+00) [K]
-------------------------------------------------------------------------------
ExternalField-molecule
    Van der Waals/kʙ        0.000000e+00 ( 0.000000e+00 +/- 0.000000e+00) [K]
Framework-molecule
    Van der Waals/kʙ        0.000000e+00 ( 0.000000e+00 +/- 0.000000e+00) [K]
    Van der Waals (Tail)/kʙ 0.000000e+00 ( 0.000000e+00 +/- 0.000000e+00) [K]
    Coulombic Real/kʙ       0.000000e+00 ( 0.000000e+00 +/- 0.000000e+00) [K]
    Coulombic Fourier/kʙ    0.000000e+00 ( 0.000000e+00 +/- 0.000000e+00) [K]
Molecule-molecule
    Van der Waals/kʙ       -2.301238e+05 (-2.241485e+05 +/- 0.000000e+00) [K]
    Van der Waals (Tail)/kʙ-7.346375e+03 (-7.140646e+03 +/- 0.000000e+00) [K]
    Coulombic Real/kʙ      -6.975363e+04 (-7.020389e+04 +/- 0.000000e+00) [K]
    Coulombic Fourier/kʙ   -1.036883e+04 (-1.014807e+04 +/- 0.000000e+00) [K]
    Molecule Intra/kʙ       0.000000e+00 ( 0.000000e+00 +/- 0.000000e+00) [K]

Current cycle: 500 out of 5000
===============================================================================

Box:      23.55540   0.00000   0.00000  Average:  23.78248   0.00000   0.00000
           0.00000  23.55540   0.00000             0.00000  23.78248   0.00000
           0.00000   0.00000  23.55540             0.00000   0.00000  23.78248
Lengths:  23.55540  23.55540  23.55540  Average:  23.78248  23.78248  23.78248
Angles:   90.00000  90.00000  90.00000  Average:  90.00000  90.00000  90.00000
Rectangular boundary conditions

net charge:   0.00000000

component 0 (CO2) lambda:  0 occupancy:  1 (1.000000)
    net charge:   0.00000000 [e]

Amount of molecules per component :
-------------------------------------------------------------------------------
Component 0 (CO2)
    molecules:      2.000000e+02 molecules  (2.000000e+02 +/- 0.000000e+00)
    number density: 1.530237e-02 molec./A^3 (1.487249e-02 +/- 0.000000e+00)
    density:        1.118018e+03 kg/m^3     (1.086609e+03 +/- 0.000000e+00)

Average pressure tensor: 
-------------------------------------------------------------------------------
 2.6893e+02  1.0977e+02  3.5509e+01 +/- 0.0000e+00 0.0000e+00 0.0000e+00 [bar]
 1.0977e+02  3.1570e+02  1.4816e+02 +/- 0.0000e+00 0.0000e+00 0.0000e+00 [bar]
 3.5509e+01  1.4816e+02  2.0669e+02 +/- 0.0000e+00 0.0000e+00 0.0000e+00 [bar]
Ideal-gas pressure:   5.133426e+02 +/ 0.000000e+00 [bar]
Excess pressure:     -2.495706e+02 +/ 0.000000e+00 [bar]
Pressure:             2.637720e+02 +/ 0.000000e+00 [bar]

Total potential energy/kʙ  -3.258869e+05 (-3.137857e+05 +/- 0.000000e+00) [K]
-------------------------------------------------------------------------------
ExternalField-molecule
    Van der Waals/kʙ        0.000000e+00 ( 0.000000e+00 +/- 0.000000e+00) [K]
Framework-molecule
    Van der Waals/kʙ        0.000000e+00 ( 0.000000e+00 +/- 0.000000e+00) [K]
    Van der Waals (Tail)/kʙ 0.000000e+00 ( 0.000000e+00 +/- 0.000000e+00) [K]
    Coulombic Real/kʙ       0.000000e+00 ( 0.000000e+00 +/- 0.000000e+00) [K]
    Coulombic Fourier/kʙ    0.000000e+00 ( 0.000000e+00 +/- 0.000000e+00) [K]
Molecule-molecule
    Van der Waals/kʙ       -2.307366e+05 (-2.254799e+05 +/- 0.000000e+00) [K]
    Van der Waals (Tail)/kʙ-7.378467e+03 (-7.179748e+03 +/- 0.000000e+00) [K]
    Coulombic Real/kʙ      -7.712492e+04 (-7.084368e+04 +/- 0.000000e+00) [K]
    Coulombic Fourier/kʙ   -1.064687e+04 (-1.028234e+04 +/- 0.000000e+00) [K]
    Molecule Intra/kʙ       0.000000e+00 ( 0.000000e+00 +/- 0.000000e+00) [K]

Current cycle: 600 out of 5000
===============================================================================

Box:      23.54373   0.00000   0.00000  Average:  23.75062   0.00000   0.00000
           0.00000  23.54373   0.00000             0.00000  23.75062   0.00000
           0.00000   0.00000  23.54373             0.00000   0.00000  23.75062
Lengths:  23.54373  23.54373  23.54373  Average:  23.75062  23.75062  23.75062
Angles:   90.00000  90.00000  90.00000  Average:  90.00000  90.00000  90.00000
Rectangular boundary conditions

net charge:   0.00000000

component 0 (CO2) lambda:  0 occupancy:  1 (1.000000)
    net charge:   0.00000000 [e]

Amount of molecules per component :
-------------------------------------------------------------------------------
Component 0 (CO2)
    molecules:      2.000000e+02 molecules  (2.000000e+02 +/- 0.000000e+00)
    number density: 1.532513e-02 molec./A^3 (1.493292e-02 +/- 0.000000e+00)
    density:        1.119680e+03 kg/m^3     (1.091025e+03 +/- 0.000000e+00)

Average pressure tensor: 
-------------------------------------------------------------------------------
 2.3883e+02  9.2662e+01 -1.3301e+01 +/- 0.0000e+00 0.0000e+00 0.0000e+00 [bar]
 9.2662e+01  2.8715e+02  1.1998e+02 +/- 0.0000e+00 0.0000e+00 0.0000e+00 [bar]
-1.3301e+01  1.1998e+02  2.3358e+02 +/- 0.0000e+00 0.0000e+00 0.0000e+00 [bar]
Ideal-gas pressure:   5.154286e+02 +/ 0.000000e+00 [bar]
Excess pressure:     -2.622414e+02 +/ 0.000000e+00 [bar]
Pressure:             2.531872e+02 +/ 0.000000e+00 [bar]

Total potential energy/kʙ  -3.243502e+05 (-3.157139e+05 +/- 0.000000e+00) [K]
-------------------------------------------------------------------------------
ExternalField-molecule
    Van der Waals/kʙ        0.000000e+00 ( 0.000000e+00 +/- 0.000000e+00) [K]
Framework-molecule
    Van der Waals/kʙ        0.000000e+00 ( 0.000000e+00 +/- 0.000000e+00) [K]
    Van der Waals (Tail)/kʙ 0.000000e+00 ( 0.000000e+00 +/- 0.000000e+00) [K]
    Coulombic Real/kʙ       0.000000e+00 ( 0.000000e+00 +/- 0.000000e+00) [K]
    Coulombic Fourier/kʙ    0.000000e+00 ( 0.000000e+00 +/- 0.000000e+00) [K]
Molecule-molecule
    Van der Waals/kʙ       -2.306094e+05 (-2.263536e+05 +/- 0.000000e+00) [K]
    Van der Waals (Tail)/kʙ-7.389438e+03 (-7.206137e+03 +/- 0.000000e+00) [K]
    Coulombic Real/kʙ      -7.595579e+04 (-7.178663e+04 +/- 0.000000e+00) [K]
    Coulombic Fourier/kʙ   -1.039554e+04 (-1.036757e+04 +/- 0.000000e+00) [K]
    Molecule Intra/kʙ       0.000000e+00 ( 0.000000e+00 +/- 0.000000e+00) [K]

Current cycle: 700 out of 5000
===============================================================================

Box:      23.49013   0.00000   0.00000  Average:  23.72424   0.00000   0.00000
           0.00000  23.49013   0.00000             0.00000  23.72424   0.00000
           0.00000   0.00000  23.49013             0.00000   0.00000  23.72424
Lengths:  23.49013  23.49013  23.49013  Average:  23.72424  23.72424  23.72424
Angles:   90.00000  90.00000  90.00000  Average:  90.00000  90.00000  90.00000
Rectangular boundary conditions

net charge:   0.00000000

component 0 (CO2) lambda:  0 occupancy:  1 (1.000000)
    net charge:   0.00000000 [e]

Amount of molecules per component :
-------------------------------------------------------------------------------
Component 0 (CO2)
    molecules:      2.000000e+02 molecules  (2.000000e+02 +/- 0.000000e+00)
    number density: 1.543027e-02 molec./A^3 (1.498290e-02 +/- 0.000000e+00)
    density:        1.127362e+03 kg/m^3     (1.094676e+03 +/- 0.000000e+00)

Average pressure tensor: 
-------------------------------------------------------------------------------
 2.2281e+02  1.2462e+02 -3.7716e+01 +/- 0.0000e+00 0.0000e+00 0.0000e+00 [bar]
 1.2462e+02  2.5789e+02  1.1153e+02 +/- 0.0000e+00 0.0000e+00 0.0000e+00 [bar]
-3.7716e+01  1.1153e+02  2.2803e+02 +/- 0.0000e+00 0.0000e+00 0.0000e+00 [bar]
Ideal-gas pressure:   5.171536e+02 +/ 0.000000e+00 [bar]
Excess pressure:     -2.809105e+02 +/ 0.000000e+00 [bar]
Pressure:             2.362431e+02 +/ 0.000000e+00 [bar]

Total potential energy/kʙ  -3.277719e+05 (-3.164929e+05 +/- 0.000000e+00) [K]
-------------------------------------------------------------------------------
ExternalField-molecule
    Van der Waals/kʙ        0.000000e+00 ( 0.000000e+00 +/- 0.000000e+00) [K]
Framework-molecule
    Van der Waals/kʙ        0.000000e+00 ( 0.000000e+00 +/- 0.000000e+00) [K]
    Van der Waals (Tail)/kʙ 0.000000e+00 ( 0.000000e+00 +/- 0.000000e+00) [K]
    Coulombic Real/kʙ       0.000000e+00 ( 0.000000e+00 +/- 0.000000e+00) [K]
    Coulombic Fourier/kʙ    0.000000e+00 ( 0.000000e+00 +/- 0.000000e+00) [K]
Molecule-molecule
    Van der Waals/kʙ       -2.394677e+05 (-2.272362e+05 +/- 0.000000e+00) [K]
    Van der Waals (Tail)/kʙ-7.440137e+03 (-7.226459e+03 +/- 0.000000e+00) [K]
    Coulombic Real/kʙ      -6.999319e+04 (-7.167226e+04 +/- 0.000000e+00) [K]
    Coulombic Fourier/kʙ   -1.087094e+04 (-1.035796e+04 +/- 0.000000e+00) [K]
    Molecule Intra/kʙ       0.000000e+00 ( 0.000000e+00 +/- 0.000000e+00) [K]

Current cycle: 800 out of 5000
===============================================================================

Box:      23.60651   0.00000   0.00000  Average:  23.70680   0.00000   0.00000
           0.00000  23.60651   0.00000             0.00000  23.70680   0.00000
           0.00000   0.00000  23.60651             0.00000   0.00000  23.70680
Lengths:  23.60651  23.60651  23.60651  Average:  23.70680  23.70680  23.70680
Angles:   90.00000  90.00000  90.00000  Average:  90.00000  90.00000  90.00000
Rectangular boundary conditions

net charge:   0.00000000

component 0 (CO2) lambda:  0 occupancy:  1 (1.000000)
    net charge:   0.00000000 [e]

Amount of molecules per component :
-------------------------------------------------------------------------------
Component 0 (CO2)
    molecules:      2.000000e+02 molecules  (2.000000e+02 +/- 0.000000e+00)
    number density: 1.520319e-02 molec./A^3 (1.501600e-02 +/- 0.000000e+00)
    density:        1.110771e+03 kg/m^3     (1.097095e+03 +/- 0.000000e+00)

Average pressure tensor: 
-------------------------------------------------------------------------------
 1.9308e+02  1.1131e+02 -3.1724e+01 +/- 0.0000e+00 0.0000e+00 0.0000e+00 [bar]
 1.1131e+02  2.1844e+02  1.1092e+02 +/- 0.0000e+00 0.0000e+00 0.0000e+00 [bar]
-3.1724e+01  1.1092e+02  2.1788e+02 +/- 0.0000e+00 0.0000e+00 0.0000e+00 [bar]
Ideal-gas pressure:   5.182961e+02 +/ 0.000000e+00 [bar]
Excess pressure:     -3.084990e+02 +/ 0.000000e+00 [bar]
Pressure:             2.097971e+02 +/ 0.000000e+00 [bar]

Total potential energy/kʙ  -3.141026e+05 (-3.166848e+05 +/- 0.000000e+00) [K]
-------------------------------------------------------------------------------
ExternalField-molecule
    Van der Waals/kʙ        0.000000e+00 ( 0.000000e+00 +/- 0.000000e+00) [K]
Framework-molecule
    Van der Waals/kʙ        0.000000e+00 ( 0.000000e+00 +/- 0.000000e+00) [K]
    Van der Waals (Tail)/kʙ 0.000000e+00 ( 0.000000e+00 +/- 0.000000e+00) [K]
    Coulombic Real/kʙ       0.000000e+00 ( 0.000000e+00 +/- 0.000000e+00) [K]
    Coulombic Fourier/kʙ    0.000000e+00 ( 0.000000e+00 +/- 0.000000e+00) [K]
Molecule-molecule
    Van der Waals/kʙ       -2.207546e+05 (-2.275268e+05 +/- 0.000000e+00) [K]
    Van der Waals (Tail)/kʙ-7.330642e+03 (-7.236205e+03 +/- 0.000000e+00) [K]
    Coulombic Real/kʙ      -7.681195e+04 (-7.158854e+04 +/- 0.000000e+00) [K]
    Coulombic Fourier/kʙ   -9.205390e+03 (-1.033326e+04 +/- 0.000000e+00) [K]
    Molecule Intra/kʙ       0.000000e+00 ( 0.000000e+00 +/- 0.000000e+00) [K]

Current cycle: 900 out of 5000
===============================================================================

Box:      23.70242   0.00000   0.00000  Average:  23.70536   0.00000   0.00000
           0.00000  23.70242   0.00000             0.00000  23.70536   0.00000
           0.00000   0.00000  23.70242             0.00000   0.00000  23.70536
Lengths:  23.70242  23.70242  23.70242  Average:  23.70536  23.70536  23.70536
Angles:   90.00000  90.00000  90.00000  Average:  90.00000  90.00000  90.00000
Rectangular boundary conditions

net charge:   0.00000000

component 0 (CO2) lambda:  0 occupancy:  1 (1.000000)
    net charge:   0.00000000 [e]

Amount of molecules per component :
-------------------------------------------------------------------------------
Component 0 (CO2)
    molecules:      2.000000e+02 molecules  (2.000000e+02 +/- 0.000000e+00)
    number density: 1.501937e-02 molec./A^3 (1.501830e-02 +/- 0.000000e+00)
    density:        1.097341e+03 kg/m^3     (1.097263e+03 +/- 0.000000e+00)

Average pressure tensor: 
-------------------------------------------------------------------------------
 1.8634e+02  1.0800e+02 -3.0689e+01 +/- 0.0000e+00 0.0000e+00 0.0000e+00 [bar]
 1.0800e+02  2.0941e+02  1.0849e+02 +/- 0.0000e+00 0.0000e+00 0.0000e+00 [bar]
-3.0689e+01  1.0849e+02  2.5843e+02 +/- 0.0000e+00 0.0000e+00 0.0000e+00 [bar]
Ideal-gas pressure:   5.183756e+02 +/ 0.000000e+00 [bar]
Excess pressure:     -3.003148e+02 +/ 0.000000e+00 [bar]
Pressure:             2.180608e+02 +/ 0.000000e+00 [bar]

Total potential energy/kʙ  -3.197789e+05 (-3.166988e+05 +/- 0.000000e+00) [K]
-------------------------------------------------------------------------------
ExternalField-molecule
    Van der Waals/kʙ        0.000000e+00 ( 0.000000e+00 +/- 0.000000e+00) [K]
Framework-molecule
    Van der Waals/kʙ        0.000000e+00 ( 0.000000e+00 +/- 0.000000e+00) [K]
    Van der Waals (Tail)/kʙ 0.000000e+00 ( 0.000000e+00 +/- 0.000000e+00) [K]
    Coulombic Real/kʙ       0.000000e+00 ( 0.000000e+00 +/- 0.000000e+00) [K]
    Coulombic Fourier/kʙ    0.000000e+00 ( 0.000000e+00 +/- 0.000000e+00) [K]
Molecule-molecule
    Van der Waals/kʙ       -2.293389e+05 (-2.274901e+05 +/- 0.000000e+00) [K]
    Van der Waals (Tail)/kʙ-7.242008e+03 (-7.238437e+03 +/- 0.000000e+00) [K]
    Coulombic Real/kʙ      -7.341029e+04 (-7.168204e+04 +/- 0.000000e+00) [K]
    Coulombic Fourier/kʙ   -9.787779e+03 (-1.028823e+04 +/- 0.000000e+00) [K]
    Molecule Intra/kʙ       0.000000e+00 ( 0.000000e+00 +/- 0.000000e+00) [K]

Current cycle: 1000 out of 5000
===============================================================================

Box:      23.44121   0.00000   0.00000  Average:  23.71099   0.00000   0.00000
           0.00000  23.44121   0.00000             0.00000  23.71099   0.00000
           0.00000   0.00000  23.44121             0.00000   0.00000  23.71099
Lengths:  23.44121  23.44121  23.44121  Average:  23.71099  23.71099  23.71099
Angles:   90.00000  90.00000  90.00000  Average:  90.00000  90.00000  90.00000
Rectangular boundary conditions

net charge:   0.00000000

component 0 (CO2) lambda:  0 occupancy:  1 (1.000000)
    net charge:   0.00000000 [e]

Amount of molecules per component :
-------------------------------------------------------------------------------
Component 0 (CO2)
    molecules:      2.000000e+02 molecules  (2.000000e+02 +/- 0.000000e+00)
    number density: 1.552709e-02 molec./A^3 (1.500744e-02 +/- 0.000000e+00)
    density:        1.134435e+03 kg/m^3     (1.096469e+03 +/- 0.000000e+00)

Average pressure tensor: 
-------------------------------------------------------------------------------
 1.8702e+02  8.9330e+01 -1.3433e+01 +/- 0.0000e+00 0.0000e+00 0.0000e+00 [bar]
 8.9330e+01  2.0035e+02  1.0594e+02 +/- 0.0000e+00 0.0000e+00 0.0000e+00 [bar]
-1.3433e+01  1.0594e+02  3.0374e+02 +/- 0.0000e+00 0.0000e+00 0.0000e+00 [bar]
Ideal-gas pressure:   5.180006e+02 +/ 0.000000e+00 [bar]
Excess pressure:     -2.876298e+02 +/ 0.000000e+00 [bar]
Pressure:             2.303709e+02 +/ 0.000000e+00 [bar]

Total potential energy/kʙ  -3.338618e+05 (-3.168880e+05 +/- 0.000000e+00) [K]
-------------------------------------------------------------------------------
ExternalField-molecule
    Van der Waals/kʙ        0.000000e+00 ( 0.000000e+00 +/- 0.000000e+00) [K]
Framework-molecule
    Van der Waals/kʙ        0.000000e+00 ( 0.000000e+00 +/- 0.000000e+00) [K]
    Van der Waals (Tail)/kʙ 0.000000e+00 ( 0.000000e+00 +/- 0.000000e+00) [K]
    Coulombic Real/kʙ       0.000000e+00 ( 0.000000e+00 +/- 0.000000e+00) [K]
    Coulombic Fourier/kʙ    0.000000e+00 ( 0.000000e+00 +/- 0.000000e+00) [K]
Molecule-molecule
    Van der Waals/kʙ       -2.374306e+05 (-2.272735e+05 +/- 0.000000e+00) [K]
    Van der Waals (Tail)/kʙ-7.486817e+03 (-7.238304e+03 +/- 0.000000e+00) [K]
    Coulombic Real/kʙ      -7.854598e+04 (-7.203660e+04 +/- 0.000000e+00) [K]
    Coulombic Fourier/kʙ   -1.039845e+04 (-1.033961e+04 +/- 0.000000e+00) [K]
    Molecule Intra/kʙ       0.000000e+00 ( 0.000000e+00 +/- 0.000000e+00) [K]

Current cycle: 1100 out of 5000
===============================================================================

Box:      23.34548   0.00000   0.00000  Average:  23.69338   0.00000   0.00000
           0.00000  23.34548   0.00000             0.00000  23.69338   0.00000
           0.00000   0.00000  23.34548             0.00000   0.00000  23.69338
Lengths:  23.34548  23.34548  23.34548  Average:  23.69338  23.69338  23.69338
Angles:   90.00000  90.00000  90.00000  Average:  90.00000  90.00000  90.00000
Rectangular boundary conditions

net charge:   0.00000000

component 0 (CO2) lambda:  0 occupancy:  1 (1.000000)
    net charge:   0.00000000 [e]

Amount of molecules per component :
-------------------------------------------------------------------------------
Component 0 (CO2)
    molecules:      2.000000e+02 molecules  (2.000000e+02 +/- 0.000000e+00)
    number density: 1.571888e-02 molec./A^3 (1.504119e-02 +/- 0.000000e+00)
    density:        1.148448e+03 kg/m^3     (1.098935e+03 +/- 0.000000e+00)

Average pressure tensor: 
-------------------------------------------------------------------------------
 1.8761e+02  9.6465e+01 -4.0475e+00 +/- 0.0000e+00 0.0000e+00 0.0000e+00 [bar]
 9.6465e+01  1.9261e+02  9.0479e+01 +/- 0.0000e+00 0.0000e+00 0.0000e+00 [bar]
-4.0475e+00  9.0479e+01  2.8746e+02 +/- 0.0000e+00 0.0000e+00 0.0000e+00 [bar]
Ideal-gas pressure:   5.191657e+02 +/ 0.000000e+00 [bar]
Excess pressure:     -2.966018e+02 +/ 0.000000e+00 [bar]
Pressure:             2.225639e+02 +/ 0.000000e+00 [bar]

Total potential energy/kʙ  -3.300060e+05 (-3.177661e+05 +/- 0.000000e+00) [K]
-------------------------------------------------------------------------------
ExternalField-molecule
    Van der Waals/kʙ        0.000000e+00 ( 0.000000e+00 +/- 0.000000e+00) [K]
Framework-molecule
    Van der Waals/kʙ        0.000000e+00 ( 0.000000e+00 +/- 0.000000e+00) [K]
    Van der Waals (Tail)/kʙ 0.000000e+00 ( 0.000000e+00 +/- 0.000000e+00) [K]
    Coulombic Real/kʙ       0.000000e+00 ( 0.000000e+00 +/- 0.000000e+00) [K]
    Coulombic Fourier/kʙ    0.000000e+00 ( 0.000000e+00 +/- 0.000000e+00) [K]
Molecule-molecule
    Van der Waals/kʙ       -2.391404e+05 (-2.280817e+05 +/- 0.000000e+00) [K]
    Van der Waals (Tail)/kʙ-7.579296e+03 (-7.255036e+03 +/- 0.000000e+00) [K]
    Coulombic Real/kʙ      -7.252046e+04 (-7.206393e+04 +/- 0.000000e+00) [K]
    Coulombic Fourier/kʙ   -1.076584e+04 (-1.036550e+04 +/- 0.000000e+00) [K]
    Molecule Intra/kʙ       0.000000e+00 ( 0.000000e+00 +/- 0.000000e+00) [K]

Current cycle: 1200 out of 5000
===============================================================================

Box:      23.76766   0.00000   0.00000  Average:  23.68190   0.00000   0.00000
           0.00000  23.76766   0.00000             0.00000  23.68190   0.00000
           0.00000   0.00000  23.76766             0.00000   0.00000  23.68190
Lengths:  23.76766  23.76766  23.76766  Average:  23.68190  23.68190  23.68190
Angles:   90.00000  90.00000  90.00000  Average:  90.00000  90.00000  90.00000
Rectangular boundary conditions

net charge:   0.00000000

component 0 (CO2) lambda:  0 occupancy:  1 (1.000000)
    net charge:   0.00000000 [e]

Amount of molecules per component :
-------------------------------------------------------------------------------
Component 0 (CO2)
    molecules:      2.000000e+02 molecules  (2.000000e+02 +/- 0.000000e+00)
    number density: 1.489604e-02 molec./A^3 (1.506315e-02 +/- 0.000000e+00)
    density:        1.088330e+03 kg/m^3     (1.100539e+03 +/- 0.000000e+00)

Average pressure tensor: 
-------------------------------------------------------------------------------
 2.2131e+02  8.6063e+01 -6.2662e+00 +/- 0.0000e+00 0.0000e+00 0.0000e+00 [bar]
 8.6063e+01  1.8605e+02  7.7052e+01 +/- 0.0000e+00 0.0000e+00 0.0000e+00 [bar]
-6.2662e+00  7.7052e+01  2.8319e+02 +/- 0.0000e+00 0.0000e+00 0.0000e+00 [bar]
Ideal-gas pressure:   5.199235e+02 +/ 0.000000e+00 [bar]
Excess pressure:     -2.897426e+02 +/ 0.000000e+00 [bar]
Pressure:             2.301809e+02 +/ 0.000000e+00 [bar]

Total potential energy/kʙ  -3.097142e+05 (-3.180502e+05 +/- 0.000000e+00) [K]
-------------------------------------------------------------------------------
ExternalField-molecule
    Van der Waals/kʙ        0.000000e+00 ( 0.000000e+00 +/- 0.000000e+00) [K]
Framework-molecule
    Van der Waals/kʙ        0.000000e+00 ( 0.000000e+00 +/- 0.000000e+00) [K]
    Van der Waals (Tail)/kʙ 0.000000e+00 ( 0.000000e+00 +/- 0.000000e+00) [K]
    Coulombic Real/kʙ       0.000000e+00 ( 0.000000e+00 +/- 0.000000e+00) [K]
    Coulombic Fourier/kʙ    0.000000e+00 ( 0.000000e+00 +/- 0.000000e+00) [K]
Molecule-molecule
    Van der Waals/kʙ       -2.282317e+05 (-2.284860e+05 +/- 0.000000e+00) [K]
    Van der Waals (Tail)/kʙ-7.182541e+03 (-7.264994e+03 +/- 0.000000e+00) [K]
    Coulombic Real/kʙ      -6.462248e+04 (-7.195546e+04 +/- 0.000000e+00) [K]
    Coulombic Fourier/kʙ   -9.677546e+03 (-1.034372e+04 +/- 0.000000e+00) [K]
    Molecule Intra/kʙ       0.000000e+00 ( 0.000000e+00 +/- 0.000000e+00) [K]

Current cycle: 1300 out of 5000
===============================================================================

Box:      23.81442   0.00000   0.00000  Average:  23.68765   0.00000   0.00000
           0.00000  23.81442   0.00000             0.00000  23.68765   0.00000
           0.00000   0.00000  23.81442             0.00000   0.00000  23.68765
Lengths:  23.81442  23.81442  23.81442  Average:  23.68765  23.68765  23.68765
Angles:   90.00000  90.00000  90.00000  Average:  90.00000  90.00000  90.00000
Rectangular boundary conditions

net charge:   0.00000000

component 0 (CO2) lambda:  0 occupancy:  1 (1.000000)
    net charge:   0.00000000 [e]

Amount of molecules per component :
-------------------------------------------------------------------------------
Component 0 (CO2)
    molecules:      2.000000e+02 molecules  (2.000000e+02 +/- 0.000000e+00)
    number density: 1.480847e-02 molec./A^3 (1.505195e-02 +/- 0.000000e+00)
    density:        1.081932e+03 kg/m^3     (1.099721e+03 +/- 0.000000e+00)

Average pressure tensor: 
-------------------------------------------------------------------------------
 2.1524e+02  8.4054e+01  1.9545e+00 +/- 0.0000e+00 0.0000e+00 0.0000e+00 [bar]
 8.4054e+01  1.9047e+02  8.1499e+01 +/- 0.0000e+00 0.0000e+00 0.0000e+00 [bar]
 1.9545e+00  8.1499e+01  2.6654e+02 +/- 0.0000e+00 0.0000e+00 0.0000e+00 [bar]
Ideal-gas pressure:   5.195370e+02 +/ 0.000000e+00 [bar]
Excess pressure:     -2.954537e+02 +/ 0.000000e+00 [bar]
Pressure:             2.240833e+02 +/ 0.000000e+00 [bar]

Total potential energy/kʙ  -3.115574e+05 (-3.176703e+05 +/- 0.000000e+00) [K]
-------------------------------------------------------------------------------
ExternalField-molecule
    Van der Waals/kʙ        0.000000e+00 ( 0.000000e+00 +/- 0.000000e+00) [K]
Framework-molecule
    Van der Waals/kʙ        0.000000e+00 ( 0.000000e+00 +/- 0.000000e+00) [K]
    Van der Waals (Tail)/kʙ 0.000000e+00 ( 0.000000e+00 +/- 0.000000e+00) [K]
    Coulombic Real/kʙ       0.000000e+00 ( 0.000000e+00 +/- 0.000000e+00) [K]
    Coulombic Fourier/kʙ    0.000000e+00 ( 0.000000e+00 +/- 0.000000e+00) [K]
Molecule-molecule
    Van der Waals/kʙ       -2.207759e+05 (-2.282507e+05 +/- 0.000000e+00) [K]
    Van der Waals (Tail)/kʙ-7.140316e+03 (-7.259010e+03 +/- 0.000000e+00) [K]
    Coulombic Real/kʙ      -7.316088e+04 (-7.182094e+04 +/- 0.000000e+00) [K]
    Coulombic Fourier/kʙ   -1.048031e+04 (-1.033970e+04 +/- 0.000000e+00) [K]
    Molecule Intra/kʙ       0.000000e+00 ( 0.000000e+00 +/- 0.000000e+00) [K]

Current cycle: 1400 out of 5000
===============================================================================

Box:      23.59225   0.00000   0.00000  Average:  23.69485   0.00000   0.00000
           0.00000  23.59225   0.00000             0.00000  23.69485   0.00000
           0.00000   0.00000  23.59225             0.00000   0.00000  23.69485
Lengths:  23.59225  23.59225  23.59225  Average:  23.69485  23.69485  23.69485
Angles:   90.00000  90.00000  90.00000  Average:  90.00000  90.00000  90.00000
Rectangular boundary conditions

net charge:   0.00000000

component 0 (CO2) lambda:  0 occupancy:  1 (1.000000)
    net charge:   0.00000000 [e]

Amount of molecules per component :
-------------------------------------------------------------------------------
Component 0 (CO2)
    molecules:      2.000000e+02 molecules  (2.000000e+02 +/- 0.000000e+00)
    number density: 1.523077e-02 molec./A^3 (1.503816e-02 +/- 0.000000e+00)
    density:        1.112786e+03 kg/m^3     (1.098714e+03 +/- 0.000000e+00)

Average pressure tensor: 
-------------------------------------------------------------------------------
 2.1116e+02  8.0534e+01 -5.8854e+00 +/- 0.0000e+00 0.0000e+00 0.0000e+00 [bar]
 8.0534e+01  1.9663e+02  8.3566e+01 +/- 0.0000e+00 0.0000e+00 0.0000e+00 [bar]
-5.8854e+00  8.3566e+01  2.7461e+02 +/- 0.0000e+00 0.0000e+00 0.0000e+00 [bar]
Ideal-gas pressure:   5.190612e+02 +/ 0.000000e+00 [bar]
Excess pressure:     -2.915946e+02 +/ 0.000000e+00 [bar]
Pressure:             2.274665e+02 +/ 0.000000e+00 [bar]

Total potential energy/kʙ  -3.166755e+05 (-3.171355e+05 +/- 0.000000e+00) [K]
-------------------------------------------------------------------------------
ExternalField-molecule
    Van der Waals/kʙ        0.000000e+00 ( 0.000000e+00 +/- 0.000000e+00) [K]
Framework-molecule
    Van der Waals/kʙ        0.000000e+00 ( 0.000000e+00 +/- 0.000000e+00) [K]
    Van der Waals (Tail)/kʙ 0.000000e+00 ( 0.000000e+00 +/- 0.000000e+00) [K]
    Coulombic Real/kʙ       0.000000e+00 ( 0.000000e+00 +/- 0.000000e+00) [K]
    Coulombic Fourier/kʙ    0.000000e+00 ( 0.000000e+00 +/- 0.000000e+00) [K]
Molecule-molecule
    Van der Waals/kʙ       -2.335456e+05 (-2.279785e+05 +/- 0.000000e+00) [K]
    Van der Waals (Tail)/kʙ-7.343941e+03 (-7.252758e+03 +/- 0.000000e+00) [K]
    Coulombic Real/kʙ      -6.565373e+04 (-7.155074e+04 +/- 0.000000e+00) [K]
    Coulombic Fourier/kʙ   -1.013224e+04 (-1.035353e+04 +/- 0.000000e+00) [K]
    Molecule Intra/kʙ       0.000000e+00 ( 0.000000e+00 +/- 0.000000e+00) [K]

Current cycle: 1500 out of 5000
===============================================================================

Box:      23.47224   0.00000   0.00000  Average:  23.69570   0.00000   0.00000
           0.00000  23.47224   0.00000             0.00000  23.69570   0.00000
           0.00000   0.00000  23.47224             0.00000   0.00000  23.69570
Lengths:  23.47224  23.47224  23.47224  Average:  23.69570  23.69570  23.69570
Angles:   90.00000  90.00000  90.00000  Average:  90.00000  90.00000  90.00000
Rectangular boundary conditions

net charge:   0.00000000

component 0 (CO2) lambda:  0 occupancy:  1 (1.000000)
    net charge:   0.00000000 [e]

Amount of molecules per component :
-------------------------------------------------------------------------------
Component 0 (CO2)
    molecules:      2.000000e+02 molecules  (2.000000e+02 +/- 0.000000e+00)
    number density: 1.546558e-02 molec./A^3 (1.503645e-02 +/- 0.000000e+00)
    density:        1.129942e+03 kg/m^3     (1.098589e+03 +/- 0.000000e+00)

Average pressure tensor: 
-------------------------------------------------------------------------------
 2.1512e+02  6.9953e+01 -2.2559e+01 +/- 0.0000e+00 0.0000e+00 0.0000e+00 [bar]
 6.9953e+01  2.0043e+02  9.1167e+01 +/- 0.0000e+00 0.0000e+00 0.0000e+00 [bar]
-2.2559e+01  9.1167e+01  2.7163e+02 +/- 0.0000e+00 0.0000e+00 0.0000e+00 [bar]
Ideal-gas pressure:   5.190020e+02 +/ 0.000000e+00 [bar]
Excess pressure:     -2.899438e+02 +/ 0.000000e+00 [bar]
Pressure:             2.290582e+02 +/ 0.000000e+00 [bar]

Total potential energy/kʙ  -3.312104e+05 (-3.170785e+05 +/- 0.000000e+00) [K]
-------------------------------------------------------------------------------
ExternalField-molecule
    Van der Waals/kʙ        0.000000e+00 ( 0.000000e+00 +/- 0.000000e+00) [K]
Framework-molecule
    Van der Waals/kʙ        0.000000e+00 ( 0.000000e+00 +/- 0.000000e+00) [K]
    Van der Waals (Tail)/kʙ 0.000000e+00 ( 0.000000e+00 +/- 0.000000e+00) [K]
    Coulombic Real/kʙ       0.000000e+00 ( 0.000000e+00 +/- 0.000000e+00) [K]
    Coulombic Fourier/kʙ    0.000000e+00 ( 0.000000e+00 +/- 0.000000e+00) [K]
Molecule-molecule
    Van der Waals/kʙ       -2.388491e+05 (-2.280369e+05 +/- 0.000000e+00) [K]
    Van der Waals (Tail)/kʙ-7.457162e+03 (-7.253661e+03 +/- 0.000000e+00) [K]
    Coulombic Real/kʙ      -7.442846e+04 (-7.143259e+04 +/- 0.000000e+00) [K]
    Coulombic Fourier/kʙ   -1.047571e+04 (-1.035541e+04 +/- 0.000000e+00) [K]
    Molecule Intra/kʙ       0.000000e+00 ( 0.000000e+00 +/- 0.000000e+00) [K]

Current cycle: 1600 out of 5000
===============================================================================

Box:      23.31919   0.00000   0.00000  Average:  23.68156   0.00000   0.00000
           0.00000  23.31919   0.00000             0.00000  23.68156   0.00000
           0.00000   0.00000  23.31919             0.00000   0.00000  23.68156
Lengths:  23.31919  23.31919  23.31919  Average:  23.68156  23.68156  23.68156
Angles:   90.00000  90.00000  90.00000  Average:  90.00000  90.00000  90.00000
Rectangular boundary conditions

net charge:   0.00000000

component 0 (CO2) lambda:  0 occupancy:  1 (1.000000)
    net charge:   0.00000000 [e]

Amount of molecules per component :
-------------------------------------------------------------------------------
Component 0 (CO2)
    molecules:      2.000000e+02 molecules  (2.000000e+02 +/- 0.000000e+00)
    number density: 1.577211e-02 molec./A^3 (1.506368e-02 +/- 0.000000e+00)
    density:        1.152337e+03 kg/m^3     (1.100578e+03 +/- 0.000000e+00)

Average pressure tensor: 
-------------------------------------------------------------------------------
 2.2629e+02  6.7111e+01 -1.9148e+01 +/- 0.0000e+00 0.0000e+00 0.0000e+00 [bar]
 6.7111e+01  1.8856e+02  9.1932e+01 +/- 0.0000e+00 0.0000e+00 0.0000e+00 [bar]
-1.9148e+01  9.1932e+01  2.7212e+02 +/- 0.0000e+00 0.0000e+00 0.0000e+00 [bar]
Ideal-gas pressure:   5.199419e+02 +/ 0.000000e+00 [bar]
Excess pressure:     -2.909514e+02 +/ 0.000000e+00 [bar]
Pressure:             2.289905e+02 +/ 0.000000e+00 [bar]

Total potential energy/kʙ  -3.384407e+05 (-3.178758e+05 +/- 0.000000e+00) [K]
-------------------------------------------------------------------------------
ExternalField-molecule
    Van der Waals/kʙ        0.000000e+00 ( 0.000000e+00 +/- 0.000000e+00) [K]
Framework-molecule
    Van der Waals/kʙ        0.000000e+00 ( 0.000000e+00 +/- 0.000000e+00) [K]
    Van der Waals (Tail)/kʙ 0.000000e+00 ( 0.000000e+00 +/- 0.000000e+00) [K]
    Coulombic Real/kʙ       0.000000e+00 ( 0.000000e+00 +/- 0.000000e+00) [K]
    Coulombic Fourier/kʙ    0.000000e+00 ( 0.000000e+00 +/- 0.000000e+00) [K]
Molecule-molecule
    Van der Waals/kʙ       -2.390921e+05 (-2.284943e+05 +/- 0.000000e+00) [K]
    Van der Waals (Tail)/kʙ-7.604963e+03 (-7.267600e+03 +/- 0.000000e+00) [K]
    Coulombic Real/kʙ      -8.105458e+04 (-7.173982e+04 +/- 0.000000e+00) [K]
    Coulombic Fourier/kʙ   -1.068911e+04 (-1.037403e+04 +/- 0.000000e+00) [K]
    Molecule Intra/kʙ       0.000000e+00 ( 0.000000e+00 +/- 0.000000e+00) [K]

Current cycle: 1700 out of 5000
===============================================================================

Box:      23.65073   0.00000   0.00000  Average:  23.67308   0.00000   0.00000
           0.00000  23.65073   0.00000             0.00000  23.67308   0.00000
           0.00000   0.00000  23.65073             0.00000   0.00000  23.67308
Lengths:  23.65073  23.65073  23.65073  Average:  23.67308  23.67308  23.67308
Angles:   90.00000  90.00000  90.00000  Average:  90.00000  90.00000  90.00000
Rectangular boundary conditions

net charge:   0.00000000

component 0 (CO2) lambda:  0 occupancy:  1 (1.000000)
    net charge:   0.00000000 [e]

Amount of molecules per component :
-------------------------------------------------------------------------------
Component 0 (CO2)
    molecules:      2.000000e+02 molecules  (2.000000e+02 +/- 0.000000e+00)
    number density: 1.511808e-02 molec./A^3 (1.507994e-02 +/- 0.000000e+00)
    density:        1.104553e+03 kg/m^3     (1.101766e+03 +/- 0.000000e+00)

Average pressure tensor: 
-------------------------------------------------------------------------------
 2.3305e+02  4.7831e+01 -1.3099e+01 +/- 0.0000e+00 0.0000e+00 0.0000e+00 [bar]
 4.7831e+01  1.7487e+02  1.0915e+02 +/- 0.0000e+00 0.0000e+00 0.0000e+00 [bar]
-1.3099e+01  1.0915e+02  2.7401e+02 +/- 0.0000e+00 0.0000e+00 0.0000e+00 [bar]
Ideal-gas pressure:   5.205032e+02 +/ 0.000000e+00 [bar]
Excess pressure:     -2.931946e+02 +/ 0.000000e+00 [bar]
Pressure:             2.273086e+02 +/ 0.000000e+00 [bar]

Total potential energy/kʙ  -3.128618e+05 (-3.181798e+05 +/- 0.000000e+00) [K]
-------------------------------------------------------------------------------
ExternalField-molecule
    Van der Waals/kʙ        0.000000e+00 ( 0.000000e+00 +/- 0.000000e+00) [K]
Framework-molecule
    Van der Waals/kʙ        0.000000e+00 ( 0.000000e+00 +/- 0.000000e+00) [K]
    Van der Waals (Tail)/kʙ 0.000000e+00 ( 0.000000e+00 +/- 0.000000e+00) [K]
    Coulombic Real/kʙ       0.000000e+00 ( 0.000000e+00 +/- 0.000000e+00) [K]
    Coulombic Fourier/kʙ    0.000000e+00 ( 0.000000e+00 +/- 0.000000e+00) [K]
Molecule-molecule
    Van der Waals/kʙ       -2.289824e+05 (-2.287451e+05 +/- 0.000000e+00) [K]
    Van der Waals (Tail)/kʙ-7.289603e+03 (-7.274046e+03 +/- 0.000000e+00) [K]
    Coulombic Real/kʙ      -6.592506e+04 (-7.175590e+04 +/- 0.000000e+00) [K]
    Coulombic Fourier/kʙ   -1.066465e+04 (-1.040470e+04 +/- 0.000000e+00) [K]
    Molecule Intra/kʙ       0.000000e+00 ( 0.000000e+00 +/- 0.000000e+00) [K]

Current cycle: 1800 out of 5000
===============================================================================

Box:      23.55818   0.00000   0.00000  Average:  23.67186   0.00000   0.00000
           0.00000  23.55818   0.00000             0.00000  23.67186   0.00000
           0.00000   0.00000  23.55818             0.00000   0.00000  23.67186
Lengths:  23.55818  23.55818  23.55818  Average:  23.67186  23.67186  23.67186
Angles:   90.00000  90.00000  90.00000  Average:  90.00000  90.00000  90.00000
Rectangular boundary conditions

net charge:   0.00000000

component 0 (CO2) lambda:  0 occupancy:  1 (1.000000)
    net charge:   0.00000000 [e]

Amount of molecules per component :
-------------------------------------------------------------------------------
Component 0 (CO2)
    molecules:      2.000000e+02 molecules  (2.000000e+02 +/- 0.000000e+00)
    number density: 1.529696e-02 molec./A^3 (1.508211e-02 +/- 0.000000e+00)
    density:        1.117622e+03 kg/m^3     (1.101925e+03 +/- 0.000000e+00)

Average pressure tensor: 
-------------------------------------------------------------------------------
 2.3372e+02  3.9962e+01 -5.0326e+00 +/- 0.0000e+00 0.0000e+00 0.0000e+00 [bar]
 3.9962e+01  1.6701e+02  1.0780e+02 +/- 0.0000e+00 0.0000e+00 0.0000e+00 [bar]
-5.0326e+00  1.0780e+02  2.7667e+02 +/- 0.0000e+00 0.0000e+00 0.0000e+00 [bar]
Ideal-gas pressure:   5.205779e+02 +/ 0.000000e+00 [bar]
Excess pressure:     -2.947778e+02 +/ 0.000000e+00 [bar]
Pressure:             2.258001e+02 +/ 0.000000e+00 [bar]

Total potential energy/kʙ  -3.262946e+05 (-3.181971e+05 +/- 0.000000e+00) [K]
-------------------------------------------------------------------------------
ExternalField-molecule
    Van der Waals/kʙ        0.000000e+00 ( 0.000000e+00 +/- 0.000000e+00) [K]
Framework-molecule
    Van der Waals/kʙ        0.000000e+00 ( 0.000000e+00 +/- 0.000000e+00) [K]
    Van der Waals (Tail)/kʙ 0.000000e+00 ( 0.000000e+00 +/- 0.000000e+00) [K]
    Coulombic Real/kʙ       0.000000e+00 ( 0.000000e+00 +/- 0.000000e+00) [K]
    Coulombic Fourier/kʙ    0.000000e+00 ( 0.000000e+00 +/- 0.000000e+00) [K]
Molecule-molecule
    Van der Waals/kʙ       -2.349437e+05 (-2.288202e+05 +/- 0.000000e+00) [K]
    Van der Waals (Tail)/kʙ-7.375854e+03 (-7.274931e+03 +/- 0.000000e+00) [K]
    Coulombic Real/kʙ      -7.326569e+04 (-7.168871e+04 +/- 0.000000e+00) [K]
    Coulombic Fourier/kʙ   -1.070933e+04 (-1.041328e+04 +/- 0.000000e+00) [K]
    Molecule Intra/kʙ       0.000000e+00 ( 0.000000e+00 +/- 0.000000e+00) [K]

Current cycle: 1900 out of 5000
===============================================================================

Box:      23.71555   0.00000   0.00000  Average:  23.66782   0.00000   0.00000
           0.00000  23.71555   0.00000             0.00000  23.66782   0.00000
           0.00000   0.00000  23.71555             0.00000   0.00000  23.66782
Lengths:  23.71555  23.71555  23.71555  Average:  23.66782  23.66782  23.66782
Angles:   90.00000  90.00000  90.00000  Average:  90.00000  90.00000  90.00000
Rectangular boundary conditions

net charge:   0.00000000

component 0 (CO2) lambda:  0 occupancy:  1 (1.000000)
    net charge:   0.00000000 [e]

Amount of molecules per component :
-------------------------------------------------------------------------------
Component 0 (CO2)
    molecules:      2.000000e+02 molecules  (2.000000e+02 +/- 0.000000e+00)
    number density: 1.499444e-02 molec./A^3 (1.508969e-02 +/- 0.000000e+00)
    density:        1.095520e+03 kg/m^3     (1.102479e+03 +/- 0.000000e+00)

Average pressure tensor: 
-------------------------------------------------------------------------------
 2.4156e+02  3.0037e+01  1.1491e+00 +/- 0.0000e+00 0.0000e+00 0.0000e+00 [bar]
 3.0037e+01  1.7229e+02  1.0486e+02 +/- 0.0000e+00 0.0000e+00 0.0000e+00 [bar]
 1.1491e+00  1.0486e+02  2.7162e+02 +/- 0.0000e+00 0.0000e+00 0.0000e+00 [bar]
Ideal-gas pressure:   5.208397e+02 +/ 0.000000e+00 [bar]
Excess pressure:     -2.923491e+02 +/ 0.000000e+00 [bar]
Pressure:             2.284906e+02 +/ 0.000000e+00 [bar]

Total potential energy/kʙ  -3.097705e+05 (-3.181591e+05 +/- 0.000000e+00) [K]
-------------------------------------------------------------------------------
ExternalField-molecule
    Van der Waals/kʙ        0.000000e+00 ( 0.000000e+00 +/- 0.000000e+00) [K]
Framework-molecule
    Van der Waals/kʙ        0.000000e+00 ( 0.000000e+00 +/- 0.000000e+00) [K]
    Van der Waals (Tail)/kʙ 0.000000e+00 ( 0.000000e+00 +/- 0.000000e+00) [K]
    Coulombic Real/kʙ       0.000000e+00 ( 0.000000e+00 +/- 0.000000e+00) [K]
    Coulombic Fourier/kʙ    0.000000e+00 ( 0.000000e+00 +/- 0.000000e+00) [K]
Molecule-molecule
    Van der Waals/kʙ       -2.278975e+05 (-2.289473e+05 +/- 0.000000e+00) [K]
    Van der Waals (Tail)/kʙ-7.229988e+03 (-7.277845e+03 +/- 0.000000e+00) [K]
    Coulombic Real/kʙ      -6.467657e+04 (-7.152511e+04 +/- 0.000000e+00) [K]
    Coulombic Fourier/kʙ   -9.966483e+03 (-1.040890e+04 +/- 0.000000e+00) [K]
    Molecule Intra/kʙ       0.000000e+00 ( 0.000000e+00 +/- 0.000000e+00) [K]

Current cycle: 2000 out of 5000
===============================================================================

Box:      23.57627   0.00000   0.00000  Average:  23.66020   0.00000   0.00000
           0.00000  23.57627   0.00000             0.00000  23.66020   0.00000
           0.00000   0.00000  23.57627             0.00000   0.00000  23.66020
Lengths:  23.57627  23.57627  23.57627  Average:  23.66020  23.66020  23.66020
Angles:   90.00000  90.00000  90.00000  Average:  90.00000  90.00000  90.00000
Rectangular boundary conditions

net charge:   0.00000000

component 0 (CO2) lambda:  0 occupancy:  1 (1.000000)
    net charge:   0.00000000 [e]

Amount of molecules per component :
-------------------------------------------------------------------------------
Component 0 (CO2)
    molecules:      2.000000e+02 molecules  (2.000000e+02 +/- 0.000000e+00)
    number density: 1.526177e-02 molec./A^3 (1.510432e-02 +/- 0.000000e+00)
    density:        1.115051e+03 kg/m^3     (1.103548e+03 +/- 0.000000e+00)

Average pressure tensor: 
-------------------------------------------------------------------------------
 2.3299e+02  3.3139e+01 -1.4793e+00 +/- 0.0000e+00 0.0000e+00 0.0000e+00 [bar]
 3.3139e+01  1.7891e+02  9.5073e+01 +/- 0.0000e+00 0.0000e+00 0.0000e+00 [bar]
-1.4793e+00  9.5073e+01  2.6794e+02 +/- 0.0000e+00 0.0000e+00 0.0000e+00 [bar]
Ideal-gas pressure:   5.213447e+02 +/ 0.000000e+00 [bar]
Excess pressure:     -2.947329e+02 +/ 0.000000e+00 [bar]
Pressure:             2.266117e+02 +/ 0.000000e+00 [bar]

Total potential energy/kʙ  -3.235642e+05 (-3.184475e+05 +/- 0.000000e+00) [K]
-------------------------------------------------------------------------------
ExternalField-molecule
    Van der Waals/kʙ        0.000000e+00 ( 0.000000e+00 +/- 0.000000e+00) [K]
Framework-molecule
    Van der Waals/kʙ        0.000000e+00 ( 0.000000e+00 +/- 0.000000e+00) [K]
    Van der Waals (Tail)/kʙ 0.000000e+00 ( 0.000000e+00 +/- 0.000000e+00) [K]
    Coulombic Real/kʙ       0.000000e+00 ( 0.000000e+00 +/- 0.000000e+00) [K]
    Coulombic Fourier/kʙ    0.000000e+00 ( 0.000000e+00 +/- 0.000000e+00) [K]
Molecule-molecule
    Van der Waals/kʙ       -2.322526e+05 (-2.292032e+05 +/- 0.000000e+00) [K]
    Van der Waals (Tail)/kʙ-7.358889e+03 (-7.284494e+03 +/- 0.000000e+00) [K]
    Coulombic Real/kʙ      -7.357176e+04 (-7.156556e+04 +/- 0.000000e+00) [K]
    Coulombic Fourier/kʙ   -1.038103e+04 (-1.039420e+04 +/- 0.000000e+00) [K]
    Molecule Intra/kʙ       0.000000e+00 ( 0.000000e+00 +/- 0.000000e+00) [K]

Current cycle: 2100 out of 5000
===============================================================================

Box:      23.74855   0.00000   0.00000  Average:  23.65706   0.00000   0.00000
           0.00000  23.74855   0.00000             0.00000  23.65706   0.00000
           0.00000   0.00000  23.74855             0.00000   0.00000  23.65706
Lengths:  23.74855  23.74855  23.74855  Average:  23.65706  23.65706  23.65706
Angles:   90.00000  90.00000  90.00000  Average:  90.00000  90.00000  90.00000
Rectangular boundary conditions

net charge:   0.00000000

component 0 (CO2) lambda:  0 occupancy:  1 (1.000000)
    net charge:   0.00000000 [e]

Amount of molecules per component :
-------------------------------------------------------------------------------
Component 0 (CO2)
    molecules:      2.000000e+02 molecules  (2.000000e+02 +/- 0.000000e+00)
    number density: 1.493202e-02 molec./A^3 (1.511023e-02 +/- 0.000000e+00)
    density:        1.090959e+03 kg/m^3     (1.103979e+03 +/- 0.000000e+00)

Average pressure tensor: 
-------------------------------------------------------------------------------
 2.2622e+02  2.6455e+01  1.6108e+01 +/- 0.0000e+00 0.0000e+00 0.0000e+00 [bar]
 2.6455e+01  1.7383e+02  8.5744e+01 +/- 0.0000e+00 0.0000e+00 0.0000e+00 [bar]
 1.6108e+01  8.5744e+01  2.6816e+02 +/- 0.0000e+00 0.0000e+00 0.0000e+00 [bar]
Ideal-gas pressure:   5.215486e+02 +/ 0.000000e+00 [bar]
Excess pressure:     -2.988110e+02 +/ 0.000000e+00 [bar]
Pressure:             2.227376e+02 +/ 0.000000e+00 [bar]

Total potential energy/kʙ  -3.147736e+05 (-3.185080e+05 +/- 0.000000e+00) [K]
-------------------------------------------------------------------------------
ExternalField-molecule
    Van der Waals/kʙ        0.000000e+00 ( 0.000000e+00 +/- 0.000000e+00) [K]
Framework-molecule
    Van der Waals/kʙ        0.000000e+00 ( 0.000000e+00 +/- 0.000000e+00) [K]
    Van der Waals (Tail)/kʙ 0.000000e+00 ( 0.000000e+00 +/- 0.000000e+00) [K]
[...]
    Coulombic Fourier/kʙ    0.000000e+00 ( 0.000000e+00 +/- 0.000000e+00) [K]
Molecule-molecule
    Van der Waals/kʙ       -2.306763e+05 (-2.279644e+05 +/- 3.194991e+03) [K]
    Van der Waals (Tail)/kʙ-7.232135e+03 (-7.249680e+03 +/- 7.217504e+01) [K]
    Coulombic Real/kʙ      -6.655357e+04 (-7.048206e+04 +/- 1.781569e+03) [K]
    Coulombic Fourier/kʙ   -1.006725e+04 (-1.037759e+04 +/- 1.014208e+02) [K]
    Molecule Intra/kʙ       0.000000e+00 ( 0.000000e+00 +/- 0.000000e+00) [K]

Current cycle: 4700 out of 5000
===============================================================================

Box:      23.45026   0.00000   0.00000  Average:  23.69470   0.00000   0.00000
           0.00000  23.45026   0.00000             0.00000  23.69470   0.00000
           0.00000   0.00000  23.45026             0.00000   0.00000  23.69470
Lengths:  23.45026  23.45026  23.45026  Average:  23.69470  23.69470  23.69470
Angles:   90.00000  90.00000  90.00000  Average:  90.00000  90.00000  90.00000
Rectangular boundary conditions

net charge:   0.00000000

component 0 (CO2) lambda:  0 occupancy:  1 (1.000000)
    net charge:   0.00000000 [e]

Amount of molecules per component :
-------------------------------------------------------------------------------
Component 0 (CO2)
    molecules:      2.000000e+02 molecules  (2.000000e+02 +/- 0.000000e+00)
    number density: 1.550912e-02 molec./A^3 (1.503910e-02 +/- 1.598686e-04)
    density:        1.133123e+03 kg/m^3     (1.098782e+03 +/- 1.168028e+01)

Average pressure tensor: 
-------------------------------------------------------------------------------
 1.8912e+02 -9.2755e+00  3.5591e+01 +/- 9.8951e+01 7.4361e+01 9.4833e+01 [bar]
-9.2755e+00  1.7409e+02  3.3860e+01 +/- 7.4361e+01 6.7639e+01 8.2089e+01 [bar]
 3.5591e+01  3.3860e+01  2.8615e+02 +/- 9.4833e+01 8.2089e+01 5.3166e+01 [bar]
Ideal-gas pressure:   5.190935e+02 +/ 5.518067e+00 [bar]
Excess pressure:     -3.026404e+02 +/ 3.376470e+01 [bar]
Pressure:             2.164531e+02 +/ 3.321530e+01 [bar]

Total potential energy/kʙ  -3.291943e+05 (-3.162737e+05 +/- 3.624751e+03) [K]
-------------------------------------------------------------------------------
ExternalField-molecule
    Van der Waals/kʙ        0.000000e+00 ( 0.000000e+00 +/- 0.000000e+00) [K]
Framework-molecule
    Van der Waals/kʙ        0.000000e+00 ( 0.000000e+00 +/- 0.000000e+00) [K]
    Van der Waals (Tail)/kʙ 0.000000e+00 ( 0.000000e+00 +/- 0.000000e+00) [K]
    Coulombic Real/kʙ       0.000000e+00 ( 0.000000e+00 +/- 0.000000e+00) [K]
    Coulombic Fourier/kʙ    0.000000e+00 ( 0.000000e+00 +/- 0.000000e+00) [K]
Molecule-molecule
    Van der Waals/kʙ       -2.370911e+05 (-2.281037e+05 +/- 3.354139e+03) [K]
    Van der Waals (Tail)/kʙ-7.478155e+03 (-7.253774e+03 +/- 7.685393e+01) [K]
    Coulombic Real/kʙ      -7.429517e+04 (-7.053374e+04 +/- 1.477440e+03) [K]
    Coulombic Fourier/kʙ   -1.032991e+04 (-1.038246e+04 +/- 9.442540e+01) [K]
    Molecule Intra/kʙ       0.000000e+00 ( 0.000000e+00 +/- 0.000000e+00) [K]

Current cycle: 4800 out of 5000
===============================================================================

Box:      23.38419   0.00000   0.00000  Average:  23.69177   0.00000   0.00000
           0.00000  23.38419   0.00000             0.00000  23.69177   0.00000
           0.00000   0.00000  23.38419             0.00000   0.00000  23.69177
Lengths:  23.38419  23.38419  23.38419  Average:  23.69177  23.69177  23.69177
Angles:   90.00000  90.00000  90.00000  Average:  90.00000  90.00000  90.00000
Rectangular boundary conditions

net charge:   0.00000000

component 0 (CO2) lambda:  0 occupancy:  1 (1.000000)
    net charge:   0.00000000 [e]

Amount of molecules per component :
-------------------------------------------------------------------------------
Component 0 (CO2)
    molecules:      2.000000e+02 molecules  (2.000000e+02 +/- 0.000000e+00)
    number density: 1.564094e-02 molec./A^3 (1.504467e-02 +/- 1.647743e-04)
    density:        1.142754e+03 kg/m^3     (1.099189e+03 +/- 1.203869e+01)

Average pressure tensor: 
-------------------------------------------------------------------------------
 1.9369e+02 -7.7523e+00  3.7983e+01 +/- 9.9321e+01 7.2252e+01 8.5313e+01 [bar]
-7.7523e+00  1.7596e+02  3.4229e+01 +/- 7.2252e+01 6.7744e+01 8.2008e+01 [bar]
 3.7983e+01  3.4229e+01  2.8950e+02 +/- 8.5313e+01 8.2008e+01 4.7627e+01 [bar]
Ideal-gas pressure:   5.192855e+02 +/ 5.687392e+00 [bar]
Excess pressure:     -2.995686e+02 +/ 3.660621e+01 [bar]
Pressure:             2.197169e+02 +/ 3.685984e+01 [bar]

Total potential energy/kʙ  -3.334553e+05 (-3.164772e+05 +/- 3.771397e+03) [K]
-------------------------------------------------------------------------------
ExternalField-molecule
    Van der Waals/kʙ        0.000000e+00 ( 0.000000e+00 +/- 0.000000e+00) [K]
Framework-molecule
    Van der Waals/kʙ        0.000000e+00 ( 0.000000e+00 +/- 0.000000e+00) [K]
    Van der Waals (Tail)/kʙ 0.000000e+00 ( 0.000000e+00 +/- 0.000000e+00) [K]
    Coulombic Real/kʙ       0.000000e+00 ( 0.000000e+00 +/- 0.000000e+00) [K]
    Coulombic Fourier/kʙ    0.000000e+00 ( 0.000000e+00 +/- 0.000000e+00) [K]
Molecule-molecule
    Van der Waals/kʙ       -2.351249e+05 (-2.281913e+05 +/- 3.409041e+03) [K]
    Van der Waals (Tail)/kʙ-7.541716e+03 (-7.257369e+03 +/- 8.082765e+01) [K]
    Coulombic Real/kʙ      -7.978331e+04 (-7.064650e+04 +/- 1.155670e+03) [K]
    Coulombic Fourier/kʙ   -1.100548e+04 (-1.038200e+04 +/- 9.435018e+01) [K]
    Molecule Intra/kʙ       0.000000e+00 ( 0.000000e+00 +/- 0.000000e+00) [K]

Current cycle: 4900 out of 5000
===============================================================================

Box:      23.68816   0.00000   0.00000  Average:  23.68857   0.00000   0.00000
           0.00000  23.68816   0.00000             0.00000  23.68857   0.00000
           0.00000   0.00000  23.68816             0.00000   0.00000  23.68857
Lengths:  23.68816  23.68816  23.68816  Average:  23.68857  23.68857  23.68857
Angles:   90.00000  90.00000  90.00000  Average:  90.00000  90.00000  90.00000
Rectangular boundary conditions

net charge:   0.00000000

component 0 (CO2) lambda:  0 occupancy:  1 (1.000000)
    net charge:   0.00000000 [e]

Amount of molecules per component :
-------------------------------------------------------------------------------
Component 0 (CO2)
    molecules:      2.000000e+02 molecules  (2.000000e+02 +/- 0.000000e+00)
    number density: 1.504652e-02 molec./A^3 (1.505077e-02 +/- 1.702019e-04)
    density:        1.099325e+03 kg/m^3     (1.099635e+03 +/- 1.243524e+01)

Average pressure tensor: 
-------------------------------------------------------------------------------
 1.9336e+02 -4.1216e+00  3.4511e+01 +/- 9.9140e+01 7.0515e+01 8.8802e+01 [bar]
-4.1216e+00  1.8076e+02  3.4010e+01 +/- 7.0515e+01 7.5503e+01 8.2023e+01 [bar]
 3.4511e+01  3.4010e+01  2.8746e+02 +/- 8.8802e+01 8.2023e+01 4.9176e+01 [bar]
Ideal-gas pressure:   5.194961e+02 +/ 5.874733e+00 [bar]
Excess pressure:     -2.989658e+02 +/ 3.676624e+01 [bar]
Pressure:             2.205303e+02 +/ 3.723985e+01 [bar]

Total potential energy/kʙ  -3.219933e+05 (-3.167043e+05 +/- 3.988418e+03) [K]
-------------------------------------------------------------------------------
ExternalField-molecule
    Van der Waals/kʙ        0.000000e+00 ( 0.000000e+00 +/- 0.000000e+00) [K]
Framework-molecule
    Van der Waals/kʙ        0.000000e+00 ( 0.000000e+00 +/- 0.000000e+00) [K]
    Van der Waals (Tail)/kʙ 0.000000e+00 ( 0.000000e+00 +/- 0.000000e+00) [K]
    Coulombic Real/kʙ       0.000000e+00 ( 0.000000e+00 +/- 0.000000e+00) [K]
    Coulombic Fourier/kʙ    0.000000e+00 ( 0.000000e+00 +/- 0.000000e+00) [K]
Molecule-molecule
    Van der Waals/kʙ       -2.288222e+05 (-2.282979e+05 +/- 3.491338e+03) [K]
    Van der Waals (Tail)/kʙ-7.255100e+03 (-7.260026e+03 +/- 8.299240e+01) [K]
    Coulombic Real/kʙ      -7.541264e+04 (-7.076150e+04 +/- 1.002383e+03) [K]
    Coulombic Fourier/kʙ   -1.050334e+04 (-1.038490e+04 +/- 9.301346e+01) [K]
    Molecule Intra/kʙ       0.000000e+00 ( 0.000000e+00 +/- 0.000000e+00) [K]


Energy statistics             |  Energy [K]   | Recomputed [K]|  Drift [K]    |
===============================================================================
Total potential energy/kʙ     | -3.297965e+05 | -3.297965e+05 | -7.744609e-10 |
    external field VDW/kʙ     |  0.000000e+00 |  0.000000e+00 |  0.000000e+00 |
    external field Real/kʙ    |  0.000000e+00 |  0.000000e+00 |  0.000000e+00 |
    framework-molecule VDW/kʙ |  0.000000e+00 |  0.000000e+00 |  0.000000e+00 |
    framework-molecule Real/kʙ|  0.000000e+00 |  0.000000e+00 |  0.000000e+00 |
    molecule-molecule VDW/kʙ  | -2.416641e+05 | -2.416641e+05 | -1.015113e-09 |
    molecule-molecule Real/kʙ | -7.037627e+04 | -7.037627e+04 |  2.625291e-10 |
    Van der Waals (Tail)/kʙ   | -7.467057e+03 | -7.467057e+03 |  0.000000e+00 |
    Ewald Fourier/kʙ          |  7.863959e+03 |  7.863959e+03 | -2.187743e-11 |
    Ewald self/kʙ             | -4.023739e+06 | -4.023739e+06 |  0.000000e+00 |
    Ewald exclusion/kʙ        |  4.005586e+06 |  4.005586e+06 |  0.000000e+00 |
    intra VDW/kʙ              |  0.000000e+00 |  0.000000e+00 |  0.000000e+00 |
    intra Coulombic/kʙ        |  0.000000e+00 |  0.000000e+00 |  0.000000e+00 |
    polarization/kʙ           |  0.000000e+00 |  0.000000e+00 |  0.000000e+00 |
    dU/dlambda VDW/kʙ         |  0.000000e+00 |  0.000000e+00 |  0.000000e+00 |
    dU/dlambda Real/kʙ        |  0.000000e+00 |  0.000000e+00 |  0.000000e+00 |
    dU/dlambda Ewald/kʙ       |  0.000000e+00 |  0.000000e+00 |  0.000000e+00 |
-------------------------------------------------------------------------------


Monte-Carlo moves statistics
===============================================================================

    Volume change        all:                6496
    Volume change        total:              6496
    Volume change        constructed:        6496
    Volume change        accepted:           3442
    Volume change        fraction:       0.529865
    Volume change        max-change:     0.025000

Component 0 [CO2]
    Reinsertion (CBMC)   all:              330290
    Reinsertion (CBMC)   total:            330290
    Reinsertion (CBMC)   constructed:      281405
    Reinsertion (CBMC)   accepted:           2706
    Reinsertion (CBMC)   fraction:       0.008193
    Reinsertion (CBMC)   max-change:     0.000000

    Translation          all:              331151
    Translation          total:            110407     110357     110387
    Translation          constructed:      110407     110356     110387
    Translation          accepted:          65404      43285      56010
    Translation          fraction:       0.592390   0.392227   0.507397
    Translation          max-change:     0.480000   0.888889   0.616601

    Rotation             all:              332063
    Rotation             total:            110608     110704     110751
    Rotation             constructed:      110608     110704     110751
    Rotation             accepted:          50713      58816      51982
    Rotation             fraction:       0.458493   0.531291   0.469359
    Rotation             max-change:     0.753623   0.600000   0.729345



Production run counting of the MC moves summed over systems and components
===============================================================================

Volume change                          6496 (0.6496 [%])
Reinsertion (CBMC)                   330290 (33.0290 [%])
Translation                          331151 (33.1151 [%])
Rotation                             332063 (33.2063 [%])

Production count MC-steps:          1000000 [-]
               All summed:          1000000 [-]
               difference:                0 [-]


Production run CPU timings of the MC moves
===============================================================================

Component 0 CO2

Rotation                             47.498740 [s]
    Ewald                            18.973575 [s]
    ExternalField-Molecule            0.011359 [s]
    Framework-Molecule                0.010983 [s]
    Molecule-Molecule                26.967076 [s]
    Overhead                          1.535747 [s]

Reinsertion (CBMC)                  188.844144 [s]
    Ewald                            16.056730 [s]
    NonEwald                        172.491657 [s]
    Overhead                          0.295757 [s]

Translation                          47.676099 [s]
    Ewald                            18.879255 [s]
    ExternalField-Molecule            0.010461 [s]
    Framework-Molecule                0.017504 [s]
    Molecule-Molecule                27.257903 [s]
    Overhead                          1.510976 [s]



Volume change                         42.812047 [s]
    Ewald                             14.376979 [s]
    NonEwald                          26.649657 [s]
    Tail                               1.547773 [s]

Property sampling                     0.291553 [s]
Energy/pressure sampling:             6.589552 [s]


Production run CPU timings of the MC moves summed over systems and components
===============================================================================


Translation                          47.676099 [s]
    Ewald                            18.879255 [s]
    ExternalField-Molecule            0.010461 [s]
    Framework-Molecule                0.017504 [s]
    Molecule-Molecule                27.257903 [s]
    Overhead                          1.510976 [s]

Rotation                             47.498740 [s]
    Ewald                            18.973575 [s]
    ExternalField-Molecule            0.011359 [s]
    Framework-Molecule                0.010983 [s]
    Molecule-Molecule                26.967076 [s]
    Overhead                          1.535747 [s]

Volume change                        42.812047 [s]
    Ewald                            14.376979 [s]
    NonEwald                         26.649657 [s]
    Tail                              1.547773 [s]
    Overhead                          0.237638 [s]

Reinsertion (CBMC)                  188.844144 [s]
    Ewald                            16.056730 [s]
    NonEwald                        172.491657 [s]
    Overhead                          0.295757 [s]

Property sampling:                    0.291553 [s]
Energy/pressure sampling:             6.589552 [s]

Production simulation time:         334.425430 [s]
                All summed:         333.712135 [s]
                  Overhead:           0.713295 [s]


Initalization simulation time:       65.399968 [s]
Equilibration simulation time:        0.000000 [s]
Production simulation time:         334.425430 [s]
Total simulation time:              399.825398 [s]


Energy averages and statistics:
===============================================================================

Framework-molecule energy:
-------------------------------------------------------------------------------



Framework-molecule energy contributions per energy type:
-------------------------------------------------------------------------------



Inter-molecular energy:
-------------------------------------------------------------------------------

    Inter-molecular energy/kʙ 0-0 [CO2-CO2]:
    ---------------------------------------------------------------------------
        Block[  0] -3.167182e+05
        Block[  1] -3.201256e+05
        Block[  2] -3.155609e+05
        Block[  3] -3.120588e+05
        Block[  4] -3.199155e+05
        -----------------------------------------------------------------------
        Average  -3.168758e+05 +/-  4.152842e+03 [K]



Inter-molecular energy contributions per energy type:
-------------------------------------------------------------------------------

    Van der Waals energy/kʙ 0-0 [CO2-CO2]:
    ---------------------------------------------------------------------------
        Block[  0] -2.271719e+05
        Block[  1] -2.312041e+05
        Block[  2] -2.275931e+05
        Block[  3] -2.246407e+05
        Block[  4] -2.312261e+05
        -----------------------------------------------------------------------
        Average  -2.283672e+05 +/-  3.518871e+03 [K]

    VDW Tail-Correction energy/kʙ 0-0 [CO2-CO2]:
    ---------------------------------------------------------------------------
        Block[  0] -7.235819e+03
        Block[  1] -7.332424e+03
        Block[  2] -7.230664e+03
        Block[  3] -7.179161e+03
        Block[  4] -7.331587e+03
        -----------------------------------------------------------------------
        Average  -7.261931e+03 +/-  8.404352e+01 [K]

    Coulomb Real energy/kʙ 0-0 [CO2-CO2]:
    ---------------------------------------------------------------------------
        Block[  0] -7.197151e+04
        Block[  1] -7.113955e+04
        Block[  2] -7.026737e+04
        Block[  3] -6.994825e+04
        Block[  4] -7.097085e+04
        -----------------------------------------------------------------------
        Average  -7.085951e+04 +/-  9.831098e+02 [K]

    Coulomb Fourier energy/kʙ 0-0 [CO2-CO2]:
    ---------------------------------------------------------------------------
        Block[  0] -1.033902e+04
        Block[  1] -1.044952e+04
        Block[  2] -1.046971e+04
        Block[  3] -1.029069e+04
        Block[  4] -1.038702e+04
        -----------------------------------------------------------------------
        Average  -1.038719e+04 +/-  9.275030e+01 [K]


Total energy/kʙ
-------------------------------------------------------------------------------
    Block[  0] -3.167182e+05
    Block[  1] -3.201256e+05
    Block[  2] -3.155609e+05
    Block[  3] -3.120588e+05
    Block[  4] -3.199155e+05
    ---------------------------------------------------------------------------
    Average  -3.168758e+05 +/-  4.152842e+03 [K]

Pressure averages and statistics:
===============================================================================

Average pressure tensor: 
-------------------------------------------------------------------------------
 1.9422e+02 -4.2255e+00  3.4306e+01 +/- 9.9297e+01 7.0514e+01 8.6421e+01 [bar]
-4.2255e+00  1.8080e+02  3.3277e+01 +/- 7.0514e+01 7.1108e+01 8.2113e+01 [bar]
 3.4306e+01  3.3277e+01  2.8523e+02 +/- 8.6421e+01 8.2113e+01 5.1079e+01 [bar]

    Block[  0]  5.179827e+07
    Block[  1]  5.247012e+07
    Block[  2]  5.182415e+07
    Block[  3]  5.131716e+07
    Block[  4]  5.241687e+07
    ---------------------------------------------------------------------------
    Ideal gas pressure   5.196532e+07 +/-  3.598460e-02 [Pa]
                         5.196532e+02 +/-  5.975388e+00 [bar]


    Block[  0] -2.882129e+07
    Block[  1] -3.015378e+07
    Block[  2] -3.483494e+07
    Block[  3] -2.783685e+07
    Block[  4] -2.813778e+07
    ---------------------------------------------------------------------------
    Excess pressure  -2.995693e+07 +/-  3.561915e+06 [Pa]
                     -2.995693e+02 +/-  3.561915e+01 [bar]


    Block[  0]  2.297698e+07
    Block[  1]  2.231634e+07
    Block[  2]  1.698921e+07
    Block[  3]  2.348032e+07
    Block[  4]  2.427910e+07
    ---------------------------------------------------------------------------
    Pressure average   2.200839e+07 +/-  3.595311e+06 [Pa]
                       2.200839e+02 +/-  3.595311e+01 [bar]


Enthalpy of adsorption
===============================================================================

No fluctuating components present.


Densities
===============================================================================

Component 0 (CO2)
    Block[  0] 200
    Block[  1] 200
    Block[  2] 200
    Block[  3] 200
    Block[  4] 200
    -----------------------------------------------------------------------
    Density average   2.000000e+02 +/-  0.000000e+00 [molecules]
    Density average   1.505532e-02 +/-  1.731181e-04 [molec/A^3]
    Density average   1.099967e+03 +/-  1.264830e+01 [kg.m⁻³]

