Compiler and run-time data
===============================================================================
RASPA 3.0.4

Random seed: 1613757844

Compiled as a 64-bits application
Compiler: gcc Ubuntu Clang 18.1.3 (1ubuntu1)
Compile Date = Mar 15 2025, Compile Time = 19:39:45

2025-06-03 09:35:50.150689
Simulation started on Tue, Jun 03
The start time was 09:35:00

Hostname:    c060
OS type:     Linux on x86_64
OS release:  6.8.0-58-generic
OS version:  #60-Ubuntu SMP PREEMPT_DYNAMIC Fri Mar 14 18:29:48 UTC 2025


Mutual consistent basic set of units:
===============================================================================

Unit of temperature: 1 [K]
Unit of length:      1e-10 [m]
Unit of time:        1e-12 [s]
Unit of mass:        1.6605402e-27 [kg]
Unit of charge:      1.60217733e-19 [C/particle]


Boltzmann constant (internal units):          0.8314464919307584 [-]
represents conversion from energy (internal units) to temperature (in Kelvin)

Derived units and their conversion factors:
===============================================================================

Unit of energy:                           1.6605402000000002e-23 [J]
Unit of energy:                           10.000008872307538 [J.mol⁻¹]
Unit of velocity:                         100 [m.s⁻¹]
Unit of force:                            1.6605402000000002e-13 [N]
Unit of diffusion:                        1.0000000000000002e-08 [m².s⁻¹]
Unit of acceleration:                     1.0000000000000002e-08 [m².s⁻¹]
Unit of torque:                           1.6605402000000002e-23 [N.m]
Unit of pressure:                         16605402 [Pa]
Unit of volume:                           1e-30 [m³]
Unit of density:                          1660.5402 [kg.m⁻³]
Unit of dynamic viscosity:                1.6605401999999997e-05 [N.s.m⁻²]
Unit of enthalpy:                         1.6605402000000002e-23 [J]
Unit of polarizability:                   1.5458657349975198e-35 [-]
Unit of Coulomb potential:                167101.08000665612 [K]
Unit of dielectric constant:              1.5458657349975193e-05 [s².C².kg⁻¹.m⁻³]
Unit of dipole moment:                    1.60217733e-29 [C.m]
Unit of Debye:                            4.803206799099162 [C.m]
Unit of electric potential:               0.00010364272224473431 [V]
Unit of electric field:                   1036427.222447343 [V.m⁻¹]
Unit of isothermal compressibility:       6.02213665167516e-08 [Pa⁻¹]
Unit of heat capacity:                    10.000008872307538 [J.mol⁻¹.K⁻¹]
Unit of volumetric expansion coefficient: 1 [K⁻¹]


Internal conversion factors:
===============================================================================

Energy (internal units) to Kelvin:      1.202724284692786 [-]
Kelvin to energy (internal units):      0.8314457542157567 [-]


System definitions
===============================================================================

Temperature:          250 [K]
Beta:                 0.0048108928702210625 [-]
Pressure:             4e+06 [Pa]
Helium void fraction: 1 [-]

Box:      30.00000   0.00000   0.00000
           0.00000  30.00000   0.00000
           0.00000   0.00000  30.00000
Lengths:  30.00000  30.00000  30.00000
Angles:   90.00000  90.00000  90.00000
Rectangular boundary conditions



Property measurement settings
===============================================================================




Pseudo-atoms
===============================================================================

  0 - C_co2    framework-atom: false
  1 - O_co2    framework-atom: false

  0 - C_co2    mass: 12.00000, charge:  0.70000
  1 - O_co2    mass: 15.99940, charge: -0.35000

  0 - C_co2    polarizability:  0.00000
  1 - O_co2    polarizability:  0.00000

  0 - J. J. Potoff et al., AIChE J. 2001, 47, 1676–1682.
  1 - J. J. Potoff et al., AIChE J. 2001, 47, 1676–1682.

Force field status
===============================================================================

Cutoff Framework-Molecule VDW:  10.00000 [Å]
Cutoff Molecule-Molecule VDW:   10.00000 [Å]
Cutoff Coulomb:                 10.00000 [Å]

Overlap-criteria VDW:           1.000000e+05 [K]

C_co2    - C_co2    Lennard-Jones p₀/kʙ:  27.00000 [K], p₁:  2.80000 [Å]
                                  shift:   0.00000 [K], tailcorrections: true
C_co2    - O_co2    Lennard-Jones p₀/kʙ:  46.18441 [K], p₁:  2.92500 [Å]
                                  shift:   0.00000 [K], tailcorrections: true
O_co2    - O_co2    Lennard-Jones p₀/kʙ:  79.00000 [K], p₁:  3.05000 [Å]
                                  shift:   0.00000 [K], tailcorrections: true

Ewald precision: 1e-06
Ewald alpha: 0.32079885109097883
Ewald k-vectors: 10 10 10


Component definitions
===============================================================================

Component 0 [CO2]

    Type: Adsorbate

    Critical temperature:  304.1282 [K]
    Critical pressure:     7377300 [Pa]
    Acentric factor:       0.22394 [-]

    Mol-fraction:                 1 [-]
    Swappable:                   false

    Mass:                         43.9988 [-]
    Bulk fluid density:           0 [-]
    Compressibility:              0 [-]
    Excess molecules:             0 [-]

    Number Of Atoms:    3
    CBMC starting bead: 0
      0: O_co2  position  0.00000 -0.00000  1.16000, charge -0.35000
      1: C_co2  position  0.00000 -0.00000  0.00000, charge  0.70000
      2: O_co2  position  0.00000 -0.00000 -1.16000, charge -0.35000
    Diagonalized inertia-vector:      43.05758528 43.05758528 0.00000000
    Translational degrees of freedom: 3
    Rotational degrees of freedom:    2
    Shape of the molecule is: 'Linear'
    Net-charge:        0.00000000 [e]

    Move probabilities:
    Translation:                   0.331126 [-]
    Random translation:            0.000000 [-]
    Rotation:                      0.331126 [-]
    Random rotation:               0.000000 [-]
    Volume change:                 0.006623 [-]
    Reinsertion (CBMC):            0.331126 [-]
    Identity change (CBMC):        0.000000 [-]
    Swap:                          0.000000 [-]
    Swap (CBMC):                   0.000000 [-]
    Swap (CFCMC):                  0.000000 [-]
    Swap (CB/CFCMC):               0.000000 [-]
    Gibbs volume:                  0.000000 [-]
    Gibbs swap (CBMC):             0.000000 [-]
    Gibbs swap (CFCMC):            0.000000 [-]
    Widom:                         0.000000 [-]
    Widom (CFCMC):                 0.000000 [-]
    Widom (CB/CFCMC):              0.000000 [-]
    Parallel tempering:            0.000000 [-]
    Hybrid MC:                     0.000000 [-]

    number of blocking-pockets: 0

    number of bonds: 0





Number of pseudo-atoms
===============================================================================

Component   0 (CO2)
-------------------------------------------------------------------------------
    index   0 (C_co2): 150 atoms
    index   1 (O_co2): 300 atoms

Total number of pseudo-atoms:
-------------------------------------------------------------------------------
    index   0 (C_co2): 150 atoms
    index   1 (O_co2): 300 atoms




Energy status Recomputed from scratch
===============================================================================

Total potential energy/kʙ       -4.667017e+04 [K]
    external field VDW/kʙ        0.000000e+00 [K]
    external field Real/kʙ       0.000000e+00 [K]
    framework-molecule VDW/kʙ    0.000000e+00 [K]
    framework-molecule Real/kʙ   0.000000e+00 [K]
    molecule-molecule VDW/kʙ    -3.201442e+04 [K]
    molecule-molecule Real/kʙ   -1.032970e+04 [K]
    Van der Waals (Tail)/kʙ     -2.673791e+03 [K]
    Ewald Fourier/kʙ             2.014403e+04 [K]
    Ewald self/kʙ               -3.334385e+06 [K]
    Ewald exclusion/kʙ           3.312589e+06 [K]
    intra VDW/kʙ                 0.000000e+00 [K]
    intra Coulombic/kʙ           0.000000e+00 [K]
    polarization/kʙ              0.000000e+00 [K]
    dU/dlambda VDW/kʙ            0.000000e+00 [K]
    dU/dlambda Real/kʙ           0.000000e+00 [K]
    dU/dlambda Ewald/kʙ          0.000000e+00 [K]





Initialization: Current cycle: 0 out of 1000
===============================================================================

Box:      30.00000   0.00000   0.00000
           0.00000  30.00000   0.00000
           0.00000   0.00000  30.00000
Lengths:  30.00000  30.00000  30.00000
Angles:   90.00000  90.00000  90.00000
Rectangular boundary conditions

net charge:   0.00000000

component   0 (CO2) lambda:  0 occupancy:  1 (1.000000)
    net charge:   0.00000000 [e]

Amount of molecules per component :
-------------------------------------------------------------------------------
Component 0 (CO2)
    molecules:         1.500000e+02 molecules
    number density:    5.555556e-03 molec/A^3
    density:           4.058984e+02 kg/m^3

Total potential energy/kʙ       -6.614125e+04 [K]
-------------------------------------------------------------------------------
    external field VDW/kʙ        0.000000e+00 [K]
    external field Real/kʙ       0.000000e+00 [K]
    framework-molecule VDW/kʙ    0.000000e+00 [K]
    framework-molecule Real/kʙ   0.000000e+00 [K]
    molecule-molecule VDW/kʙ    -5.007248e+04 [K]
    molecule-molecule Real/kʙ   -1.114312e+04 [K]
    Van der Waals (Tail)/kʙ     -2.673791e+03 [K]
    Ewald Fourier/kʙ             1.954441e+04 [K]
    Ewald self/kʙ               -3.334385e+06 [K]
    Ewald exclusion/kʙ           3.312589e+06 [K]
    intra VDW/kʙ                 0.000000e+00 [K]
    intra Coulombic/kʙ           0.000000e+00 [K]
    polarization/kʙ              0.000000e+00 [K]
    dU/dlambda VDW/kʙ            0.000000e+00 [K]
    dU/dlambda Real/kʙ           0.000000e+00 [K]
    dU/dlambda Ewald/kʙ          0.000000e+00 [K]


Initialization: Current cycle: 100 out of 1000
===============================================================================

Box:      28.77933   0.00000   0.00000
           0.00000  28.77933   0.00000
           0.00000   0.00000  28.77933
Lengths:  28.77933  28.77933  28.77933
Angles:   90.00000  90.00000  90.00000
Rectangular boundary conditions

net charge:   0.00000000

component   0 (CO2) lambda:  0 occupancy:  1 (1.000000)
    net charge:   0.00000000 [e]

Amount of molecules per component :
-------------------------------------------------------------------------------
Component 0 (CO2)
    molecules:         1.500000e+02 molecules
    number density:    6.292873e-03 molec/A^3
    density:           4.597681e+02 kg/m^3

Total potential energy/kʙ       -1.341236e+05 [K]
-------------------------------------------------------------------------------
    external field VDW/kʙ        0.000000e+00 [K]
    external field Real/kʙ       0.000000e+00 [K]
    framework-molecule VDW/kʙ    0.000000e+00 [K]
    framework-molecule Real/kʙ   0.000000e+00 [K]
    molecule-molecule VDW/kʙ    -9.196631e+04 [K]
    molecule-molecule Real/kʙ   -3.181910e+04 [K]
    Van der Waals (Tail)/kʙ     -3.028649e+03 [K]
    Ewald Fourier/kʙ             1.448675e+04 [K]
    Ewald self/kʙ               -3.334385e+06 [K]
    Ewald exclusion/kʙ           3.312589e+06 [K]
    intra VDW/kʙ                 0.000000e+00 [K]
    intra Coulombic/kʙ           0.000000e+00 [K]
    polarization/kʙ              0.000000e+00 [K]
    dU/dlambda VDW/kʙ            0.000000e+00 [K]
    dU/dlambda Real/kʙ           0.000000e+00 [K]
    dU/dlambda Ewald/kʙ          0.000000e+00 [K]


Initialization: Current cycle: 200 out of 1000
===============================================================================

Box:      27.44752   0.00000   0.00000
           0.00000  27.44752   0.00000
           0.00000   0.00000  27.44752
Lengths:  27.44752  27.44752  27.44752
Angles:   90.00000  90.00000  90.00000
Rectangular boundary conditions

net charge:   0.00000000

component   0 (CO2) lambda:  0 occupancy:  1 (1.000000)
    net charge:   0.00000000 [e]

Amount of molecules per component :
-------------------------------------------------------------------------------
Component 0 (CO2)
    molecules:         1.500000e+02 molecules
    number density:    7.254071e-03 molec/A^3
    density:           5.299948e+02 kg/m^3

Total potential energy/kʙ       -1.273607e+05 [K]
-------------------------------------------------------------------------------
    external field VDW/kʙ        0.000000e+00 [K]
    external field Real/kʙ       0.000000e+00 [K]
    framework-molecule VDW/kʙ    0.000000e+00 [K]
    framework-molecule Real/kʙ   0.000000e+00 [K]
    molecule-molecule VDW/kʙ    -9.172357e+04 [K]
    molecule-molecule Real/kʙ   -2.495795e+04 [K]
    Van der Waals (Tail)/kʙ     -3.491256e+03 [K]
    Ewald Fourier/kʙ             1.460833e+04 [K]
    Ewald self/kʙ               -3.334385e+06 [K]
    Ewald exclusion/kʙ           3.312589e+06 [K]
    intra VDW/kʙ                 0.000000e+00 [K]
    intra Coulombic/kʙ           0.000000e+00 [K]
    polarization/kʙ              0.000000e+00 [K]
    dU/dlambda VDW/kʙ            0.000000e+00 [K]
    dU/dlambda Real/kʙ           0.000000e+00 [K]
    dU/dlambda Ewald/kʙ          0.000000e+00 [K]


Initialization: Current cycle: 300 out of 1000
===============================================================================

Box:      26.41915   0.00000   0.00000
           0.00000  26.41915   0.00000
           0.00000   0.00000  26.41915
Lengths:  26.41915  26.41915  26.41915
Angles:   90.00000  90.00000  90.00000
Rectangular boundary conditions

net charge:   0.00000000

component   0 (CO2) lambda:  0 occupancy:  1 (1.000000)
    net charge:   0.00000000 [e]

Amount of molecules per component :
-------------------------------------------------------------------------------
Component 0 (CO2)
    molecules:         1.500000e+02 molecules
    number density:    8.134576e-03 molec/A^3
    density:           5.943261e+02 kg/m^3

Total potential energy/kʙ       -1.583715e+05 [K]
-------------------------------------------------------------------------------
    external field VDW/kʙ        0.000000e+00 [K]
    external field Real/kʙ       0.000000e+00 [K]
    framework-molecule VDW/kʙ    0.000000e+00 [K]
    framework-molecule Real/kʙ   0.000000e+00 [K]
    molecule-molecule VDW/kʙ    -1.147823e+05 [K]
    molecule-molecule Real/kʙ   -3.084076e+04 [K]
    Van der Waals (Tail)/kʙ     -3.915028e+03 [K]
    Ewald Fourier/kʙ             1.296287e+04 [K]
    Ewald self/kʙ               -3.334385e+06 [K]
    Ewald exclusion/kʙ           3.312589e+06 [K]
    intra VDW/kʙ                 0.000000e+00 [K]
    intra Coulombic/kʙ           0.000000e+00 [K]
    polarization/kʙ              0.000000e+00 [K]
    dU/dlambda VDW/kʙ            0.000000e+00 [K]
    dU/dlambda Real/kʙ           0.000000e+00 [K]
    dU/dlambda Ewald/kʙ          0.000000e+00 [K]


Initialization: Current cycle: 400 out of 1000
===============================================================================

Box:      25.29661   0.00000   0.00000
           0.00000  25.29661   0.00000
           0.00000   0.00000  25.29661
Lengths:  25.29661  25.29661  25.29661
Angles:   90.00000  90.00000  90.00000
Rectangular boundary conditions

net charge:   0.00000000

component   0 (CO2) lambda:  0 occupancy:  1 (1.000000)
    net charge:   0.00000000 [e]

Amount of molecules per component :
-------------------------------------------------------------------------------
Component 0 (CO2)
    molecules:         1.500000e+02 molecules
    number density:    9.266261e-03 molec/A^3
    density:           6.770089e+02 kg/m^3

Total potential energy/kʙ       -1.660054e+05 [K]
-------------------------------------------------------------------------------
    external field VDW/kʙ        0.000000e+00 [K]
    external field Real/kʙ       0.000000e+00 [K]
    framework-molecule VDW/kʙ    0.000000e+00 [K]
    framework-molecule Real/kʙ   0.000000e+00 [K]
    molecule-molecule VDW/kʙ    -1.158942e+05 [K]
    molecule-molecule Real/kʙ   -3.695648e+04 [K]
    Van der Waals (Tail)/kʙ     -4.459688e+03 [K]
    Ewald Fourier/kʙ             1.310121e+04 [K]
    Ewald self/kʙ               -3.334385e+06 [K]
    Ewald exclusion/kʙ           3.312589e+06 [K]
    intra VDW/kʙ                 0.000000e+00 [K]
    intra Coulombic/kʙ           0.000000e+00 [K]
    polarization/kʙ              0.000000e+00 [K]
    dU/dlambda VDW/kʙ            0.000000e+00 [K]
    dU/dlambda Real/kʙ           0.000000e+00 [K]
    dU/dlambda Ewald/kʙ          0.000000e+00 [K]


Initialization: Current cycle: 500 out of 1000
===============================================================================

Box:      24.98352   0.00000   0.00000
           0.00000  24.98352   0.00000
           0.00000   0.00000  24.98352
Lengths:  24.98352  24.98352  24.98352
Angles:   90.00000  90.00000  90.00000
Rectangular boundary conditions

net charge:   0.00000000

component   0 (CO2) lambda:  0 occupancy:  1 (1.000000)
    net charge:   0.00000000 [e]

Amount of molecules per component :
-------------------------------------------------------------------------------
Component 0 (CO2)
    molecules:         1.500000e+02 molecules
    number density:    9.619012e-03 molec/A^3
    density:           7.027815e+02 kg/m^3

Total potential energy/kʙ       -1.674461e+05 [K]
-------------------------------------------------------------------------------
    external field VDW/kʙ        0.000000e+00 [K]
    external field Real/kʙ       0.000000e+00 [K]
    framework-molecule VDW/kʙ    0.000000e+00 [K]
    framework-molecule Real/kʙ   0.000000e+00 [K]
    molecule-molecule VDW/kʙ    -1.209625e+05 [K]
    molecule-molecule Real/kʙ   -3.406542e+04 [K]
    Van der Waals (Tail)/kʙ     -4.629461e+03 [K]
    Ewald Fourier/kʙ             1.400749e+04 [K]
    Ewald self/kʙ               -3.334385e+06 [K]
    Ewald exclusion/kʙ           3.312589e+06 [K]
    intra VDW/kʙ                 0.000000e+00 [K]
    intra Coulombic/kʙ           0.000000e+00 [K]
    polarization/kʙ              0.000000e+00 [K]
    dU/dlambda VDW/kʙ            0.000000e+00 [K]
    dU/dlambda Real/kʙ           0.000000e+00 [K]
    dU/dlambda Ewald/kʙ          0.000000e+00 [K]


Initialization: Current cycle: 600 out of 1000
===============================================================================

Box:      23.60156   0.00000   0.00000
           0.00000  23.60156   0.00000
           0.00000   0.00000  23.60156
Lengths:  23.60156  23.60156  23.60156
Angles:   90.00000  90.00000  90.00000
Rectangular boundary conditions

net charge:   0.00000000

component   0 (CO2) lambda:  0 occupancy:  1 (1.000000)
    net charge:   0.00000000 [e]

Amount of molecules per component :
-------------------------------------------------------------------------------
Component 0 (CO2)
    molecules:         1.500000e+02 molecules
    number density:    1.140957e-02 molec/A^3
    density:           8.336024e+02 kg/m^3

Total potential energy/kʙ       -1.848306e+05 [K]
-------------------------------------------------------------------------------
    external field VDW/kʙ        0.000000e+00 [K]
    external field Real/kʙ       0.000000e+00 [K]
    framework-molecule VDW/kʙ    0.000000e+00 [K]
    framework-molecule Real/kʙ   0.000000e+00 [K]
    molecule-molecule VDW/kʙ    -1.290922e+05 [K]
    molecule-molecule Real/kʙ   -4.072776e+04 [K]
    Van der Waals (Tail)/kʙ     -5.491223e+03 [K]
    Ewald Fourier/kʙ             1.227682e+04 [K]
    Ewald self/kʙ               -3.334385e+06 [K]
    Ewald exclusion/kʙ           3.312589e+06 [K]
    intra VDW/kʙ                 0.000000e+00 [K]
    intra Coulombic/kʙ           0.000000e+00 [K]
    polarization/kʙ              0.000000e+00 [K]
    dU/dlambda VDW/kʙ            0.000000e+00 [K]
    dU/dlambda Real/kʙ           0.000000e+00 [K]
    dU/dlambda Ewald/kʙ          0.000000e+00 [K]


Initialization: Current cycle: 700 out of 1000
===============================================================================

Box:      23.64730   0.00000   0.00000
           0.00000  23.64730   0.00000
           0.00000   0.00000  23.64730
Lengths:  23.64730  23.64730  23.64730
Angles:   90.00000  90.00000  90.00000
Rectangular boundary conditions

net charge:   0.00000000

component   0 (CO2) lambda:  0 occupancy:  1 (1.000000)
    net charge:   0.00000000 [e]

Amount of molecules per component :
-------------------------------------------------------------------------------
Component 0 (CO2)
    molecules:         1.500000e+02 molecules
    number density:    1.134348e-02 molec/A^3
    density:           8.287743e+02 kg/m^3

Total potential energy/kʙ       -1.814808e+05 [K]
-------------------------------------------------------------------------------
    external field VDW/kʙ        0.000000e+00 [K]
    external field Real/kʙ       0.000000e+00 [K]
    framework-molecule VDW/kʙ    0.000000e+00 [K]
    framework-molecule Real/kʙ   0.000000e+00 [K]
    molecule-molecule VDW/kʙ    -1.298911e+05 [K]
    molecule-molecule Real/kʙ   -3.603004e+04 [K]
    Van der Waals (Tail)/kʙ     -5.459418e+03 [K]
    Ewald Fourier/kʙ             1.169603e+04 [K]
    Ewald self/kʙ               -3.334385e+06 [K]
    Ewald exclusion/kʙ           3.312589e+06 [K]
    intra VDW/kʙ                 0.000000e+00 [K]
    intra Coulombic/kʙ           0.000000e+00 [K]
    polarization/kʙ              0.000000e+00 [K]
    dU/dlambda VDW/kʙ            0.000000e+00 [K]
    dU/dlambda Real/kʙ           0.000000e+00 [K]
    dU/dlambda Ewald/kʙ          0.000000e+00 [K]


Initialization: Current cycle: 800 out of 1000
===============================================================================

Box:      22.54521   0.00000   0.00000
           0.00000  22.54521   0.00000
           0.00000   0.00000  22.54521
Lengths:  22.54521  22.54521  22.54521
Angles:   90.00000  90.00000  90.00000
Rectangular boundary conditions

net charge:   0.00000000

component   0 (CO2) lambda:  0 occupancy:  1 (1.000000)
    net charge:   0.00000000 [e]

Amount of molecules per component :
-------------------------------------------------------------------------------
Component 0 (CO2)
    molecules:         1.500000e+02 molecules
    number density:    1.308966e-02 molec/A^3
    density:           9.563526e+02 kg/m^3

Total potential energy/kʙ       -2.051644e+05 [K]
-------------------------------------------------------------------------------
    external field VDW/kʙ        0.000000e+00 [K]
    external field Real/kʙ       0.000000e+00 [K]
    framework-molecule VDW/kʙ    0.000000e+00 [K]
    framework-molecule Real/kʙ   0.000000e+00 [K]
    molecule-molecule VDW/kʙ    -1.490563e+05 [K]
    molecule-molecule Real/kʙ   -3.974473e+04 [K]
    Van der Waals (Tail)/kʙ     -6.299820e+03 [K]
    Ewald Fourier/kʙ             1.173274e+04 [K]
    Ewald self/kʙ               -3.334385e+06 [K]
    Ewald exclusion/kʙ           3.312589e+06 [K]
    intra VDW/kʙ                 0.000000e+00 [K]
    intra Coulombic/kʙ           0.000000e+00 [K]
    polarization/kʙ              0.000000e+00 [K]
    dU/dlambda VDW/kʙ            0.000000e+00 [K]
    dU/dlambda Real/kʙ           0.000000e+00 [K]
    dU/dlambda Ewald/kʙ          0.000000e+00 [K]


Initialization: Current cycle: 900 out of 1000
===============================================================================

Box:      22.02161   0.00000   0.00000
           0.00000  22.02161   0.00000
           0.00000   0.00000  22.02161
Lengths:  22.02161  22.02161  22.02161
Angles:   90.00000  90.00000  90.00000
Rectangular boundary conditions

net charge:   0.00000000

component   0 (CO2) lambda:  0 occupancy:  1 (1.000000)
    net charge:   0.00000000 [e]

Amount of molecules per component :
-------------------------------------------------------------------------------
Component 0 (CO2)
    molecules:         1.500000e+02 molecules
    number density:    1.404572e-02 molec/A^3
    density:           1.026205e+03 kg/m^3

Total potential energy/kʙ       -2.190142e+05 [K]
-------------------------------------------------------------------------------
    external field VDW/kʙ        0.000000e+00 [K]
    external field Real/kʙ       0.000000e+00 [K]
    framework-molecule VDW/kʙ    0.000000e+00 [K]
    framework-molecule Real/kʙ   0.000000e+00 [K]
    molecule-molecule VDW/kʙ    -1.548285e+05 [K]
    molecule-molecule Real/kʙ   -4.684196e+04 [K]
    Van der Waals (Tail)/kʙ     -6.759959e+03 [K]
    Ewald Fourier/kʙ             1.121246e+04 [K]
    Ewald self/kʙ               -3.334385e+06 [K]
    Ewald exclusion/kʙ           3.312589e+06 [K]
    intra VDW/kʙ                 0.000000e+00 [K]
    intra Coulombic/kʙ           0.000000e+00 [K]
    polarization/kʙ              0.000000e+00 [K]
    dU/dlambda VDW/kʙ            0.000000e+00 [K]
    dU/dlambda Real/kʙ           0.000000e+00 [K]
    dU/dlambda Ewald/kʙ          0.000000e+00 [K]


Current cycle: 0 out of 5000
===============================================================================

Box:      22.13079   0.00000   0.00000  Average:  22.13079   0.00000   0.00000
           0.00000  22.13079   0.00000             0.00000  22.13079   0.00000
           0.00000   0.00000  22.13079             0.00000   0.00000  22.13079
Lengths:  22.13079  22.13079  22.13079  Average:  22.13079  22.13079  22.13079
Angles:   90.00000  90.00000  90.00000  Average:  90.00000  90.00000  90.00000
Rectangular boundary conditions

net charge:   0.00000000

component 0 (CO2) lambda:  0 occupancy:  1 (1.000000)
    net charge:   0.00000000 [e]

Amount of molecules per component :
-------------------------------------------------------------------------------
Component 0 (CO2)
    molecules:      1.500000e+02 molecules  (1.500000e+02 +/- 0.000000e+00)
    number density: 1.383887e-02 molec./A^3 (1.383887e-02 +/- 0.000000e+00)
    density:        1.011092e+03 kg/m^3     (1.011092e+03 +/- 0.000000e+00)

Average pressure tensor: 
-------------------------------------------------------------------------------
 4.7767e+02  0.0000e+00  0.0000e+00 +/- 0.0000e+00 0.0000e+00 0.0000e+00 [bar]
 0.0000e+00  4.7767e+02  0.0000e+00 +/- 0.0000e+00 0.0000e+00 0.0000e+00 [bar]
 0.0000e+00  0.0000e+00  4.7767e+02 +/- 0.0000e+00 0.0000e+00 0.0000e+00 [bar]
Ideal-gas pressure:   4.776661e+02 +/ 0.000000e+00 [bar]
Excess pressure:      0.000000e+00 +/ 0.000000e+00 [bar]
Pressure:             4.776661e+02 +/ 0.000000e+00 [bar]

Total potential energy/kʙ  -2.198229e+05 (-2.198229e+05 +/- 0.000000e+00) [K]
-------------------------------------------------------------------------------
ExternalField-molecule
    Van der Waals/kʙ        0.000000e+00 ( 0.000000e+00 +/- 0.000000e+00) [K]
Framework-molecule
    Van der Waals/kʙ        0.000000e+00 ( 0.000000e+00 +/- 0.000000e+00) [K]
    Van der Waals (Tail)/kʙ 0.000000e+00 ( 0.000000e+00 +/- 0.000000e+00) [K]
    Coulombic Real/kʙ       0.000000e+00 ( 0.000000e+00 +/- 0.000000e+00) [K]
    Coulombic Fourier/kʙ    0.000000e+00 ( 0.000000e+00 +/- 0.000000e+00) [K]
Molecule-molecule
    Van der Waals/kʙ       -1.573501e+05 (-1.573501e+05 +/- 0.000000e+00) [K]
    Van der Waals (Tail)/kʙ-6.660406e+03 (-6.660406e+03 +/- 0.000000e+00) [K]
    Coulombic Real/kʙ      -4.533520e+04 (-4.533520e+04 +/- 0.000000e+00) [K]
    Coulombic Fourier/kʙ   -1.047721e+04 (-1.047721e+04 +/- 0.000000e+00) [K]
    Molecule Intra/kʙ       0.000000e+00 ( 0.000000e+00 +/- 0.000000e+00) [K]

Current cycle: 100 out of 5000
===============================================================================

Box:      21.72856   0.00000   0.00000  Average:  21.85309   0.00000   0.00000
           0.00000  21.72856   0.00000             0.00000  21.85309   0.00000
           0.00000   0.00000  21.72856             0.00000   0.00000  21.85309
Lengths:  21.72856  21.72856  21.72856  Average:  21.85309  21.85309  21.85309
Angles:   90.00000  90.00000  90.00000  Average:  90.00000  90.00000  90.00000
Rectangular boundary conditions

net charge:   0.00000000

component 0 (CO2) lambda:  0 occupancy:  1 (1.000000)
    net charge:   0.00000000 [e]

Amount of molecules per component :
-------------------------------------------------------------------------------
Component 0 (CO2)
    molecules:      1.500000e+02 molecules  (1.500000e+02 +/- 0.000000e+00)
    number density: 1.462173e-02 molec./A^3 (1.437638e-02 +/- 0.000000e+00)
    density:        1.068288e+03 kg/m^3     (1.050363e+03 +/- 0.000000e+00)

Average pressure tensor: 
-------------------------------------------------------------------------------
 1.6298e+02 -3.0122e+01  7.8570e+01 +/- 0.0000e+00 0.0000e+00 0.0000e+00 [bar]
-3.0122e+01  1.3662e+02 -6.3130e+01 +/- 0.0000e+00 0.0000e+00 0.0000e+00 [bar]
 7.8570e+01 -6.3130e+01  1.4530e+02 +/- 0.0000e+00 0.0000e+00 0.0000e+00 [bar]
Ideal-gas pressure:   4.962188e+02 +/ 0.000000e+00 [bar]
Excess pressure:     -3.479218e+02 +/ 0.000000e+00 [bar]
Pressure:             1.482970e+02 +/ 0.000000e+00 [bar]

Total potential energy/kʙ  -2.282361e+05 (-2.231733e+05 +/- 0.000000e+00) [K]
-------------------------------------------------------------------------------
ExternalField-molecule
    Van der Waals/kʙ        0.000000e+00 ( 0.000000e+00 +/- 0.000000e+00) [K]
Framework-molecule
    Van der Waals/kʙ        0.000000e+00 ( 0.000000e+00 +/- 0.000000e+00) [K]
    Van der Waals (Tail)/kʙ 0.000000e+00 ( 0.000000e+00 +/- 0.000000e+00) [K]
    Coulombic Real/kʙ       0.000000e+00 ( 0.000000e+00 +/- 0.000000e+00) [K]
    Coulombic Fourier/kʙ    0.000000e+00 ( 0.000000e+00 +/- 0.000000e+00) [K]
Molecule-molecule
    Van der Waals/kʙ       -1.606452e+05 (-1.611014e+05 +/- 0.000000e+00) [K]
    Van der Waals (Tail)/kʙ-7.037179e+03 (-6.922284e+03 +/- 0.000000e+00) [K]
    Coulombic Real/kʙ      -4.902524e+04 (-4.410016e+04 +/- 0.000000e+00) [K]
    Coulombic Fourier/kʙ   -1.152846e+04 (-1.104950e+04 +/- 0.000000e+00) [K]
    Molecule Intra/kʙ       0.000000e+00 ( 0.000000e+00 +/- 0.000000e+00) [K]

Current cycle: 200 out of 5000
===============================================================================

Box:      21.61922   0.00000   0.00000  Average:  21.76574   0.00000   0.00000
           0.00000  21.61922   0.00000             0.00000  21.76574   0.00000
           0.00000   0.00000  21.61922             0.00000   0.00000  21.76574
Lengths:  21.61922  21.61922  21.61922  Average:  21.76574  21.76574  21.76574
Angles:   90.00000  90.00000  90.00000  Average:  90.00000  90.00000  90.00000
Rectangular boundary conditions

net charge:   0.00000000

component 0 (CO2) lambda:  0 occupancy:  1 (1.000000)
    net charge:   0.00000000 [e]

Amount of molecules per component :
-------------------------------------------------------------------------------
Component 0 (CO2)
    molecules:      1.500000e+02 molecules  (1.500000e+02 +/- 0.000000e+00)
    number density: 1.484469e-02 molec./A^3 (1.455105e-02 +/- 0.000000e+00)
    density:        1.084578e+03 kg/m^3     (1.063124e+03 +/- 0.000000e+00)

Average pressure tensor: 
-------------------------------------------------------------------------------
 9.2710e+01  6.3282e+01  7.0908e+00 +/- 0.0000e+00 0.0000e+00 0.0000e+00 [bar]
 6.3282e+01  1.8040e+02 -1.1228e+02 +/- 0.0000e+00 0.0000e+00 0.0000e+00 [bar]
 7.0908e+00 -1.1228e+02  1.3869e+02 +/- 0.0000e+00 0.0000e+00 0.0000e+00 [bar]
Ideal-gas pressure:   5.022477e+02 +/ 0.000000e+00 [bar]
Excess pressure:     -3.649819e+02 +/ 0.000000e+00 [bar]
Pressure:             1.372658e+02 +/ 0.000000e+00 [bar]

Total potential energy/kʙ  -2.321055e+05 (-2.279714e+05 +/- 0.000000e+00) [K]
-------------------------------------------------------------------------------
ExternalField-molecule
    Van der Waals/kʙ        0.000000e+00 ( 0.000000e+00 +/- 0.000000e+00) [K]
Framework-molecule
    Van der Waals/kʙ        0.000000e+00 ( 0.000000e+00 +/- 0.000000e+00) [K]
    Van der Waals (Tail)/kʙ 0.000000e+00 ( 0.000000e+00 +/- 0.000000e+00) [K]
    Coulombic Real/kʙ       0.000000e+00 ( 0.000000e+00 +/- 0.000000e+00) [K]
    Coulombic Fourier/kʙ    0.000000e+00 ( 0.000000e+00 +/- 0.000000e+00) [K]
Molecule-molecule
    Van der Waals/kʙ       -1.682476e+05 (-1.640632e+05 +/- 0.000000e+00) [K]
    Van der Waals (Tail)/kʙ-7.144486e+03 (-7.010399e+03 +/- 0.000000e+00) [K]
    Coulombic Real/kʙ      -4.468677e+04 (-4.559474e+04 +/- 0.000000e+00) [K]
    Coulombic Fourier/kʙ   -1.202669e+04 (-1.130301e+04 +/- 0.000000e+00) [K]
    Molecule Intra/kʙ       0.000000e+00 ( 0.000000e+00 +/- 0.000000e+00) [K]

Current cycle: 300 out of 5000
===============================================================================

Box:      21.63293   0.00000   0.00000  Average:  21.69717   0.00000   0.00000
           0.00000  21.63293   0.00000             0.00000  21.69717   0.00000
           0.00000   0.00000  21.63293             0.00000   0.00000  21.69717
Lengths:  21.63293  21.63293  21.63293  Average:  21.69717  21.69717  21.69717
Angles:   90.00000  90.00000  90.00000  Average:  90.00000  90.00000  90.00000
Rectangular boundary conditions

net charge:   0.00000000

component 0 (CO2) lambda:  0 occupancy:  1 (1.000000)
    net charge:   0.00000000 [e]

Amount of molecules per component :
-------------------------------------------------------------------------------
Component 0 (CO2)
    molecules:      1.500000e+02 molecules  (1.500000e+02 +/- 0.000000e+00)
    number density: 1.481650e-02 molec./A^3 (1.469021e-02 +/- 0.000000e+00)
    density:        1.082519e+03 kg/m^3     (1.073292e+03 +/- 0.000000e+00)

Average pressure tensor: 
-------------------------------------------------------------------------------
 8.7385e+01  1.4098e+02 -2.1672e+01 +/- 0.0000e+00 0.0000e+00 0.0000e+00 [bar]
 1.4098e+02  2.6432e+02 -6.5028e+01 +/- 0.0000e+00 0.0000e+00 0.0000e+00 [bar]
-2.1672e+01 -6.5028e+01  1.7705e+02 +/- 0.0000e+00 0.0000e+00 0.0000e+00 [bar]
Ideal-gas pressure:   5.070511e+02 +/ 0.000000e+00 [bar]
Excess pressure:     -3.307996e+02 +/ 0.000000e+00 [bar]
Pressure:             1.762514e+02 +/ 0.000000e+00 [bar]

Total potential energy/kʙ  -2.384720e+05 (-2.311536e+05 +/- 0.000000e+00) [K]
-------------------------------------------------------------------------------
ExternalField-molecule
    Van der Waals/kʙ        0.000000e+00 ( 0.000000e+00 +/- 0.000000e+00) [K]
Framework-molecule
    Van der Waals/kʙ        0.000000e+00 ( 0.000000e+00 +/- 0.000000e+00) [K]
    Van der Waals (Tail)/kʙ 0.000000e+00 ( 0.000000e+00 +/- 0.000000e+00) [K]
    Coulombic Real/kʙ       0.000000e+00 ( 0.000000e+00 +/- 0.000000e+00) [K]
    Coulombic Fourier/kʙ    0.000000e+00 ( 0.000000e+00 +/- 0.000000e+00) [K]
Molecule-molecule
    Van der Waals/kʙ       -1.710218e+05 (-1.657880e+05 +/- 0.000000e+00) [K]
    Van der Waals (Tail)/kʙ-7.130918e+03 (-7.081779e+03 +/- 0.000000e+00) [K]
    Coulombic Real/kʙ      -4.883322e+04 (-4.675379e+04 +/- 0.000000e+00) [K]
    Coulombic Fourier/kʙ   -1.148606e+04 (-1.153012e+04 +/- 0.000000e+00) [K]
    Molecule Intra/kʙ       0.000000e+00 ( 0.000000e+00 +/- 0.000000e+00) [K]

Current cycle: 400 out of 5000
===============================================================================

Box:      22.14098   0.00000   0.00000  Average:  21.70374   0.00000   0.00000
           0.00000  22.14098   0.00000             0.00000  21.70374   0.00000
           0.00000   0.00000  22.14098             0.00000   0.00000  21.70374
Lengths:  22.14098  22.14098  22.14098  Average:  21.70374  21.70374  21.70374
Angles:   90.00000  90.00000  90.00000  Average:  90.00000  90.00000  90.00000
Rectangular boundary conditions

net charge:   0.00000000

component 0 (CO2) lambda:  0 occupancy:  1 (1.000000)
    net charge:   0.00000000 [e]

Amount of molecules per component :
-------------------------------------------------------------------------------
Component 0 (CO2)
    molecules:      1.500000e+02 molecules  (1.500000e+02 +/- 0.000000e+00)
    number density: 1.381977e-02 molec./A^3 (1.467772e-02 +/- 0.000000e+00)
    density:        1.009696e+03 kg/m^3     (1.072379e+03 +/- 0.000000e+00)

Average pressure tensor: 
-------------------------------------------------------------------------------
 1.2204e+02  6.7869e+01 -3.2360e+01 +/- 0.0000e+00 0.0000e+00 0.0000e+00 [bar]
 6.7869e+01  1.7601e+02 -7.0517e+01 +/- 0.0000e+00 0.0000e+00 0.0000e+00 [bar]
-3.2360e+01 -7.0517e+01  1.6507e+02 +/- 0.0000e+00 0.0000e+00 0.0000e+00 [bar]
Ideal-gas pressure:   5.066199e+02 +/ 0.000000e+00 [bar]
Excess pressure:     -3.522461e+02 +/ 0.000000e+00 [bar]
Pressure:             1.543739e+02 +/ 0.000000e+00 [bar]

Total potential energy/kʙ  -2.197012e+05 (-2.313507e+05 +/- 0.000000e+00) [K]
-------------------------------------------------------------------------------
ExternalField-molecule
    Van der Waals/kʙ        0.000000e+00 ( 0.000000e+00 +/- 0.000000e+00) [K]
Framework-molecule
    Van der Waals/kʙ        0.000000e+00 ( 0.000000e+00 +/- 0.000000e+00) [K]
    Van der Waals (Tail)/kʙ 0.000000e+00 ( 0.000000e+00 +/- 0.000000e+00) [K]
    Coulombic Real/kʙ       0.000000e+00 ( 0.000000e+00 +/- 0.000000e+00) [K]
    Coulombic Fourier/kʙ    0.000000e+00 ( 0.000000e+00 +/- 0.000000e+00) [K]
Molecule-molecule
    Van der Waals/kʙ       -1.578496e+05 (-1.652838e+05 +/- 0.000000e+00) [K]
    Van der Waals (Tail)/kʙ-6.651210e+03 (-7.066441e+03 +/- 0.000000e+00) [K]
    Coulombic Real/kʙ      -4.371219e+04 (-4.738707e+04 +/- 0.000000e+00) [K]
    Coulombic Fourier/kʙ   -1.148827e+04 (-1.161338e+04 +/- 0.000000e+00) [K]
    Molecule Intra/kʙ       0.000000e+00 ( 0.000000e+00 +/- 0.000000e+00) [K]

Current cycle: 500 out of 5000
===============================================================================

Box:      21.95046   0.00000   0.00000  Average:  21.73649   0.00000   0.00000
           0.00000  21.95046   0.00000             0.00000  21.73649   0.00000
           0.00000   0.00000  21.95046             0.00000   0.00000  21.73649
Lengths:  21.95046  21.95046  21.95046  Average:  21.73649  21.73649  21.73649
Angles:   90.00000  90.00000  90.00000  Average:  90.00000  90.00000  90.00000
Rectangular boundary conditions

net charge:   0.00000000

component 0 (CO2) lambda:  0 occupancy:  1 (1.000000)
    net charge:   0.00000000 [e]

Amount of molecules per component :
-------------------------------------------------------------------------------
Component 0 (CO2)
    molecules:      1.500000e+02 molecules  (1.500000e+02 +/- 0.000000e+00)
    number density: 1.418276e-02 molec./A^3 (1.461167e-02 +/- 0.000000e+00)
    density:        1.036216e+03 kg/m^3     (1.067554e+03 +/- 0.000000e+00)

Average pressure tensor: 
-------------------------------------------------------------------------------
 1.2591e+02  7.7942e+01 -3.5415e+01 +/- 0.0000e+00 0.0000e+00 0.0000e+00 [bar]
 7.7942e+01  1.6335e+02 -8.8325e+01 +/- 0.0000e+00 0.0000e+00 0.0000e+00 [bar]
-3.5415e+01 -8.8325e+01  1.2033e+02 +/- 0.0000e+00 0.0000e+00 0.0000e+00 [bar]
Ideal-gas pressure:   5.043403e+02 +/ 0.000000e+00 [bar]
Excess pressure:     -3.678105e+02 +/ 0.000000e+00 [bar]
Pressure:             1.365298e+02 +/ 0.000000e+00 [bar]

Total potential energy/kʙ  -2.289354e+05 (-2.299116e+05 +/- 0.000000e+00) [K]
-------------------------------------------------------------------------------
ExternalField-molecule
    Van der Waals/kʙ        0.000000e+00 ( 0.000000e+00 +/- 0.000000e+00) [K]
Framework-molecule
    Van der Waals/kʙ        0.000000e+00 ( 0.000000e+00 +/- 0.000000e+00) [K]
    Van der Waals (Tail)/kʙ 0.000000e+00 ( 0.000000e+00 +/- 0.000000e+00) [K]
    Coulombic Real/kʙ       0.000000e+00 ( 0.000000e+00 +/- 0.000000e+00) [K]
    Coulombic Fourier/kʙ    0.000000e+00 ( 0.000000e+00 +/- 0.000000e+00) [K]
Molecule-molecule
    Van der Waals/kʙ       -1.622636e+05 (-1.642079e+05 +/- 0.000000e+00) [K]
    Van der Waals (Tail)/kʙ-6.825910e+03 (-7.035929e+03 +/- 0.000000e+00) [K]
    Coulombic Real/kʙ      -4.759747e+04 (-4.708412e+04 +/- 0.000000e+00) [K]
    Coulombic Fourier/kʙ   -1.224845e+04 (-1.158367e+04 +/- 0.000000e+00) [K]
    Molecule Intra/kʙ       0.000000e+00 ( 0.000000e+00 +/- 0.000000e+00) [K]

Current cycle: 600 out of 5000
===============================================================================

Box:      21.99538   0.00000   0.00000  Average:  21.78835   0.00000   0.00000
           0.00000  21.99538   0.00000             0.00000  21.78835   0.00000
           0.00000   0.00000  21.99538             0.00000   0.00000  21.78835
Lengths:  21.99538  21.99538  21.99538  Average:  21.78835  21.78835  21.78835
Angles:   90.00000  90.00000  90.00000  Average:  90.00000  90.00000  90.00000
Rectangular boundary conditions

net charge:   0.00000000

component 0 (CO2) lambda:  0 occupancy:  1 (1.000000)
    net charge:   0.00000000 [e]

Amount of molecules per component :
-------------------------------------------------------------------------------
Component 0 (CO2)
    molecules:      1.500000e+02 molecules  (1.500000e+02 +/- 0.000000e+00)
    number density: 1.409603e-02 molec./A^3 (1.450926e-02 +/- 0.000000e+00)
    density:        1.029880e+03 kg/m^3     (1.060071e+03 +/- 0.000000e+00)

Average pressure tensor: 
-------------------------------------------------------------------------------
 1.3756e+02  7.2399e+01 -3.0045e+01 +/- 0.0000e+00 0.0000e+00 0.0000e+00 [bar]
 7.2399e+01  1.2444e+02 -9.9939e+01 +/- 0.0000e+00 0.0000e+00 0.0000e+00 [bar]
-3.0045e+01 -9.9939e+01  9.1533e+01 +/- 0.0000e+00 0.0000e+00 0.0000e+00 [bar]
Ideal-gas pressure:   5.008054e+02 +/ 0.000000e+00 [bar]
Excess pressure:     -3.829630e+02 +/ 0.000000e+00 [bar]
Pressure:             1.178424e+02 +/ 0.000000e+00 [bar]

Total potential energy/kʙ  -2.204633e+05 (-2.280383e+05 +/- 0.000000e+00) [K]
-------------------------------------------------------------------------------
ExternalField-molecule
    Van der Waals/kʙ        0.000000e+00 ( 0.000000e+00 +/- 0.000000e+00) [K]
Framework-molecule
    Van der Waals/kʙ        0.000000e+00 ( 0.000000e+00 +/- 0.000000e+00) [K]
    Van der Waals (Tail)/kʙ 0.000000e+00 ( 0.000000e+00 +/- 0.000000e+00) [K]
    Coulombic Real/kʙ       0.000000e+00 ( 0.000000e+00 +/- 0.000000e+00) [K]
    Coulombic Fourier/kʙ    0.000000e+00 ( 0.000000e+00 +/- 0.000000e+00) [K]
Molecule-molecule
    Van der Waals/kʙ       -1.577670e+05 (-1.627081e+05 +/- 0.000000e+00) [K]
    Van der Waals (Tail)/kʙ-6.784169e+03 (-6.986762e+03 +/- 0.000000e+00) [K]
    Coulombic Real/kʙ      -4.522674e+04 (-4.673765e+04 +/- 0.000000e+00) [K]
    Coulombic Fourier/kʙ   -1.068530e+04 (-1.160574e+04 +/- 0.000000e+00) [K]
    Molecule Intra/kʙ       0.000000e+00 ( 0.000000e+00 +/- 0.000000e+00) [K]

Current cycle: 700 out of 5000
===============================================================================

Box:      21.76367   0.00000   0.00000  Average:  21.82091   0.00000   0.00000
           0.00000  21.76367   0.00000             0.00000  21.82091   0.00000
           0.00000   0.00000  21.76367             0.00000   0.00000  21.82091
Lengths:  21.76367  21.76367  21.76367  Average:  21.82091  21.82091  21.82091
Angles:   90.00000  90.00000  90.00000  Average:  90.00000  90.00000  90.00000
Rectangular boundary conditions

net charge:   0.00000000

component 0 (CO2) lambda:  0 occupancy:  1 (1.000000)
    net charge:   0.00000000 [e]

Amount of molecules per component :
-------------------------------------------------------------------------------
Component 0 (CO2)
    molecules:      1.500000e+02 molecules  (1.500000e+02 +/- 0.000000e+00)
    number density: 1.455108e-02 molec./A^3 (1.444489e-02 +/- 0.000000e+00)
    density:        1.063127e+03 kg/m^3     (1.055369e+03 +/- 0.000000e+00)

Average pressure tensor: 
-------------------------------------------------------------------------------
 1.1060e+02  3.0309e+01 -2.6337e+01 +/- 0.0000e+00 0.0000e+00 0.0000e+00 [bar]
 3.0309e+01  9.3662e+01 -8.4487e+01 +/- 0.0000e+00 0.0000e+00 0.0000e+00 [bar]
-2.6337e+01 -8.4487e+01  6.6584e+01 +/- 0.0000e+00 0.0000e+00 0.0000e+00 [bar]
Ideal-gas pressure:   4.985837e+02 +/ 0.000000e+00 [bar]
Excess pressure:     -4.083024e+02 +/ 0.000000e+00 [bar]
Pressure:             9.028132e+01 +/ 0.000000e+00 [bar]

Total potential energy/kʙ  -2.298267e+05 (-2.276532e+05 +/- 0.000000e+00) [K]
-------------------------------------------------------------------------------
ExternalField-molecule
    Van der Waals/kʙ        0.000000e+00 ( 0.000000e+00 +/- 0.000000e+00) [K]
Framework-molecule
    Van der Waals/kʙ        0.000000e+00 ( 0.000000e+00 +/- 0.000000e+00) [K]
    Van der Waals (Tail)/kʙ 0.000000e+00 ( 0.000000e+00 +/- 0.000000e+00) [K]
    Coulombic Real/kʙ       0.000000e+00 ( 0.000000e+00 +/- 0.000000e+00) [K]
    Coulombic Fourier/kʙ    0.000000e+00 ( 0.000000e+00 +/- 0.000000e+00) [K]
Molecule-molecule
    Van der Waals/kʙ       -1.600361e+05 (-1.622597e+05 +/- 0.000000e+00) [K]
    Van der Waals (Tail)/kʙ-7.003177e+03 (-6.955331e+03 +/- 0.000000e+00) [K]
    Coulombic Real/kʙ      -5.108343e+04 (-4.684452e+04 +/- 0.000000e+00) [K]
    Coulombic Fourier/kʙ   -1.170405e+04 (-1.159370e+04 +/- 0.000000e+00) [K]
    Molecule Intra/kʙ       0.000000e+00 ( 0.000000e+00 +/- 0.000000e+00) [K]

Current cycle: 800 out of 5000
===============================================================================

Box:      21.91868   0.00000   0.00000  Average:  21.83664   0.00000   0.00000
           0.00000  21.91868   0.00000             0.00000  21.83664   0.00000
           0.00000   0.00000  21.91868             0.00000   0.00000  21.83664
Lengths:  21.91868  21.91868  21.91868  Average:  21.83664  21.83664  21.83664
Angles:   90.00000  90.00000  90.00000  Average:  90.00000  90.00000  90.00000
Rectangular boundary conditions

net charge:   0.00000000

component 0 (CO2) lambda:  0 occupancy:  1 (1.000000)
    net charge:   0.00000000 [e]

Amount of molecules per component :
-------------------------------------------------------------------------------
Component 0 (CO2)
    molecules:      1.500000e+02 molecules  (1.500000e+02 +/- 0.000000e+00)
    number density: 1.424453e-02 molec./A^3 (1.441316e-02 +/- 0.000000e+00)
    density:        1.040730e+03 kg/m^3     (1.053050e+03 +/- 0.000000e+00)

Average pressure tensor: 
-------------------------------------------------------------------------------
 1.3013e+02  1.4629e+01 -2.8559e+00 +/- 0.0000e+00 0.0000e+00 0.0000e+00 [bar]
 1.4629e+01  9.4176e+01 -8.0108e+01 +/- 0.0000e+00 0.0000e+00 0.0000e+00 [bar]
-2.8559e+00 -8.0108e+01  8.2902e+01 +/- 0.0000e+00 0.0000e+00 0.0000e+00 [bar]
Ideal-gas pressure:   4.974882e+02 +/ 0.000000e+00 [bar]
Excess pressure:     -3.950857e+02 +/ 0.000000e+00 [bar]
Pressure:             1.024025e+02 +/ 0.000000e+00 [bar]

Total potential energy/kʙ  -2.254181e+05 (-2.272233e+05 +/- 0.000000e+00) [K]
-------------------------------------------------------------------------------
ExternalField-molecule
    Van der Waals/kʙ        0.000000e+00 ( 0.000000e+00 +/- 0.000000e+00) [K]
Framework-molecule
    Van der Waals/kʙ        0.000000e+00 ( 0.000000e+00 +/- 0.000000e+00) [K]
    Van der Waals (Tail)/kʙ 0.000000e+00 ( 0.000000e+00 +/- 0.000000e+00) [K]
    Coulombic Real/kʙ       0.000000e+00 ( 0.000000e+00 +/- 0.000000e+00) [K]
    Coulombic Fourier/kʙ    0.000000e+00 ( 0.000000e+00 +/- 0.000000e+00) [K]
Molecule-molecule
    Van der Waals/kʙ       -1.601439e+05 (-1.619541e+05 +/- 0.000000e+00) [K]
    Van der Waals (Tail)/kʙ-6.855640e+03 (-6.943235e+03 +/- 0.000000e+00) [K]
    Coulombic Real/kʙ      -4.678521e+04 (-4.678486e+04 +/- 0.000000e+00) [K]
    Coulombic Fourier/kʙ   -1.163336e+04 (-1.154118e+04 +/- 0.000000e+00) [K]
    Molecule Intra/kʙ       0.000000e+00 ( 0.000000e+00 +/- 0.000000e+00) [K]

Current cycle: 900 out of 5000
===============================================================================

Box:      21.95905   0.00000   0.00000  Average:  21.84234   0.00000   0.00000
           0.00000  21.95905   0.00000             0.00000  21.84234   0.00000
           0.00000   0.00000  21.95905             0.00000   0.00000  21.84234
Lengths:  21.95905  21.95905  21.95905  Average:  21.84234  21.84234  21.84234
Angles:   90.00000  90.00000  90.00000  Average:  90.00000  90.00000  90.00000
Rectangular boundary conditions

net charge:   0.00000000

component 0 (CO2) lambda:  0 occupancy:  1 (1.000000)
    net charge:   0.00000000 [e]

Amount of molecules per component :
-------------------------------------------------------------------------------
Component 0 (CO2)
    molecules:      1.500000e+02 molecules  (1.500000e+02 +/- 0.000000e+00)
    number density: 1.416612e-02 molec./A^3 (1.440137e-02 +/- 0.000000e+00)
    density:        1.035001e+03 kg/m^3     (1.052189e+03 +/- 0.000000e+00)

Average pressure tensor: 
-------------------------------------------------------------------------------
 1.2609e+02  1.8750e+01 -4.6439e+00 +/- 0.0000e+00 0.0000e+00 0.0000e+00 [bar]
 1.8750e+01  1.1008e+02 -6.7670e+01 +/- 0.0000e+00 0.0000e+00 0.0000e+00 [bar]
-4.6439e+00 -6.7670e+01  8.1574e+01 +/- 0.0000e+00 0.0000e+00 0.0000e+00 [bar]
Ideal-gas pressure:   4.970814e+02 +/ 0.000000e+00 [bar]
Excess pressure:     -3.911684e+02 +/ 0.000000e+00 [bar]
Pressure:             1.059130e+02 +/ 0.000000e+00 [bar]

Total potential energy/kʙ  -2.282597e+05 (-2.270497e+05 +/- 0.000000e+00) [K]
-------------------------------------------------------------------------------
ExternalField-molecule
    Van der Waals/kʙ        0.000000e+00 ( 0.000000e+00 +/- 0.000000e+00) [K]
Framework-molecule
    Van der Waals/kʙ        0.000000e+00 ( 0.000000e+00 +/- 0.000000e+00) [K]
    Van der Waals (Tail)/kʙ 0.000000e+00 ( 0.000000e+00 +/- 0.000000e+00) [K]
    Coulombic Real/kʙ       0.000000e+00 ( 0.000000e+00 +/- 0.000000e+00) [K]
    Coulombic Fourier/kʙ    0.000000e+00 ( 0.000000e+00 +/- 0.000000e+00) [K]
Molecule-molecule
    Van der Waals/kʙ       -1.610475e+05 (-1.617398e+05 +/- 0.000000e+00) [K]
    Van der Waals (Tail)/kʙ-6.817904e+03 (-6.937677e+03 +/- 0.000000e+00) [K]
    Coulombic Real/kʙ      -4.858405e+04 (-4.682603e+04 +/- 0.000000e+00) [K]
    Coulombic Fourier/kʙ   -1.181026e+04 (-1.154612e+04 +/- 0.000000e+00) [K]
    Molecule Intra/kʙ       0.000000e+00 ( 0.000000e+00 +/- 0.000000e+00) [K]

Current cycle: 1000 out of 5000
===============================================================================

Box:      21.77699   0.00000   0.00000  Average:  21.83927   0.00000   0.00000
           0.00000  21.77699   0.00000             0.00000  21.83927   0.00000
           0.00000   0.00000  21.77699             0.00000   0.00000  21.83927
Lengths:  21.77699  21.77699  21.77699  Average:  21.83927  21.83927  21.83927
Angles:   90.00000  90.00000  90.00000  Average:  90.00000  90.00000  90.00000
Rectangular boundary conditions

net charge:   0.00000000

component 0 (CO2) lambda:  0 occupancy:  1 (1.000000)
    net charge:   0.00000000 [e]

Amount of molecules per component :
-------------------------------------------------------------------------------
Component 0 (CO2)
    molecules:      1.500000e+02 molecules  (1.500000e+02 +/- 0.000000e+00)
    number density: 1.452437e-02 molec./A^3 (1.440687e-02 +/- 0.000000e+00)
    density:        1.061176e+03 kg/m^3     (1.052591e+03 +/- 0.000000e+00)

Average pressure tensor: 
-------------------------------------------------------------------------------
 1.1828e+02  9.8157e+00 -1.4346e+00 +/- 0.0000e+00 0.0000e+00 0.0000e+00 [bar]
 9.8157e+00  9.6245e+01 -6.3293e+01 +/- 0.0000e+00 0.0000e+00 0.0000e+00 [bar]
-1.4346e+00 -6.3293e+01  7.4858e+01 +/- 0.0000e+00 0.0000e+00 0.0000e+00 [bar]
Ideal-gas pressure:   4.972714e+02 +/ 0.000000e+00 [bar]
Excess pressure:     -4.008087e+02 +/ 0.000000e+00 [bar]
Pressure:             9.646267e+01 +/ 0.000000e+00 [bar]

Total potential energy/kʙ  -2.303420e+05 (-2.270441e+05 +/- 0.000000e+00) [K]
-------------------------------------------------------------------------------
ExternalField-molecule
    Van der Waals/kʙ        0.000000e+00 ( 0.000000e+00 +/- 0.000000e+00) [K]
Framework-molecule
    Van der Waals/kʙ        0.000000e+00 ( 0.000000e+00 +/- 0.000000e+00) [K]
    Van der Waals (Tail)/kʙ 0.000000e+00 ( 0.000000e+00 +/- 0.000000e+00) [K]
    Coulombic Real/kʙ       0.000000e+00 ( 0.000000e+00 +/- 0.000000e+00) [K]
    Coulombic Fourier/kʙ    0.000000e+00 ( 0.000000e+00 +/- 0.000000e+00) [K]
Molecule-molecule
    Van der Waals/kʙ       -1.626607e+05 (-1.617185e+05 +/- 0.000000e+00) [K]
    Van der Waals (Tail)/kʙ-6.990325e+03 (-6.939771e+03 +/- 0.000000e+00) [K]
    Coulombic Real/kʙ      -4.971763e+04 (-4.685607e+04 +/- 0.000000e+00) [K]
    Coulombic Fourier/kʙ   -1.097325e+04 (-1.152972e+04 +/- 0.000000e+00) [K]
    Molecule Intra/kʙ       0.000000e+00 ( 0.000000e+00 +/- 0.000000e+00) [K]

Current cycle: 1100 out of 5000
===============================================================================

Box:      21.84182   0.00000   0.00000  Average:  21.85658   0.00000   0.00000
           0.00000  21.84182   0.00000             0.00000  21.85658   0.00000
           0.00000   0.00000  21.84182             0.00000   0.00000  21.85658
Lengths:  21.84182  21.84182  21.84182  Average:  21.85658  21.85658  21.85658
Angles:   90.00000  90.00000  90.00000  Average:  90.00000  90.00000  90.00000
Rectangular boundary conditions

net charge:   0.00000000

component 0 (CO2) lambda:  0 occupancy:  1 (1.000000)
    net charge:   0.00000000 [e]

Amount of molecules per component :
-------------------------------------------------------------------------------
Component 0 (CO2)
    molecules:      1.500000e+02 molecules  (1.500000e+02 +/- 0.000000e+00)
    number density: 1.439543e-02 molec./A^3 (1.437287e-02 +/- 0.000000e+00)
    density:        1.051755e+03 kg/m^3     (1.050107e+03 +/- 0.000000e+00)

Average pressure tensor: 
-------------------------------------------------------------------------------
 1.0383e+02  4.7593e+00  2.5346e+01 +/- 0.0000e+00 0.0000e+00 0.0000e+00 [bar]
 4.7593e+00  7.0442e+01 -6.5196e+01 +/- 0.0000e+00 0.0000e+00 0.0000e+00 [bar]
 2.5346e+01 -6.5196e+01  9.4325e+01 +/- 0.0000e+00 0.0000e+00 0.0000e+00 [bar]
Ideal-gas pressure:   4.960978e+02 +/ 0.000000e+00 [bar]
Excess pressure:     -4.065654e+02 +/ 0.000000e+00 [bar]
Pressure:             8.953242e+01 +/ 0.000000e+00 [bar]

Total potential energy/kʙ  -2.229325e+05 (-2.261446e+05 +/- 0.000000e+00) [K]
-------------------------------------------------------------------------------
ExternalField-molecule
    Van der Waals/kʙ        0.000000e+00 ( 0.000000e+00 +/- 0.000000e+00) [K]
Framework-molecule
    Van der Waals/kʙ        0.000000e+00 ( 0.000000e+00 +/- 0.000000e+00) [K]
    Van der Waals (Tail)/kʙ 0.000000e+00 ( 0.000000e+00 +/- 0.000000e+00) [K]
    Coulombic Real/kʙ       0.000000e+00 ( 0.000000e+00 +/- 0.000000e+00) [K]
    Coulombic Fourier/kʙ    0.000000e+00 ( 0.000000e+00 +/- 0.000000e+00) [K]
Molecule-molecule
    Van der Waals/kʙ       -1.578491e+05 (-1.612378e+05 +/- 0.000000e+00) [K]
    Van der Waals (Tail)/kʙ-6.928267e+03 (-6.923068e+03 +/- 0.000000e+00) [K]
    Coulombic Real/kʙ      -4.748088e+04 (-4.652972e+04 +/- 0.000000e+00) [K]
    Coulombic Fourier/kʙ   -1.067427e+04 (-1.145403e+04 +/- 0.000000e+00) [K]
    Molecule Intra/kʙ       0.000000e+00 ( 0.000000e+00 +/- 0.000000e+00) [K]

Current cycle: 1200 out of 5000
===============================================================================

Box:      21.87328   0.00000   0.00000  Average:  21.86133   0.00000   0.00000
           0.00000  21.87328   0.00000             0.00000  21.86133   0.00000
           0.00000   0.00000  21.87328             0.00000   0.00000  21.86133
Lengths:  21.87328  21.87328  21.87328  Average:  21.86133  21.86133  21.86133
Angles:   90.00000  90.00000  90.00000  Average:  90.00000  90.00000  90.00000
Rectangular boundary conditions

net charge:   0.00000000

component 0 (CO2) lambda:  0 occupancy:  1 (1.000000)
    net charge:   0.00000000 [e]

Amount of molecules per component :
-------------------------------------------------------------------------------
Component 0 (CO2)
    molecules:      1.500000e+02 molecules  (1.500000e+02 +/- 0.000000e+00)
    number density: 1.433341e-02 molec./A^3 (1.436323e-02 +/- 0.000000e+00)
    density:        1.047224e+03 kg/m^3     (1.049402e+03 +/- 0.000000e+00)

Average pressure tensor: 
-------------------------------------------------------------------------------
 7.6701e+01  8.5617e+00  3.9835e+01 +/- 0.0000e+00 0.0000e+00 0.0000e+00 [bar]
 8.5617e+00  6.9008e+01 -6.7086e+01 +/- 0.0000e+00 0.0000e+00 0.0000e+00 [bar]
 3.9835e+01 -6.7086e+01  1.1638e+02 +/- 0.0000e+00 0.0000e+00 0.0000e+00 [bar]
Ideal-gas pressure:   4.957649e+02 +/ 0.000000e+00 [bar]
Excess pressure:     -4.084019e+02 +/ 0.000000e+00 [bar]
Pressure:             8.736302e+01 +/ 0.000000e+00 [bar]

Total potential energy/kʙ  -2.312092e+05 (-2.260657e+05 +/- 0.000000e+00) [K]
-------------------------------------------------------------------------------
ExternalField-molecule
    Van der Waals/kʙ        0.000000e+00 ( 0.000000e+00 +/- 0.000000e+00) [K]
Framework-molecule
    Van der Waals/kʙ        0.000000e+00 ( 0.000000e+00 +/- 0.000000e+00) [K]
    Van der Waals (Tail)/kʙ 0.000000e+00 ( 0.000000e+00 +/- 0.000000e+00) [K]
    Coulombic Real/kʙ       0.000000e+00 ( 0.000000e+00 +/- 0.000000e+00) [K]
    Coulombic Fourier/kʙ    0.000000e+00 ( 0.000000e+00 +/- 0.000000e+00) [K]
Molecule-molecule
    Van der Waals/kʙ       -1.653078e+05 (-1.611875e+05 +/- 0.000000e+00) [K]
    Van der Waals (Tail)/kʙ-6.898419e+03 (-6.918194e+03 +/- 0.000000e+00) [K]
    Coulombic Real/kʙ      -4.694352e+04 (-4.652652e+04 +/- 0.000000e+00) [K]
    Coulombic Fourier/kʙ   -1.205942e+04 (-1.143348e+04 +/- 0.000000e+00) [K]
    Molecule Intra/kʙ       0.000000e+00 ( 0.000000e+00 +/- 0.000000e+00) [K]

Current cycle: 1300 out of 5000
===============================================================================

Box:      22.15264   0.00000   0.00000  Average:  21.87503   0.00000   0.00000
           0.00000  22.15264   0.00000             0.00000  21.87503   0.00000
           0.00000   0.00000  22.15264             0.00000   0.00000  21.87503
Lengths:  22.15264  22.15264  22.15264  Average:  21.87503  21.87503  21.87503
Angles:   90.00000  90.00000  90.00000  Average:  90.00000  90.00000  90.00000
Rectangular boundary conditions

net charge:   0.00000000

component 0 (CO2) lambda:  0 occupancy:  1 (1.000000)
    net charge:   0.00000000 [e]

Amount of molecules per component :
-------------------------------------------------------------------------------
Component 0 (CO2)
    molecules:      1.500000e+02 molecules  (1.500000e+02 +/- 0.000000e+00)
    number density: 1.379796e-02 molec./A^3 (1.433649e-02 +/- 0.000000e+00)
    density:        1.008102e+03 kg/m^3     (1.047449e+03 +/- 0.000000e+00)

Average pressure tensor: 
-------------------------------------------------------------------------------
 6.6541e+01  8.4932e+00  5.3352e+01 +/- 0.0000e+00 0.0000e+00 0.0000e+00 [bar]
 8.4932e+00  5.3345e+01 -5.8841e+01 +/- 0.0000e+00 0.0000e+00 0.0000e+00 [bar]
 5.3352e+01 -5.8841e+01  1.2845e+02 +/- 0.0000e+00 0.0000e+00 0.0000e+00 [bar]
Ideal-gas pressure:   4.948420e+02 +/ 0.000000e+00 [bar]
Excess pressure:     -4.120641e+02 +/ 0.000000e+00 [bar]
Pressure:             8.277798e+01 +/ 0.000000e+00 [bar]

Total potential energy/kʙ  -2.144586e+05 (-2.255137e+05 +/- 0.000000e+00) [K]
-------------------------------------------------------------------------------
ExternalField-molecule
    Van der Waals/kʙ        0.000000e+00 ( 0.000000e+00 +/- 0.000000e+00) [K]
Framework-molecule
    Van der Waals/kʙ        0.000000e+00 ( 0.000000e+00 +/- 0.000000e+00) [K]
    Van der Waals (Tail)/kʙ 0.000000e+00 ( 0.000000e+00 +/- 0.000000e+00) [K]
    Coulombic Real/kʙ       0.000000e+00 ( 0.000000e+00 +/- 0.000000e+00) [K]
    Coulombic Fourier/kʙ    0.000000e+00 ( 0.000000e+00 +/- 0.000000e+00) [K]
Molecule-molecule
    Van der Waals/kʙ       -1.570539e+05 (-1.608215e+05 +/- 0.000000e+00) [K]
    Van der Waals (Tail)/kʙ-6.640713e+03 (-6.903983e+03 +/- 0.000000e+00) [K]
    Coulombic Real/kʙ      -3.971515e+04 (-4.635827e+04 +/- 0.000000e+00) [K]
    Coulombic Fourier/kʙ   -1.104876e+04 (-1.142997e+04 +/- 0.000000e+00) [K]
    Molecule Intra/kʙ       0.000000e+00 ( 0.000000e+00 +/- 0.000000e+00) [K]

Current cycle: 1400 out of 5000
===============================================================================

Box:      21.90445   0.00000   0.00000  Average:  21.87941   0.00000   0.00000
           0.00000  21.90445   0.00000             0.00000  21.87941   0.00000
           0.00000   0.00000  21.90445             0.00000   0.00000  21.87941
Lengths:  21.90445  21.90445  21.90445  Average:  21.87941  21.87941  21.87941
Angles:   90.00000  90.00000  90.00000  Average:  90.00000  90.00000  90.00000
Rectangular boundary conditions

net charge:   0.00000000

component 0 (CO2) lambda:  0 occupancy:  1 (1.000000)
    net charge:   0.00000000 [e]

Amount of molecules per component :
-------------------------------------------------------------------------------
Component 0 (CO2)
    molecules:      1.500000e+02 molecules  (1.500000e+02 +/- 0.000000e+00)
    number density: 1.427230e-02 molec./A^3 (1.432758e-02 +/- 0.000000e+00)
    density:        1.042759e+03 kg/m^3     (1.046798e+03 +/- 0.000000e+00)

Average pressure tensor: 
-------------------------------------------------------------------------------
 4.7048e+01  4.8841e+00  5.3951e+01 +/- 0.0000e+00 0.0000e+00 0.0000e+00 [bar]
 4.8841e+00  4.9769e+01 -5.9497e+01 +/- 0.0000e+00 0.0000e+00 0.0000e+00 [bar]
 5.3951e+01 -5.9497e+01  1.2023e+02 +/- 0.0000e+00 0.0000e+00 0.0000e+00 [bar]
Ideal-gas pressure:   4.945345e+02 +/ 0.000000e+00 [bar]
Excess pressure:     -4.221862e+02 +/ 0.000000e+00 [bar]
Pressure:             7.234829e+01 +/ 0.000000e+00 [bar]

Total potential energy/kʙ  -2.261067e+05 (-2.253215e+05 +/- 0.000000e+00) [K]
-------------------------------------------------------------------------------
ExternalField-molecule
    Van der Waals/kʙ        0.000000e+00 ( 0.000000e+00 +/- 0.000000e+00) [K]
Framework-molecule
    Van der Waals/kʙ        0.000000e+00 ( 0.000000e+00 +/- 0.000000e+00) [K]
    Van der Waals (Tail)/kʙ 0.000000e+00 ( 0.000000e+00 +/- 0.000000e+00) [K]
    Coulombic Real/kʙ       0.000000e+00 ( 0.000000e+00 +/- 0.000000e+00) [K]
    Coulombic Fourier/kʙ    0.000000e+00 ( 0.000000e+00 +/- 0.000000e+00) [K]
Molecule-molecule
    Van der Waals/kʙ       -1.659393e+05 (-1.607600e+05 +/- 0.000000e+00) [K]
    Van der Waals (Tail)/kʙ-6.869007e+03 (-6.898814e+03 +/- 0.000000e+00) [K]
    Coulombic Real/kʙ      -4.212129e+04 (-4.623753e+04 +/- 0.000000e+00) [K]
    Coulombic Fourier/kʙ   -1.117707e+04 (-1.142517e+04 +/- 0.000000e+00) [K]
    Molecule Intra/kʙ       0.000000e+00 ( 0.000000e+00 +/- 0.000000e+00) [K]

Current cycle: 1500 out of 5000
===============================================================================

Box:      21.93279   0.00000   0.00000  Average:  21.87813   0.00000   0.00000
           0.00000  21.93279   0.00000             0.00000  21.87813   0.00000
           0.00000   0.00000  21.93279             0.00000   0.00000  21.87813
Lengths:  21.93279  21.93279  21.93279  Average:  21.87813  21.87813  21.87813
Angles:   90.00000  90.00000  90.00000  Average:  90.00000  90.00000  90.00000
Rectangular boundary conditions

net charge:   0.00000000

component 0 (CO2) lambda:  0 occupancy:  1 (1.000000)
    net charge:   0.00000000 [e]

Amount of molecules per component :
-------------------------------------------------------------------------------
Component 0 (CO2)
    molecules:      1.500000e+02 molecules  (1.500000e+02 +/- 0.000000e+00)
    number density: 1.421705e-02 molec./A^3 (1.432979e-02 +/- 0.000000e+00)
    density:        1.038722e+03 kg/m^3     (1.046959e+03 +/- 0.000000e+00)

Average pressure tensor: 
-------------------------------------------------------------------------------
 3.9530e+01  1.7175e+01  5.8132e+01 +/- 0.0000e+00 0.0000e+00 0.0000e+00 [bar]
 1.7175e+01  4.9876e+01 -5.6815e+01 +/- 0.0000e+00 0.0000e+00 0.0000e+00 [bar]
 5.8132e+01 -5.6815e+01  1.0141e+02 +/- 0.0000e+00 0.0000e+00 0.0000e+00 [bar]
Ideal-gas pressure:   4.946108e+02 +/ 0.000000e+00 [bar]
Excess pressure:     -4.310060e+02 +/ 0.000000e+00 [bar]
Pressure:             6.360478e+01 +/ 0.000000e+00 [bar]

Total potential energy/kʙ  -2.249378e+05 (-2.254519e+05 +/- 0.000000e+00) [K]
-------------------------------------------------------------------------------
ExternalField-molecule
    Van der Waals/kʙ        0.000000e+00 ( 0.000000e+00 +/- 0.000000e+00) [K]
Framework-molecule
    Van der Waals/kʙ        0.000000e+00 ( 0.000000e+00 +/- 0.000000e+00) [K]
    Van der Waals (Tail)/kʙ 0.000000e+00 ( 0.000000e+00 +/- 0.000000e+00) [K]
    Coulombic Real/kʙ       0.000000e+00 ( 0.000000e+00 +/- 0.000000e+00) [K]
    Coulombic Fourier/kʙ    0.000000e+00 ( 0.000000e+00 +/- 0.000000e+00) [K]
Molecule-molecule
    Van der Waals/kʙ       -1.641014e+05 (-1.609218e+05 +/- 0.000000e+00) [K]
    Van der Waals (Tail)/kʙ-6.842416e+03 (-6.900090e+03 +/- 0.000000e+00) [K]
    Coulombic Real/kʙ      -4.325539e+04 (-4.619638e+04 +/- 0.000000e+00) [K]
    Coulombic Fourier/kʙ   -1.073858e+04 (-1.143358e+04 +/- 0.000000e+00) [K]
    Molecule Intra/kʙ       0.000000e+00 ( 0.000000e+00 +/- 0.000000e+00) [K]

Current cycle: 1600 out of 5000
===============================================================================

Box:      21.86047   0.00000   0.00000  Average:  21.87889   0.00000   0.00000
           0.00000  21.86047   0.00000             0.00000  21.87889   0.00000
           0.00000   0.00000  21.86047             0.00000   0.00000  21.87889
Lengths:  21.86047  21.86047  21.86047  Average:  21.87889  21.87889  21.87889
Angles:   90.00000  90.00000  90.00000  Average:  90.00000  90.00000  90.00000
Rectangular boundary conditions

net charge:   0.00000000

component 0 (CO2) lambda:  0 occupancy:  1 (1.000000)
    net charge:   0.00000000 [e]

Amount of molecules per component :
-------------------------------------------------------------------------------
Component 0 (CO2)
    molecules:      1.500000e+02 molecules  (1.500000e+02 +/- 0.000000e+00)
    number density: 1.435863e-02 molec./A^3 (1.432799e-02 +/- 0.000000e+00)
    density:        1.049066e+03 kg/m^3     (1.046827e+03 +/- 0.000000e+00)

Average pressure tensor: 
-------------------------------------------------------------------------------
 1.6679e+01  1.9435e+01  5.2498e+01 +/- 0.0000e+00 0.0000e+00 0.0000e+00 [bar]
 1.9435e+01  4.8800e+01 -5.4079e+01 +/- 0.0000e+00 0.0000e+00 0.0000e+00 [bar]
 5.2498e+01 -5.4079e+01  7.9552e+01 +/- 0.0000e+00 0.0000e+00 0.0000e+00 [bar]
Ideal-gas pressure:   4.945484e+02 +/ 0.000000e+00 [bar]
Excess pressure:     -4.462048e+02 +/ 0.000000e+00 [bar]
Pressure:             4.834367e+01 +/ 0.000000e+00 [bar]

Total potential energy/kʙ  -2.224223e+05 (-2.254239e+05 +/- 0.000000e+00) [K]
-------------------------------------------------------------------------------
ExternalField-molecule
    Van der Waals/kʙ        0.000000e+00 ( 0.000000e+00 +/- 0.000000e+00) [K]
Framework-molecule
    Van der Waals/kʙ        0.000000e+00 ( 0.000000e+00 +/- 0.000000e+00) [K]
    Van der Waals (Tail)/kʙ 0.000000e+00 ( 0.000000e+00 +/- 0.000000e+00) [K]
    Coulombic Real/kʙ       0.000000e+00 ( 0.000000e+00 +/- 0.000000e+00) [K]
    Coulombic Fourier/kʙ    0.000000e+00 ( 0.000000e+00 +/- 0.000000e+00) [K]
Molecule-molecule
    Van der Waals/kʙ       -1.596986e+05 (-1.610363e+05 +/- 0.000000e+00) [K]
    Van der Waals (Tail)/kʙ-6.910556e+03 (-6.897746e+03 +/- 0.000000e+00) [K]
    Coulombic Real/kʙ      -4.540159e+04 (-4.606002e+04 +/- 0.000000e+00) [K]
    Coulombic Fourier/kʙ   -1.041149e+04 (-1.142987e+04 +/- 0.000000e+00) [K]
    Molecule Intra/kʙ       0.000000e+00 ( 0.000000e+00 +/- 0.000000e+00) [K]

Current cycle: 1700 out of 5000
===============================================================================

Box:      21.59345   0.00000   0.00000  Average:  21.87445   0.00000   0.00000
           0.00000  21.59345   0.00000             0.00000  21.87445   0.00000
           0.00000   0.00000  21.59345             0.00000   0.00000  21.87445
Lengths:  21.59345  21.59345  21.59345  Average:  21.87445  21.87445  21.87445
Angles:   90.00000  90.00000  90.00000  Average:  90.00000  90.00000  90.00000
Rectangular boundary conditions

net charge:   0.00000000

component 0 (CO2) lambda:  0 occupancy:  1 (1.000000)
    net charge:   0.00000000 [e]

Amount of molecules per component :
-------------------------------------------------------------------------------
Component 0 (CO2)
    molecules:      1.500000e+02 molecules  (1.500000e+02 +/- 0.000000e+00)
    number density: 1.489790e-02 molec./A^3 (1.433660e-02 +/- 0.000000e+00)
    density:        1.088466e+03 kg/m^3     (1.047456e+03 +/- 0.000000e+00)

Average pressure tensor: 
-------------------------------------------------------------------------------
 3.1740e+01  7.6489e+00  5.9268e+01 +/- 0.0000e+00 0.0000e+00 0.0000e+00 [bar]
 7.6489e+00  4.0589e+01 -6.0732e+01 +/- 0.0000e+00 0.0000e+00 0.0000e+00 [bar]
 5.9268e+01 -6.0732e+01  7.6871e+01 +/- 0.0000e+00 0.0000e+00 0.0000e+00 [bar]
Ideal-gas pressure:   4.948457e+02 +/ 0.000000e+00 [bar]
Excess pressure:     -4.451124e+02 +/ 0.000000e+00 [bar]
Pressure:             4.973334e+01 +/ 0.000000e+00 [bar]

Total potential energy/kʙ  -2.327029e+05 (-2.254520e+05 +/- 0.000000e+00) [K]
-------------------------------------------------------------------------------
ExternalField-molecule
    Van der Waals/kʙ        0.000000e+00 ( 0.000000e+00 +/- 0.000000e+00) [K]
Framework-molecule
    Van der Waals/kʙ        0.000000e+00 ( 0.000000e+00 +/- 0.000000e+00) [K]
    Van der Waals (Tail)/kʙ 0.000000e+00 ( 0.000000e+00 +/- 0.000000e+00) [K]
    Coulombic Real/kʙ       0.000000e+00 ( 0.000000e+00 +/- 0.000000e+00) [K]
    Coulombic Fourier/kʙ    0.000000e+00 ( 0.000000e+00 +/- 0.000000e+00) [K]
Molecule-molecule
    Van der Waals/kʙ       -1.689296e+05 (-1.611643e+05 +/- 0.000000e+00) [K]
    Van der Waals (Tail)/kʙ-7.170096e+03 (-6.902595e+03 +/- 0.000000e+00) [K]
    Coulombic Real/kʙ      -4.536712e+04 (-4.596495e+04 +/- 0.000000e+00) [K]
    Coulombic Fourier/kʙ   -1.123607e+04 (-1.142015e+04 +/- 0.000000e+00) [K]
    Molecule Intra/kʙ       0.000000e+00 ( 0.000000e+00 +/- 0.000000e+00) [K]

Current cycle: 1800 out of 5000
===============================================================================

Box:      22.27502   0.00000   0.00000  Average:  21.88071   0.00000   0.00000
           0.00000  22.27502   0.00000             0.00000  21.88071   0.00000
           0.00000   0.00000  22.27502             0.00000   0.00000  21.88071
Lengths:  22.27502  22.27502  22.27502  Average:  21.88071  21.88071  21.88071
Angles:   90.00000  90.00000  90.00000  Average:  90.00000  90.00000  90.00000
Rectangular boundary conditions

net charge:   0.00000000

component 0 (CO2) lambda:  0 occupancy:  1 (1.000000)
    net charge:   0.00000000 [e]

Amount of molecules per component :
-------------------------------------------------------------------------------
Component 0 (CO2)
    molecules:      1.500000e+02 molecules  (1.500000e+02 +/- 0.000000e+00)
    number density: 1.357179e-02 molec./A^3 (1.432439e-02 +/- 0.000000e+00)
    density:        9.915780e+02 kg/m^3     (1.046564e+03 +/- 0.000000e+00)

Average pressure tensor: 
-------------------------------------------------------------------------------
 3.6771e+01  2.0016e+00  5.9586e+01 +/- 0.0000e+00 0.0000e+00 0.0000e+00 [bar]
 2.0016e+00  3.0938e+01 -6.7398e+01 +/- 0.0000e+00 0.0000e+00 0.0000e+00 [bar]
 5.9586e+01 -6.7398e+01  6.4591e+01 +/- 0.0000e+00 0.0000e+00 0.0000e+00 [bar]
Ideal-gas pressure:   4.944243e+02 +/ 0.000000e+00 [bar]
Excess pressure:     -4.503241e+02 +/ 0.000000e+00 [bar]
Pressure:             4.410023e+01 +/ 0.000000e+00 [bar]

Total potential energy/kʙ  -2.056462e+05 (-2.250491e+05 +/- 0.000000e+00) [K]
-------------------------------------------------------------------------------
ExternalField-molecule
    Van der Waals/kʙ        0.000000e+00 ( 0.000000e+00 +/- 0.000000e+00) [K]
Framework-molecule
    Van der Waals/kʙ        0.000000e+00 ( 0.000000e+00 +/- 0.000000e+00) [K]
    Van der Waals (Tail)/kʙ 0.000000e+00 ( 0.000000e+00 +/- 0.000000e+00) [K]
    Coulombic Real/kʙ       0.000000e+00 ( 0.000000e+00 +/- 0.000000e+00) [K]
    Coulombic Fourier/kʙ    0.000000e+00 ( 0.000000e+00 +/- 0.000000e+00) [K]
Molecule-molecule
    Van der Waals/kʙ       -1.506709e+05 (-1.609815e+05 +/- 0.000000e+00) [K]
    Van der Waals (Tail)/kʙ-6.531862e+03 (-6.894416e+03 +/- 0.000000e+00) [K]
    Coulombic Real/kʙ      -3.801489e+04 (-4.574830e+04 +/- 0.000000e+00) [K]
    Coulombic Fourier/kʙ   -1.042857e+04 (-1.142484e+04 +/- 0.000000e+00) [K]
    Molecule Intra/kʙ       0.000000e+00 ( 0.000000e+00 +/- 0.000000e+00) [K]

Current cycle: 1900 out of 5000
===============================================================================

Box:      21.87110   0.00000   0.00000  Average:  21.87998   0.00000   0.00000
           0.00000  21.87110   0.00000             0.00000  21.87998   0.00000
           0.00000   0.00000  21.87110             0.00000   0.00000  21.87998
Lengths:  21.87110  21.87110  21.87110  Average:  21.87998  21.87998  21.87998
Angles:   90.00000  90.00000  90.00000  Average:  90.00000  90.00000  90.00000
Rectangular boundary conditions

net charge:   0.00000000

component 0 (CO2) lambda:  0 occupancy:  1 (1.000000)
    net charge:   0.00000000 [e]

Amount of molecules per component :
-------------------------------------------------------------------------------
Component 0 (CO2)
    molecules:      1.500000e+02 molecules  (1.500000e+02 +/- 0.000000e+00)
    number density: 1.433771e-02 molec./A^3 (1.432594e-02 +/- 0.000000e+00)
    density:        1.047537e+03 kg/m^3     (1.046678e+03 +/- 0.000000e+00)

Average pressure tensor: 
-------------------------------------------------------------------------------
 3.7962e+01  1.4639e+01  4.5403e+01 +/- 0.0000e+00 0.0000e+00 0.0000e+00 [bar]
 1.4639e+01  3.2240e+01 -6.4125e+01 +/- 0.0000e+00 0.0000e+00 0.0000e+00 [bar]
 4.5403e+01 -6.4125e+01  7.5999e+01 +/- 0.0000e+00 0.0000e+00 0.0000e+00 [bar]
Ideal-gas pressure:   4.944779e+02 +/ 0.000000e+00 [bar]
Excess pressure:     -4.457443e+02 +/ 0.000000e+00 [bar]
Pressure:             4.873351e+01 +/ 0.000000e+00 [bar]

Total potential energy/kʙ  -2.219547e+05 (-2.248245e+05 +/- 0.000000e+00) [K]
-------------------------------------------------------------------------------
ExternalField-molecule
    Van der Waals/kʙ        0.000000e+00 ( 0.000000e+00 +/- 0.000000e+00) [K]
Framework-molecule
    Van der Waals/kʙ        0.000000e+00 ( 0.000000e+00 +/- 0.000000e+00) [K]
    Van der Waals (Tail)/kʙ 0.000000e+00 ( 0.000000e+00 +/- 0.000000e+00) [K]
    Coulombic Real/kʙ       0.000000e+00 ( 0.000000e+00 +/- 0.000000e+00) [K]
    Coulombic Fourier/kʙ    0.000000e+00 ( 0.000000e+00 +/- 0.000000e+00) [K]
Molecule-molecule
    Van der Waals/kʙ       -1.613318e+05 (-1.610109e+05 +/- 0.000000e+00) [K]
    Van der Waals (Tail)/kʙ-6.900485e+03 (-6.895306e+03 +/- 0.000000e+00) [K]
    Coulombic Real/kʙ      -4.238519e+04 (-4.555334e+04 +/- 0.000000e+00) [K]
    Coulombic Fourier/kʙ   -1.133724e+04 (-1.136502e+04 +/- 0.000000e+00) [K]
    Molecule Intra/kʙ       0.000000e+00 ( 0.000000e+00 +/- 0.000000e+00) [K]

Current cycle: 2000 out of 5000
===============================================================================

Box:      21.90467   0.00000   0.00000  Average:  21.88958   0.00000   0.00000
           0.00000  21.90467   0.00000             0.00000  21.88958   0.00000
           0.00000   0.00000  21.90467             0.00000   0.00000  21.88958
Lengths:  21.90467  21.90467  21.90467  Average:  21.88958  21.88958  21.88958
Angles:   90.00000  90.00000  90.00000  Average:  90.00000  90.00000  90.00000
Rectangular boundary conditions

net charge:   0.00000000

component 0 (CO2) lambda:  0 occupancy:  1 (1.000000)
    net charge:   0.00000000 [e]

Amount of molecules per component :
-------------------------------------------------------------------------------
Component 0 (CO2)
    molecules:      1.500000e+02 molecules  (1.500000e+02 +/- 0.000000e+00)
    number density: 1.427187e-02 molec./A^3 (1.430725e-02 +/- 0.000000e+00)
    density:        1.042728e+03 kg/m^3     (1.045312e+03 +/- 0.000000e+00)

Average pressure tensor: 
-------------------------------------------------------------------------------
 4.0968e+01  9.7766e+00  3.8361e+01 +/- 0.0000e+00 0.0000e+00 0.0000e+00 [bar]
 9.7766e+00  2.6305e+01 -6.9487e+01 +/- 0.0000e+00 0.0000e+00 0.0000e+00 [bar]
 3.8361e+01 -6.9487e+01  7.8969e+01 +/- 0.0000e+00 0.0000e+00 0.0000e+00 [bar]
Ideal-gas pressure:   4.938326e+02 +/ 0.000000e+00 [bar]
Excess pressure:     -4.450856e+02 +/ 0.000000e+00 [bar]
Pressure:             4.874703e+01 +/ 0.000000e+00 [bar]

Total potential energy/kʙ  -2.244396e+05 (-2.244487e+05 +/- 0.000000e+00) [K]
-------------------------------------------------------------------------------
ExternalField-molecule
    Van der Waals/kʙ        0.000000e+00 ( 0.000000e+00 +/- 0.000000e+00) [K]
Framework-molecule
    Van der Waals/kʙ        0.000000e+00 ( 0.000000e+00 +/- 0.000000e+00) [K]
    Van der Waals (Tail)/kʙ 0.000000e+00 ( 0.000000e+00 +/- 0.000000e+00) [K]
    Coulombic Real/kʙ       0.000000e+00 ( 0.000000e+00 +/- 0.000000e+00) [K]
    Coulombic Fourier/kʙ    0.000000e+00 ( 0.000000e+00 +/- 0.000000e+00) [K]
Molecule-molecule
    Van der Waals/kʙ       -1.585116e+05 (-1.607880e+05 +/- 0.000000e+00) [K]
    Van der Waals (Tail)/kʙ-6.868802e+03 (-6.886287e+03 +/- 0.000000e+00) [K]
    Coulombic Real/kʙ      -4.684795e+04 (-4.542576e+04 +/- 0.000000e+00) [K]
    Coulombic Fourier/kʙ   -1.221128e+04 (-1.134857e+04 +/- 0.000000e+00) [K]
    Molecule Intra/kʙ       0.000000e+00 ( 0.000000e+00 +/- 0.000000e+00) [K]

Current cycle: 2100 out of 5000
===============================================================================

Box:      21.81095   0.00000   0.00000  Average:  21.88855   0.00000   0.00000
           0.00000  21.81095   0.00000             0.00000  21.88855   0.00000
           0.00000   0.00000  21.81095             0.00000   0.00000  21.88855
Lengths:  21.81095  21.81095  21.81095  Average:  21.88855  21.88855  21.88855
Angles:   90.00000  90.00000  90.00000  Average:  90.00000  90.00000  90.00000
Rectangular boundary conditions

net charge:   0.00000000

component 0 (CO2) lambda:  0 occupancy:  1 (1.000000)
    net charge:   0.00000000 [e]

Amount of molecules per component :
-------------------------------------------------------------------------------
Component 0 (CO2)
    molecules:      1.500000e+02 molecules  (1.500000e+02 +/- 0.000000e+00)
    number density: 1.445665e-02 molec./A^3 (1.430904e-02 +/- 0.000000e+00)
    density:        1.056227e+03 kg/m^3     (1.045443e+03 +/- 0.000000e+00)

Average pressure tensor: 
-------------------------------------------------------------------------------
 3.6372e+01  5.8194e+00  4.4068e+01 +/- 0.0000e+00 0.0000e+00 0.0000e+00 [bar]
 5.8194e+00  1.7966e+01 -6.2759e+01 +/- 0.0000e+00 0.0000e+00 0.0000e+00 [bar]
 4.4068e+01 -6.2759e+01  9.2099e+01 +/- 0.0000e+00 0.0000e+00 0.0000e+00 [bar]
Ideal-gas pressure:   4.938945e+02 +/ 0.000000e+00 [bar]
Excess pressure:     -4.450819e+02 +/ 0.000000e+00 [bar]
Pressure:             4.881258e+01 +/ 0.000000e+00 [bar]

Total potential energy/kʙ  -2.281064e+05 (-2.245349e+05 +/- 0.000000e+00) [K]
-------------------------------------------------------------------------------
ExternalField-molecule
    Van der Waals/kʙ        0.000000e+00 ( 0.000000e+00 +/- 0.000000e+00) [K]
Framework-molecule
    Van der Waals/kʙ        0.000000e+00 ( 0.000000e+00 +/- 0.000000e+00) [K]
    Van der Waals (Tail)/kʙ 0.000000e+00 ( 0.000000e+00 +/- 0.000000e+00) [K]
[...]
    Coulombic Fourier/kʙ    0.000000e+00 ( 0.000000e+00 +/- 0.000000e+00) [K]
Molecule-molecule
    Van der Waals/kʙ       -1.563628e+05 (-1.619687e+05 +/- 4.714212e+03) [K]
    Van der Waals (Tail)/kʙ-6.703445e+03 (-6.913739e+03 +/- 2.131950e+02) [K]
    Coulombic Real/kʙ      -4.310196e+04 (-4.616489e+04 +/- 2.294392e+03) [K]
    Coulombic Fourier/kʙ   -1.116656e+04 (-1.142417e+04 +/- 4.204203e+02) [K]
    Molecule Intra/kʙ       0.000000e+00 ( 0.000000e+00 +/- 0.000000e+00) [K]

Current cycle: 4700 out of 5000
===============================================================================

Box:      22.45184   0.00000   0.00000  Average:  21.86939   0.00000   0.00000
           0.00000  22.45184   0.00000             0.00000  21.86939   0.00000
           0.00000   0.00000  22.45184             0.00000   0.00000  21.86939
Lengths:  22.45184  22.45184  22.45184  Average:  21.86939  21.86939  21.86939
Angles:   90.00000  90.00000  90.00000  Average:  90.00000  90.00000  90.00000
Rectangular boundary conditions

net charge:   0.00000000

component 0 (CO2) lambda:  0 occupancy:  1 (1.000000)
    net charge:   0.00000000 [e]

Amount of molecules per component :
-------------------------------------------------------------------------------
Component 0 (CO2)
    molecules:      1.500000e+02 molecules  (1.500000e+02 +/- 0.000000e+00)
    number density: 1.325364e-02 molec./A^3 (1.435432e-02 +/- 4.313507e-04)
    density:        9.683339e+02 kg/m^3     (1.048751e+03 +/- 3.151522e+01)

Average pressure tensor: 
-------------------------------------------------------------------------------
 5.3389e+01 -7.6871e+00  2.6929e+01 +/- 1.1095e+02 8.0460e+01 6.4048e+01 [bar]
-7.6871e+00 -6.8653e+00 -1.9576e+01 +/- 8.0460e+01 8.8616e+01 6.6881e+01 [bar]
 2.6929e+01 -1.9576e+01  4.2552e+01 +/- 6.4048e+01 6.6881e+01 8.0081e+01 [bar]
Ideal-gas pressure:   4.954573e+02 +/ 1.488861e+01 [bar]
Excess pressure:     -4.657654e+02 +/ 5.200031e+01 [bar]
Pressure:             2.969187e+01 +/ 6.116139e+01 [bar]

Total potential energy/kʙ  -2.088440e+05 (-2.261479e+05 +/- 7.523090e+03) [K]
-------------------------------------------------------------------------------
ExternalField-molecule
    Van der Waals/kʙ        0.000000e+00 ( 0.000000e+00 +/- 0.000000e+00) [K]
Framework-molecule
    Van der Waals/kʙ        0.000000e+00 ( 0.000000e+00 +/- 0.000000e+00) [K]
    Van der Waals (Tail)/kʙ 0.000000e+00 ( 0.000000e+00 +/- 0.000000e+00) [K]
    Coulombic Real/kʙ       0.000000e+00 ( 0.000000e+00 +/- 0.000000e+00) [K]
    Coulombic Fourier/kʙ    0.000000e+00 ( 0.000000e+00 +/- 0.000000e+00) [K]
Molecule-molecule
    Van der Waals/kʙ       -1.508164e+05 (-1.617736e+05 +/- 4.805808e+03) [K]
    Van der Waals (Tail)/kʙ-6.378745e+03 (-6.905173e+03 +/- 2.142467e+02) [K]
    Coulombic Real/kʙ      -4.095063e+04 (-4.606799e+04 +/- 2.249959e+03) [K]
    Coulombic Fourier/kʙ   -1.069823e+04 (-1.140112e+04 +/- 4.373459e+02) [K]
    Molecule Intra/kʙ       0.000000e+00 ( 0.000000e+00 +/- 0.000000e+00) [K]

Current cycle: 4800 out of 5000
===============================================================================

Box:      22.30174   0.00000   0.00000  Average:  21.88050   0.00000   0.00000
           0.00000  22.30174   0.00000             0.00000  21.88050   0.00000
           0.00000   0.00000  22.30174             0.00000   0.00000  21.88050
Lengths:  22.30174  22.30174  22.30174  Average:  21.88050  21.88050  21.88050
Angles:   90.00000  90.00000  90.00000  Average:  90.00000  90.00000  90.00000
Rectangular boundary conditions

net charge:   0.00000000

component 0 (CO2) lambda:  0 occupancy:  1 (1.000000)
    net charge:   0.00000000 [e]

Amount of molecules per component :
-------------------------------------------------------------------------------
Component 0 (CO2)
    molecules:      1.500000e+02 molecules  (1.500000e+02 +/- 0.000000e+00)
    number density: 1.352307e-02 molec./A^3 (1.433326e-02 +/- 4.433252e-04)
    density:        9.880185e+02 kg/m^3     (1.047212e+03 +/- 3.239010e+01)

Average pressure tensor: 
-------------------------------------------------------------------------------
 5.5810e+01 -1.0771e+01  2.6632e+01 +/- 1.1079e+02 8.3018e+01 6.1999e+01 [bar]
-1.0771e+01 -9.6426e+00 -2.0007e+01 +/- 8.3018e+01 9.0405e+01 6.2208e+01 [bar]
 2.6632e+01 -2.0007e+01  4.0540e+01 +/- 6.1999e+01 6.2208e+01 7.8685e+01 [bar]
Ideal-gas pressure:   4.947305e+02 +/ 1.530193e+01 [bar]
Excess pressure:     -4.658279e+02 +/ 5.198039e+01 [bar]
Pressure:             2.890257e+01 +/ 6.138385e+01 [bar]

Total potential energy/kʙ  -2.107235e+05 (-2.257815e+05 +/- 7.758283e+03) [K]
-------------------------------------------------------------------------------
ExternalField-molecule
    Van der Waals/kʙ        0.000000e+00 ( 0.000000e+00 +/- 0.000000e+00) [K]
Framework-molecule
    Van der Waals/kʙ        0.000000e+00 ( 0.000000e+00 +/- 0.000000e+00) [K]
    Van der Waals (Tail)/kʙ 0.000000e+00 ( 0.000000e+00 +/- 0.000000e+00) [K]
    Coulombic Real/kʙ       0.000000e+00 ( 0.000000e+00 +/- 0.000000e+00) [K]
    Coulombic Fourier/kʙ    0.000000e+00 ( 0.000000e+00 +/- 0.000000e+00) [K]
Molecule-molecule
    Van der Waals/kʙ       -1.505941e+05 (-1.615378e+05 +/- 4.986629e+03) [K]
    Van der Waals (Tail)/kʙ-6.508414e+03 (-6.895054e+03 +/- 2.197741e+02) [K]
    Coulombic Real/kʙ      -4.314825e+04 (-4.596013e+04 +/- 2.273351e+03) [K]
    Coulombic Fourier/kʙ   -1.047266e+04 (-1.138852e+04 +/- 4.463374e+02) [K]
    Molecule Intra/kʙ       0.000000e+00 ( 0.000000e+00 +/- 0.000000e+00) [K]

Current cycle: 4900 out of 5000
===============================================================================

Box:      22.42336   0.00000   0.00000  Average:  21.88841   0.00000   0.00000
           0.00000  22.42336   0.00000             0.00000  21.88841   0.00000
           0.00000   0.00000  22.42336             0.00000   0.00000  21.88841
Lengths:  22.42336  22.42336  22.42336  Average:  21.88841  21.88841  21.88841
Angles:   90.00000  90.00000  90.00000  Average:  90.00000  90.00000  90.00000
Rectangular boundary conditions

net charge:   0.00000000

component 0 (CO2) lambda:  0 occupancy:  1 (1.000000)
    net charge:   0.00000000 [e]

Amount of molecules per component :
-------------------------------------------------------------------------------
Component 0 (CO2)
    molecules:      1.500000e+02 molecules  (1.500000e+02 +/- 0.000000e+00)
    number density: 1.330422e-02 molec./A^3 (1.431806e-02 +/- 4.535870e-04)
    density:        9.720291e+02 kg/m^3     (1.046102e+03 +/- 3.313985e+01)

Average pressure tensor: 
-------------------------------------------------------------------------------
 5.5828e+01 -1.2996e+01  2.8867e+01 +/- 1.0611e+02 8.3250e+01 5.6620e+01 [bar]
-1.2996e+01 -8.3086e+00 -1.7513e+01 +/- 8.3250e+01 8.8776e+01 6.4667e+01 [bar]
 2.8867e+01 -1.7513e+01  4.1223e+01 +/- 5.6620e+01 6.4667e+01 7.0428e+01 [bar]
Ideal-gas pressure:   4.942058e+02 +/ 1.565613e+01 [bar]
Excess pressure:     -4.646251e+02 +/ 5.183060e+01 [bar]
Pressure:             2.958078e+01 +/ 6.108959e+01 [bar]

Total potential energy/kʙ  -2.089582e+05 (-2.255256e+05 +/- 7.935451e+03) [K]
-------------------------------------------------------------------------------
ExternalField-molecule
    Van der Waals/kʙ        0.000000e+00 ( 0.000000e+00 +/- 0.000000e+00) [K]
Framework-molecule
    Van der Waals/kʙ        0.000000e+00 ( 0.000000e+00 +/- 0.000000e+00) [K]
    Van der Waals (Tail)/kʙ 0.000000e+00 ( 0.000000e+00 +/- 0.000000e+00) [K]
    Coulombic Real/kʙ       0.000000e+00 ( 0.000000e+00 +/- 0.000000e+00) [K]
    Coulombic Fourier/kʙ    0.000000e+00 ( 0.000000e+00 +/- 0.000000e+00) [K]
Molecule-molecule
    Van der Waals/kʙ       -1.514487e+05 (-1.613289e+05 +/- 5.162115e+03) [K]
    Van der Waals (Tail)/kʙ-6.403087e+03 (-6.887607e+03 +/- 2.246535e+02) [K]
    Coulombic Real/kʙ      -4.031896e+04 (-4.592858e+04 +/- 2.283431e+03) [K]
    Coulombic Fourier/kʙ   -1.078738e+04 (-1.138049e+04 +/- 4.496925e+02) [K]
    Molecule Intra/kʙ       0.000000e+00 ( 0.000000e+00 +/- 0.000000e+00) [K]


Energy statistics             |  Energy [K]   | Recomputed [K]|  Drift [K]    |
===============================================================================
Total potential energy/kʙ     | -2.111192e+05 | -2.111192e+05 |  8.619706e-10 |
    external field VDW/kʙ     |  0.000000e+00 |  0.000000e+00 |  0.000000e+00 |
    external field Real/kʙ    |  0.000000e+00 |  0.000000e+00 |  0.000000e+00 |
    framework-molecule VDW/kʙ |  0.000000e+00 |  0.000000e+00 |  0.000000e+00 |
    framework-molecule Real/kʙ|  0.000000e+00 |  0.000000e+00 |  0.000000e+00 |
    molecule-molecule VDW/kʙ  | -1.529420e+05 | -1.529420e+05 |  8.750971e-10 |
    molecule-molecule Real/kʙ | -3.996972e+04 | -3.996972e+04 | -3.500388e-11 |
    Van der Waals (Tail)/kʙ   | -6.531088e+03 | -6.531088e+03 |  0.000000e+00 |
    Ewald Fourier/kʙ          |  1.011995e+04 |  1.011995e+04 |  2.187743e-11 |
    Ewald self/kʙ             | -3.334385e+06 | -3.334385e+06 |  0.000000e+00 |
    Ewald exclusion/kʙ        |  3.312589e+06 |  3.312589e+06 |  0.000000e+00 |
    intra VDW/kʙ              |  0.000000e+00 |  0.000000e+00 |  0.000000e+00 |
    intra Coulombic/kʙ        |  0.000000e+00 |  0.000000e+00 |  0.000000e+00 |
    polarization/kʙ           |  0.000000e+00 |  0.000000e+00 |  0.000000e+00 |
    dU/dlambda VDW/kʙ         |  0.000000e+00 |  0.000000e+00 |  0.000000e+00 |
    dU/dlambda Real/kʙ        |  0.000000e+00 |  0.000000e+00 |  0.000000e+00 |
    dU/dlambda Ewald/kʙ       |  0.000000e+00 |  0.000000e+00 |  0.000000e+00 |
-------------------------------------------------------------------------------


Monte-Carlo moves statistics
===============================================================================

    Volume change        all:                4957
    Volume change        total:              4957
    Volume change        constructed:        4957
    Volume change        accepted:           2990
    Volume change        fraction:       0.603187
    Volume change        max-change:     0.025000

Component 0 [CO2]
    Reinsertion (CBMC)   all:              248128
    Reinsertion (CBMC)   total:            248128
    Reinsertion (CBMC)   constructed:      224060
    Reinsertion (CBMC)   accepted:           5027
    Reinsertion (CBMC)   fraction:       0.020260
    Reinsertion (CBMC)   max-change:     0.000000

    Translation          all:              248281
    Translation          total:             82627      82583      83071
    Translation          constructed:       82627      82581      83071
    Translation          accepted:          47963      33883      37743
    Translation          fraction:       0.580476   0.410290   0.454346
    Translation          max-change:     0.529412   0.900000   0.777778

    Rotation             all:              248634
    Rotation             total:             83024      82887      82723
    Rotation             constructed:       83014      82885      82494
    Rotation             accepted:          33636      35367      27338
    Rotation             fraction:       0.405136   0.426689   0.330476
    Rotation             max-change:     0.948617   0.902778   1.272727



Production run counting of the MC moves summed over systems and components
===============================================================================

Volume change                          4957 (0.6609 [%])
Reinsertion (CBMC)                   248128 (33.0837 [%])
Translation                          248281 (33.1041 [%])
Rotation                             248634 (33.1512 [%])

Production count MC-steps:           750000 [-]
               All summed:           750000 [-]
               difference:                0 [-]


Production run CPU timings of the MC moves
===============================================================================

Component 0 CO2

Rotation                             34.602981 [s]
    Ewald                            18.577921 [s]
    ExternalField-Molecule            0.009361 [s]
    Framework-Molecule                0.007609 [s]
    Molecule-Molecule                14.726525 [s]
    Overhead                          1.281565 [s]

Reinsertion (CBMC)                  118.062390 [s]
    Ewald                            16.833036 [s]
    NonEwald                        100.959482 [s]
    Overhead                          0.269872 [s]

Translation                          34.857210 [s]
    Ewald                            18.568827 [s]
    ExternalField-Molecule            0.008092 [s]
    Framework-Molecule                0.013025 [s]
    Molecule-Molecule                14.781059 [s]
    Overhead                          1.486207 [s]



Volume change                         22.877451 [s]
    Ewald                             10.896395 [s]
    NonEwald                          11.181689 [s]
    Tail                               0.633678 [s]

Property sampling                     0.260617 [s]
Energy/pressure sampling:             5.129278 [s]


Production run CPU timings of the MC moves summed over systems and components
===============================================================================


Translation                          34.857210 [s]
    Ewald                            18.568827 [s]
    ExternalField-Molecule            0.008092 [s]
    Framework-Molecule                0.013025 [s]
    Molecule-Molecule                14.781059 [s]
    Overhead                          1.486207 [s]

Rotation                             34.602981 [s]
    Ewald                            18.577921 [s]
    ExternalField-Molecule            0.009361 [s]
    Framework-Molecule                0.007609 [s]
    Molecule-Molecule                14.726525 [s]
    Overhead                          1.281565 [s]

Volume change                        22.877451 [s]
    Ewald                            10.896395 [s]
    NonEwald                         11.181689 [s]
    Tail                              0.633678 [s]
    Overhead                          0.165689 [s]

Reinsertion (CBMC)                  118.062390 [s]
    Ewald                            16.833036 [s]
    NonEwald                        100.959482 [s]
    Overhead                          0.269872 [s]

Property sampling:                    0.260617 [s]
Energy/pressure sampling:             5.129278 [s]

Production simulation time:         216.429733 [s]
                All summed:         215.789927 [s]
                  Overhead:           0.639806 [s]


Initalization simulation time:       40.134361 [s]
Equilibration simulation time:        0.000000 [s]
Production simulation time:         216.429733 [s]
Total simulation time:              256.564094 [s]


Energy averages and statistics:
===============================================================================

Framework-molecule energy:
-------------------------------------------------------------------------------



Framework-molecule energy contributions per energy type:
-------------------------------------------------------------------------------



Inter-molecular energy:
-------------------------------------------------------------------------------

    Inter-molecular energy/kʙ 0-0 [CO2-CO2]:
    ---------------------------------------------------------------------------
        Block[  0] -2.270111e+05
        Block[  1] -2.218863e+05
        Block[  2] -2.360124e+05
        Block[  3] -2.208672e+05
        Block[  4] -2.209815e+05
        -----------------------------------------------------------------------
        Average  -2.253517e+05 +/-  8.036541e+03 [K]



Inter-molecular energy contributions per energy type:
-------------------------------------------------------------------------------

    Van der Waals energy/kʙ 0-0 [CO2-CO2]:
    ---------------------------------------------------------------------------
        Block[  0] -1.617091e+05
        Block[  1] -1.598898e+05
        Block[  2] -1.682587e+05
        Block[  3] -1.582913e+05
        Block[  4] -1.578100e+05
        -----------------------------------------------------------------------
        Average  -1.611918e+05 +/-  5.258053e+03 [K]

    VDW Tail-Correction energy/kʙ 0-0 [CO2-CO2]:
    ---------------------------------------------------------------------------
        Block[  0] -6.939265e+03
        Block[  1] -6.833483e+03
        Block[  2] -7.170641e+03
        Block[  3] -6.702438e+03
        Block[  4] -6.770875e+03
        -----------------------------------------------------------------------
        Average  -6.883340e+03 +/-  2.268256e+02 [K]

    Coulomb Real energy/kʙ 0-0 [CO2-CO2]:
    ---------------------------------------------------------------------------
        Block[  0] -4.682746e+04
        Block[  1] -4.400985e+04
        Block[  2] -4.863917e+04
        Block[  3] -4.475953e+04
        Block[  4] -4.527362e+04
        -----------------------------------------------------------------------
        Average  -4.590192e+04 +/-  2.291580e+03 [K]

    Coulomb Fourier energy/kʙ 0-0 [CO2-CO2]:
    ---------------------------------------------------------------------------
        Block[  0] -1.153529e+04
        Block[  1] -1.115323e+04
        Block[  2] -1.194387e+04
        Block[  3] -1.111390e+04
        Block[  4] -1.112705e+04
        -----------------------------------------------------------------------
        Average  -1.137467e+04 +/-  4.511076e+02 [K]


Total energy/kʙ
-------------------------------------------------------------------------------
    Block[  0] -2.270111e+05
    Block[  1] -2.218863e+05
    Block[  2] -2.360124e+05
    Block[  3] -2.208672e+05
    Block[  4] -2.209815e+05
    ---------------------------------------------------------------------------
    Average  -2.253517e+05 +/-  8.036541e+03 [K]

Pressure averages and statistics:
===============================================================================

Average pressure tensor: 
-------------------------------------------------------------------------------
 5.1686e+01 -1.2176e+01  2.8344e+01 +/- 9.6047e+01 7.6961e+01 5.6308e+01 [bar]
-1.2176e+01 -1.9827e+00 -1.9468e+01 +/- 7.6961e+01 8.6654e+01 5.8709e+01 [bar]
 2.8344e+01 -1.9468e+01  4.0412e+01 +/- 5.6308e+01 5.8709e+01 6.7742e+01 [bar]

    Block[  0]  4.972674e+07
    Block[  1]  4.903991e+07
    Block[  2]  5.142056e+07
    Block[  3]  4.817246e+07
    Block[  4]  4.855661e+07
    ---------------------------------------------------------------------------
    Ideal gas pressure   4.938326e+07 +/-  9.556665e-02 [Pa]
                         4.938326e+02 +/-  1.586923e+01 [bar]


    Block[  0] -4.008080e+07
    Block[  1] -4.897036e+07
    Block[  2] -4.564986e+07
    Block[  3] -5.115771e+07
    Block[  4] -4.603845e+07
    ---------------------------------------------------------------------------
    Excess pressure  -4.637943e+07 +/-  5.188455e+06 [Pa]
                     -4.637943e+02 +/-  5.188455e+01 [bar]


    Block[  0]  9.645940e+06
    Block[  1]  6.955097e+04
    Block[  2]  5.770701e+06
    Block[  3] -2.985249e+06
    Block[  4]  2.518161e+06
    ---------------------------------------------------------------------------
    Pressure average   3.003821e+06 +/-  6.097354e+06 [Pa]
                       3.003821e+01 +/-  6.097354e+01 [bar]


Enthalpy of adsorption
===============================================================================

No fluctuating components present.


Densities
===============================================================================

Component 0 (CO2)
    Block[  0] 150
    Block[  1] 150
    Block[  2] 150
    Block[  3] 150
    Block[  4] 150
    -----------------------------------------------------------------------
    Density average   1.500000e+02 +/-  0.000000e+00 [molecules]
    Density average   1.430724e-02 +/-  4.597609e-04 [molec/A^3]
    Density average   1.045312e+03 +/-  3.359092e+01 [kg.m⁻³]

