Compiler and run-time data
===============================================================================
RASPA 3.0.4

Random seed: 3430131436

Compiled as a 64-bits application
Compiler: gcc Ubuntu Clang 18.1.3 (1ubuntu1)
Compile Date = Mar 15 2025, Compile Time = 19:39:45

2025-06-02 13:48:15.164918
Simulation started on Mon, Jun 02
The start time was 13:48:00

Hostname:    c061
OS type:     Linux on x86_64
OS release:  6.8.0-58-generic
OS version:  #60-Ubuntu SMP PREEMPT_DYNAMIC Fri Mar 14 18:29:48 UTC 2025


Mutual consistent basic set of units:
===============================================================================

Unit of temperature: 1 [K]
Unit of length:      1e-10 [m]
Unit of time:        1e-12 [s]
Unit of mass:        1.6605402e-27 [kg]
Unit of charge:      1.60217733e-19 [C/particle]


Boltzmann constant (internal units):          0.8314464919307584 [-]
represents conversion from energy (internal units) to temperature (in Kelvin)

Derived units and their conversion factors:
===============================================================================

Unit of energy:                           1.6605402000000002e-23 [J]
Unit of energy:                           10.000008872307538 [J.mol⁻¹]
Unit of velocity:                         100 [m.s⁻¹]
Unit of force:                            1.6605402000000002e-13 [N]
Unit of diffusion:                        1.0000000000000002e-08 [m².s⁻¹]
Unit of acceleration:                     1.0000000000000002e-08 [m².s⁻¹]
Unit of torque:                           1.6605402000000002e-23 [N.m]
Unit of pressure:                         16605402 [Pa]
Unit of volume:                           1e-30 [m³]
Unit of density:                          1660.5402 [kg.m⁻³]
Unit of dynamic viscosity:                1.6605401999999997e-05 [N.s.m⁻²]
Unit of enthalpy:                         1.6605402000000002e-23 [J]
Unit of polarizability:                   1.5458657349975198e-35 [-]
Unit of Coulomb potential:                167101.08000665612 [K]
Unit of dielectric constant:              1.5458657349975193e-05 [s².C².kg⁻¹.m⁻³]
Unit of dipole moment:                    1.60217733e-29 [C.m]
Unit of Debye:                            4.803206799099162 [C.m]
Unit of electric potential:               0.00010364272224473431 [V]
Unit of electric field:                   1036427.222447343 [V.m⁻¹]
Unit of isothermal compressibility:       6.02213665167516e-08 [Pa⁻¹]
Unit of heat capacity:                    10.000008872307538 [J.mol⁻¹.K⁻¹]
Unit of volumetric expansion coefficient: 1 [K⁻¹]


Internal conversion factors:
===============================================================================

Energy (internal units) to Kelvin:      1.202724284692786 [-]
Kelvin to energy (internal units):      0.8314457542157567 [-]


System definitions
===============================================================================

Temperature:          250 [K]
Beta:                 0.0048108928702210625 [-]
Pressure:             1e+07 [Pa]
Helium void fraction: 1 [-]

Box:      30.00000   0.00000   0.00000
           0.00000  30.00000   0.00000
           0.00000   0.00000  30.00000
Lengths:  30.00000  30.00000  30.00000
Angles:   90.00000  90.00000  90.00000
Rectangular boundary conditions



Property measurement settings
===============================================================================




Pseudo-atoms
===============================================================================

  0 - C_co2    framework-atom: false
  1 - O_co2    framework-atom: false

  0 - C_co2    mass: 12.00000, charge:  0.70000
  1 - O_co2    mass: 15.99940, charge: -0.35000

  0 - C_co2    polarizability:  0.00000
  1 - O_co2    polarizability:  0.00000

  0 - J. J. Potoff et al., AIChE J. 2001, 47, 1676–1682.
  1 - J. J. Potoff et al., AIChE J. 2001, 47, 1676–1682.

Force field status
===============================================================================

Cutoff Framework-Molecule VDW:  10.00000 [Å]
Cutoff Molecule-Molecule VDW:   10.00000 [Å]
Cutoff Coulomb:                 10.00000 [Å]

Overlap-criteria VDW:           1.000000e+05 [K]

C_co2    - C_co2    Lennard-Jones p₀/kʙ:  27.00000 [K], p₁:  2.80000 [Å]
                                  shift:   0.00000 [K], tailcorrections: true
C_co2    - O_co2    Lennard-Jones p₀/kʙ:  46.18441 [K], p₁:  2.92500 [Å]
                                  shift:   0.00000 [K], tailcorrections: true
O_co2    - O_co2    Lennard-Jones p₀/kʙ:  79.00000 [K], p₁:  3.05000 [Å]
                                  shift:   0.00000 [K], tailcorrections: true

Ewald precision: 1e-06
Ewald alpha: 0.32079885109097883
Ewald k-vectors: 10 10 10


Component definitions
===============================================================================

Component 0 [CO2]

    Type: Adsorbate

    Critical temperature:  304.1282 [K]
    Critical pressure:     7377300 [Pa]
    Acentric factor:       0.22394 [-]

    Mol-fraction:                 1 [-]
    Swappable:                   false

    Mass:                         43.9988 [-]
    Bulk fluid density:           0 [-]
    Compressibility:              0 [-]
    Excess molecules:             0 [-]

    Number Of Atoms:    3
    CBMC starting bead: 0
      0: O_co2  position  0.00000 -0.00000  1.16000, charge -0.35000
      1: C_co2  position  0.00000 -0.00000  0.00000, charge  0.70000
      2: O_co2  position  0.00000 -0.00000 -1.16000, charge -0.35000
    Diagonalized inertia-vector:      43.05758528 43.05758528 0.00000000
    Translational degrees of freedom: 3
    Rotational degrees of freedom:    2
    Shape of the molecule is: 'Linear'
    Net-charge:        0.00000000 [e]

    Move probabilities:
    Translation:                   0.331126 [-]
    Random translation:            0.000000 [-]
    Rotation:                      0.331126 [-]
    Random rotation:               0.000000 [-]
    Volume change:                 0.006623 [-]
    Reinsertion (CBMC):            0.331126 [-]
    Identity change (CBMC):        0.000000 [-]
    Swap:                          0.000000 [-]
    Swap (CBMC):                   0.000000 [-]
    Swap (CFCMC):                  0.000000 [-]
    Swap (CB/CFCMC):               0.000000 [-]
    Gibbs volume:                  0.000000 [-]
    Gibbs swap (CBMC):             0.000000 [-]
    Gibbs swap (CFCMC):            0.000000 [-]
    Widom:                         0.000000 [-]
    Widom (CFCMC):                 0.000000 [-]
    Widom (CB/CFCMC):              0.000000 [-]
    Parallel tempering:            0.000000 [-]
    Hybrid MC:                     0.000000 [-]

    number of blocking-pockets: 0

    number of bonds: 0





Number of pseudo-atoms
===============================================================================

Component   0 (CO2)
-------------------------------------------------------------------------------
    index   0 (C_co2): 250 atoms
    index   1 (O_co2): 500 atoms

Total number of pseudo-atoms:
-------------------------------------------------------------------------------
    index   0 (C_co2): 250 atoms
    index   1 (O_co2): 500 atoms




Energy status Recomputed from scratch
===============================================================================

Total potential energy/kʙ       -5.911953e+04 [K]
    external field VDW/kʙ        0.000000e+00 [K]
    external field Real/kʙ       0.000000e+00 [K]
    framework-molecule VDW/kʙ    0.000000e+00 [K]
    framework-molecule Real/kʙ   0.000000e+00 [K]
    molecule-molecule VDW/kʙ    -2.933397e+04 [K]
    molecule-molecule Real/kʙ   -1.727783e+04 [K]
    Van der Waals (Tail)/kʙ     -7.427197e+03 [K]
    Ewald Fourier/kʙ             3.124661e+04 [K]
    Ewald self/kʙ               -5.557308e+06 [K]
    Ewald exclusion/kʙ           5.520981e+06 [K]
    intra VDW/kʙ                 0.000000e+00 [K]
    intra Coulombic/kʙ           0.000000e+00 [K]
    polarization/kʙ              0.000000e+00 [K]
    dU/dlambda VDW/kʙ            0.000000e+00 [K]
    dU/dlambda Real/kʙ           0.000000e+00 [K]
    dU/dlambda Ewald/kʙ          0.000000e+00 [K]





Initialization: Current cycle: 0 out of 1000
===============================================================================

Box:      31.58259   0.00000   0.00000
           0.00000  31.58259   0.00000
           0.00000   0.00000  31.58259
Lengths:  31.58259  31.58259  31.58259
Angles:   90.00000  90.00000  90.00000
Rectangular boundary conditions

net charge:   0.00000000

component   0 (CO2) lambda:  0 occupancy:  1 (1.000000)
    net charge:   0.00000000 [e]

Amount of molecules per component :
-------------------------------------------------------------------------------
Component 0 (CO2)
    molecules:         2.500000e+02 molecules
    number density:    7.935910e-03 molec/A^3
    density:           5.798111e+02 kg/m^3

Total potential energy/kʙ       -1.683262e+05 [K]
-------------------------------------------------------------------------------
    external field VDW/kʙ        0.000000e+00 [K]
    external field Real/kʙ       0.000000e+00 [K]
    framework-molecule VDW/kʙ    0.000000e+00 [K]
    framework-molecule Real/kʙ   0.000000e+00 [K]
    molecule-molecule VDW/kʙ    -1.364730e+05 [K]
    molecule-molecule Real/kʙ   -1.886298e+04 [K]
    Van der Waals (Tail)/kʙ     -6.365689e+03 [K]
    Ewald Fourier/kʙ             2.970266e+04 [K]
    Ewald self/kʙ               -5.557308e+06 [K]
    Ewald exclusion/kʙ           5.520981e+06 [K]
    intra VDW/kʙ                 0.000000e+00 [K]
    intra Coulombic/kʙ           0.000000e+00 [K]
    polarization/kʙ              0.000000e+00 [K]
    dU/dlambda VDW/kʙ            0.000000e+00 [K]
    dU/dlambda Real/kʙ           0.000000e+00 [K]
    dU/dlambda Ewald/kʙ          0.000000e+00 [K]


Initialization: Current cycle: 100 out of 1000
===============================================================================

Box:      28.55957   0.00000   0.00000
           0.00000  28.55957   0.00000
           0.00000   0.00000  28.55957
Lengths:  28.55957  28.55957  28.55957
Angles:   90.00000  90.00000  90.00000
Rectangular boundary conditions

net charge:   0.00000000

component   0 (CO2) lambda:  0 occupancy:  1 (1.000000)
    net charge:   0.00000000 [e]

Amount of molecules per component :
-------------------------------------------------------------------------------
Component 0 (CO2)
    molecules:         2.500000e+02 molecules
    number density:    1.073210e-02 molec/A^3
    density:           7.841058e+02 kg/m^3

Total potential energy/kʙ       -2.838476e+05 [K]
-------------------------------------------------------------------------------
    external field VDW/kʙ        0.000000e+00 [K]
    external field Real/kʙ       0.000000e+00 [K]
    framework-molecule VDW/kʙ    0.000000e+00 [K]
    framework-molecule Real/kʙ   0.000000e+00 [K]
    molecule-molecule VDW/kʙ    -1.994349e+05 [K]
    molecule-molecule Real/kʙ   -6.134811e+04 [K]
    Van der Waals (Tail)/kʙ     -8.608619e+03 [K]
    Ewald Fourier/kʙ             2.187115e+04 [K]
    Ewald self/kʙ               -5.557308e+06 [K]
    Ewald exclusion/kʙ           5.520981e+06 [K]
    intra VDW/kʙ                 0.000000e+00 [K]
    intra Coulombic/kʙ           0.000000e+00 [K]
    polarization/kʙ              0.000000e+00 [K]
    dU/dlambda VDW/kʙ            0.000000e+00 [K]
    dU/dlambda Real/kʙ           0.000000e+00 [K]
    dU/dlambda Ewald/kʙ          0.000000e+00 [K]


Initialization: Current cycle: 200 out of 1000
===============================================================================

Box:      27.36036   0.00000   0.00000
           0.00000  27.36036   0.00000
           0.00000   0.00000  27.36036
Lengths:  27.36036  27.36036  27.36036
Angles:   90.00000  90.00000  90.00000
Rectangular boundary conditions

net charge:   0.00000000

component   0 (CO2) lambda:  0 occupancy:  1 (1.000000)
    net charge:   0.00000000 [e]

Amount of molecules per component :
-------------------------------------------------------------------------------
Component 0 (CO2)
    molecules:         2.500000e+02 molecules
    number density:    1.220603e-02 molec/A^3
    density:           8.917935e+02 kg/m^3

Total potential energy/kʙ       -3.186191e+05 [K]
-------------------------------------------------------------------------------
    external field VDW/kʙ        0.000000e+00 [K]
    external field Real/kʙ       0.000000e+00 [K]
    framework-molecule VDW/kʙ    0.000000e+00 [K]
    framework-molecule Real/kʙ   0.000000e+00 [K]
    molecule-molecule VDW/kʙ    -2.292294e+05 [K]
    molecule-molecule Real/kʙ   -6.298973e+04 [K]
    Van der Waals (Tail)/kʙ     -9.790912e+03 [K]
    Ewald Fourier/kʙ             1.971808e+04 [K]
    Ewald self/kʙ               -5.557308e+06 [K]
    Ewald exclusion/kʙ           5.520981e+06 [K]
    intra VDW/kʙ                 0.000000e+00 [K]
    intra Coulombic/kʙ           0.000000e+00 [K]
    polarization/kʙ              0.000000e+00 [K]
    dU/dlambda VDW/kʙ            0.000000e+00 [K]
    dU/dlambda Real/kʙ           0.000000e+00 [K]
    dU/dlambda Ewald/kʙ          0.000000e+00 [K]


Initialization: Current cycle: 300 out of 1000
===============================================================================

Box:      26.37272   0.00000   0.00000
           0.00000  26.37272   0.00000
           0.00000   0.00000  26.37272
Lengths:  26.37272  26.37272  26.37272
Angles:   90.00000  90.00000  90.00000
Rectangular boundary conditions

net charge:   0.00000000

component   0 (CO2) lambda:  0 occupancy:  1 (1.000000)
    net charge:   0.00000000 [e]

Amount of molecules per component :
-------------------------------------------------------------------------------
Component 0 (CO2)
    molecules:         2.500000e+02 molecules
    number density:    1.362935e-02 molec/A^3
    density:           9.957834e+02 kg/m^3

Total potential energy/kʙ       -3.608939e+05 [K]
-------------------------------------------------------------------------------
    external field VDW/kʙ        0.000000e+00 [K]
    external field Real/kʙ       0.000000e+00 [K]
    framework-molecule VDW/kʙ    0.000000e+00 [K]
    framework-molecule Real/kʙ   0.000000e+00 [K]
    molecule-molecule VDW/kʙ    -2.513106e+05 [K]
    molecule-molecule Real/kʙ   -7.948423e+04 [K]
    Van der Waals (Tail)/kʙ     -1.093261e+04 [K]
    Ewald Fourier/kʙ             1.716067e+04 [K]
    Ewald self/kʙ               -5.557308e+06 [K]
    Ewald exclusion/kʙ           5.520981e+06 [K]
    intra VDW/kʙ                 0.000000e+00 [K]
    intra Coulombic/kʙ           0.000000e+00 [K]
    polarization/kʙ              0.000000e+00 [K]
    dU/dlambda VDW/kʙ            0.000000e+00 [K]
    dU/dlambda Real/kʙ           0.000000e+00 [K]
    dU/dlambda Ewald/kʙ          0.000000e+00 [K]


Initialization: Current cycle: 400 out of 1000
===============================================================================

Box:      26.59557   0.00000   0.00000
           0.00000  26.59557   0.00000
           0.00000   0.00000  26.59557
Lengths:  26.59557  26.59557  26.59557
Angles:   90.00000  90.00000  90.00000
Rectangular boundary conditions

net charge:   0.00000000

component   0 (CO2) lambda:  0 occupancy:  1 (1.000000)
    net charge:   0.00000000 [e]

Amount of molecules per component :
-------------------------------------------------------------------------------
Component 0 (CO2)
    molecules:         2.500000e+02 molecules
    number density:    1.328961e-02 molec/A^3
    density:           9.709613e+02 kg/m^3

Total potential energy/kʙ       -3.551438e+05 [K]
-------------------------------------------------------------------------------
    external field VDW/kʙ        0.000000e+00 [K]
    external field Real/kʙ       0.000000e+00 [K]
    framework-molecule VDW/kʙ    0.000000e+00 [K]
    framework-molecule Real/kʙ   0.000000e+00 [K]
    molecule-molecule VDW/kʙ    -2.528557e+05 [K]
    molecule-molecule Real/kʙ   -7.278621e+04 [K]
    Van der Waals (Tail)/kʙ     -1.066009e+04 [K]
    Ewald Fourier/kʙ             1.748531e+04 [K]
    Ewald self/kʙ               -5.557308e+06 [K]
    Ewald exclusion/kʙ           5.520981e+06 [K]
    intra VDW/kʙ                 0.000000e+00 [K]
    intra Coulombic/kʙ           0.000000e+00 [K]
    polarization/kʙ              0.000000e+00 [K]
    dU/dlambda VDW/kʙ            0.000000e+00 [K]
    dU/dlambda Real/kʙ           0.000000e+00 [K]
    dU/dlambda Ewald/kʙ          0.000000e+00 [K]


Initialization: Current cycle: 500 out of 1000
===============================================================================

Box:      26.06063   0.00000   0.00000
           0.00000  26.06063   0.00000
           0.00000   0.00000  26.06063
Lengths:  26.06063  26.06063  26.06063
Angles:   90.00000  90.00000  90.00000
Rectangular boundary conditions

net charge:   0.00000000

component   0 (CO2) lambda:  0 occupancy:  1 (1.000000)
    net charge:   0.00000000 [e]

Amount of molecules per component :
-------------------------------------------------------------------------------
Component 0 (CO2)
    molecules:         2.500000e+02 molecules
    number density:    1.412489e-02 molec/A^3
    density:           1.031989e+03 kg/m^3

Total potential energy/kʙ       -3.709518e+05 [K]
-------------------------------------------------------------------------------
    external field VDW/kʙ        0.000000e+00 [K]
    external field Real/kʙ       0.000000e+00 [K]
    framework-molecule VDW/kʙ    0.000000e+00 [K]
    framework-molecule Real/kʙ   0.000000e+00 [K]
    molecule-molecule VDW/kʙ    -2.672649e+05 [K]
    molecule-molecule Real/kʙ   -7.511680e+04 [K]
    Van der Waals (Tail)/kʙ     -1.133010e+04 [K]
    Ewald Fourier/kʙ             1.908719e+04 [K]
    Ewald self/kʙ               -5.557308e+06 [K]
    Ewald exclusion/kʙ           5.520981e+06 [K]
    intra VDW/kʙ                 0.000000e+00 [K]
    intra Coulombic/kʙ           0.000000e+00 [K]
    polarization/kʙ              0.000000e+00 [K]
    dU/dlambda VDW/kʙ            0.000000e+00 [K]
    dU/dlambda Real/kʙ           0.000000e+00 [K]
    dU/dlambda Ewald/kʙ          0.000000e+00 [K]


Initialization: Current cycle: 600 out of 1000
===============================================================================

Box:      26.14019   0.00000   0.00000
           0.00000  26.14019   0.00000
           0.00000   0.00000  26.14019
Lengths:  26.14019  26.14019  26.14019
Angles:   90.00000  90.00000  90.00000
Rectangular boundary conditions

net charge:   0.00000000

component   0 (CO2) lambda:  0 occupancy:  1 (1.000000)
    net charge:   0.00000000 [e]

Amount of molecules per component :
-------------------------------------------------------------------------------
Component 0 (CO2)
    molecules:         2.500000e+02 molecules
    number density:    1.399632e-02 molec/A^3
    density:           1.022595e+03 kg/m^3

Total potential energy/kʙ       -3.612337e+05 [K]
-------------------------------------------------------------------------------
    external field VDW/kʙ        0.000000e+00 [K]
    external field Real/kʙ       0.000000e+00 [K]
    framework-molecule VDW/kʙ    0.000000e+00 [K]
    framework-molecule Real/kʙ   0.000000e+00 [K]
    molecule-molecule VDW/kʙ    -2.558151e+05 [K]
    molecule-molecule Real/kʙ   -7.379336e+04 [K]
    Van der Waals (Tail)/kʙ     -1.122697e+04 [K]
    Ewald Fourier/kʙ             1.592893e+04 [K]
    Ewald self/kʙ               -5.557308e+06 [K]
    Ewald exclusion/kʙ           5.520981e+06 [K]
    intra VDW/kʙ                 0.000000e+00 [K]
    intra Coulombic/kʙ           0.000000e+00 [K]
    polarization/kʙ              0.000000e+00 [K]
    dU/dlambda VDW/kʙ            0.000000e+00 [K]
    dU/dlambda Real/kʙ           0.000000e+00 [K]
    dU/dlambda Ewald/kʙ          0.000000e+00 [K]


Initialization: Current cycle: 700 out of 1000
===============================================================================

Box:      25.93749   0.00000   0.00000
           0.00000  25.93749   0.00000
           0.00000   0.00000  25.93749
Lengths:  25.93749  25.93749  25.93749
Angles:   90.00000  90.00000  90.00000
Rectangular boundary conditions

net charge:   0.00000000

component   0 (CO2) lambda:  0 occupancy:  1 (1.000000)
    net charge:   0.00000000 [e]

Amount of molecules per component :
-------------------------------------------------------------------------------
Component 0 (CO2)
    molecules:         2.500000e+02 molecules
    number density:    1.432703e-02 molec/A^3
    density:           1.046757e+03 kg/m^3

Total potential energy/kʙ       -3.797248e+05 [K]
-------------------------------------------------------------------------------
    external field VDW/kʙ        0.000000e+00 [K]
    external field Real/kʙ       0.000000e+00 [K]
    framework-molecule VDW/kʙ    0.000000e+00 [K]
    framework-molecule Real/kʙ   0.000000e+00 [K]
    molecule-molecule VDW/kʙ    -2.746023e+05 [K]
    molecule-molecule Real/kʙ   -7.349644e+04 [K]
    Van der Waals (Tail)/kʙ     -1.149224e+04 [K]
    Ewald Fourier/kʙ             1.619336e+04 [K]
    Ewald self/kʙ               -5.557308e+06 [K]
    Ewald exclusion/kʙ           5.520981e+06 [K]
    intra VDW/kʙ                 0.000000e+00 [K]
    intra Coulombic/kʙ           0.000000e+00 [K]
    polarization/kʙ              0.000000e+00 [K]
    dU/dlambda VDW/kʙ            0.000000e+00 [K]
    dU/dlambda Real/kʙ           0.000000e+00 [K]
    dU/dlambda Ewald/kʙ          0.000000e+00 [K]


Initialization: Current cycle: 800 out of 1000
===============================================================================

Box:      25.72116   0.00000   0.00000
           0.00000  25.72116   0.00000
           0.00000   0.00000  25.72116
Lengths:  25.72116  25.72116  25.72116
Angles:   90.00000  90.00000  90.00000
Rectangular boundary conditions

net charge:   0.00000000

component   0 (CO2) lambda:  0 occupancy:  1 (1.000000)
    net charge:   0.00000000 [e]

Amount of molecules per component :
-------------------------------------------------------------------------------
Component 0 (CO2)
    molecules:         2.500000e+02 molecules
    number density:    1.469157e-02 molec/A^3
    density:           1.073391e+03 kg/m^3

Total potential energy/kʙ       -3.924764e+05 [K]
-------------------------------------------------------------------------------
    external field VDW/kʙ        0.000000e+00 [K]
    external field Real/kʙ       0.000000e+00 [K]
    framework-molecule VDW/kʙ    0.000000e+00 [K]
    framework-molecule Real/kʙ   0.000000e+00 [K]
    molecule-molecule VDW/kʙ    -2.803473e+05 [K]
    molecule-molecule Real/kʙ   -8.068339e+04 [K]
    Van der Waals (Tail)/kʙ     -1.178466e+04 [K]
    Ewald Fourier/kʙ             1.666601e+04 [K]
    Ewald self/kʙ               -5.557308e+06 [K]
    Ewald exclusion/kʙ           5.520981e+06 [K]
    intra VDW/kʙ                 0.000000e+00 [K]
    intra Coulombic/kʙ           0.000000e+00 [K]
    polarization/kʙ              0.000000e+00 [K]
    dU/dlambda VDW/kʙ            0.000000e+00 [K]
    dU/dlambda Real/kʙ           0.000000e+00 [K]
    dU/dlambda Ewald/kʙ          0.000000e+00 [K]


Initialization: Current cycle: 900 out of 1000
===============================================================================

Box:      25.94949   0.00000   0.00000
           0.00000  25.94949   0.00000
           0.00000   0.00000  25.94949
Lengths:  25.94949  25.94949  25.94949
Angles:   90.00000  90.00000  90.00000
Rectangular boundary conditions

net charge:   0.00000000

component   0 (CO2) lambda:  0 occupancy:  1 (1.000000)
    net charge:   0.00000000 [e]

Amount of molecules per component :
-------------------------------------------------------------------------------
Component 0 (CO2)
    molecules:         2.500000e+02 molecules
    number density:    1.430717e-02 molec/A^3
    density:           1.045306e+03 kg/m^3

Total potential energy/kʙ       -3.827177e+05 [K]
-------------------------------------------------------------------------------
    external field VDW/kʙ        0.000000e+00 [K]
    external field Real/kʙ       0.000000e+00 [K]
    framework-molecule VDW/kʙ    0.000000e+00 [K]
    framework-molecule Real/kʙ   0.000000e+00 [K]
    molecule-molecule VDW/kʙ    -2.684917e+05 [K]
    molecule-molecule Real/kʙ   -8.245420e+04 [K]
    Van der Waals (Tail)/kʙ     -1.147631e+04 [K]
    Ewald Fourier/kʙ             1.603159e+04 [K]
    Ewald self/kʙ               -5.557308e+06 [K]
    Ewald exclusion/kʙ           5.520981e+06 [K]
    intra VDW/kʙ                 0.000000e+00 [K]
    intra Coulombic/kʙ           0.000000e+00 [K]
    polarization/kʙ              0.000000e+00 [K]
    dU/dlambda VDW/kʙ            0.000000e+00 [K]
    dU/dlambda Real/kʙ           0.000000e+00 [K]
    dU/dlambda Ewald/kʙ          0.000000e+00 [K]


Current cycle: 0 out of 5000
===============================================================================

Box:      25.68381   0.00000   0.00000  Average:  25.68381   0.00000   0.00000
           0.00000  25.68381   0.00000             0.00000  25.68381   0.00000
           0.00000   0.00000  25.68381             0.00000   0.00000  25.68381
Lengths:  25.68381  25.68381  25.68381  Average:  25.68381  25.68381  25.68381
Angles:   90.00000  90.00000  90.00000  Average:  90.00000  90.00000  90.00000
Rectangular boundary conditions

net charge:   0.00000000

component 0 (CO2) lambda:  0 occupancy:  1 (1.000000)
    net charge:   0.00000000 [e]

Amount of molecules per component :
-------------------------------------------------------------------------------
Component 0 (CO2)
    molecules:      2.500000e+02 molecules  (2.500000e+02 +/- 0.000000e+00)
    number density: 1.475576e-02 molec./A^3 (1.475576e-02 +/- 0.000000e+00)
    density:        1.078081e+03 kg/m^3     (1.078081e+03 +/- 0.000000e+00)

Average pressure tensor: 
-------------------------------------------------------------------------------
 5.0931e+02  0.0000e+00  0.0000e+00 +/- 0.0000e+00 0.0000e+00 0.0000e+00 [bar]
 0.0000e+00  5.0931e+02  0.0000e+00 +/- 0.0000e+00 0.0000e+00 0.0000e+00 [bar]
 0.0000e+00  0.0000e+00  5.0931e+02 +/- 0.0000e+00 0.0000e+00 0.0000e+00 [bar]
Ideal-gas pressure:   5.093136e+02 +/ 0.000000e+00 [bar]
Excess pressure:      0.000000e+00 +/ 0.000000e+00 [bar]
Pressure:             5.093136e+02 +/ 0.000000e+00 [bar]

Total potential energy/kʙ  -3.944417e+05 (-3.944417e+05 +/- 0.000000e+00) [K]
-------------------------------------------------------------------------------
ExternalField-molecule
    Van der Waals/kʙ        0.000000e+00 ( 0.000000e+00 +/- 0.000000e+00) [K]
Framework-molecule
    Van der Waals/kʙ        0.000000e+00 ( 0.000000e+00 +/- 0.000000e+00) [K]
    Van der Waals (Tail)/kʙ 0.000000e+00 ( 0.000000e+00 +/- 0.000000e+00) [K]
    Coulombic Real/kʙ       0.000000e+00 ( 0.000000e+00 +/- 0.000000e+00) [K]
    Coulombic Fourier/kʙ    0.000000e+00 ( 0.000000e+00 +/- 0.000000e+00) [K]
Molecule-molecule
    Van der Waals/kʙ       -2.820380e+05 (-2.820380e+05 +/- 0.000000e+00) [K]
    Van der Waals (Tail)/kʙ-1.183615e+04 (-1.183615e+04 +/- 0.000000e+00) [K]
    Coulombic Real/kʙ      -8.088022e+04 (-8.088022e+04 +/- 0.000000e+00) [K]
    Coulombic Fourier/kʙ   -1.968731e+04 (-1.968731e+04 +/- 0.000000e+00) [K]
    Molecule Intra/kʙ       0.000000e+00 ( 0.000000e+00 +/- 0.000000e+00) [K]

Current cycle: 100 out of 5000
===============================================================================

Box:      25.57238   0.00000   0.00000  Average:  25.60005   0.00000   0.00000
           0.00000  25.57238   0.00000             0.00000  25.60005   0.00000
           0.00000   0.00000  25.57238             0.00000   0.00000  25.60005
Lengths:  25.57238  25.57238  25.57238  Average:  25.60005  25.60005  25.60005
Angles:   90.00000  90.00000  90.00000  Average:  90.00000  90.00000  90.00000
Rectangular boundary conditions

net charge:   0.00000000

component 0 (CO2) lambda:  0 occupancy:  1 (1.000000)
    net charge:   0.00000000 [e]

Amount of molecules per component :
-------------------------------------------------------------------------------
Component 0 (CO2)
    molecules:      2.500000e+02 molecules  (2.500000e+02 +/- 0.000000e+00)
    number density: 1.494950e-02 molec./A^3 (1.490266e-02 +/- 0.000000e+00)
    density:        1.092236e+03 kg/m^3     (1.088814e+03 +/- 0.000000e+00)

Average pressure tensor: 
-------------------------------------------------------------------------------
 3.6679e+01  3.6252e+01 -1.5496e+02 +/- 0.0000e+00 0.0000e+00 0.0000e+00 [bar]
 3.6252e+01 -1.2177e+02 -5.1940e+00 +/- 0.0000e+00 0.0000e+00 0.0000e+00 [bar]
-1.5496e+02 -5.1940e+00 -5.7407e+01 +/- 0.0000e+00 0.0000e+00 0.0000e+00 [bar]
Ideal-gas pressure:   5.143840e+02 +/ 0.000000e+00 [bar]
Excess pressure:     -5.618825e+02 +/ 0.000000e+00 [bar]
Pressure:            -4.749851e+01 +/ 0.000000e+00 [bar]

Total potential energy/kʙ  -3.928604e+05 (-3.945829e+05 +/- 0.000000e+00) [K]
-------------------------------------------------------------------------------
ExternalField-molecule
    Van der Waals/kʙ        0.000000e+00 ( 0.000000e+00 +/- 0.000000e+00) [K]
Framework-molecule
    Van der Waals/kʙ        0.000000e+00 ( 0.000000e+00 +/- 0.000000e+00) [K]
    Van der Waals (Tail)/kʙ 0.000000e+00 ( 0.000000e+00 +/- 0.000000e+00) [K]
    Coulombic Real/kʙ       0.000000e+00 ( 0.000000e+00 +/- 0.000000e+00) [K]
    Coulombic Fourier/kʙ    0.000000e+00 ( 0.000000e+00 +/- 0.000000e+00) [K]
Molecule-molecule
    Van der Waals/kʙ       -2.855160e+05 (-2.840082e+05 +/- 0.000000e+00) [K]
    Van der Waals (Tail)/kʙ-1.199155e+04 (-1.192640e+04 +/- 0.000000e+00) [K]
    Coulombic Real/kʙ      -7.610791e+04 (-7.912342e+04 +/- 0.000000e+00) [K]
    Coulombic Fourier/kʙ   -1.924486e+04 (-1.952491e+04 +/- 0.000000e+00) [K]
    Molecule Intra/kʙ       0.000000e+00 ( 0.000000e+00 +/- 0.000000e+00) [K]

Current cycle: 200 out of 5000
===============================================================================

Box:      25.62789   0.00000   0.00000  Average:  25.62113   0.00000   0.00000
           0.00000  25.62789   0.00000             0.00000  25.62113   0.00000
           0.00000   0.00000  25.62789             0.00000   0.00000  25.62113
Lengths:  25.62789  25.62789  25.62789  Average:  25.62113  25.62113  25.62113
Angles:   90.00000  90.00000  90.00000  Average:  90.00000  90.00000  90.00000
Rectangular boundary conditions

net charge:   0.00000000

component 0 (CO2) lambda:  0 occupancy:  1 (1.000000)
    net charge:   0.00000000 [e]

Amount of molecules per component :
-------------------------------------------------------------------------------
Component 0 (CO2)
    molecules:      2.500000e+02 molecules  (2.500000e+02 +/- 0.000000e+00)
    number density: 1.485256e-02 molec./A^3 (1.486571e-02 +/- 0.000000e+00)
    density:        1.085154e+03 kg/m^3     (1.086114e+03 +/- 0.000000e+00)

Average pressure tensor: 
-------------------------------------------------------------------------------
 8.0995e+01 -2.5698e+01 -1.5589e+01 +/- 0.0000e+00 0.0000e+00 0.0000e+00 [bar]
-2.5698e+01 -5.9302e+01 -4.3807e+01 +/- 0.0000e+00 0.0000e+00 0.0000e+00 [bar]
-1.5589e+01 -4.3807e+01  1.9079e+01 +/- 0.0000e+00 0.0000e+00 0.0000e+00 [bar]
Ideal-gas pressure:   5.131088e+02 +/ 0.000000e+00 [bar]
Excess pressure:     -4.995185e+02 +/ 0.000000e+00 [bar]
Pressure:             1.359027e+01 +/ 0.000000e+00 [bar]

Total potential energy/kʙ  -3.924117e+05 (-3.901832e+05 +/- 0.000000e+00) [K]
-------------------------------------------------------------------------------
ExternalField-molecule
    Van der Waals/kʙ        0.000000e+00 ( 0.000000e+00 +/- 0.000000e+00) [K]
Framework-molecule
    Van der Waals/kʙ        0.000000e+00 ( 0.000000e+00 +/- 0.000000e+00) [K]
    Van der Waals (Tail)/kʙ 0.000000e+00 ( 0.000000e+00 +/- 0.000000e+00) [K]
    Coulombic Real/kʙ       0.000000e+00 ( 0.000000e+00 +/- 0.000000e+00) [K]
    Coulombic Fourier/kʙ    0.000000e+00 ( 0.000000e+00 +/- 0.000000e+00) [K]
Molecule-molecule
    Van der Waals/kʙ       -2.792575e+05 (-2.822522e+05 +/- 0.000000e+00) [K]
    Van der Waals (Tail)/kʙ-1.191379e+04 (-1.190376e+04 +/- 0.000000e+00) [K]
    Coulombic Real/kʙ      -8.177155e+04 (-7.675591e+04 +/- 0.000000e+00) [K]
    Coulombic Fourier/kʙ   -1.946889e+04 (-1.927128e+04 +/- 0.000000e+00) [K]
    Molecule Intra/kʙ       0.000000e+00 ( 0.000000e+00 +/- 0.000000e+00) [K]

Current cycle: 300 out of 5000
===============================================================================

Box:      25.79135   0.00000   0.00000  Average:  25.64082   0.00000   0.00000
           0.00000  25.79135   0.00000             0.00000  25.64082   0.00000
           0.00000   0.00000  25.79135             0.00000   0.00000  25.64082
Lengths:  25.79135  25.79135  25.79135  Average:  25.64082  25.64082  25.64082
Angles:   90.00000  90.00000  90.00000  Average:  90.00000  90.00000  90.00000
Rectangular boundary conditions

net charge:   0.00000000

component 0 (CO2) lambda:  0 occupancy:  1 (1.000000)
    net charge:   0.00000000 [e]

Amount of molecules per component :
-------------------------------------------------------------------------------
Component 0 (CO2)
    molecules:      2.500000e+02 molecules  (2.500000e+02 +/- 0.000000e+00)
    number density: 1.457195e-02 molec./A^3 (1.483139e-02 +/- 0.000000e+00)
    density:        1.064652e+03 kg/m^3     (1.083607e+03 +/- 0.000000e+00)

Average pressure tensor: 
-------------------------------------------------------------------------------
 1.2915e+02  1.3154e+01  1.5159e+00 +/- 0.0000e+00 0.0000e+00 0.0000e+00 [bar]
 1.3154e+01  3.8794e+01 -6.4951e+01 +/- 0.0000e+00 0.0000e+00 0.0000e+00 [bar]
 1.5159e+00 -6.4951e+01  1.0832e+02 +/- 0.0000e+00 0.0000e+00 0.0000e+00 [bar]
Ideal-gas pressure:   5.119242e+02 +/ 0.000000e+00 [bar]
Excess pressure:     -4.198350e+02 +/ 0.000000e+00 [bar]
Pressure:             9.208928e+01 +/ 0.000000e+00 [bar]

Total potential energy/kʙ  -3.862884e+05 (-3.903057e+05 +/- 0.000000e+00) [K]
-------------------------------------------------------------------------------
ExternalField-molecule
    Van der Waals/kʙ        0.000000e+00 ( 0.000000e+00 +/- 0.000000e+00) [K]
Framework-molecule
    Van der Waals/kʙ        0.000000e+00 ( 0.000000e+00 +/- 0.000000e+00) [K]
    Van der Waals (Tail)/kʙ 0.000000e+00 ( 0.000000e+00 +/- 0.000000e+00) [K]
    Coulombic Real/kʙ       0.000000e+00 ( 0.000000e+00 +/- 0.000000e+00) [K]
    Coulombic Fourier/kʙ    0.000000e+00 ( 0.000000e+00 +/- 0.000000e+00) [K]
Molecule-molecule
    Van der Waals/kʙ       -2.726426e+05 (-2.801680e+05 +/- 0.000000e+00) [K]
    Van der Waals (Tail)/kʙ-1.168870e+04 (-1.188680e+04 +/- 0.000000e+00) [K]
    Coulombic Real/kʙ      -8.192135e+04 (-7.881513e+04 +/- 0.000000e+00) [K]
    Coulombic Fourier/kʙ   -2.003569e+04 (-1.943578e+04 +/- 0.000000e+00) [K]
    Molecule Intra/kʙ       0.000000e+00 ( 0.000000e+00 +/- 0.000000e+00) [K]

Current cycle: 400 out of 5000
===============================================================================

Box:      25.57281   0.00000   0.00000  Average:  25.67502   0.00000   0.00000
           0.00000  25.57281   0.00000             0.00000  25.67502   0.00000
           0.00000   0.00000  25.57281             0.00000   0.00000  25.67502
Lengths:  25.57281  25.57281  25.57281  Average:  25.67502  25.67502  25.67502
Angles:   90.00000  90.00000  90.00000  Average:  90.00000  90.00000  90.00000
Rectangular boundary conditions

net charge:   0.00000000

component 0 (CO2) lambda:  0 occupancy:  1 (1.000000)
    net charge:   0.00000000 [e]

Amount of molecules per component :
-------------------------------------------------------------------------------
Component 0 (CO2)
    molecules:      2.500000e+02 molecules  (2.500000e+02 +/- 0.000000e+00)
    number density: 1.494875e-02 molec./A^3 (1.477254e-02 +/- 0.000000e+00)
    density:        1.092181e+03 kg/m^3     (1.079307e+03 +/- 0.000000e+00)

Average pressure tensor: 
-------------------------------------------------------------------------------
 1.2459e+02  4.0392e+01  3.1776e+01 +/- 0.0000e+00 0.0000e+00 0.0000e+00 [bar]
 4.0392e+01  4.2104e+01 -6.4164e+01 +/- 0.0000e+00 0.0000e+00 0.0000e+00 [bar]
 3.1776e+01 -6.4164e+01  1.1492e+02 +/- 0.0000e+00 0.0000e+00 0.0000e+00 [bar]
Ideal-gas pressure:   5.098929e+02 +/ 0.000000e+00 [bar]
Excess pressure:     -4.160216e+02 +/ 0.000000e+00 [bar]
Pressure:             9.387126e+01 +/ 0.000000e+00 [bar]

Total potential energy/kʙ  -3.845625e+05 (-3.893820e+05 +/- 0.000000e+00) [K]
-------------------------------------------------------------------------------
ExternalField-molecule
    Van der Waals/kʙ        0.000000e+00 ( 0.000000e+00 +/- 0.000000e+00) [K]
Framework-molecule
    Van der Waals/kʙ        0.000000e+00 ( 0.000000e+00 +/- 0.000000e+00) [K]
    Van der Waals (Tail)/kʙ 0.000000e+00 ( 0.000000e+00 +/- 0.000000e+00) [K]
    Coulombic Real/kʙ       0.000000e+00 ( 0.000000e+00 +/- 0.000000e+00) [K]
    Coulombic Fourier/kʙ    0.000000e+00 ( 0.000000e+00 +/- 0.000000e+00) [K]
Molecule-molecule
    Van der Waals/kʙ       -2.741257e+05 (-2.784613e+05 +/- 0.000000e+00) [K]
    Van der Waals (Tail)/kʙ-1.199095e+04 (-1.184775e+04 +/- 0.000000e+00) [K]
    Coulombic Real/kʙ      -7.926203e+04 (-7.955750e+04 +/- 0.000000e+00) [K]
    Coulombic Fourier/kʙ   -1.918385e+04 (-1.951550e+04 +/- 0.000000e+00) [K]
    Molecule Intra/kʙ       0.000000e+00 ( 0.000000e+00 +/- 0.000000e+00) [K]

Current cycle: 500 out of 5000
===============================================================================

Box:      25.72345   0.00000   0.00000  Average:  25.68744   0.00000   0.00000
           0.00000  25.72345   0.00000             0.00000  25.68744   0.00000
           0.00000   0.00000  25.72345             0.00000   0.00000  25.68744
Lengths:  25.72345  25.72345  25.72345  Average:  25.68744  25.68744  25.68744
Angles:   90.00000  90.00000  90.00000  Average:  90.00000  90.00000  90.00000
Rectangular boundary conditions

net charge:   0.00000000

component 0 (CO2) lambda:  0 occupancy:  1 (1.000000)
    net charge:   0.00000000 [e]

Amount of molecules per component :
-------------------------------------------------------------------------------
Component 0 (CO2)
    molecules:      2.500000e+02 molecules  (2.500000e+02 +/- 0.000000e+00)
    number density: 1.468765e-02 molec./A^3 (1.475123e-02 +/- 0.000000e+00)
    density:        1.073105e+03 kg/m^3     (1.077750e+03 +/- 0.000000e+00)

Average pressure tensor: 
-------------------------------------------------------------------------------
 1.7345e+02  5.1660e+01  2.6904e+01 +/- 0.0000e+00 0.0000e+00 0.0000e+00 [bar]
 5.1660e+01  6.3880e+01 -8.6129e+01 +/- 0.0000e+00 0.0000e+00 0.0000e+00 [bar]
 2.6904e+01 -8.6129e+01  1.7546e+02 +/- 0.0000e+00 0.0000e+00 0.0000e+00 [bar]
Ideal-gas pressure:   5.091574e+02 +/ 0.000000e+00 [bar]
Excess pressure:     -3.715619e+02 +/ 0.000000e+00 [bar]
Pressure:             1.375955e+02 +/ 0.000000e+00 [bar]

Total potential energy/kʙ  -3.853476e+05 (-3.886651e+05 +/- 0.000000e+00) [K]
-------------------------------------------------------------------------------
ExternalField-molecule
    Van der Waals/kʙ        0.000000e+00 ( 0.000000e+00 +/- 0.000000e+00) [K]
Framework-molecule
    Van der Waals/kʙ        0.000000e+00 ( 0.000000e+00 +/- 0.000000e+00) [K]
    Van der Waals (Tail)/kʙ 0.000000e+00 ( 0.000000e+00 +/- 0.000000e+00) [K]
    Coulombic Real/kʙ       0.000000e+00 ( 0.000000e+00 +/- 0.000000e+00) [K]
    Coulombic Fourier/kʙ    0.000000e+00 ( 0.000000e+00 +/- 0.000000e+00) [K]
Molecule-molecule
    Van der Waals/kʙ       -2.740425e+05 (-2.775598e+05 +/- 0.000000e+00) [K]
    Van der Waals (Tail)/kʙ-1.178151e+04 (-1.184042e+04 +/- 0.000000e+00) [K]
    Coulombic Real/kʙ      -8.097125e+04 (-7.989486e+04 +/- 0.000000e+00) [K]
    Coulombic Fourier/kʙ   -1.855229e+04 (-1.937002e+04 +/- 0.000000e+00) [K]
    Molecule Intra/kʙ       0.000000e+00 ( 0.000000e+00 +/- 0.000000e+00) [K]

Current cycle: 600 out of 5000
===============================================================================

Box:      25.64415   0.00000   0.00000  Average:  25.68516   0.00000   0.00000
           0.00000  25.64415   0.00000             0.00000  25.68516   0.00000
           0.00000   0.00000  25.64415             0.00000   0.00000  25.68516
Lengths:  25.64415  25.64415  25.64415  Average:  25.68516  25.68516  25.68516
Angles:   90.00000  90.00000  90.00000  Average:  90.00000  90.00000  90.00000
Rectangular boundary conditions

net charge:   0.00000000

component 0 (CO2) lambda:  0 occupancy:  1 (1.000000)
    net charge:   0.00000000 [e]

Amount of molecules per component :
-------------------------------------------------------------------------------
Component 0 (CO2)
    molecules:      2.500000e+02 molecules  (2.500000e+02 +/- 0.000000e+00)
    number density: 1.482433e-02 molec./A^3 (1.475500e-02 +/- 0.000000e+00)
    density:        1.083091e+03 kg/m^3     (1.078025e+03 +/- 0.000000e+00)

Average pressure tensor: 
-------------------------------------------------------------------------------
 1.4069e+02  4.0667e+01  3.3257e+01 +/- 0.0000e+00 0.0000e+00 0.0000e+00 [bar]
 4.0667e+01  8.6890e+01 -5.4926e+01 +/- 0.0000e+00 0.0000e+00 0.0000e+00 [bar]
 3.3257e+01 -5.4926e+01  2.0714e+02 +/- 0.0000e+00 0.0000e+00 0.0000e+00 [bar]
Ideal-gas pressure:   5.092873e+02 +/ 0.000000e+00 [bar]
Excess pressure:     -3.643806e+02 +/ 0.000000e+00 [bar]
Pressure:             1.449067e+02 +/ 0.000000e+00 [bar]

Total potential energy/kʙ  -3.863514e+05 (-3.884146e+05 +/- 0.000000e+00) [K]
-------------------------------------------------------------------------------
ExternalField-molecule
    Van der Waals/kʙ        0.000000e+00 ( 0.000000e+00 +/- 0.000000e+00) [K]
Framework-molecule
    Van der Waals/kʙ        0.000000e+00 ( 0.000000e+00 +/- 0.000000e+00) [K]
    Van der Waals (Tail)/kʙ 0.000000e+00 ( 0.000000e+00 +/- 0.000000e+00) [K]
    Coulombic Real/kʙ       0.000000e+00 ( 0.000000e+00 +/- 0.000000e+00) [K]
    Coulombic Fourier/kʙ    0.000000e+00 ( 0.000000e+00 +/- 0.000000e+00) [K]
Molecule-molecule
    Van der Waals/kʙ       -2.764980e+05 (-2.777086e+05 +/- 0.000000e+00) [K]
    Van der Waals (Tail)/kʙ-1.189115e+04 (-1.185058e+04 +/- 0.000000e+00) [K]
    Coulombic Real/kʙ      -7.845926e+04 (-7.952917e+04 +/- 0.000000e+00) [K]
    Coulombic Fourier/kʙ   -1.950302e+04 (-1.932626e+04 +/- 0.000000e+00) [K]
    Molecule Intra/kʙ       0.000000e+00 ( 0.000000e+00 +/- 0.000000e+00) [K]

Current cycle: 700 out of 5000
===============================================================================

Box:      25.82022   0.00000   0.00000  Average:  25.69707   0.00000   0.00000
           0.00000  25.82022   0.00000             0.00000  25.69707   0.00000
           0.00000   0.00000  25.82022             0.00000   0.00000  25.69707
Lengths:  25.82022  25.82022  25.82022  Average:  25.69707  25.69707  25.69707
Angles:   90.00000  90.00000  90.00000  Average:  90.00000  90.00000  90.00000
Rectangular boundary conditions

net charge:   0.00000000

component 0 (CO2) lambda:  0 occupancy:  1 (1.000000)
    net charge:   0.00000000 [e]

Amount of molecules per component :
-------------------------------------------------------------------------------
Component 0 (CO2)
    molecules:      2.500000e+02 molecules  (2.500000e+02 +/- 0.000000e+00)
    number density: 1.452314e-02 molec./A^3 (1.473465e-02 +/- 0.000000e+00)
    density:        1.061085e+03 kg/m^3     (1.076539e+03 +/- 0.000000e+00)

Average pressure tensor: 
-------------------------------------------------------------------------------
 1.1629e+02  1.8189e+01  3.6872e+01 +/- 0.0000e+00 0.0000e+00 0.0000e+00 [bar]
 1.8189e+01  7.5115e+01 -3.6915e+01 +/- 0.0000e+00 0.0000e+00 0.0000e+00 [bar]
 3.6872e+01 -3.6915e+01  1.8538e+02 +/- 0.0000e+00 0.0000e+00 0.0000e+00 [bar]
Ideal-gas pressure:   5.085851e+02 +/ 0.000000e+00 [bar]
Excess pressure:     -3.829901e+02 +/ 0.000000e+00 [bar]
Pressure:             1.255950e+02 +/ 0.000000e+00 [bar]

Total potential energy/kʙ  -3.735452e+05 (-3.875263e+05 +/- 0.000000e+00) [K]
-------------------------------------------------------------------------------
ExternalField-molecule
    Van der Waals/kʙ        0.000000e+00 ( 0.000000e+00 +/- 0.000000e+00) [K]
Framework-molecule
    Van der Waals/kʙ        0.000000e+00 ( 0.000000e+00 +/- 0.000000e+00) [K]
    Van der Waals (Tail)/kʙ 0.000000e+00 ( 0.000000e+00 +/- 0.000000e+00) [K]
    Coulombic Real/kʙ       0.000000e+00 ( 0.000000e+00 +/- 0.000000e+00) [K]
    Coulombic Fourier/kʙ    0.000000e+00 ( 0.000000e+00 +/- 0.000000e+00) [K]
Molecule-molecule
    Van der Waals/kʙ       -2.709264e+05 (-2.773615e+05 +/- 0.000000e+00) [K]
    Van der Waals (Tail)/kʙ-1.164955e+04 (-1.183051e+04 +/- 0.000000e+00) [K]
    Coulombic Real/kʙ      -7.273523e+04 (-7.903400e+04 +/- 0.000000e+00) [K]
    Coulombic Fourier/kʙ   -1.823406e+04 (-1.930031e+04 +/- 0.000000e+00) [K]
    Molecule Intra/kʙ       0.000000e+00 ( 0.000000e+00 +/- 0.000000e+00) [K]

Current cycle: 800 out of 5000
===============================================================================

Box:      25.86328   0.00000   0.00000  Average:  25.73800   0.00000   0.00000
           0.00000  25.86328   0.00000             0.00000  25.73800   0.00000
           0.00000   0.00000  25.86328             0.00000   0.00000  25.73800
Lengths:  25.86328  25.86328  25.86328  Average:  25.73800  25.73800  25.73800
Angles:   90.00000  90.00000  90.00000  Average:  90.00000  90.00000  90.00000
Rectangular boundary conditions

net charge:   0.00000000

component 0 (CO2) lambda:  0 occupancy:  1 (1.000000)
    net charge:   0.00000000 [e]

Amount of molecules per component :
-------------------------------------------------------------------------------
Component 0 (CO2)
    molecules:      2.500000e+02 molecules  (2.500000e+02 +/- 0.000000e+00)
    number density: 1.445071e-02 molec./A^3 (1.466603e-02 +/- 0.000000e+00)
    density:        1.055794e+03 kg/m^3     (1.071526e+03 +/- 0.000000e+00)

Average pressure tensor: 
-------------------------------------------------------------------------------
 1.0259e+02  1.7462e+01  1.2109e+01 +/- 0.0000e+00 0.0000e+00 0.0000e+00 [bar]
 1.7462e+01  3.9532e+01 -2.2659e+01 +/- 0.0000e+00 0.0000e+00 0.0000e+00 [bar]
 1.2109e+01 -2.2659e+01  1.7084e+02 +/- 0.0000e+00 0.0000e+00 0.0000e+00 [bar]
Ideal-gas pressure:   5.062166e+02 +/ 0.000000e+00 [bar]
Excess pressure:     -4.018970e+02 +/ 0.000000e+00 [bar]
Pressure:             1.043196e+02 +/ 0.000000e+00 [bar]

Total potential energy/kʙ  -3.706304e+05 (-3.853834e+05 +/- 0.000000e+00) [K]
-------------------------------------------------------------------------------
ExternalField-molecule
    Van der Waals/kʙ        0.000000e+00 ( 0.000000e+00 +/- 0.000000e+00) [K]
Framework-molecule
    Van der Waals/kʙ        0.000000e+00 ( 0.000000e+00 +/- 0.000000e+00) [K]
    Van der Waals (Tail)/kʙ 0.000000e+00 ( 0.000000e+00 +/- 0.000000e+00) [K]
    Coulombic Real/kʙ       0.000000e+00 ( 0.000000e+00 +/- 0.000000e+00) [K]
    Coulombic Fourier/kʙ    0.000000e+00 ( 0.000000e+00 +/- 0.000000e+00) [K]
Molecule-molecule
    Van der Waals/kʙ       -2.615221e+05 (-2.757195e+05 +/- 0.000000e+00) [K]
    Van der Waals (Tail)/kʙ-1.159145e+04 (-1.176776e+04 +/- 0.000000e+00) [K]
    Coulombic Real/kʙ      -7.858789e+04 (-7.866498e+04 +/- 0.000000e+00) [K]
    Coulombic Fourier/kʙ   -1.892894e+04 (-1.923115e+04 +/- 0.000000e+00) [K]
    Molecule Intra/kʙ       0.000000e+00 ( 0.000000e+00 +/- 0.000000e+00) [K]

Current cycle: 900 out of 5000
===============================================================================

Box:      25.74557   0.00000   0.00000  Average:  25.73964   0.00000   0.00000
           0.00000  25.74557   0.00000             0.00000  25.73964   0.00000
           0.00000   0.00000  25.74557             0.00000   0.00000  25.73964
Lengths:  25.74557  25.74557  25.74557  Average:  25.73964  25.73964  25.73964
Angles:   90.00000  90.00000  90.00000  Average:  90.00000  90.00000  90.00000
Rectangular boundary conditions

net charge:   0.00000000

component 0 (CO2) lambda:  0 occupancy:  1 (1.000000)
    net charge:   0.00000000 [e]

Amount of molecules per component :
-------------------------------------------------------------------------------
Component 0 (CO2)
    molecules:      2.500000e+02 molecules  (2.500000e+02 +/- 0.000000e+00)
    number density: 1.464982e-02 molec./A^3 (1.466308e-02 +/- 0.000000e+00)
    density:        1.070341e+03 kg/m^3     (1.071310e+03 +/- 0.000000e+00)

Average pressure tensor: 
-------------------------------------------------------------------------------
 1.0756e+02  1.2254e+01  3.2798e+01 +/- 0.0000e+00 0.0000e+00 0.0000e+00 [bar]
 1.2254e+01  3.8337e+01 -3.6173e+01 +/- 0.0000e+00 0.0000e+00 0.0000e+00 [bar]
 3.2798e+01 -3.6173e+01  1.6528e+02 +/- 0.0000e+00 0.0000e+00 0.0000e+00 [bar]
Ideal-gas pressure:   5.061146e+02 +/ 0.000000e+00 [bar]
Excess pressure:     -4.023899e+02 +/ 0.000000e+00 [bar]
Pressure:             1.037247e+02 +/ 0.000000e+00 [bar]

Total potential energy/kʙ  -3.855728e+05 (-3.849752e+05 +/- 0.000000e+00) [K]
-------------------------------------------------------------------------------
ExternalField-molecule
    Van der Waals/kʙ        0.000000e+00 ( 0.000000e+00 +/- 0.000000e+00) [K]
Framework-molecule
    Van der Waals/kʙ        0.000000e+00 ( 0.000000e+00 +/- 0.000000e+00) [K]
    Van der Waals (Tail)/kʙ 0.000000e+00 ( 0.000000e+00 +/- 0.000000e+00) [K]
    Coulombic Real/kʙ       0.000000e+00 ( 0.000000e+00 +/- 0.000000e+00) [K]
    Coulombic Fourier/kʙ    0.000000e+00 ( 0.000000e+00 +/- 0.000000e+00) [K]
Molecule-molecule
    Van der Waals/kʙ       -2.759898e+05 (-2.756426e+05 +/- 0.000000e+00) [K]
    Van der Waals (Tail)/kʙ-1.175117e+04 (-1.176666e+04 +/- 0.000000e+00) [K]
    Coulombic Real/kʙ      -7.815068e+04 (-7.843604e+04 +/- 0.000000e+00) [K]
    Coulombic Fourier/kʙ   -1.968107e+04 (-1.912989e+04 +/- 0.000000e+00) [K]
    Molecule Intra/kʙ       0.000000e+00 ( 0.000000e+00 +/- 0.000000e+00) [K]

Current cycle: 1000 out of 5000
===============================================================================

Box:      25.84445   0.00000   0.00000  Average:  25.73751   0.00000   0.00000
           0.00000  25.84445   0.00000             0.00000  25.73751   0.00000
           0.00000   0.00000  25.84445             0.00000   0.00000  25.73751
Lengths:  25.84445  25.84445  25.84445  Average:  25.73751  25.73751  25.73751
Angles:   90.00000  90.00000  90.00000  Average:  90.00000  90.00000  90.00000
Rectangular boundary conditions

net charge:   0.00000000

component 0 (CO2) lambda:  0 occupancy:  1 (1.000000)
    net charge:   0.00000000 [e]

Amount of molecules per component :
-------------------------------------------------------------------------------
Component 0 (CO2)
    molecules:      2.500000e+02 molecules  (2.500000e+02 +/- 0.000000e+00)
    number density: 1.448231e-02 molec./A^3 (1.466650e-02 +/- 0.000000e+00)
    density:        1.058103e+03 kg/m^3     (1.071559e+03 +/- 0.000000e+00)

Average pressure tensor: 
-------------------------------------------------------------------------------
 1.1619e+02  1.0284e+01  2.9525e+01 +/- 0.0000e+00 0.0000e+00 0.0000e+00 [bar]
 1.0284e+01  8.4493e+00 -3.8450e+01 +/- 0.0000e+00 0.0000e+00 0.0000e+00 [bar]
 2.9525e+01 -3.8450e+01  1.6047e+02 +/- 0.0000e+00 0.0000e+00 0.0000e+00 [bar]
Ideal-gas pressure:   5.062326e+02 +/ 0.000000e+00 [bar]
Excess pressure:     -4.111956e+02 +/ 0.000000e+00 [bar]
Pressure:             9.503693e+01 +/ 0.000000e+00 [bar]

Total potential energy/kʙ  -3.792054e+05 (-3.852119e+05 +/- 0.000000e+00) [K]
-------------------------------------------------------------------------------
ExternalField-molecule
    Van der Waals/kʙ        0.000000e+00 ( 0.000000e+00 +/- 0.000000e+00) [K]
Framework-molecule
    Van der Waals/kʙ        0.000000e+00 ( 0.000000e+00 +/- 0.000000e+00) [K]
    Van der Waals (Tail)/kʙ 0.000000e+00 ( 0.000000e+00 +/- 0.000000e+00) [K]
    Coulombic Real/kʙ       0.000000e+00 ( 0.000000e+00 +/- 0.000000e+00) [K]
    Coulombic Fourier/kʙ    0.000000e+00 ( 0.000000e+00 +/- 0.000000e+00) [K]
Molecule-molecule
    Van der Waals/kʙ       -2.737657e+05 (-2.757274e+05 +/- 0.000000e+00) [K]
    Van der Waals (Tail)/kʙ-1.161680e+04 (-1.176830e+04 +/- 0.000000e+00) [K]
    Coulombic Real/kʙ      -7.518585e+04 (-7.854244e+04 +/- 0.000000e+00) [K]
    Coulombic Fourier/kʙ   -1.863705e+04 (-1.917378e+04 +/- 0.000000e+00) [K]
    Molecule Intra/kʙ       0.000000e+00 ( 0.000000e+00 +/- 0.000000e+00) [K]

Current cycle: 1100 out of 5000
===============================================================================

Box:      25.58405   0.00000   0.00000  Average:  25.73777   0.00000   0.00000
           0.00000  25.58405   0.00000             0.00000  25.73777   0.00000
           0.00000   0.00000  25.58405             0.00000   0.00000  25.73777
Lengths:  25.58405  25.58405  25.58405  Average:  25.73777  25.73777  25.73777
Angles:   90.00000  90.00000  90.00000  Average:  90.00000  90.00000  90.00000
Rectangular boundary conditions

net charge:   0.00000000

component 0 (CO2) lambda:  0 occupancy:  1 (1.000000)
    net charge:   0.00000000 [e]

Amount of molecules per component :
-------------------------------------------------------------------------------
Component 0 (CO2)
    molecules:      2.500000e+02 molecules  (2.500000e+02 +/- 0.000000e+00)
    number density: 1.492905e-02 molec./A^3 (1.466586e-02 +/- 0.000000e+00)
    density:        1.090742e+03 kg/m^3     (1.071513e+03 +/- 0.000000e+00)

Average pressure tensor: 
-------------------------------------------------------------------------------
 1.3045e+02  7.9322e+00  2.5439e+01 +/- 0.0000e+00 0.0000e+00 0.0000e+00 [bar]
 7.9322e+00  1.6360e+01 -3.5404e+01 +/- 0.0000e+00 0.0000e+00 0.0000e+00 [bar]
 2.5439e+01 -3.5404e+01  1.9228e+02 +/- 0.0000e+00 0.0000e+00 0.0000e+00 [bar]
Ideal-gas pressure:   5.062105e+02 +/ 0.000000e+00 [bar]
Excess pressure:     -3.931807e+02 +/ 0.000000e+00 [bar]
Pressure:             1.130298e+02 +/ 0.000000e+00 [bar]

Total potential energy/kʙ  -3.825700e+05 (-3.847890e+05 +/- 0.000000e+00) [K]
-------------------------------------------------------------------------------
ExternalField-molecule
    Van der Waals/kʙ        0.000000e+00 ( 0.000000e+00 +/- 0.000000e+00) [K]
Framework-molecule
    Van der Waals/kʙ        0.000000e+00 ( 0.000000e+00 +/- 0.000000e+00) [K]
    Van der Waals (Tail)/kʙ 0.000000e+00 ( 0.000000e+00 +/- 0.000000e+00) [K]
    Coulombic Real/kʙ       0.000000e+00 ( 0.000000e+00 +/- 0.000000e+00) [K]
    Coulombic Fourier/kʙ    0.000000e+00 ( 0.000000e+00 +/- 0.000000e+00) [K]
Molecule-molecule
    Van der Waals/kʙ       -2.728087e+05 (-2.753587e+05 +/- 0.000000e+00) [K]
    Van der Waals (Tail)/kʙ-1.197515e+04 (-1.177140e+04 +/- 0.000000e+00) [K]
    Coulombic Real/kʙ      -7.749451e+04 (-7.852468e+04 +/- 0.000000e+00) [K]
    Coulombic Fourier/kʙ   -2.029165e+04 (-1.913418e+04 +/- 0.000000e+00) [K]
    Molecule Intra/kʙ       0.000000e+00 ( 0.000000e+00 +/- 0.000000e+00) [K]

Current cycle: 1200 out of 5000
===============================================================================

Box:      26.06861   0.00000   0.00000  Average:  25.74381   0.00000   0.00000
           0.00000  26.06861   0.00000             0.00000  25.74381   0.00000
           0.00000   0.00000  26.06861             0.00000   0.00000  25.74381
Lengths:  26.06861  26.06861  26.06861  Average:  25.74381  25.74381  25.74381
Angles:   90.00000  90.00000  90.00000  Average:  90.00000  90.00000  90.00000
Rectangular boundary conditions

net charge:   0.00000000

component 0 (CO2) lambda:  0 occupancy:  1 (1.000000)
    net charge:   0.00000000 [e]

Amount of molecules per component :
-------------------------------------------------------------------------------
Component 0 (CO2)
    molecules:      2.500000e+02 molecules  (2.500000e+02 +/- 0.000000e+00)
    number density: 1.411194e-02 molec./A^3 (1.465589e-02 +/- 0.000000e+00)
    density:        1.031042e+03 kg/m^3     (1.070784e+03 +/- 0.000000e+00)

Average pressure tensor: 
-------------------------------------------------------------------------------
 1.1057e+02  6.4644e+00  1.5370e+01 +/- 0.0000e+00 0.0000e+00 0.0000e+00 [bar]
 6.4644e+00  2.9104e+01 -2.6849e+01 +/- 0.0000e+00 0.0000e+00 0.0000e+00 [bar]
 1.5370e+01 -2.6849e+01  1.7880e+02 +/- 0.0000e+00 0.0000e+00 0.0000e+00 [bar]
Ideal-gas pressure:   5.058665e+02 +/ 0.000000e+00 [bar]
Excess pressure:     -3.997087e+02 +/ 0.000000e+00 [bar]
Pressure:             1.061578e+02 +/ 0.000000e+00 [bar]

Total potential energy/kʙ  -3.688354e+05 (-3.843477e+05 +/- 0.000000e+00) [K]
-------------------------------------------------------------------------------
ExternalField-molecule
    Van der Waals/kʙ        0.000000e+00 ( 0.000000e+00 +/- 0.000000e+00) [K]
Framework-molecule
    Van der Waals/kʙ        0.000000e+00 ( 0.000000e+00 +/- 0.000000e+00) [K]
    Van der Waals (Tail)/kʙ 0.000000e+00 ( 0.000000e+00 +/- 0.000000e+00) [K]
    Coulombic Real/kʙ       0.000000e+00 ( 0.000000e+00 +/- 0.000000e+00) [K]
    Coulombic Fourier/kʙ    0.000000e+00 ( 0.000000e+00 +/- 0.000000e+00) [K]
Molecule-molecule
    Van der Waals/kʙ       -2.610431e+05 (-2.751668e+05 +/- 0.000000e+00) [K]
    Van der Waals (Tail)/kʙ-1.131971e+04 (-1.175967e+04 +/- 0.000000e+00) [K]
    Coulombic Real/kʙ      -7.739739e+04 (-7.823822e+04 +/- 0.000000e+00) [K]
    Coulombic Fourier/kʙ   -1.907523e+04 (-1.918296e+04 +/- 0.000000e+00) [K]
    Molecule Intra/kʙ       0.000000e+00 ( 0.000000e+00 +/- 0.000000e+00) [K]

Current cycle: 1300 out of 5000
===============================================================================

Box:      26.29802   0.00000   0.00000  Average:  25.78162   0.00000   0.00000
           0.00000  26.29802   0.00000             0.00000  25.78162   0.00000
           0.00000   0.00000  26.29802             0.00000   0.00000  25.78162
Lengths:  26.29802  26.29802  26.29802  Average:  25.78162  25.78162  25.78162
Angles:   90.00000  90.00000  90.00000  Average:  90.00000  90.00000  90.00000
Rectangular boundary conditions

net charge:   0.00000000

component 0 (CO2) lambda:  0 occupancy:  1 (1.000000)
    net charge:   0.00000000 [e]

Amount of molecules per component :
-------------------------------------------------------------------------------
Component 0 (CO2)
    molecules:      2.500000e+02 molecules  (2.500000e+02 +/- 0.000000e+00)
    number density: 1.374583e-02 molec./A^3 (1.459361e-02 +/- 0.000000e+00)
    density:        1.004294e+03 kg/m^3     (1.066234e+03 +/- 0.000000e+00)

Average pressure tensor: 
-------------------------------------------------------------------------------
 9.9797e+01  1.2919e+01  2.3619e+01 +/- 0.0000e+00 0.0000e+00 0.0000e+00 [bar]
 1.2919e+01  3.5926e+01 -2.9669e+01 +/- 0.0000e+00 0.0000e+00 0.0000e+00 [bar]
 2.3619e+01 -2.9669e+01  1.4977e+02 +/- 0.0000e+00 0.0000e+00 0.0000e+00 [bar]
Ideal-gas pressure:   5.037170e+02 +/ 0.000000e+00 [bar]
Excess pressure:     -4.085535e+02 +/ 0.000000e+00 [bar]
Pressure:             9.516351e+01 +/ 0.000000e+00 [bar]

Total potential energy/kʙ  -3.573216e+05 (-3.824743e+05 +/- 0.000000e+00) [K]
-------------------------------------------------------------------------------
ExternalField-molecule
    Van der Waals/kʙ        0.000000e+00 ( 0.000000e+00 +/- 0.000000e+00) [K]
Framework-molecule
    Van der Waals/kʙ        0.000000e+00 ( 0.000000e+00 +/- 0.000000e+00) [K]
    Van der Waals (Tail)/kʙ 0.000000e+00 ( 0.000000e+00 +/- 0.000000e+00) [K]
    Coulombic Real/kʙ       0.000000e+00 ( 0.000000e+00 +/- 0.000000e+00) [K]
    Coulombic Fourier/kʙ    0.000000e+00 ( 0.000000e+00 +/- 0.000000e+00) [K]
Molecule-molecule
    Van der Waals/kʙ       -2.601823e+05 (-2.739626e+05 +/- 0.000000e+00) [K]
    Van der Waals (Tail)/kʙ-1.102604e+04 (-1.170742e+04 +/- 0.000000e+00) [K]
    Coulombic Real/kʙ      -6.896259e+04 (-7.770519e+04 +/- 0.000000e+00) [K]
    Coulombic Fourier/kʙ   -1.715059e+04 (-1.909915e+04 +/- 0.000000e+00) [K]
    Molecule Intra/kʙ       0.000000e+00 ( 0.000000e+00 +/- 0.000000e+00) [K]

Current cycle: 1400 out of 5000
===============================================================================

Box:      26.31430   0.00000   0.00000  Average:  25.80725   0.00000   0.00000
           0.00000  26.31430   0.00000             0.00000  25.80725   0.00000
           0.00000   0.00000  26.31430             0.00000   0.00000  25.80725
Lengths:  26.31430  26.31430  26.31430  Average:  25.80725  25.80725  25.80725
Angles:   90.00000  90.00000  90.00000  Average:  90.00000  90.00000  90.00000
Rectangular boundary conditions

net charge:   0.00000000

component 0 (CO2) lambda:  0 occupancy:  1 (1.000000)
    net charge:   0.00000000 [e]

Amount of molecules per component :
-------------------------------------------------------------------------------
Component 0 (CO2)
    molecules:      2.500000e+02 molecules  (2.500000e+02 +/- 0.000000e+00)
    number density: 1.372033e-02 molec./A^3 (1.455110e-02 +/- 0.000000e+00)
    density:        1.002431e+03 kg/m^3     (1.063128e+03 +/- 0.000000e+00)

Average pressure tensor: 
-------------------------------------------------------------------------------
 9.9206e+01  7.1016e+00  2.4755e+01 +/- 0.0000e+00 0.0000e+00 0.0000e+00 [bar]
 7.1016e+00  3.6908e+01 -3.1006e+01 +/- 0.0000e+00 0.0000e+00 0.0000e+00 [bar]
 2.4755e+01 -3.1006e+01  1.4783e+02 +/- 0.0000e+00 0.0000e+00 0.0000e+00 [bar]
Ideal-gas pressure:   5.022494e+02 +/ 0.000000e+00 [bar]
Excess pressure:     -4.076000e+02 +/ 0.000000e+00 [bar]
Pressure:             9.464945e+01 +/ 0.000000e+00 [bar]

Total potential energy/kʙ  -3.641982e+05 (-3.813789e+05 +/- 0.000000e+00) [K]
-------------------------------------------------------------------------------
ExternalField-molecule
    Van der Waals/kʙ        0.000000e+00 ( 0.000000e+00 +/- 0.000000e+00) [K]
Framework-molecule
    Van der Waals/kʙ        0.000000e+00 ( 0.000000e+00 +/- 0.000000e+00) [K]
    Van der Waals (Tail)/kʙ 0.000000e+00 ( 0.000000e+00 +/- 0.000000e+00) [K]
    Coulombic Real/kʙ       0.000000e+00 ( 0.000000e+00 +/- 0.000000e+00) [K]
    Coulombic Fourier/kʙ    0.000000e+00 ( 0.000000e+00 +/- 0.000000e+00) [K]
Molecule-molecule
    Van der Waals/kʙ       -2.594804e+05 (-2.730558e+05 +/- 0.000000e+00) [K]
    Van der Waals (Tail)/kʙ-1.100559e+04 (-1.167347e+04 +/- 0.000000e+00) [K]
    Coulombic Real/kʙ      -7.603628e+04 (-7.765396e+04 +/- 0.000000e+00) [K]
    Coulombic Fourier/kʙ   -1.767588e+04 (-1.899567e+04 +/- 0.000000e+00) [K]
    Molecule Intra/kʙ       0.000000e+00 ( 0.000000e+00 +/- 0.000000e+00) [K]

Current cycle: 1500 out of 5000
===============================================================================

Box:      25.94657   0.00000   0.00000  Average:  25.81408   0.00000   0.00000
           0.00000  25.94657   0.00000             0.00000  25.81408   0.00000
           0.00000   0.00000  25.94657             0.00000   0.00000  25.81408
Lengths:  25.94657  25.94657  25.94657  Average:  25.81408  25.81408  25.81408
Angles:   90.00000  90.00000  90.00000  Average:  90.00000  90.00000  90.00000
Rectangular boundary conditions

net charge:   0.00000000

component 0 (CO2) lambda:  0 occupancy:  1 (1.000000)
    net charge:   0.00000000 [e]

Amount of molecules per component :
-------------------------------------------------------------------------------
Component 0 (CO2)
    molecules:      2.500000e+02 molecules  (2.500000e+02 +/- 0.000000e+00)
    number density: 1.431199e-02 molec./A^3 (1.453940e-02 +/- 0.000000e+00)
    density:        1.045658e+03 kg/m^3     (1.062273e+03 +/- 0.000000e+00)

Average pressure tensor: 
-------------------------------------------------------------------------------
 9.8087e+01  2.3702e+00  2.6309e+01 +/- 0.0000e+00 0.0000e+00 0.0000e+00 [bar]
 2.3702e+00  4.2550e+01 -3.4469e+01 +/- 0.0000e+00 0.0000e+00 0.0000e+00 [bar]
 2.6309e+01 -3.4469e+01  1.4846e+02 +/- 0.0000e+00 0.0000e+00 0.0000e+00 [bar]
Ideal-gas pressure:   5.018456e+02 +/ 0.000000e+00 [bar]
Excess pressure:     -4.054794e+02 +/ 0.000000e+00 [bar]
Pressure:             9.636621e+01 +/ 0.000000e+00 [bar]

Total potential energy/kʙ  -3.825574e+05 (-3.813682e+05 +/- 0.000000e+00) [K]
-------------------------------------------------------------------------------
ExternalField-molecule
    Van der Waals/kʙ        0.000000e+00 ( 0.000000e+00 +/- 0.000000e+00) [K]
Framework-molecule
    Van der Waals/kʙ        0.000000e+00 ( 0.000000e+00 +/- 0.000000e+00) [K]
    Van der Waals (Tail)/kʙ 0.000000e+00 ( 0.000000e+00 +/- 0.000000e+00) [K]
    Coulombic Real/kʙ       0.000000e+00 ( 0.000000e+00 +/- 0.000000e+00) [K]
    Coulombic Fourier/kʙ    0.000000e+00 ( 0.000000e+00 +/- 0.000000e+00) [K]
Molecule-molecule
    Van der Waals/kʙ       -2.711749e+05 (-2.728283e+05 +/- 0.000000e+00) [K]
    Van der Waals (Tail)/kʙ-1.148018e+04 (-1.166536e+04 +/- 0.000000e+00) [K]
    Coulombic Real/kʙ      -8.044324e+04 (-7.785904e+04 +/- 0.000000e+00) [K]
    Coulombic Fourier/kʙ   -1.945914e+04 (-1.901546e+04 +/- 0.000000e+00) [K]
    Molecule Intra/kʙ       0.000000e+00 ( 0.000000e+00 +/- 0.000000e+00) [K]

Current cycle: 1600 out of 5000
===============================================================================

Box:      25.94491   0.00000   0.00000  Average:  25.82143   0.00000   0.00000
           0.00000  25.94491   0.00000             0.00000  25.82143   0.00000
           0.00000   0.00000  25.94491             0.00000   0.00000  25.82143
Lengths:  25.94491  25.94491  25.94491  Average:  25.82143  25.82143  25.82143
Angles:   90.00000  90.00000  90.00000  Average:  90.00000  90.00000  90.00000
Rectangular boundary conditions

net charge:   0.00000000

component 0 (CO2) lambda:  0 occupancy:  1 (1.000000)
    net charge:   0.00000000 [e]

Amount of molecules per component :
-------------------------------------------------------------------------------
Component 0 (CO2)
    molecules:      2.500000e+02 molecules  (2.500000e+02 +/- 0.000000e+00)
    number density: 1.431474e-02 molec./A^3 (1.452677e-02 +/- 0.000000e+00)
    density:        1.045860e+03 kg/m^3     (1.061351e+03 +/- 0.000000e+00)

Average pressure tensor: 
-------------------------------------------------------------------------------
 8.8822e+01  9.7517e+00  2.0452e+01 +/- 0.0000e+00 0.0000e+00 0.0000e+00 [bar]
 9.7517e+00  3.6576e+01 -3.0187e+01 +/- 0.0000e+00 0.0000e+00 0.0000e+00 [bar]
 2.0452e+01 -3.0187e+01  1.5270e+02 +/- 0.0000e+00 0.0000e+00 0.0000e+00 [bar]
Ideal-gas pressure:   5.014098e+02 +/ 0.000000e+00 [bar]
Excess pressure:     -4.087106e+02 +/ 0.000000e+00 [bar]
Pressure:             9.269920e+01 +/ 0.000000e+00 [bar]

Total potential energy/kʙ  -3.711931e+05 (-3.809448e+05 +/- 0.000000e+00) [K]
-------------------------------------------------------------------------------
ExternalField-molecule
    Van der Waals/kʙ        0.000000e+00 ( 0.000000e+00 +/- 0.000000e+00) [K]
Framework-molecule
    Van der Waals/kʙ        0.000000e+00 ( 0.000000e+00 +/- 0.000000e+00) [K]
    Van der Waals (Tail)/kʙ 0.000000e+00 ( 0.000000e+00 +/- 0.000000e+00) [K]
    Coulombic Real/kʙ       0.000000e+00 ( 0.000000e+00 +/- 0.000000e+00) [K]
    Coulombic Fourier/kʙ    0.000000e+00 ( 0.000000e+00 +/- 0.000000e+00) [K]
Molecule-molecule
    Van der Waals/kʙ       -2.674279e+05 (-2.725635e+05 +/- 0.000000e+00) [K]
    Van der Waals (Tail)/kʙ-1.148239e+04 (-1.165448e+04 +/- 0.000000e+00) [K]
    Coulombic Real/kʙ      -7.368139e+04 (-7.772925e+04 +/- 0.000000e+00) [K]
    Coulombic Fourier/kʙ   -1.860134e+04 (-1.899762e+04 +/- 0.000000e+00) [K]
    Molecule Intra/kʙ       0.000000e+00 ( 0.000000e+00 +/- 0.000000e+00) [K]

Current cycle: 1700 out of 5000
===============================================================================

Box:      25.88011   0.00000   0.00000  Average:  25.82097   0.00000   0.00000
           0.00000  25.88011   0.00000             0.00000  25.82097   0.00000
           0.00000   0.00000  25.88011             0.00000   0.00000  25.82097
Lengths:  25.88011  25.88011  25.88011  Average:  25.82097  25.82097  25.82097
Angles:   90.00000  90.00000  90.00000  Average:  90.00000  90.00000  90.00000
Rectangular boundary conditions

net charge:   0.00000000

component 0 (CO2) lambda:  0 occupancy:  1 (1.000000)
    net charge:   0.00000000 [e]

Amount of molecules per component :
-------------------------------------------------------------------------------
Component 0 (CO2)
    molecules:      2.500000e+02 molecules  (2.500000e+02 +/- 0.000000e+00)
    number density: 1.442254e-02 molec./A^3 (1.452729e-02 +/- 0.000000e+00)
    density:        1.053735e+03 kg/m^3     (1.061388e+03 +/- 0.000000e+00)

Average pressure tensor: 
-------------------------------------------------------------------------------
 8.7446e+01  6.6420e+00  4.8222e+00 +/- 0.0000e+00 0.0000e+00 0.0000e+00 [bar]
 6.6420e+00  3.3257e+01 -3.1314e+01 +/- 0.0000e+00 0.0000e+00 0.0000e+00 [bar]
 4.8222e+00 -3.1314e+01  1.5473e+02 +/- 0.0000e+00 0.0000e+00 0.0000e+00 [bar]
Ideal-gas pressure:   5.014275e+02 +/ 0.000000e+00 [bar]
Excess pressure:     -4.096160e+02 +/ 0.000000e+00 [bar]
Pressure:             9.181153e+01 +/ 0.000000e+00 [bar]

Total potential energy/kʙ  -3.836682e+05 (-3.809980e+05 +/- 0.000000e+00) [K]
-------------------------------------------------------------------------------
ExternalField-molecule
    Van der Waals/kʙ        0.000000e+00 ( 0.000000e+00 +/- 0.000000e+00) [K]
Framework-molecule
    Van der Waals/kʙ        0.000000e+00 ( 0.000000e+00 +/- 0.000000e+00) [K]
    Van der Waals (Tail)/kʙ 0.000000e+00 ( 0.000000e+00 +/- 0.000000e+00) [K]
    Coulombic Real/kʙ       0.000000e+00 ( 0.000000e+00 +/- 0.000000e+00) [K]
    Coulombic Fourier/kʙ    0.000000e+00 ( 0.000000e+00 +/- 0.000000e+00) [K]
Molecule-molecule
    Van der Waals/kʙ       -2.660309e+05 (-2.724221e+05 +/- 0.000000e+00) [K]
    Van der Waals (Tail)/kʙ-1.156885e+04 (-1.165436e+04 +/- 0.000000e+00) [K]
    Coulombic Real/kʙ      -8.569392e+04 (-7.789759e+04 +/- 0.000000e+00) [K]
    Coulombic Fourier/kʙ   -2.037447e+04 (-1.902395e+04 +/- 0.000000e+00) [K]
    Molecule Intra/kʙ       0.000000e+00 ( 0.000000e+00 +/- 0.000000e+00) [K]

Current cycle: 1800 out of 5000
===============================================================================

Box:      25.93294   0.00000   0.00000  Average:  25.82594   0.00000   0.00000
           0.00000  25.93294   0.00000             0.00000  25.82594   0.00000
           0.00000   0.00000  25.93294             0.00000   0.00000  25.82594
Lengths:  25.93294  25.93294  25.93294  Average:  25.82594  25.82594  25.82594
Angles:   90.00000  90.00000  90.00000  Average:  90.00000  90.00000  90.00000
Rectangular boundary conditions

net charge:   0.00000000

component 0 (CO2) lambda:  0 occupancy:  1 (1.000000)
    net charge:   0.00000000 [e]

Amount of molecules per component :
-------------------------------------------------------------------------------
Component 0 (CO2)
    molecules:      2.500000e+02 molecules  (2.500000e+02 +/- 0.000000e+00)
    number density: 1.433456e-02 molec./A^3 (1.451869e-02 +/- 0.000000e+00)
    density:        1.047308e+03 kg/m^3     (1.060760e+03 +/- 0.000000e+00)

Average pressure tensor: 
-------------------------------------------------------------------------------
 8.3431e+01  3.0394e+00  6.1366e+00 +/- 0.0000e+00 0.0000e+00 0.0000e+00 [bar]
 3.0394e+00  3.0304e+01 -2.9453e+01 +/- 0.0000e+00 0.0000e+00 0.0000e+00 [bar]
 6.1366e+00 -2.9453e+01  1.5786e+02 +/- 0.0000e+00 0.0000e+00 0.0000e+00 [bar]
Ideal-gas pressure:   5.011309e+02 +/ 0.000000e+00 [bar]
Excess pressure:     -4.105978e+02 +/ 0.000000e+00 [bar]
Pressure:             9.053309e+01 +/ 0.000000e+00 [bar]

Total potential energy/kʙ  -3.825975e+05 (-3.809474e+05 +/- 0.000000e+00) [K]
-------------------------------------------------------------------------------
ExternalField-molecule
    Van der Waals/kʙ        0.000000e+00 ( 0.000000e+00 +/- 0.000000e+00) [K]
Framework-molecule
    Van der Waals/kʙ        0.000000e+00 ( 0.000000e+00 +/- 0.000000e+00) [K]
    Van der Waals (Tail)/kʙ 0.000000e+00 ( 0.000000e+00 +/- 0.000000e+00) [K]
    Coulombic Real/kʙ       0.000000e+00 ( 0.000000e+00 +/- 0.000000e+00) [K]
    Coulombic Fourier/kʙ    0.000000e+00 ( 0.000000e+00 +/- 0.000000e+00) [K]
Molecule-molecule
    Van der Waals/kʙ       -2.728201e+05 (-2.722136e+05 +/- 0.000000e+00) [K]
    Van der Waals (Tail)/kʙ-1.149829e+04 (-1.164793e+04 +/- 0.000000e+00) [K]
    Coulombic Real/kʙ      -7.862230e+04 (-7.800481e+04 +/- 0.000000e+00) [K]
    Coulombic Fourier/kʙ   -1.965677e+04 (-1.908111e+04 +/- 0.000000e+00) [K]
    Molecule Intra/kʙ       0.000000e+00 ( 0.000000e+00 +/- 0.000000e+00) [K]

Current cycle: 1900 out of 5000
===============================================================================

Box:      25.75741   0.00000   0.00000  Average:  25.82600   0.00000   0.00000
           0.00000  25.75741   0.00000             0.00000  25.82600   0.00000
           0.00000   0.00000  25.75741             0.00000   0.00000  25.82600
Lengths:  25.75741  25.75741  25.75741  Average:  25.82600  25.82600  25.82600
Angles:   90.00000  90.00000  90.00000  Average:  90.00000  90.00000  90.00000
Rectangular boundary conditions

net charge:   0.00000000

component 0 (CO2) lambda:  0 occupancy:  1 (1.000000)
    net charge:   0.00000000 [e]

Amount of molecules per component :
-------------------------------------------------------------------------------
Component 0 (CO2)
    molecules:      2.500000e+02 molecules  (2.500000e+02 +/- 0.000000e+00)
    number density: 1.462963e-02 molec./A^3 (1.451836e-02 +/- 0.000000e+00)
    density:        1.068866e+03 kg/m^3     (1.060736e+03 +/- 0.000000e+00)

Average pressure tensor: 
-------------------------------------------------------------------------------
 8.6660e+01 -5.8388e-02  7.8433e-01 +/- 0.0000e+00 0.0000e+00 0.0000e+00 [bar]
-5.8388e-02  2.6479e+01 -2.4277e+01 +/- 0.0000e+00 0.0000e+00 0.0000e+00 [bar]
 7.8433e-01 -2.4277e+01  1.5910e+02 +/- 0.0000e+00 0.0000e+00 0.0000e+00 [bar]
Ideal-gas pressure:   5.011194e+02 +/ 0.000000e+00 [bar]
Excess pressure:     -4.103717e+02 +/ 0.000000e+00 [bar]
Pressure:             9.074768e+01 +/ 0.000000e+00 [bar]

Total potential energy/kʙ  -3.885630e+05 (-3.810947e+05 +/- 0.000000e+00) [K]
-------------------------------------------------------------------------------
ExternalField-molecule
    Van der Waals/kʙ        0.000000e+00 ( 0.000000e+00 +/- 0.000000e+00) [K]
Framework-molecule
    Van der Waals/kʙ        0.000000e+00 ( 0.000000e+00 +/- 0.000000e+00) [K]
    Van der Waals (Tail)/kʙ 0.000000e+00 ( 0.000000e+00 +/- 0.000000e+00) [K]
    Coulombic Real/kʙ       0.000000e+00 ( 0.000000e+00 +/- 0.000000e+00) [K]
    Coulombic Fourier/kʙ    0.000000e+00 ( 0.000000e+00 +/- 0.000000e+00) [K]
Molecule-molecule
    Van der Waals/kʙ       -2.721437e+05 (-2.722114e+05 +/- 0.000000e+00) [K]
    Van der Waals (Tail)/kʙ-1.173497e+04 (-1.164902e+04 +/- 0.000000e+00) [K]
    Coulombic Real/kʙ      -8.503736e+04 (-7.814450e+04 +/- 0.000000e+00) [K]
    Coulombic Fourier/kʙ   -1.964699e+04 (-1.908983e+04 +/- 0.000000e+00) [K]
    Molecule Intra/kʙ       0.000000e+00 ( 0.000000e+00 +/- 0.000000e+00) [K]

Current cycle: 2000 out of 5000
===============================================================================

Box:      25.92745   0.00000   0.00000  Average:  25.82213   0.00000   0.00000
           0.00000  25.92745   0.00000             0.00000  25.82213   0.00000
           0.00000   0.00000  25.92745             0.00000   0.00000  25.82213
Lengths:  25.92745  25.92745  25.92745  Average:  25.82213  25.82213  25.82213
Angles:   90.00000  90.00000  90.00000  Average:  90.00000  90.00000  90.00000
Rectangular boundary conditions

net charge:   0.00000000

component 0 (CO2) lambda:  0 occupancy:  1 (1.000000)
    net charge:   0.00000000 [e]

Amount of molecules per component :
-------------------------------------------------------------------------------
Component 0 (CO2)
    molecules:      2.500000e+02 molecules  (2.500000e+02 +/- 0.000000e+00)
    number density: 1.434369e-02 molec./A^3 (1.452473e-02 +/- 0.000000e+00)
    density:        1.047974e+03 kg/m^3     (1.061201e+03 +/- 0.000000e+00)

Average pressure tensor: 
-------------------------------------------------------------------------------
 8.0962e+01  6.5618e+00  1.6405e+00 +/- 0.0000e+00 0.0000e+00 0.0000e+00 [bar]
 6.5618e+00  2.6199e+01 -1.5220e+01 +/- 0.0000e+00 0.0000e+00 0.0000e+00 [bar]
 1.6405e+00 -1.5220e+01  1.5729e+02 +/- 0.0000e+00 0.0000e+00 0.0000e+00 [bar]
Ideal-gas pressure:   5.013392e+02 +/ 0.000000e+00 [bar]
Excess pressure:     -4.131898e+02 +/ 0.000000e+00 [bar]
Pressure:             8.814937e+01 +/ 0.000000e+00 [bar]

Total potential energy/kʙ  -3.801461e+05 (-3.813669e+05 +/- 0.000000e+00) [K]
-------------------------------------------------------------------------------
ExternalField-molecule
    Van der Waals/kʙ        0.000000e+00 ( 0.000000e+00 +/- 0.000000e+00) [K]
Framework-molecule
    Van der Waals/kʙ        0.000000e+00 ( 0.000000e+00 +/- 0.000000e+00) [K]
    Van der Waals (Tail)/kʙ 0.000000e+00 ( 0.000000e+00 +/- 0.000000e+00) [K]
    Coulombic Real/kʙ       0.000000e+00 ( 0.000000e+00 +/- 0.000000e+00) [K]
    Coulombic Fourier/kʙ    0.000000e+00 ( 0.000000e+00 +/- 0.000000e+00) [K]
Molecule-molecule
    Van der Waals/kʙ       -2.733809e+05 (-2.723365e+05 +/- 0.000000e+00) [K]
    Van der Waals (Tail)/kʙ-1.150561e+04 (-1.165326e+04 +/- 0.000000e+00) [K]
    Coulombic Real/kʙ      -7.631338e+04 (-7.827031e+04 +/- 0.000000e+00) [K]
    Coulombic Fourier/kʙ   -1.894615e+04 (-1.910682e+04 +/- 0.000000e+00) [K]
    Molecule Intra/kʙ       0.000000e+00 ( 0.000000e+00 +/- 0.000000e+00) [K]

Current cycle: 2100 out of 5000
===============================================================================

Box:      25.81403   0.00000   0.00000  Average:  25.82160   0.00000   0.00000
           0.00000  25.81403   0.00000             0.00000  25.82160   0.00000
           0.00000   0.00000  25.81403             0.00000   0.00000  25.82160
Lengths:  25.81403  25.81403  25.81403  Average:  25.82160  25.82160  25.82160
Angles:   90.00000  90.00000  90.00000  Average:  90.00000  90.00000  90.00000
Rectangular boundary conditions

net charge:   0.00000000

component 0 (CO2) lambda:  0 occupancy:  1 (1.000000)
    net charge:   0.00000000 [e]

Amount of molecules per component :
-------------------------------------------------------------------------------
Component 0 (CO2)
    molecules:      2.500000e+02 molecules  (2.500000e+02 +/- 0.000000e+00)
    number density: 1.453358e-02 molec./A^3 (1.452547e-02 +/- 0.000000e+00)
    density:        1.061848e+03 kg/m^3     (1.061256e+03 +/- 0.000000e+00)

Average pressure tensor: 
-------------------------------------------------------------------------------
 6.2299e+01  4.0376e+00 -2.9976e+00 +/- 0.0000e+00 0.0000e+00 0.0000e+00 [bar]
 4.0376e+00  4.1471e+01 -1.0546e+01 +/- 0.0000e+00 0.0000e+00 0.0000e+00 [bar]
-2.9976e+00 -1.0546e+01  1.5452e+02 +/- 0.0000e+00 0.0000e+00 0.0000e+00 [bar]
Ideal-gas pressure:   5.013649e+02 +/ 0.000000e+00 [bar]
Excess pressure:     -4.152693e+02 +/ 0.000000e+00 [bar]
Pressure:             8.609562e+01 +/ 0.000000e+00 [bar]

Total potential energy/kʙ  -3.858537e+05 (-3.814309e+05 +/- 0.000000e+00) [K]
-------------------------------------------------------------------------------
ExternalField-molecule
    Van der Waals/kʙ        0.000000e+00 ( 0.000000e+00 +/- 0.000000e+00) [K]
Framework-molecule
    Van der Waals/kʙ        0.000000e+00 ( 0.000000e+00 +/- 0.000000e+00) [K]
    Van der Waals (Tail)/kʙ 0.000000e+00 ( 0.000000e+00 +/- 0.000000e+00) [K]
[...]
    Coulombic Fourier/kʙ    0.000000e+00 ( 0.000000e+00 +/- 0.000000e+00) [K]
Molecule-molecule
    Van der Waals/kʙ       -2.859917e+05 (-2.706633e+05 +/- 5.152061e+03) [K]
    Van der Waals (Tail)/kʙ-1.192153e+04 (-1.159392e+04 +/- 1.840836e+02) [K]
    Coulombic Real/kʙ      -8.546319e+04 (-7.881628e+04 +/- 1.385218e+03) [K]
    Coulombic Fourier/kʙ   -2.082707e+04 (-1.928540e+04 +/- 2.783362e+02) [K]
    Molecule Intra/kʙ       0.000000e+00 ( 0.000000e+00 +/- 0.000000e+00) [K]

Current cycle: 4700 out of 5000
===============================================================================

Box:      25.69781   0.00000   0.00000  Average:  25.86273   0.00000   0.00000
           0.00000  25.69781   0.00000             0.00000  25.86273   0.00000
           0.00000   0.00000  25.69781             0.00000   0.00000  25.86273
Lengths:  25.69781  25.69781  25.69781  Average:  25.86273  25.86273  25.86273
Angles:   90.00000  90.00000  90.00000  Average:  90.00000  90.00000  90.00000
Rectangular boundary conditions

net charge:   0.00000000

component 0 (CO2) lambda:  0 occupancy:  1 (1.000000)
    net charge:   0.00000000 [e]

Amount of molecules per component :
-------------------------------------------------------------------------------
Component 0 (CO2)
    molecules:      2.500000e+02 molecules  (2.500000e+02 +/- 3.944933e-14)
    number density: 1.473166e-02 molec./A^3 (1.445608e-02 +/- 2.216046e-04)
    density:        1.076320e+03 kg/m^3     (1.056186e+03 +/- 1.619081e+01)

Average pressure tensor: 
-------------------------------------------------------------------------------
 1.1031e+02 -4.3135e+01 -6.9185e+00 +/- 7.7793e+01 7.0381e+01 3.8547e+01 [bar]
-4.3135e+01  4.8786e+01 -9.7881e+00 +/- 7.0381e+01 4.6016e+01 2.2062e+01 [bar]
-6.9185e+00 -9.7881e+00  1.3045e+02 +/- 3.8547e+01 2.2062e+01 5.4414e+01 [bar]
Ideal-gas pressure:   4.989697e+02 +/ 7.648962e+00 [bar]
Excess pressure:     -4.024547e+02 +/ 2.140883e+01 [bar]
Pressure:             9.651498e+01 +/ 1.937972e+01 [bar]

Total potential energy/kʙ  -3.950322e+05 (-3.806811e+05 +/- 6.695155e+03) [K]
-------------------------------------------------------------------------------
ExternalField-molecule
    Van der Waals/kʙ        0.000000e+00 ( 0.000000e+00 +/- 0.000000e+00) [K]
Framework-molecule
    Van der Waals/kʙ        0.000000e+00 ( 0.000000e+00 +/- 0.000000e+00) [K]
    Van der Waals (Tail)/kʙ 0.000000e+00 ( 0.000000e+00 +/- 0.000000e+00) [K]
    Coulombic Real/kʙ       0.000000e+00 ( 0.000000e+00 +/- 0.000000e+00) [K]
    Coulombic Fourier/kʙ    0.000000e+00 ( 0.000000e+00 +/- 0.000000e+00) [K]
Molecule-molecule
    Van der Waals/kʙ       -2.802063e+05 (-2.708226e+05 +/- 5.288479e+03) [K]
    Van der Waals (Tail)/kʙ-1.181681e+04 (-1.159824e+04 +/- 1.866080e+02) [K]
    Coulombic Real/kʙ      -8.306319e+04 (-7.895877e+04 +/- 1.667753e+03) [K]
    Coulombic Fourier/kʙ   -1.994591e+04 (-1.930152e+04 +/- 3.032194e+02) [K]
    Molecule Intra/kʙ       0.000000e+00 ( 0.000000e+00 +/- 0.000000e+00) [K]

Current cycle: 4800 out of 5000
===============================================================================

Box:      25.67583   0.00000   0.00000  Average:  25.86033   0.00000   0.00000
           0.00000  25.67583   0.00000             0.00000  25.86033   0.00000
           0.00000   0.00000  25.67583             0.00000   0.00000  25.86033
Lengths:  25.67583  25.67583  25.67583  Average:  25.86033  25.86033  25.86033
Angles:   90.00000  90.00000  90.00000  Average:  90.00000  90.00000  90.00000
Rectangular boundary conditions

net charge:   0.00000000

component 0 (CO2) lambda:  0 occupancy:  1 (1.000000)
    net charge:   0.00000000 [e]

Amount of molecules per component :
-------------------------------------------------------------------------------
Component 0 (CO2)
    molecules:      2.500000e+02 molecules  (2.500000e+02 +/- 0.000000e+00)
    number density: 1.476952e-02 molec./A^3 (1.446006e-02 +/- 2.224218e-04)
    density:        1.079086e+03 kg/m^3     (1.056477e+03 +/- 1.625052e+01)

Average pressure tensor: 
-------------------------------------------------------------------------------
 1.1109e+02 -4.0598e+01 -5.9751e+00 +/- 7.5182e+01 6.0021e+01 3.4733e+01 [bar]
-4.0598e+01  5.3155e+01 -1.0243e+01 +/- 6.0021e+01 5.0853e+01 2.1623e+01 [bar]
-5.9751e+00 -1.0243e+01  1.2671e+02 +/- 3.4733e+01 2.1623e+01 5.4928e+01 [bar]
Ideal-gas pressure:   4.991073e+02 +/ 7.677167e+00 [bar]
Excess pressure:     -4.021210e+02 +/ 2.045895e+01 [bar]
Pressure:             9.698629e+01 +/ 1.874720e+01 [bar]

Total potential energy/kʙ  -3.872465e+05 (-3.807602e+05 +/- 6.562062e+03) [K]
-------------------------------------------------------------------------------
ExternalField-molecule
    Van der Waals/kʙ        0.000000e+00 ( 0.000000e+00 +/- 0.000000e+00) [K]
Framework-molecule
    Van der Waals/kʙ        0.000000e+00 ( 0.000000e+00 +/- 0.000000e+00) [K]
    Van der Waals (Tail)/kʙ 0.000000e+00 ( 0.000000e+00 +/- 0.000000e+00) [K]
    Coulombic Real/kʙ       0.000000e+00 ( 0.000000e+00 +/- 0.000000e+00) [K]
    Coulombic Fourier/kʙ    0.000000e+00 ( 0.000000e+00 +/- 0.000000e+00) [K]
Molecule-molecule
    Van der Waals/kʙ       -2.830152e+05 (-2.709454e+05 +/- 5.342864e+03) [K]
    Van der Waals (Tail)/kʙ-1.184718e+04 (-1.160128e+04 +/- 1.868695e+02) [K]
    Coulombic Real/kʙ      -7.435202e+04 (-7.891685e+04 +/- 1.479833e+03) [K]
    Coulombic Fourier/kʙ   -1.803202e+04 (-1.929667e+04 +/- 2.774000e+02) [K]
    Molecule Intra/kʙ       0.000000e+00 ( 0.000000e+00 +/- 0.000000e+00) [K]

Current cycle: 4900 out of 5000
===============================================================================

Box:      25.71858   0.00000   0.00000  Average:  25.85798   0.00000   0.00000
           0.00000  25.71858   0.00000             0.00000  25.85798   0.00000
           0.00000   0.00000  25.71858             0.00000   0.00000  25.85798
Lengths:  25.71858  25.71858  25.71858  Average:  25.85798  25.85798  25.85798
Angles:   90.00000  90.00000  90.00000  Average:  90.00000  90.00000  90.00000
Rectangular boundary conditions

net charge:   0.00000000

component 0 (CO2) lambda:  0 occupancy:  1 (1.000000)
    net charge:   0.00000000 [e]

Amount of molecules per component :
-------------------------------------------------------------------------------
Component 0 (CO2)
    molecules:      2.500000e+02 molecules  (2.500000e+02 +/- 0.000000e+00)
    number density: 1.469599e-02 molec./A^3 (1.446397e-02 +/- 2.232303e-04)
    density:        1.073714e+03 kg/m^3     (1.056763e+03 +/- 1.630959e+01)

Average pressure tensor: 
-------------------------------------------------------------------------------
 1.0906e+02 -3.6690e+01 -3.6739e+00 +/- 7.6542e+01 5.1110e+01 3.0466e+01 [bar]
-3.6690e+01  5.4059e+01 -9.9844e+00 +/- 5.1110e+01 5.1063e+01 2.1700e+01 [bar]
-3.6739e+00 -9.9844e+00  1.2437e+02 +/- 3.0466e+01 2.1700e+01 5.6258e+01 [bar]
Ideal-gas pressure:   4.992422e+02 +/ 7.705076e+00 [bar]
Excess pressure:     -4.034128e+02 +/ 2.186518e+01 [bar]
Pressure:             9.582936e+01 +/ 1.966731e+01 [bar]

Total potential energy/kʙ  -3.857106e+05 (-3.808056e+05 +/- 6.408642e+03) [K]
-------------------------------------------------------------------------------
ExternalField-molecule
    Van der Waals/kʙ        0.000000e+00 ( 0.000000e+00 +/- 0.000000e+00) [K]
Framework-molecule
    Van der Waals/kʙ        0.000000e+00 ( 0.000000e+00 +/- 0.000000e+00) [K]
    Van der Waals (Tail)/kʙ 0.000000e+00 ( 0.000000e+00 +/- 0.000000e+00) [K]
    Coulombic Real/kʙ       0.000000e+00 ( 0.000000e+00 +/- 0.000000e+00) [K]
    Coulombic Fourier/kʙ    0.000000e+00 ( 0.000000e+00 +/- 0.000000e+00) [K]
Molecule-molecule
    Van der Waals/kʙ       -2.786029e+05 (-2.710444e+05 +/- 5.356345e+03) [K]
    Van der Waals (Tail)/kʙ-1.178820e+04 (-1.160423e+04 +/- 1.871571e+02) [K]
    Coulombic Real/kʙ      -7.763453e+04 (-7.887336e+04 +/- 1.349114e+03) [K]
    Coulombic Fourier/kʙ   -1.768497e+04 (-1.928368e+04 +/- 2.469570e+02) [K]
    Molecule Intra/kʙ       0.000000e+00 ( 0.000000e+00 +/- 0.000000e+00) [K]


Energy statistics             |  Energy [K]   | Recomputed [K]|  Drift [K]    |
===============================================================================
Total potential energy/kʙ     | -3.857210e+05 | -3.857210e+05 |  1.459224e-09 |
    external field VDW/kʙ     |  0.000000e+00 |  0.000000e+00 |  0.000000e+00 |
    external field Real/kʙ    |  0.000000e+00 |  0.000000e+00 |  0.000000e+00 |
    framework-molecule VDW/kʙ |  0.000000e+00 |  0.000000e+00 |  0.000000e+00 |
    framework-molecule Real/kʙ|  0.000000e+00 |  0.000000e+00 |  0.000000e+00 |
    molecule-molecule VDW/kʙ  | -2.729076e+05 | -2.729076e+05 |  5.600621e-10 |
    molecule-molecule Real/kʙ | -8.137346e+04 | -8.137346e+04 |  8.925990e-10 |
    Van der Waals (Tail)/kʙ   | -1.158913e+04 | -1.158913e+04 |  0.000000e+00 |
    Ewald Fourier/kʙ          |  1.647638e+04 |  1.647638e+04 |  6.563228e-12 |
    Ewald self/kʙ             | -5.557308e+06 | -5.557308e+06 |  0.000000e+00 |
    Ewald exclusion/kʙ        |  5.520981e+06 |  5.520981e+06 |  0.000000e+00 |
    intra VDW/kʙ              |  0.000000e+00 |  0.000000e+00 |  0.000000e+00 |
    intra Coulombic/kʙ        |  0.000000e+00 |  0.000000e+00 |  0.000000e+00 |
    polarization/kʙ           |  0.000000e+00 |  0.000000e+00 |  0.000000e+00 |
    dU/dlambda VDW/kʙ         |  0.000000e+00 |  0.000000e+00 |  0.000000e+00 |
    dU/dlambda Real/kʙ        |  0.000000e+00 |  0.000000e+00 |  0.000000e+00 |
    dU/dlambda Ewald/kʙ       |  0.000000e+00 |  0.000000e+00 |  0.000000e+00 |
-------------------------------------------------------------------------------


Monte-Carlo moves statistics
===============================================================================

    Volume change        all:                8207
    Volume change        total:              8207
    Volume change        constructed:        8207
    Volume change        accepted:           1518
    Volume change        fraction:       0.184964
    Volume change        max-change:     0.075000

Component 0 [CO2]
    Reinsertion (CBMC)   all:              414240
    Reinsertion (CBMC)   total:            414240
    Reinsertion (CBMC)   constructed:      371163
    Reinsertion (CBMC)   accepted:           6355
    Reinsertion (CBMC)   fraction:       0.015341
    Reinsertion (CBMC)   max-change:     0.000000

    Translation          all:              414023
    Translation          total:            137886     137972     138165
    Translation          constructed:      137886     137972     138165
    Translation          accepted:          76954      63055      64725
    Translation          fraction:       0.558099   0.457013   0.468462
    Translation          max-change:     0.555556   0.758621   0.727874

    Rotation             all:              413530
    Rotation             total:            137728     138026     137776
    Rotation             constructed:      137728     137983     137776
    Rotation             accepted:          66170      53341      78574
    Rotation             fraction:       0.480440   0.386456   0.570303
    Rotation             max-change:     0.734694   1.016092   0.550000



Production run counting of the MC moves summed over systems and components
===============================================================================

Volume change                          8207 (0.6566 [%])
Reinsertion (CBMC)                   414240 (33.1392 [%])
Translation                          414023 (33.1218 [%])
Rotation                             413530 (33.0824 [%])

Production count MC-steps:          1250000 [-]
               All summed:          1250000 [-]
               difference:                0 [-]


Production run CPU timings of the MC moves
===============================================================================

Component 0 CO2

Rotation                             62.742554 [s]
    Ewald                            31.408037 [s]
    ExternalField-Molecule            0.014171 [s]
    Framework-Molecule                0.013677 [s]
    Molecule-Molecule                28.782946 [s]
    Overhead                          2.523723 [s]

Reinsertion (CBMC)                  224.793748 [s]
    Ewald                            28.065290 [s]
    NonEwald                        196.296177 [s]
    Overhead                          0.432281 [s]

Translation                          62.997259 [s]
    Ewald                            31.457821 [s]
    ExternalField-Molecule            0.013685 [s]
    Framework-Molecule                0.026938 [s]
    Molecule-Molecule                28.954623 [s]
    Overhead                          2.544192 [s]



Volume change                         71.312716 [s]
    Ewald                             29.884342 [s]
    NonEwald                          38.677616 [s]
    Tail                               2.456521 [s]

Property sampling                     0.305643 [s]
Energy/pressure sampling:             9.058692 [s]


Production run CPU timings of the MC moves summed over systems and components
===============================================================================


Translation                          62.997259 [s]
    Ewald                            31.457821 [s]
    ExternalField-Molecule            0.013685 [s]
    Framework-Molecule                0.026938 [s]
    Molecule-Molecule                28.954623 [s]
    Overhead                          2.544192 [s]

Rotation                             62.742554 [s]
    Ewald                            31.408037 [s]
    ExternalField-Molecule            0.014171 [s]
    Framework-Molecule                0.013677 [s]
    Molecule-Molecule                28.782946 [s]
    Overhead                          2.523723 [s]

Volume change                        71.312716 [s]
    Ewald                            29.884342 [s]
    NonEwald                         38.677616 [s]
    Tail                              2.456521 [s]
    Overhead                          0.294237 [s]

Reinsertion (CBMC)                  224.793748 [s]
    Ewald                            28.065290 [s]
    NonEwald                        196.296177 [s]
    Overhead                          0.432281 [s]

Property sampling:                    0.305643 [s]
Energy/pressure sampling:             9.058692 [s]

Production simulation time:         432.181232 [s]
                All summed:         431.210612 [s]
                  Overhead:           0.970620 [s]


Initalization simulation time:       83.824567 [s]
Equilibration simulation time:        0.000000 [s]
Production simulation time:         432.181232 [s]
Total simulation time:              516.005799 [s]


Energy averages and statistics:
===============================================================================

Framework-molecule energy:
-------------------------------------------------------------------------------



Framework-molecule energy contributions per energy type:
-------------------------------------------------------------------------------



Inter-molecular energy:
-------------------------------------------------------------------------------

    Inter-molecular energy/kʙ 0-0 [CO2-CO2]:
    ---------------------------------------------------------------------------
        Block[  0] -3.852720e+05
        Block[  1] -3.774739e+05
        Block[  2] -3.810902e+05
        Block[  3] -3.742255e+05
        Block[  4] -3.864773e+05
        -----------------------------------------------------------------------
        Average  -3.809078e+05 +/-  6.407163e+03 [K]



Inter-molecular energy contributions per energy type:
-------------------------------------------------------------------------------

    Van der Waals energy/kʙ 0-0 [CO2-CO2]:
    ---------------------------------------------------------------------------
        Block[  0] -2.757470e+05
        Block[  1] -2.689155e+05
        Block[  2] -2.698477e+05
        Block[  3] -2.657589e+05
        Block[  4] -2.750454e+05
        -----------------------------------------------------------------------
        Average  -2.710629e+05 +/-  5.267878e+03 [K]

    VDW Tail-Correction energy/kʙ 0-0 [CO2-CO2]:
    ---------------------------------------------------------------------------
        Block[  0] -1.176982e+04
        Block[  1] -1.153818e+04
        Block[  2] -1.159149e+04
        Block[  3] -1.139915e+04
        Block[  4] -1.173056e+04
        -----------------------------------------------------------------------
        Average  -1.160584e+04 +/-  1.861680e+02 [K]

    Coulomb Real energy/kʙ 0-0 [CO2-CO2]:
    ---------------------------------------------------------------------------
        Block[  0] -7.857600e+04
        Block[  1] -7.798418e+04
        Block[  2] -8.013291e+04
        Block[  3] -7.782267e+04
        Block[  4] -8.022396e+04
        -----------------------------------------------------------------------
        Average  -7.894794e+04 +/-  1.437874e+03 [K]

    Coulomb Fourier energy/kʙ 0-0 [CO2-CO2]:
    ---------------------------------------------------------------------------
        Block[  0] -1.917915e+04
        Block[  1] -1.903611e+04
        Block[  2] -1.951806e+04
        Block[  3] -1.924479e+04
        Block[  4] -1.947735e+04
        -----------------------------------------------------------------------
        Average  -1.929109e+04 +/-  2.528260e+02 [K]


Total energy/kʙ
-------------------------------------------------------------------------------
    Block[  0] -3.852720e+05
    Block[  1] -3.774739e+05
    Block[  2] -3.810902e+05
    Block[  3] -3.742255e+05
    Block[  4] -3.864773e+05
    ---------------------------------------------------------------------------
    Average  -3.809078e+05 +/-  6.407163e+03 [K]

Pressure averages and statistics:
===============================================================================

Average pressure tensor: 
-------------------------------------------------------------------------------
 1.1138e+02 -3.4483e+01 -4.5734e+00 +/- 7.3308e+01 4.7844e+01 3.1084e+01 [bar]
-3.4483e+01  5.4316e+01 -7.7737e+00 +/- 4.7844e+01 5.0451e+01 2.3453e+01 [bar]
-4.5734e+00 -7.7737e+00  1.2257e+02 +/- 3.1084e+01 2.3453e+01 5.7370e+01 [bar]

    Block[  0]  5.062389e+07
    Block[  1]  4.964457e+07
    Block[  2]  4.982018e+07
    Block[  3]  4.911228e+07
    Block[  4]  5.044946e+07
    ---------------------------------------------------------------------------
    Ideal gas pressure   4.993008e+07 +/-  4.598851e-02 [Pa]
                         4.993008e+02 +/-  7.636577e+00 [bar]


    Block[  0] -4.110051e+07
    Block[  1] -4.154705e+07
    Block[  2] -3.765086e+07
    Block[  3] -3.961188e+07
    Block[  4] -4.169554e+07
    ---------------------------------------------------------------------------
    Excess pressure  -4.032117e+07 +/-  2.117115e+06 [Pa]
                     -4.032117e+02 +/-  2.117115e+01 [bar]


    Block[  0]  9.523380e+06
    Block[  1]  8.097529e+06
    Block[  2]  1.216932e+07
    Block[  3]  9.500397e+06
    Block[  4]  8.753915e+06
    ---------------------------------------------------------------------------
    Pressure average   9.608908e+06 +/-  1.922275e+06 [Pa]
                       9.608908e+01 +/-  1.922275e+01 [bar]


Enthalpy of adsorption
===============================================================================

No fluctuating components present.


Densities
===============================================================================

Component 0 (CO2)
    Block[  0] 250
    Block[  1] 250
    Block[  2] 250
    Block[  3] 250
    Block[  4] 250
    -----------------------------------------------------------------------
    Density average   2.500000e+02 +/-  0.000000e+00 [molecules]
    Density average   1.446567e-02 +/-  2.212458e-04 [molec/A^3]
    Density average   1.056887e+03 +/-  1.616460e+01 [kg.m⁻³]

