Compiler and run-time data
===============================================================================
RASPA 3.0.4

Random seed: 937438427

Compiled as a 64-bits application
Compiler: gcc Ubuntu Clang 18.1.3 (1ubuntu1)
Compile Date = Mar 15 2025, Compile Time = 19:39:45

2025-06-02 13:11:29.164350
Simulation started on Mon, Jun 02
The start time was 13:11:00

Hostname:    c060
OS type:     Linux on x86_64
OS release:  6.8.0-58-generic
OS version:  #60-Ubuntu SMP PREEMPT_DYNAMIC Fri Mar 14 18:29:48 UTC 2025


Mutual consistent basic set of units:
===============================================================================

Unit of temperature: 1 [K]
Unit of length:      1e-10 [m]
Unit of time:        1e-12 [s]
Unit of mass:        1.6605402e-27 [kg]
Unit of charge:      1.60217733e-19 [C/particle]


Boltzmann constant (internal units):          0.8314464919307584 [-]
represents conversion from energy (internal units) to temperature (in Kelvin)

Derived units and their conversion factors:
===============================================================================

Unit of energy:                           1.6605402000000002e-23 [J]
Unit of energy:                           10.000008872307538 [J.mol⁻¹]
Unit of velocity:                         100 [m.s⁻¹]
Unit of force:                            1.6605402000000002e-13 [N]
Unit of diffusion:                        1.0000000000000002e-08 [m².s⁻¹]
Unit of acceleration:                     1.0000000000000002e-08 [m².s⁻¹]
Unit of torque:                           1.6605402000000002e-23 [N.m]
Unit of pressure:                         16605402 [Pa]
Unit of volume:                           1e-30 [m³]
Unit of density:                          1660.5402 [kg.m⁻³]
Unit of dynamic viscosity:                1.6605401999999997e-05 [N.s.m⁻²]
Unit of enthalpy:                         1.6605402000000002e-23 [J]
Unit of polarizability:                   1.5458657349975198e-35 [-]
Unit of Coulomb potential:                167101.08000665612 [K]
Unit of dielectric constant:              1.5458657349975193e-05 [s².C².kg⁻¹.m⁻³]
Unit of dipole moment:                    1.60217733e-29 [C.m]
Unit of Debye:                            4.803206799099162 [C.m]
Unit of electric potential:               0.00010364272224473431 [V]
Unit of electric field:                   1036427.222447343 [V.m⁻¹]
Unit of isothermal compressibility:       6.02213665167516e-08 [Pa⁻¹]
Unit of heat capacity:                    10.000008872307538 [J.mol⁻¹.K⁻¹]
Unit of volumetric expansion coefficient: 1 [K⁻¹]


Internal conversion factors:
===============================================================================

Energy (internal units) to Kelvin:      1.202724284692786 [-]
Kelvin to energy (internal units):      0.8314457542157567 [-]


System definitions
===============================================================================

Temperature:          250 [K]
Beta:                 0.0048108928702210625 [-]
Pressure:             4e+06 [Pa]
Helium void fraction: 1 [-]

Box:      30.00000   0.00000   0.00000
           0.00000  30.00000   0.00000
           0.00000   0.00000  30.00000
Lengths:  30.00000  30.00000  30.00000
Angles:   90.00000  90.00000  90.00000
Rectangular boundary conditions



Property measurement settings
===============================================================================




Pseudo-atoms
===============================================================================

  0 - C_co2    framework-atom: false
  1 - O_co2    framework-atom: false

  0 - C_co2    mass: 12.00000, charge:  0.70000
  1 - O_co2    mass: 15.99940, charge: -0.35000

  0 - C_co2    polarizability:  0.00000
  1 - O_co2    polarizability:  0.00000

  0 - J. J. Potoff et al., AIChE J. 2001, 47, 1676–1682.
  1 - J. J. Potoff et al., AIChE J. 2001, 47, 1676–1682.

Force field status
===============================================================================

Cutoff Framework-Molecule VDW:  11.00000 [Å]
Cutoff Molecule-Molecule VDW:   11.00000 [Å]
Cutoff Coulomb:                 11.00000 [Å]

Overlap-criteria VDW:           1.000000e+05 [K]

C_co2    - C_co2    Lennard-Jones p₀/kʙ:  27.00000 [K], p₁:  2.80000 [Å]
                                  shift:   0.00000 [K], tailcorrections: true
C_co2    - O_co2    Lennard-Jones p₀/kʙ:  46.18441 [K], p₁:  2.92500 [Å]
                                  shift:   0.00000 [K], tailcorrections: true
O_co2    - O_co2    Lennard-Jones p₀/kʙ:  79.00000 [K], p₁:  3.05000 [Å]
                                  shift:   0.00000 [K], tailcorrections: true

Ewald precision: 1e-06
Ewald alpha: 0.2903408740940883
Ewald k-vectors: 9 9 9


Component definitions
===============================================================================

Component 0 [CO2]

    Type: Adsorbate

    Critical temperature:  304.1282 [K]
    Critical pressure:     7377300 [Pa]
    Acentric factor:       0.22394 [-]

    Mol-fraction:                 1 [-]
    Swappable:                   false

    Mass:                         43.9988 [-]
    Bulk fluid density:           0 [-]
    Compressibility:              0 [-]
    Excess molecules:             0 [-]

    Number Of Atoms:    3
    CBMC starting bead: 0
      0: O_co2  position  0.00000 -0.00000  1.16000, charge -0.35000
      1: C_co2  position  0.00000 -0.00000  0.00000, charge  0.70000
      2: O_co2  position  0.00000 -0.00000 -1.16000, charge -0.35000
    Diagonalized inertia-vector:      43.05758528 43.05758528 0.00000000
    Translational degrees of freedom: 3
    Rotational degrees of freedom:    2
    Shape of the molecule is: 'Linear'
    Net-charge:        0.00000000 [e]

    Move probabilities:
    Translation:                   0.331126 [-]
    Random translation:            0.000000 [-]
    Rotation:                      0.331126 [-]
    Random rotation:               0.000000 [-]
    Volume change:                 0.006623 [-]
    Reinsertion (CBMC):            0.331126 [-]
    Identity change (CBMC):        0.000000 [-]
    Swap:                          0.000000 [-]
    Swap (CBMC):                   0.000000 [-]
    Swap (CFCMC):                  0.000000 [-]
    Swap (CB/CFCMC):               0.000000 [-]
    Gibbs volume:                  0.000000 [-]
    Gibbs swap (CBMC):             0.000000 [-]
    Gibbs swap (CFCMC):            0.000000 [-]
    Widom:                         0.000000 [-]
    Widom (CFCMC):                 0.000000 [-]
    Widom (CB/CFCMC):              0.000000 [-]
    Parallel tempering:            0.000000 [-]
    Hybrid MC:                     0.000000 [-]

    number of blocking-pockets: 0

    number of bonds: 0





Number of pseudo-atoms
===============================================================================

Component   0 (CO2)
-------------------------------------------------------------------------------
    index   0 (C_co2): 250 atoms
    index   1 (O_co2): 500 atoms

Total number of pseudo-atoms:
-------------------------------------------------------------------------------
    index   0 (C_co2): 250 atoms
    index   1 (O_co2): 500 atoms




Energy status Recomputed from scratch
===============================================================================

Total potential energy/kʙ       -1.401057e+05 [K]
    external field VDW/kʙ        0.000000e+00 [K]
    external field Real/kʙ       0.000000e+00 [K]
    framework-molecule VDW/kʙ    0.000000e+00 [K]
    framework-molecule Real/kʙ   0.000000e+00 [K]
    molecule-molecule VDW/kʙ    -1.080488e+05 [K]
    molecule-molecule Real/kʙ   -2.354709e+04 [K]
    Van der Waals (Tail)/kʙ     -5.580763e+03 [K]
    Ewald Fourier/kʙ             1.976235e+04 [K]
    Ewald self/kʙ               -5.029674e+06 [K]
    Ewald exclusion/kʙ           5.006983e+06 [K]
    intra VDW/kʙ                 0.000000e+00 [K]
    intra Coulombic/kʙ           0.000000e+00 [K]
    polarization/kʙ              0.000000e+00 [K]
    dU/dlambda VDW/kʙ            0.000000e+00 [K]
    dU/dlambda Real/kʙ           0.000000e+00 [K]
    dU/dlambda Ewald/kʙ          0.000000e+00 [K]





Initialization: Current cycle: 0 out of 1000
===============================================================================

Box:      30.00000   0.00000   0.00000
           0.00000  30.00000   0.00000
           0.00000   0.00000  30.00000
Lengths:  30.00000  30.00000  30.00000
Angles:   90.00000  90.00000  90.00000
Rectangular boundary conditions

net charge:   0.00000000

component   0 (CO2) lambda:  0 occupancy:  1 (1.000000)
    net charge:   0.00000000 [e]

Amount of molecules per component :
-------------------------------------------------------------------------------
Component 0 (CO2)
    molecules:         2.500000e+02 molecules
    number density:    9.259259e-03 molec/A^3
    density:           6.764973e+02 kg/m^3

Total potential energy/kʙ       -1.577824e+05 [K]
-------------------------------------------------------------------------------
    external field VDW/kʙ        0.000000e+00 [K]
    external field Real/kʙ       0.000000e+00 [K]
    framework-molecule VDW/kʙ    0.000000e+00 [K]
    framework-molecule Real/kʙ   0.000000e+00 [K]
    molecule-molecule VDW/kʙ    -1.256716e+05 [K]
    molecule-molecule Real/kʙ   -2.312037e+04 [K]
    Van der Waals (Tail)/kʙ     -5.580763e+03 [K]
    Ewald Fourier/kʙ             1.928172e+04 [K]
    Ewald self/kʙ               -5.029674e+06 [K]
    Ewald exclusion/kʙ           5.006983e+06 [K]
    intra VDW/kʙ                 0.000000e+00 [K]
    intra Coulombic/kʙ           0.000000e+00 [K]
    polarization/kʙ              0.000000e+00 [K]
    dU/dlambda VDW/kʙ            0.000000e+00 [K]
    dU/dlambda Real/kʙ           0.000000e+00 [K]
    dU/dlambda Ewald/kʙ          0.000000e+00 [K]


Initialization: Current cycle: 100 out of 1000
===============================================================================

Box:      27.98414   0.00000   0.00000
           0.00000  27.98414   0.00000
           0.00000   0.00000  27.98414
Lengths:  27.98414  27.98414  27.98414
Angles:   90.00000  90.00000  90.00000
Rectangular boundary conditions

net charge:   0.00000000

component   0 (CO2) lambda:  0 occupancy:  1 (1.000000)
    net charge:   0.00000000 [e]

Amount of molecules per component :
-------------------------------------------------------------------------------
Component 0 (CO2)
    molecules:         2.500000e+02 molecules
    number density:    1.140786e-02 molec/A^3
    density:           8.334778e+02 kg/m^3

Total potential energy/kʙ       -2.951289e+05 [K]
-------------------------------------------------------------------------------
    external field VDW/kʙ        0.000000e+00 [K]
    external field Real/kʙ       0.000000e+00 [K]
    framework-molecule VDW/kʙ    0.000000e+00 [K]
    framework-molecule Real/kʙ   0.000000e+00 [K]
    molecule-molecule VDW/kʙ    -2.155298e+05 [K]
    molecule-molecule Real/kʙ   -6.279712e+04 [K]
    Van der Waals (Tail)/kʙ     -6.875772e+03 [K]
    Ewald Fourier/kʙ             1.276519e+04 [K]
    Ewald self/kʙ               -5.029674e+06 [K]
    Ewald exclusion/kʙ           5.006983e+06 [K]
    intra VDW/kʙ                 0.000000e+00 [K]
    intra Coulombic/kʙ           0.000000e+00 [K]
    polarization/kʙ              0.000000e+00 [K]
    dU/dlambda VDW/kʙ            0.000000e+00 [K]
    dU/dlambda Real/kʙ           0.000000e+00 [K]
    dU/dlambda Ewald/kʙ          0.000000e+00 [K]


Initialization: Current cycle: 200 out of 1000
===============================================================================

Box:      26.79434   0.00000   0.00000
           0.00000  26.79434   0.00000
           0.00000   0.00000  26.79434
Lengths:  26.79434  26.79434  26.79434
Angles:   90.00000  90.00000  90.00000
Rectangular boundary conditions

net charge:   0.00000000

component   0 (CO2) lambda:  0 occupancy:  1 (1.000000)
    net charge:   0.00000000 [e]

Amount of molecules per component :
-------------------------------------------------------------------------------
Component 0 (CO2)
    molecules:         2.500000e+02 molecules
    number density:    1.299603e-02 molec/A^3
    density:           9.495124e+02 kg/m^3

Total potential energy/kʙ       -3.337153e+05 [K]
-------------------------------------------------------------------------------
    external field VDW/kʙ        0.000000e+00 [K]
    external field Real/kʙ       0.000000e+00 [K]
    framework-molecule VDW/kʙ    0.000000e+00 [K]
    framework-molecule Real/kʙ   0.000000e+00 [K]
    molecule-molecule VDW/kʙ    -2.410634e+05 [K]
    molecule-molecule Real/kʙ   -7.407946e+04 [K]
    Van der Waals (Tail)/kʙ     -7.833000e+03 [K]
    Ewald Fourier/kʙ             1.195198e+04 [K]
    Ewald self/kʙ               -5.029674e+06 [K]
    Ewald exclusion/kʙ           5.006983e+06 [K]
    intra VDW/kʙ                 0.000000e+00 [K]
    intra Coulombic/kʙ           0.000000e+00 [K]
    polarization/kʙ              0.000000e+00 [K]
    dU/dlambda VDW/kʙ            0.000000e+00 [K]
    dU/dlambda Real/kʙ           0.000000e+00 [K]
    dU/dlambda Ewald/kʙ          0.000000e+00 [K]


Initialization: Current cycle: 300 out of 1000
===============================================================================

Box:      26.66507   0.00000   0.00000
           0.00000  26.66507   0.00000
           0.00000   0.00000  26.66507
Lengths:  26.66507  26.66507  26.66507
Angles:   90.00000  90.00000  90.00000
Rectangular boundary conditions

net charge:   0.00000000

component   0 (CO2) lambda:  0 occupancy:  1 (1.000000)
    net charge:   0.00000000 [e]

Amount of molecules per component :
-------------------------------------------------------------------------------
Component 0 (CO2)
    molecules:         2.500000e+02 molecules
    number density:    1.318596e-02 molec/A^3
    density:           9.633891e+02 kg/m^3

Total potential energy/kʙ       -3.524096e+05 [K]
-------------------------------------------------------------------------------
    external field VDW/kʙ        0.000000e+00 [K]
    external field Real/kʙ       0.000000e+00 [K]
    framework-molecule VDW/kʙ    0.000000e+00 [K]
    framework-molecule Real/kʙ   0.000000e+00 [K]
    molecule-molecule VDW/kʙ    -2.556800e+05 [K]
    molecule-molecule Real/kʙ   -7.586152e+04 [K]
    Van der Waals (Tail)/kʙ     -7.947475e+03 [K]
    Ewald Fourier/kʙ             9.770759e+03 [K]
    Ewald self/kʙ               -5.029674e+06 [K]
    Ewald exclusion/kʙ           5.006983e+06 [K]
    intra VDW/kʙ                 0.000000e+00 [K]
    intra Coulombic/kʙ           0.000000e+00 [K]
    polarization/kʙ              0.000000e+00 [K]
    dU/dlambda VDW/kʙ            0.000000e+00 [K]
    dU/dlambda Real/kʙ           0.000000e+00 [K]
    dU/dlambda Ewald/kʙ          0.000000e+00 [K]


Initialization: Current cycle: 400 out of 1000
===============================================================================

Box:      26.33190   0.00000   0.00000
           0.00000  26.33190   0.00000
           0.00000   0.00000  26.33190
Lengths:  26.33190  26.33190  26.33190
Angles:   90.00000  90.00000  90.00000
Rectangular boundary conditions

net charge:   0.00000000

component   0 (CO2) lambda:  0 occupancy:  1 (1.000000)
    net charge:   0.00000000 [e]

Amount of molecules per component :
-------------------------------------------------------------------------------
Component 0 (CO2)
    molecules:         2.500000e+02 molecules
    number density:    1.369284e-02 molec/A^3
    density:           1.000422e+03 kg/m^3

Total potential energy/kʙ       -3.536186e+05 [K]
-------------------------------------------------------------------------------
    external field VDW/kʙ        0.000000e+00 [K]
    external field Real/kʙ       0.000000e+00 [K]
    framework-molecule VDW/kʙ    0.000000e+00 [K]
    framework-molecule Real/kʙ   0.000000e+00 [K]
    molecule-molecule VDW/kʙ    -2.591739e+05 [K]
    molecule-molecule Real/kʙ   -7.390967e+04 [K]
    Van der Waals (Tail)/kʙ     -8.252981e+03 [K]
    Ewald Fourier/kʙ             1.040929e+04 [K]
    Ewald self/kʙ               -5.029674e+06 [K]
    Ewald exclusion/kʙ           5.006983e+06 [K]
    intra VDW/kʙ                 0.000000e+00 [K]
    intra Coulombic/kʙ           0.000000e+00 [K]
    polarization/kʙ              0.000000e+00 [K]
    dU/dlambda VDW/kʙ            0.000000e+00 [K]
    dU/dlambda Real/kʙ           0.000000e+00 [K]
    dU/dlambda Ewald/kʙ          0.000000e+00 [K]


Initialization: Current cycle: 500 out of 1000
===============================================================================

Box:      26.04703   0.00000   0.00000
           0.00000  26.04703   0.00000
           0.00000   0.00000  26.04703
Lengths:  26.04703  26.04703  26.04703
Angles:   90.00000  90.00000  90.00000
Rectangular boundary conditions

net charge:   0.00000000

component   0 (CO2) lambda:  0 occupancy:  1 (1.000000)
    net charge:   0.00000000 [e]

Amount of molecules per component :
-------------------------------------------------------------------------------
Component 0 (CO2)
    molecules:         2.500000e+02 molecules
    number density:    1.414704e-02 molec/A^3
    density:           1.033607e+03 kg/m^3

Total potential energy/kʙ       -3.697257e+05 [K]
-------------------------------------------------------------------------------
    external field VDW/kʙ        0.000000e+00 [K]
    external field Real/kʙ       0.000000e+00 [K]
    framework-molecule VDW/kʙ    0.000000e+00 [K]
    framework-molecule Real/kʙ   0.000000e+00 [K]
    molecule-molecule VDW/kʙ    -2.683336e+05 [K]
    molecule-molecule Real/kʙ   -8.026480e+04 [K]
    Van der Waals (Tail)/kʙ     -8.526736e+03 [K]
    Ewald Fourier/kʙ             1.009072e+04 [K]
    Ewald self/kʙ               -5.029674e+06 [K]
    Ewald exclusion/kʙ           5.006983e+06 [K]
    intra VDW/kʙ                 0.000000e+00 [K]
    intra Coulombic/kʙ           0.000000e+00 [K]
    polarization/kʙ              0.000000e+00 [K]
    dU/dlambda VDW/kʙ            0.000000e+00 [K]
    dU/dlambda Real/kʙ           0.000000e+00 [K]
    dU/dlambda Ewald/kʙ          0.000000e+00 [K]


Initialization: Current cycle: 600 out of 1000
===============================================================================

Box:      26.04917   0.00000   0.00000
           0.00000  26.04917   0.00000
           0.00000   0.00000  26.04917
Lengths:  26.04917  26.04917  26.04917
Angles:   90.00000  90.00000  90.00000
Rectangular boundary conditions

net charge:   0.00000000

component   0 (CO2) lambda:  0 occupancy:  1 (1.000000)
    net charge:   0.00000000 [e]

Amount of molecules per component :
-------------------------------------------------------------------------------
Component 0 (CO2)
    molecules:         2.500000e+02 molecules
    number density:    1.414355e-02 molec/A^3
    density:           1.033352e+03 kg/m^3

Total potential energy/kʙ       -3.796727e+05 [K]
-------------------------------------------------------------------------------
    external field VDW/kʙ        0.000000e+00 [K]
    external field Real/kʙ       0.000000e+00 [K]
    framework-molecule VDW/kʙ    0.000000e+00 [K]
    framework-molecule Real/kʙ   0.000000e+00 [K]
    molecule-molecule VDW/kʙ    -2.683424e+05 [K]
    molecule-molecule Real/kʙ   -8.977360e+04 [K]
    Van der Waals (Tail)/kʙ     -8.524632e+03 [K]
    Ewald Fourier/kʙ             9.659276e+03 [K]
    Ewald self/kʙ               -5.029674e+06 [K]
    Ewald exclusion/kʙ           5.006983e+06 [K]
    intra VDW/kʙ                 0.000000e+00 [K]
    intra Coulombic/kʙ           0.000000e+00 [K]
    polarization/kʙ              0.000000e+00 [K]
    dU/dlambda VDW/kʙ            0.000000e+00 [K]
    dU/dlambda Real/kʙ           0.000000e+00 [K]
    dU/dlambda Ewald/kʙ          0.000000e+00 [K]


Initialization: Current cycle: 700 out of 1000
===============================================================================

Box:      26.04223   0.00000   0.00000
           0.00000  26.04223   0.00000
           0.00000   0.00000  26.04223
Lengths:  26.04223  26.04223  26.04223
Angles:   90.00000  90.00000  90.00000
Rectangular boundary conditions

net charge:   0.00000000

component   0 (CO2) lambda:  0 occupancy:  1 (1.000000)
    net charge:   0.00000000 [e]

Amount of molecules per component :
-------------------------------------------------------------------------------
Component 0 (CO2)
    molecules:         2.500000e+02 molecules
    number density:    1.415486e-02 molec/A^3
    density:           1.034178e+03 kg/m^3

Total potential energy/kʙ       -3.674220e+05 [K]
-------------------------------------------------------------------------------
    external field VDW/kʙ        0.000000e+00 [K]
    external field Real/kʙ       0.000000e+00 [K]
    framework-molecule VDW/kʙ    0.000000e+00 [K]
    framework-molecule Real/kʙ   0.000000e+00 [K]
    molecule-molecule VDW/kʙ    -2.698828e+05 [K]
    molecule-molecule Real/kʙ   -7.772792e+04 [K]
    Van der Waals (Tail)/kʙ     -8.531452e+03 [K]
    Ewald Fourier/kʙ             1.141155e+04 [K]
    Ewald self/kʙ               -5.029674e+06 [K]
    Ewald exclusion/kʙ           5.006983e+06 [K]
    intra VDW/kʙ                 0.000000e+00 [K]
    intra Coulombic/kʙ           0.000000e+00 [K]
    polarization/kʙ              0.000000e+00 [K]
    dU/dlambda VDW/kʙ            0.000000e+00 [K]
    dU/dlambda Real/kʙ           0.000000e+00 [K]
    dU/dlambda Ewald/kʙ          0.000000e+00 [K]


Initialization: Current cycle: 800 out of 1000
===============================================================================

Box:      25.95310   0.00000   0.00000
           0.00000  25.95310   0.00000
           0.00000   0.00000  25.95310
Lengths:  25.95310  25.95310  25.95310
Angles:   90.00000  90.00000  90.00000
Rectangular boundary conditions

net charge:   0.00000000

component   0 (CO2) lambda:  0 occupancy:  1 (1.000000)
    net charge:   0.00000000 [e]

Amount of molecules per component :
-------------------------------------------------------------------------------
Component 0 (CO2)
    molecules:         2.500000e+02 molecules
    number density:    1.430120e-02 molec/A^3
    density:           1.044870e+03 kg/m^3

Total potential energy/kʙ       -3.766490e+05 [K]
-------------------------------------------------------------------------------
    external field VDW/kʙ        0.000000e+00 [K]
    external field Real/kʙ       0.000000e+00 [K]
    framework-molecule VDW/kʙ    0.000000e+00 [K]
    framework-molecule Real/kʙ   0.000000e+00 [K]
    molecule-molecule VDW/kʙ    -2.690271e+05 [K]
    molecule-molecule Real/kʙ   -8.673097e+04 [K]
    Van der Waals (Tail)/kʙ     -8.619653e+03 [K]
    Ewald Fourier/kʙ             1.042014e+04 [K]
    Ewald self/kʙ               -5.029674e+06 [K]
    Ewald exclusion/kʙ           5.006983e+06 [K]
    intra VDW/kʙ                 0.000000e+00 [K]
    intra Coulombic/kʙ           0.000000e+00 [K]
    polarization/kʙ              0.000000e+00 [K]
    dU/dlambda VDW/kʙ            0.000000e+00 [K]
    dU/dlambda Real/kʙ           0.000000e+00 [K]
    dU/dlambda Ewald/kʙ          0.000000e+00 [K]


Initialization: Current cycle: 900 out of 1000
===============================================================================

Box:      26.16449   0.00000   0.00000
           0.00000  26.16449   0.00000
           0.00000   0.00000  26.16449
Lengths:  26.16449  26.16449  26.16449
Angles:   90.00000  90.00000  90.00000
Rectangular boundary conditions

net charge:   0.00000000

component   0 (CO2) lambda:  0 occupancy:  1 (1.000000)
    net charge:   0.00000000 [e]

Amount of molecules per component :
-------------------------------------------------------------------------------
Component 0 (CO2)
    molecules:         2.500000e+02 molecules
    number density:    1.395736e-02 molec/A^3
    density:           1.019748e+03 kg/m^3

Total potential energy/kʙ       -3.773164e+05 [K]
-------------------------------------------------------------------------------
    external field VDW/kʙ        0.000000e+00 [K]
    external field Real/kʙ       0.000000e+00 [K]
    framework-molecule VDW/kʙ    0.000000e+00 [K]
    framework-molecule Real/kʙ   0.000000e+00 [K]
    molecule-molecule VDW/kʙ    -2.691953e+05 [K]
    molecule-molecule Real/kʙ   -8.730879e+04 [K]
    Van der Waals (Tail)/kʙ     -8.412411e+03 [K]
    Ewald Fourier/kʙ             1.029140e+04 [K]
    Ewald self/kʙ               -5.029674e+06 [K]
    Ewald exclusion/kʙ           5.006983e+06 [K]
    intra VDW/kʙ                 0.000000e+00 [K]
    intra Coulombic/kʙ           0.000000e+00 [K]
    polarization/kʙ              0.000000e+00 [K]
    dU/dlambda VDW/kʙ            0.000000e+00 [K]
    dU/dlambda Real/kʙ           0.000000e+00 [K]
    dU/dlambda Ewald/kʙ          0.000000e+00 [K]


Current cycle: 0 out of 5000
===============================================================================

Box:      26.16391   0.00000   0.00000  Average:  26.16391   0.00000   0.00000
           0.00000  26.16391   0.00000             0.00000  26.16391   0.00000
           0.00000   0.00000  26.16391             0.00000   0.00000  26.16391
Lengths:  26.16391  26.16391  26.16391  Average:  26.16391  26.16391  26.16391
Angles:   90.00000  90.00000  90.00000  Average:  90.00000  90.00000  90.00000
Rectangular boundary conditions

net charge:   0.00000000

component 0 (CO2) lambda:  0 occupancy:  1 (1.000000)
    net charge:   0.00000000 [e]

Amount of molecules per component :
-------------------------------------------------------------------------------
Component 0 (CO2)
    molecules:      2.500000e+02 molecules  (2.500000e+02 +/- 0.000000e+00)
    number density: 1.395828e-02 molec./A^3 (1.395828e-02 +/- 0.000000e+00)
    density:        1.019816e+03 kg/m^3     (1.019816e+03 +/- 0.000000e+00)

Average pressure tensor: 
-------------------------------------------------------------------------------
 4.8179e+02  0.0000e+00  0.0000e+00 +/- 0.0000e+00 0.0000e+00 0.0000e+00 [bar]
 0.0000e+00  4.8179e+02  0.0000e+00 +/- 0.0000e+00 0.0000e+00 0.0000e+00 [bar]
 0.0000e+00  0.0000e+00  4.8179e+02 +/- 0.0000e+00 0.0000e+00 0.0000e+00 [bar]
Ideal-gas pressure:   4.817877e+02 +/ 0.000000e+00 [bar]
Excess pressure:      0.000000e+00 +/ 0.000000e+00 [bar]
Pressure:             4.817877e+02 +/ 0.000000e+00 [bar]

Total potential energy/kʙ  -3.689358e+05 (-3.689358e+05 +/- 0.000000e+00) [K]
-------------------------------------------------------------------------------
ExternalField-molecule
    Van der Waals/kʙ        0.000000e+00 ( 0.000000e+00 +/- 0.000000e+00) [K]
Framework-molecule
    Van der Waals/kʙ        0.000000e+00 ( 0.000000e+00 +/- 0.000000e+00) [K]
    Van der Waals (Tail)/kʙ 0.000000e+00 ( 0.000000e+00 +/- 0.000000e+00) [K]
    Coulombic Real/kʙ       0.000000e+00 ( 0.000000e+00 +/- 0.000000e+00) [K]
    Coulombic Fourier/kʙ    0.000000e+00 ( 0.000000e+00 +/- 0.000000e+00) [K]
Molecule-molecule
    Van der Waals/kʙ       -2.638175e+05 (-2.638175e+05 +/- 0.000000e+00) [K]
    Van der Waals (Tail)/kʙ-8.412970e+03 (-8.412970e+03 +/- 0.000000e+00) [K]
    Coulombic Real/kʙ      -8.503982e+04 (-8.503982e+04 +/- 0.000000e+00) [K]
    Coulombic Fourier/kʙ   -1.166551e+04 (-1.166551e+04 +/- 0.000000e+00) [K]
    Molecule Intra/kʙ       0.000000e+00 ( 0.000000e+00 +/- 0.000000e+00) [K]

Current cycle: 100 out of 5000
===============================================================================

Box:      25.72445   0.00000   0.00000  Average:  25.96785   0.00000   0.00000
           0.00000  25.72445   0.00000             0.00000  25.96785   0.00000
           0.00000   0.00000  25.72445             0.00000   0.00000  25.96785
Lengths:  25.72445  25.72445  25.72445  Average:  25.96785  25.96785  25.96785
Angles:   90.00000  90.00000  90.00000  Average:  90.00000  90.00000  90.00000
Rectangular boundary conditions

net charge:   0.00000000

component 0 (CO2) lambda:  0 occupancy:  1 (1.000000)
    net charge:   0.00000000 [e]

Amount of molecules per component :
-------------------------------------------------------------------------------
Component 0 (CO2)
    molecules:      2.500000e+02 molecules  (2.500000e+02 +/- 0.000000e+00)
    number density: 1.468594e-02 molec./A^3 (1.428125e-02 +/- 0.000000e+00)
    density:        1.072980e+03 kg/m^3     (1.043412e+03 +/- 0.000000e+00)

Average pressure tensor: 
-------------------------------------------------------------------------------
-1.4255e+01  3.0517e+01  6.2448e+01 +/- 0.0000e+00 0.0000e+00 0.0000e+00 [bar]
 3.0517e+01  2.0812e+02 -2.6633e+01 +/- 0.0000e+00 0.0000e+00 0.0000e+00 [bar]
 6.2448e+01 -2.6633e+01  6.7284e+01 +/- 0.0000e+00 0.0000e+00 0.0000e+00 [bar]
Ideal-gas pressure:   4.929352e+02 +/ 0.000000e+00 [bar]
Excess pressure:     -4.058842e+02 +/ 0.000000e+00 [bar]
Pressure:             8.705096e+01 +/ 0.000000e+00 [bar]

Total potential energy/kʙ  -3.768942e+05 (-3.778677e+05 +/- 0.000000e+00) [K]
-------------------------------------------------------------------------------
ExternalField-molecule
    Van der Waals/kʙ        0.000000e+00 ( 0.000000e+00 +/- 0.000000e+00) [K]
Framework-molecule
    Van der Waals/kʙ        0.000000e+00 ( 0.000000e+00 +/- 0.000000e+00) [K]
    Van der Waals (Tail)/kʙ 0.000000e+00 ( 0.000000e+00 +/- 0.000000e+00) [K]
    Coulombic Real/kʙ       0.000000e+00 ( 0.000000e+00 +/- 0.000000e+00) [K]
    Coulombic Fourier/kʙ    0.000000e+00 ( 0.000000e+00 +/- 0.000000e+00) [K]
Molecule-molecule
    Van der Waals/kʙ       -2.648455e+05 (-2.720401e+05 +/- 0.000000e+00) [K]
    Van der Waals (Tail)/kʙ-8.851546e+03 (-8.647795e+03 +/- 0.000000e+00) [K]
    Coulombic Real/kʙ      -9.080663e+04 (-8.485680e+04 +/- 0.000000e+00) [K]
    Coulombic Fourier/kʙ   -1.239048e+04 (-1.232300e+04 +/- 0.000000e+00) [K]
    Molecule Intra/kʙ       0.000000e+00 ( 0.000000e+00 +/- 0.000000e+00) [K]

Current cycle: 200 out of 5000
===============================================================================

Box:      25.75680   0.00000   0.00000  Average:  25.91002   0.00000   0.00000
           0.00000  25.75680   0.00000             0.00000  25.91002   0.00000
           0.00000   0.00000  25.75680             0.00000   0.00000  25.91002
Lengths:  25.75680  25.75680  25.75680  Average:  25.91002  25.91002  25.91002
Angles:   90.00000  90.00000  90.00000  Average:  90.00000  90.00000  90.00000
Rectangular boundary conditions

net charge:   0.00000000

component 0 (CO2) lambda:  0 occupancy:  1 (1.000000)
    net charge:   0.00000000 [e]

Amount of molecules per component :
-------------------------------------------------------------------------------
Component 0 (CO2)
    molecules:      2.500000e+02 molecules  (2.500000e+02 +/- 0.000000e+00)
    number density: 1.463067e-02 molec./A^3 (1.437580e-02 +/- 0.000000e+00)
    density:        1.068942e+03 kg/m^3     (1.050320e+03 +/- 0.000000e+00)

Average pressure tensor: 
-------------------------------------------------------------------------------
 1.6182e+01  3.2854e+01 -4.9167e+01 +/- 0.0000e+00 0.0000e+00 0.0000e+00 [bar]
 3.2854e+01  9.7435e+01  1.0089e+02 +/- 0.0000e+00 0.0000e+00 0.0000e+00 [bar]
-4.9167e+01  1.0089e+02  1.5442e+02 +/- 0.0000e+00 0.0000e+00 0.0000e+00 [bar]
Ideal-gas pressure:   4.961987e+02 +/ 0.000000e+00 [bar]
Excess pressure:     -4.068536e+02 +/ 0.000000e+00 [bar]
Pressure:             8.934507e+01 +/ 0.000000e+00 [bar]

Total potential energy/kʙ  -3.824268e+05 (-3.799859e+05 +/- 0.000000e+00) [K]
-------------------------------------------------------------------------------
ExternalField-molecule
    Van der Waals/kʙ        0.000000e+00 ( 0.000000e+00 +/- 0.000000e+00) [K]
Framework-molecule
    Van der Waals/kʙ        0.000000e+00 ( 0.000000e+00 +/- 0.000000e+00) [K]
    Van der Waals (Tail)/kʙ 0.000000e+00 ( 0.000000e+00 +/- 0.000000e+00) [K]
    Coulombic Real/kʙ       0.000000e+00 ( 0.000000e+00 +/- 0.000000e+00) [K]
    Coulombic Fourier/kʙ    0.000000e+00 ( 0.000000e+00 +/- 0.000000e+00) [K]
Molecule-molecule
    Van der Waals/kʙ       -2.760225e+05 (-2.736762e+05 +/- 0.000000e+00) [K]
    Van der Waals (Tail)/kʙ-8.818231e+03 (-8.690846e+03 +/- 0.000000e+00) [K]
    Coulombic Real/kʙ      -8.574581e+04 (-8.517454e+04 +/- 0.000000e+00) [K]
    Coulombic Fourier/kʙ   -1.184022e+04 (-1.244426e+04 +/- 0.000000e+00) [K]
    Molecule Intra/kʙ       0.000000e+00 ( 0.000000e+00 +/- 0.000000e+00) [K]

Current cycle: 300 out of 5000
===============================================================================

Box:      25.90101   0.00000   0.00000  Average:  25.89446   0.00000   0.00000
           0.00000  25.90101   0.00000             0.00000  25.89446   0.00000
           0.00000   0.00000  25.90101             0.00000   0.00000  25.89446
Lengths:  25.90101  25.90101  25.90101  Average:  25.89446  25.89446  25.89446
Angles:   90.00000  90.00000  90.00000  Average:  90.00000  90.00000  90.00000
Rectangular boundary conditions

net charge:   0.00000000

component 0 (CO2) lambda:  0 occupancy:  1 (1.000000)
    net charge:   0.00000000 [e]

Amount of molecules per component :
-------------------------------------------------------------------------------
Component 0 (CO2)
    molecules:      2.500000e+02 molecules  (2.500000e+02 +/- 0.000000e+00)
    number density: 1.438766e-02 molec./A^3 (1.440107e-02 +/- 0.000000e+00)
    density:        1.051187e+03 kg/m^3     (1.052167e+03 +/- 0.000000e+00)

Average pressure tensor: 
-------------------------------------------------------------------------------
-7.9916e+00 -2.0275e+01 -5.2041e+01 +/- 0.0000e+00 0.0000e+00 0.0000e+00 [bar]
-2.0275e+01  1.7540e+02  6.2391e+01 +/- 0.0000e+00 0.0000e+00 0.0000e+00 [bar]
-5.2041e+01  6.2391e+01  5.6756e+01 +/- 0.0000e+00 0.0000e+00 0.0000e+00 [bar]
Ideal-gas pressure:   4.970710e+02 +/ 0.000000e+00 [bar]
Excess pressure:     -4.223500e+02 +/ 0.000000e+00 [bar]
Pressure:             7.472099e+01 +/ 0.000000e+00 [bar]

Total potential energy/kʙ  -3.818329e+05 (-3.790053e+05 +/- 0.000000e+00) [K]
-------------------------------------------------------------------------------
ExternalField-molecule
    Van der Waals/kʙ        0.000000e+00 ( 0.000000e+00 +/- 0.000000e+00) [K]
Framework-molecule
    Van der Waals/kʙ        0.000000e+00 ( 0.000000e+00 +/- 0.000000e+00) [K]
    Van der Waals (Tail)/kʙ 0.000000e+00 ( 0.000000e+00 +/- 0.000000e+00) [K]
    Coulombic Real/kʙ       0.000000e+00 ( 0.000000e+00 +/- 0.000000e+00) [K]
    Coulombic Fourier/kʙ    0.000000e+00 ( 0.000000e+00 +/- 0.000000e+00) [K]
Molecule-molecule
    Van der Waals/kʙ       -2.808546e+05 (-2.742822e+05 +/- 0.000000e+00) [K]
    Van der Waals (Tail)/kʙ-8.671763e+03 (-8.690273e+03 +/- 0.000000e+00) [K]
    Coulombic Real/kʙ      -8.042269e+04 (-8.374605e+04 +/- 0.000000e+00) [K]
    Coulombic Fourier/kʙ   -1.188385e+04 (-1.228676e+04 +/- 0.000000e+00) [K]
    Molecule Intra/kʙ       0.000000e+00 ( 0.000000e+00 +/- 0.000000e+00) [K]

Current cycle: 400 out of 5000
===============================================================================

Box:      25.54046   0.00000   0.00000  Average:  25.80781   0.00000   0.00000
           0.00000  25.54046   0.00000             0.00000  25.80781   0.00000
           0.00000   0.00000  25.54046             0.00000   0.00000  25.80781
Lengths:  25.54046  25.54046  25.54046  Average:  25.80781  25.80781  25.80781
Angles:   90.00000  90.00000  90.00000  Average:  90.00000  90.00000  90.00000
Rectangular boundary conditions

net charge:   0.00000000

component 0 (CO2) lambda:  0 occupancy:  1 (1.000000)
    net charge:   0.00000000 [e]

Amount of molecules per component :
-------------------------------------------------------------------------------
Component 0 (CO2)
    molecules:      2.500000e+02 molecules  (2.500000e+02 +/- 0.000000e+00)
    number density: 1.500562e-02 molec./A^3 (1.454950e-02 +/- 0.000000e+00)
    density:        1.096336e+03 kg/m^3     (1.063011e+03 +/- 0.000000e+00)

Average pressure tensor: 
-------------------------------------------------------------------------------
-5.5333e+01 -5.4406e+01 -7.2440e+01 +/- 0.0000e+00 0.0000e+00 0.0000e+00 [bar]
-5.4406e+01  1.7088e+02  4.4723e+01 +/- 0.0000e+00 0.0000e+00 0.0000e+00 [bar]
-7.2440e+01  4.4723e+01  2.8421e+01 +/- 0.0000e+00 0.0000e+00 0.0000e+00 [bar]
Ideal-gas pressure:   5.021942e+02 +/ 0.000000e+00 [bar]
Excess pressure:     -4.542045e+02 +/ 0.000000e+00 [bar]
Pressure:             4.798967e+01 +/ 0.000000e+00 [bar]

Total potential energy/kʙ  -4.037597e+05 (-3.826681e+05 +/- 0.000000e+00) [K]
-------------------------------------------------------------------------------
ExternalField-molecule
    Van der Waals/kʙ        0.000000e+00 ( 0.000000e+00 +/- 0.000000e+00) [K]
Framework-molecule
    Van der Waals/kʙ        0.000000e+00 ( 0.000000e+00 +/- 0.000000e+00) [K]
    Van der Waals (Tail)/kʙ 0.000000e+00 ( 0.000000e+00 +/- 0.000000e+00) [K]
    Coulombic Real/kʙ       0.000000e+00 ( 0.000000e+00 +/- 0.000000e+00) [K]
    Coulombic Fourier/kʙ    0.000000e+00 ( 0.000000e+00 +/- 0.000000e+00) [K]
Molecule-molecule
    Van der Waals/kʙ       -2.965221e+05 (-2.776169e+05 +/- 0.000000e+00) [K]
    Van der Waals (Tail)/kʙ-9.044224e+03 (-8.773996e+03 +/- 0.000000e+00) [K]
    Coulombic Real/kʙ      -8.505504e+04 (-8.386273e+04 +/- 0.000000e+00) [K]
    Coulombic Fourier/kʙ   -1.313832e+04 (-1.241441e+04 +/- 0.000000e+00) [K]
    Molecule Intra/kʙ       0.000000e+00 ( 0.000000e+00 +/- 0.000000e+00) [K]

Current cycle: 500 out of 5000
===============================================================================

Box:      25.39480   0.00000   0.00000  Average:  25.74105   0.00000   0.00000
           0.00000  25.39480   0.00000             0.00000  25.74105   0.00000
           0.00000   0.00000  25.39480             0.00000   0.00000  25.74105
Lengths:  25.39480  25.39480  25.39480  Average:  25.74105  25.74105  25.74105
Angles:   90.00000  90.00000  90.00000  Average:  90.00000  90.00000  90.00000
Rectangular boundary conditions

net charge:   0.00000000

component 0 (CO2) lambda:  0 occupancy:  1 (1.000000)
    net charge:   0.00000000 [e]

Amount of molecules per component :
-------------------------------------------------------------------------------
Component 0 (CO2)
    molecules:      2.500000e+02 molecules  (2.500000e+02 +/- 0.000000e+00)
    number density: 1.526532e-02 molec./A^3 (1.466460e-02 +/- 0.000000e+00)
    density:        1.115310e+03 kg/m^3     (1.071421e+03 +/- 0.000000e+00)

Average pressure tensor: 
-------------------------------------------------------------------------------
-9.6010e+01 -6.0952e+01 -4.9997e+01 +/- 0.0000e+00 0.0000e+00 0.0000e+00 [bar]
-6.0952e+01  1.2047e+02  4.8848e+01 +/- 0.0000e+00 0.0000e+00 0.0000e+00 [bar]
-4.9997e+01  4.8848e+01  3.4473e+01 +/- 0.0000e+00 0.0000e+00 0.0000e+00 [bar]
Ideal-gas pressure:   5.061671e+02 +/ 0.000000e+00 [bar]
Excess pressure:     -4.865233e+02 +/ 0.000000e+00 [bar]
Pressure:             1.964384e+01 +/ 0.000000e+00 [bar]

Total potential energy/kʙ  -4.033475e+05 (-3.864031e+05 +/- 0.000000e+00) [K]
-------------------------------------------------------------------------------
ExternalField-molecule
    Van der Waals/kʙ        0.000000e+00 ( 0.000000e+00 +/- 0.000000e+00) [K]
Framework-molecule
    Van der Waals/kʙ        0.000000e+00 ( 0.000000e+00 +/- 0.000000e+00) [K]
    Van der Waals (Tail)/kʙ 0.000000e+00 ( 0.000000e+00 +/- 0.000000e+00) [K]
    Coulombic Real/kʙ       0.000000e+00 ( 0.000000e+00 +/- 0.000000e+00) [K]
    Coulombic Fourier/kʙ    0.000000e+00 ( 0.000000e+00 +/- 0.000000e+00) [K]
Molecule-molecule
    Van der Waals/kʙ       -2.954173e+05 (-2.801823e+05 +/- 0.000000e+00) [K]
    Van der Waals (Tail)/kʙ-9.200747e+03 (-8.837450e+03 +/- 0.000000e+00) [K]
    Coulombic Real/kʙ      -8.605932e+04 (-8.477158e+04 +/- 0.000000e+00) [K]
    Coulombic Fourier/kʙ   -1.267011e+04 (-1.261178e+04 +/- 0.000000e+00) [K]
    Molecule Intra/kʙ       0.000000e+00 ( 0.000000e+00 +/- 0.000000e+00) [K]

Current cycle: 600 out of 5000
===============================================================================

Box:      26.02546   0.00000   0.00000  Average:  25.75154   0.00000   0.00000
           0.00000  26.02546   0.00000             0.00000  25.75154   0.00000
           0.00000   0.00000  26.02546             0.00000   0.00000  25.75154
Lengths:  26.02546  26.02546  26.02546  Average:  25.75154  25.75154  25.75154
Angles:   90.00000  90.00000  90.00000  Average:  90.00000  90.00000  90.00000
Rectangular boundary conditions

net charge:   0.00000000

component 0 (CO2) lambda:  0 occupancy:  1 (1.000000)
    net charge:   0.00000000 [e]

Amount of molecules per component :
-------------------------------------------------------------------------------
Component 0 (CO2)
    molecules:      2.500000e+02 molecules  (2.500000e+02 +/- 0.000000e+00)
    number density: 1.418225e-02 molec./A^3 (1.464626e-02 +/- 0.000000e+00)
    density:        1.036179e+03 kg/m^3     (1.070081e+03 +/- 0.000000e+00)

Average pressure tensor: 
-------------------------------------------------------------------------------
-8.3687e+01 -8.2524e+01 -6.7293e+00 +/- 0.0000e+00 0.0000e+00 0.0000e+00 [bar]
-8.2524e+01  1.3400e+02  5.7524e+01 +/- 0.0000e+00 0.0000e+00 0.0000e+00 [bar]
-6.7293e+00  5.7524e+01  5.4452e+01 +/- 0.0000e+00 0.0000e+00 0.0000e+00 [bar]
Ideal-gas pressure:   5.055342e+02 +/ 0.000000e+00 [bar]
Excess pressure:     -4.706136e+02 +/ 0.000000e+00 [bar]
Pressure:             3.492054e+01 +/ 0.000000e+00 [bar]

Total potential energy/kʙ  -3.678714e+05 (-3.846583e+05 +/- 0.000000e+00) [K]
-------------------------------------------------------------------------------
ExternalField-molecule
    Van der Waals/kʙ        0.000000e+00 ( 0.000000e+00 +/- 0.000000e+00) [K]
Framework-molecule
    Van der Waals/kʙ        0.000000e+00 ( 0.000000e+00 +/- 0.000000e+00) [K]
    Van der Waals (Tail)/kʙ 0.000000e+00 ( 0.000000e+00 +/- 0.000000e+00) [K]
    Coulombic Real/kʙ       0.000000e+00 ( 0.000000e+00 +/- 0.000000e+00) [K]
    Coulombic Fourier/kʙ    0.000000e+00 ( 0.000000e+00 +/- 0.000000e+00) [K]
Molecule-molecule
    Van der Waals/kʙ       -2.683303e+05 (-2.794085e+05 +/- 0.000000e+00) [K]
    Van der Waals (Tail)/kʙ-8.547956e+03 (-8.826731e+03 +/- 0.000000e+00) [K]
    Coulombic Real/kʙ      -7.910586e+04 (-8.382847e+04 +/- 0.000000e+00) [K]
    Coulombic Fourier/kʙ   -1.188727e+04 (-1.259459e+04 +/- 0.000000e+00) [K]
    Molecule Intra/kʙ       0.000000e+00 ( 0.000000e+00 +/- 0.000000e+00) [K]

Current cycle: 700 out of 5000
===============================================================================

Box:      25.80544   0.00000   0.00000  Average:  25.76964   0.00000   0.00000
           0.00000  25.80544   0.00000             0.00000  25.76964   0.00000
           0.00000   0.00000  25.80544             0.00000   0.00000  25.76964
Lengths:  25.80544  25.80544  25.80544  Average:  25.76964  25.76964  25.76964
Angles:   90.00000  90.00000  90.00000  Average:  90.00000  90.00000  90.00000
Rectangular boundary conditions

net charge:   0.00000000

component 0 (CO2) lambda:  0 occupancy:  1 (1.000000)
    net charge:   0.00000000 [e]

Amount of molecules per component :
-------------------------------------------------------------------------------
Component 0 (CO2)
    molecules:      2.500000e+02 molecules  (2.500000e+02 +/- 0.000000e+00)
    number density: 1.454810e-02 molec./A^3 (1.461494e-02 +/- 0.000000e+00)
    density:        1.062909e+03 kg/m^3     (1.067792e+03 +/- 0.000000e+00)

Average pressure tensor: 
-------------------------------------------------------------------------------
-1.1198e+02 -1.1022e+02 -1.6963e+01 +/- 0.0000e+00 0.0000e+00 0.0000e+00 [bar]
-1.1022e+02  1.3853e+02  6.1228e+01 +/- 0.0000e+00 0.0000e+00 0.0000e+00 [bar]
-1.6963e+01  6.1228e+01  4.9695e+01 +/- 0.0000e+00 0.0000e+00 0.0000e+00 [bar]
Ideal-gas pressure:   5.044529e+02 +/ 0.000000e+00 [bar]
Excess pressure:     -4.790356e+02 +/ 0.000000e+00 [bar]
Pressure:             2.541729e+01 +/ 0.000000e+00 [bar]

Total potential energy/kʙ  -3.867994e+05 (-3.839295e+05 +/- 0.000000e+00) [K]
-------------------------------------------------------------------------------
ExternalField-molecule
    Van der Waals/kʙ        0.000000e+00 ( 0.000000e+00 +/- 0.000000e+00) [K]
Framework-molecule
    Van der Waals/kʙ        0.000000e+00 ( 0.000000e+00 +/- 0.000000e+00) [K]
    Van der Waals (Tail)/kʙ 0.000000e+00 ( 0.000000e+00 +/- 0.000000e+00) [K]
    Coulombic Real/kʙ       0.000000e+00 ( 0.000000e+00 +/- 0.000000e+00) [K]
    Coulombic Fourier/kʙ    0.000000e+00 ( 0.000000e+00 +/- 0.000000e+00) [K]
Molecule-molecule
    Van der Waals/kʙ       -2.808428e+05 (-2.788174e+05 +/- 0.000000e+00) [K]
    Van der Waals (Tail)/kʙ-8.768467e+03 (-8.809771e+03 +/- 0.000000e+00) [K]
    Coulombic Real/kʙ      -8.548817e+04 (-8.380514e+04 +/- 0.000000e+00) [K]
    Coulombic Fourier/kʙ   -1.169995e+04 (-1.249718e+04 +/- 0.000000e+00) [K]
    Molecule Intra/kʙ       0.000000e+00 ( 0.000000e+00 +/- 0.000000e+00) [K]

Current cycle: 800 out of 5000
===============================================================================

Box:      25.90897   0.00000   0.00000  Average:  25.78112   0.00000   0.00000
           0.00000  25.90897   0.00000             0.00000  25.78112   0.00000
           0.00000   0.00000  25.90897             0.00000   0.00000  25.78112
Lengths:  25.90897  25.90897  25.90897  Average:  25.78112  25.78112  25.78112
Angles:   90.00000  90.00000  90.00000  Average:  90.00000  90.00000  90.00000
Rectangular boundary conditions

net charge:   0.00000000

component 0 (CO2) lambda:  0 occupancy:  1 (1.000000)
    net charge:   0.00000000 [e]

Amount of molecules per component :
-------------------------------------------------------------------------------
Component 0 (CO2)
    molecules:      2.500000e+02 molecules  (2.500000e+02 +/- 0.000000e+00)
    number density: 1.437439e-02 molec./A^3 (1.459517e-02 +/- 0.000000e+00)
    density:        1.050217e+03 kg/m^3     (1.066348e+03 +/- 0.000000e+00)

Average pressure tensor: 
-------------------------------------------------------------------------------
-1.0998e+02 -9.7509e+01  3.8278e+00 +/- 0.0000e+00 0.0000e+00 0.0000e+00 [bar]
-9.7509e+01  1.4989e+02  3.4152e+01 +/- 0.0000e+00 0.0000e+00 0.0000e+00 [bar]
 3.8278e+00  3.4152e+01  4.4199e+01 +/- 0.0000e+00 0.0000e+00 0.0000e+00 [bar]
Ideal-gas pressure:   5.037706e+02 +/ 0.000000e+00 [bar]
Excess pressure:     -4.757339e+02 +/ 0.000000e+00 [bar]
Pressure:             2.803676e+01 +/ 0.000000e+00 [bar]

Total potential energy/kʙ  -3.744446e+05 (-3.831559e+05 +/- 0.000000e+00) [K]
-------------------------------------------------------------------------------
ExternalField-molecule
    Van der Waals/kʙ        0.000000e+00 ( 0.000000e+00 +/- 0.000000e+00) [K]
Framework-molecule
    Van der Waals/kʙ        0.000000e+00 ( 0.000000e+00 +/- 0.000000e+00) [K]
    Van der Waals (Tail)/kʙ 0.000000e+00 ( 0.000000e+00 +/- 0.000000e+00) [K]
    Coulombic Real/kʙ       0.000000e+00 ( 0.000000e+00 +/- 0.000000e+00) [K]
    Coulombic Fourier/kʙ    0.000000e+00 ( 0.000000e+00 +/- 0.000000e+00) [K]
Molecule-molecule
    Van der Waals/kʙ       -2.740353e+05 (-2.781289e+05 +/- 0.000000e+00) [K]
    Van der Waals (Tail)/kʙ-8.663765e+03 (-8.794954e+03 +/- 0.000000e+00) [K]
    Coulombic Real/kʙ      -7.962197e+04 (-8.370786e+04 +/- 0.000000e+00) [K]
    Coulombic Fourier/kʙ   -1.212354e+04 (-1.252417e+04 +/- 0.000000e+00) [K]
    Molecule Intra/kʙ       0.000000e+00 ( 0.000000e+00 +/- 0.000000e+00) [K]

Current cycle: 900 out of 5000
===============================================================================

Box:      26.30738   0.00000   0.00000  Average:  25.81380   0.00000   0.00000
           0.00000  26.30738   0.00000             0.00000  25.81380   0.00000
           0.00000   0.00000  26.30738             0.00000   0.00000  25.81380
Lengths:  26.30738  26.30738  26.30738  Average:  25.81380  25.81380  25.81380
Angles:   90.00000  90.00000  90.00000  Average:  90.00000  90.00000  90.00000
Rectangular boundary conditions

net charge:   0.00000000

component 0 (CO2) lambda:  0 occupancy:  1 (1.000000)
    net charge:   0.00000000 [e]

Amount of molecules per component :
-------------------------------------------------------------------------------
Component 0 (CO2)
    molecules:      2.500000e+02 molecules  (2.500000e+02 +/- 0.000000e+00)
    number density: 1.373115e-02 molec./A^3 (1.454066e-02 +/- 0.000000e+00)
    density:        1.003222e+03 kg/m^3     (1.062366e+03 +/- 0.000000e+00)

Average pressure tensor: 
-------------------------------------------------------------------------------
-1.0652e+02 -7.4438e+01  8.9505e+00 +/- 0.0000e+00 0.0000e+00 0.0000e+00 [bar]
-7.4438e+01  1.2190e+02  2.2672e+01 +/- 0.0000e+00 0.0000e+00 0.0000e+00 [bar]
 8.9505e+00  2.2672e+01  3.1592e+01 +/- 0.0000e+00 0.0000e+00 0.0000e+00 [bar]
Ideal-gas pressure:   5.018892e+02 +/ 0.000000e+00 [bar]
Excess pressure:     -4.862315e+02 +/ 0.000000e+00 [bar]
Pressure:             1.565771e+01 +/ 0.000000e+00 [bar]

Total potential energy/kʙ  -3.623032e+05 (-3.821252e+05 +/- 0.000000e+00) [K]
-------------------------------------------------------------------------------
ExternalField-molecule
    Van der Waals/kʙ        0.000000e+00 ( 0.000000e+00 +/- 0.000000e+00) [K]
Framework-molecule
    Van der Waals/kʙ        0.000000e+00 ( 0.000000e+00 +/- 0.000000e+00) [K]
    Van der Waals (Tail)/kʙ 0.000000e+00 ( 0.000000e+00 +/- 0.000000e+00) [K]
    Coulombic Real/kʙ       0.000000e+00 ( 0.000000e+00 +/- 0.000000e+00) [K]
    Coulombic Fourier/kʙ    0.000000e+00 ( 0.000000e+00 +/- 0.000000e+00) [K]
Molecule-molecule
    Van der Waals/kʙ       -2.585394e+05 (-2.769281e+05 +/- 0.000000e+00) [K]
    Van der Waals (Tail)/kʙ-8.276074e+03 (-8.759161e+03 +/- 0.000000e+00) [K]
    Coulombic Real/kʙ      -8.256732e+04 (-8.384748e+04 +/- 0.000000e+00) [K]
    Coulombic Fourier/kʙ   -1.292039e+04 (-1.259049e+04 +/- 0.000000e+00) [K]
    Molecule Intra/kʙ       0.000000e+00 ( 0.000000e+00 +/- 0.000000e+00) [K]

Current cycle: 1000 out of 5000
===============================================================================

Box:      26.12661   0.00000   0.00000  Average:  25.84822   0.00000   0.00000
           0.00000  26.12661   0.00000             0.00000  25.84822   0.00000
           0.00000   0.00000  26.12661             0.00000   0.00000  25.84822
Lengths:  26.12661  26.12661  26.12661  Average:  25.84822  25.84822  25.84822
Angles:   90.00000  90.00000  90.00000  Average:  90.00000  90.00000  90.00000
Rectangular boundary conditions

net charge:   0.00000000

component 0 (CO2) lambda:  0 occupancy:  1 (1.000000)
    net charge:   0.00000000 [e]

Amount of molecules per component :
-------------------------------------------------------------------------------
Component 0 (CO2)
    molecules:      2.500000e+02 molecules  (2.500000e+02 +/- 0.000000e+00)
    number density: 1.401815e-02 molec./A^3 (1.448345e-02 +/- 0.000000e+00)
    density:        1.024190e+03 kg/m^3     (1.058186e+03 +/- 0.000000e+00)

Average pressure tensor: 
-------------------------------------------------------------------------------
-9.8440e+01 -5.2855e+01  1.4466e+01 +/- 0.0000e+00 0.0000e+00 0.0000e+00 [bar]
-5.2855e+01  1.0276e+02  1.1971e+01 +/- 0.0000e+00 0.0000e+00 0.0000e+00 [bar]
 1.4466e+01  1.1971e+01  1.1082e+01 +/- 0.0000e+00 0.0000e+00 0.0000e+00 [bar]
Ideal-gas pressure:   4.999146e+02 +/ 0.000000e+00 [bar]
Excess pressure:     -4.947804e+02 +/ 0.000000e+00 [bar]
Pressure:             5.134203e+00 +/ 0.000000e+00 [bar]

Total potential energy/kʙ  -3.667569e+05 (-3.805434e+05 +/- 0.000000e+00) [K]
-------------------------------------------------------------------------------
ExternalField-molecule
    Van der Waals/kʙ        0.000000e+00 ( 0.000000e+00 +/- 0.000000e+00) [K]
Framework-molecule
    Van der Waals/kʙ        0.000000e+00 ( 0.000000e+00 +/- 0.000000e+00) [K]
    Van der Waals (Tail)/kʙ 0.000000e+00 ( 0.000000e+00 +/- 0.000000e+00) [K]
    Coulombic Real/kʙ       0.000000e+00 ( 0.000000e+00 +/- 0.000000e+00) [K]
    Coulombic Fourier/kʙ    0.000000e+00 ( 0.000000e+00 +/- 0.000000e+00) [K]
Molecule-molecule
    Van der Waals/kʙ       -2.645466e+05 (-2.757076e+05 +/- 0.000000e+00) [K]
    Van der Waals (Tail)/kʙ-8.449055e+03 (-8.723044e+03 +/- 0.000000e+00) [K]
    Coulombic Real/kʙ      -8.152573e+04 (-8.353428e+04 +/- 0.000000e+00) [K]
    Coulombic Fourier/kʙ   -1.223544e+04 (-1.257848e+04 +/- 0.000000e+00) [K]
    Molecule Intra/kʙ       0.000000e+00 ( 0.000000e+00 +/- 0.000000e+00) [K]

Current cycle: 1100 out of 5000
===============================================================================

Box:      26.03394   0.00000   0.00000  Average:  25.86414   0.00000   0.00000
           0.00000  26.03394   0.00000             0.00000  25.86414   0.00000
           0.00000   0.00000  26.03394             0.00000   0.00000  25.86414
Lengths:  26.03394  26.03394  26.03394  Average:  25.86414  25.86414  25.86414
Angles:   90.00000  90.00000  90.00000  Average:  90.00000  90.00000  90.00000
Rectangular boundary conditions

net charge:   0.00000000

component 0 (CO2) lambda:  0 occupancy:  1 (1.000000)
    net charge:   0.00000000 [e]

Amount of molecules per component :
-------------------------------------------------------------------------------
Component 0 (CO2)
    molecules:      2.500000e+02 molecules  (2.500000e+02 +/- 0.000000e+00)
    number density: 1.416839e-02 molec./A^3 (1.445657e-02 +/- 0.000000e+00)
    density:        1.035167e+03 kg/m^3     (1.056222e+03 +/- 0.000000e+00)

Average pressure tensor: 
-------------------------------------------------------------------------------
-7.4587e+01 -4.9702e+01  1.8422e+01 +/- 0.0000e+00 0.0000e+00 0.0000e+00 [bar]
-4.9702e+01  8.6486e+01  6.9126e+00 +/- 0.0000e+00 0.0000e+00 0.0000e+00 [bar]
 1.8422e+01  6.9126e+00  1.8499e+01 +/- 0.0000e+00 0.0000e+00 0.0000e+00 [bar]
Ideal-gas pressure:   4.989869e+02 +/ 0.000000e+00 [bar]
Excess pressure:     -4.888541e+02 +/ 0.000000e+00 [bar]
Pressure:             1.013277e+01 +/ 0.000000e+00 [bar]

Total potential energy/kʙ  -3.789755e+05 (-3.804632e+05 +/- 0.000000e+00) [K]
-------------------------------------------------------------------------------
ExternalField-molecule
    Van der Waals/kʙ        0.000000e+00 ( 0.000000e+00 +/- 0.000000e+00) [K]
Framework-molecule
    Van der Waals/kʙ        0.000000e+00 ( 0.000000e+00 +/- 0.000000e+00) [K]
    Van der Waals (Tail)/kʙ 0.000000e+00 ( 0.000000e+00 +/- 0.000000e+00) [K]
    Coulombic Real/kʙ       0.000000e+00 ( 0.000000e+00 +/- 0.000000e+00) [K]
    Coulombic Fourier/kʙ    0.000000e+00 ( 0.000000e+00 +/- 0.000000e+00) [K]
Molecule-molecule
    Van der Waals/kʙ       -2.698088e+05 (-2.752137e+05 +/- 0.000000e+00) [K]
    Van der Waals (Tail)/kʙ-8.539603e+03 (-8.710663e+03 +/- 0.000000e+00) [K]
    Coulombic Real/kʙ      -8.812617e+04 (-8.392036e+04 +/- 0.000000e+00) [K]
    Coulombic Fourier/kʙ   -1.250094e+04 (-1.261846e+04 +/- 0.000000e+00) [K]
    Molecule Intra/kʙ       0.000000e+00 ( 0.000000e+00 +/- 0.000000e+00) [K]

Current cycle: 1200 out of 5000
===============================================================================

Box:      26.17721   0.00000   0.00000  Average:  25.87797   0.00000   0.00000
           0.00000  26.17721   0.00000             0.00000  25.87797   0.00000
           0.00000   0.00000  26.17721             0.00000   0.00000  25.87797
Lengths:  26.17721  26.17721  26.17721  Average:  25.87797  25.87797  25.87797
Angles:   90.00000  90.00000  90.00000  Average:  90.00000  90.00000  90.00000
Rectangular boundary conditions

net charge:   0.00000000

component 0 (CO2) lambda:  0 occupancy:  1 (1.000000)
    net charge:   0.00000000 [e]

Amount of molecules per component :
-------------------------------------------------------------------------------
Component 0 (CO2)
    molecules:      2.500000e+02 molecules  (2.500000e+02 +/- 0.000000e+00)
    number density: 1.393703e-02 molec./A^3 (1.443318e-02 +/- 0.000000e+00)
    density:        1.018263e+03 kg/m^3     (1.054513e+03 +/- 0.000000e+00)

Average pressure tensor: 
-------------------------------------------------------------------------------
-7.0784e+01 -4.2623e+01  2.5915e+01 +/- 0.0000e+00 0.0000e+00 0.0000e+00 [bar]
-4.2623e+01  8.3140e+01  3.5634e+00 +/- 0.0000e+00 0.0000e+00 0.0000e+00 [bar]
 2.5915e+01  3.5634e+00  4.4552e+01 +/- 0.0000e+00 0.0000e+00 0.0000e+00 [bar]
Ideal-gas pressure:   4.981793e+02 +/ 0.000000e+00 [bar]
Excess pressure:     -4.792099e+02 +/ 0.000000e+00 [bar]
Pressure:             1.896940e+01 +/ 0.000000e+00 [bar]

Total potential energy/kʙ  -3.697246e+05 (-3.797942e+05 +/- 0.000000e+00) [K]
-------------------------------------------------------------------------------
ExternalField-molecule
    Van der Waals/kʙ        0.000000e+00 ( 0.000000e+00 +/- 0.000000e+00) [K]
Framework-molecule
    Van der Waals/kʙ        0.000000e+00 ( 0.000000e+00 +/- 0.000000e+00) [K]
    Van der Waals (Tail)/kʙ 0.000000e+00 ( 0.000000e+00 +/- 0.000000e+00) [K]
    Coulombic Real/kʙ       0.000000e+00 ( 0.000000e+00 +/- 0.000000e+00) [K]
    Coulombic Fourier/kʙ    0.000000e+00 ( 0.000000e+00 +/- 0.000000e+00) [K]
Molecule-molecule
    Van der Waals/kʙ       -2.656970e+05 (-2.744669e+05 +/- 0.000000e+00) [K]
    Van der Waals (Tail)/kʙ-8.400159e+03 (-8.695726e+03 +/- 0.000000e+00) [K]
    Coulombic Real/kʙ      -8.358825e+04 (-8.399677e+04 +/- 0.000000e+00) [K]
    Coulombic Fourier/kʙ   -1.203922e+04 (-1.263479e+04 +/- 0.000000e+00) [K]
    Molecule Intra/kʙ       0.000000e+00 ( 0.000000e+00 +/- 0.000000e+00) [K]

Current cycle: 1300 out of 5000
===============================================================================

Box:      25.99822   0.00000   0.00000  Average:  25.88538   0.00000   0.00000
           0.00000  25.99822   0.00000             0.00000  25.88538   0.00000
           0.00000   0.00000  25.99822             0.00000   0.00000  25.88538
Lengths:  25.99822  25.99822  25.99822  Average:  25.88538  25.88538  25.88538
Angles:   90.00000  90.00000  90.00000  Average:  90.00000  90.00000  90.00000
Rectangular boundary conditions

net charge:   0.00000000

component 0 (CO2) lambda:  0 occupancy:  1 (1.000000)
    net charge:   0.00000000 [e]

Amount of molecules per component :
-------------------------------------------------------------------------------
Component 0 (CO2)
    molecules:      2.500000e+02 molecules  (2.500000e+02 +/- 0.000000e+00)
    number density: 1.422687e-02 molec./A^3 (1.442060e-02 +/- 0.000000e+00)
    density:        1.039440e+03 kg/m^3     (1.053594e+03 +/- 0.000000e+00)

Average pressure tensor: 
-------------------------------------------------------------------------------
-6.5934e+01 -4.2341e+01  2.9603e+01 +/- 0.0000e+00 0.0000e+00 0.0000e+00 [bar]
-4.2341e+01  8.5042e+01  1.3653e+01 +/- 0.0000e+00 0.0000e+00 0.0000e+00 [bar]
 2.9603e+01  1.3653e+01  4.8757e+01 +/- 0.0000e+00 0.0000e+00 0.0000e+00 [bar]
Ideal-gas pressure:   4.977452e+02 +/ 0.000000e+00 [bar]
Excess pressure:     -4.751234e+02 +/ 0.000000e+00 [bar]
Pressure:             2.262179e+01 +/ 0.000000e+00 [bar]

Total potential energy/kʙ  -3.762006e+05 (-3.796597e+05 +/- 0.000000e+00) [K]
-------------------------------------------------------------------------------
ExternalField-molecule
    Van der Waals/kʙ        0.000000e+00 ( 0.000000e+00 +/- 0.000000e+00) [K]
Framework-molecule
    Van der Waals/kʙ        0.000000e+00 ( 0.000000e+00 +/- 0.000000e+00) [K]
    Van der Waals (Tail)/kʙ 0.000000e+00 ( 0.000000e+00 +/- 0.000000e+00) [K]
    Coulombic Real/kʙ       0.000000e+00 ( 0.000000e+00 +/- 0.000000e+00) [K]
    Coulombic Fourier/kʙ    0.000000e+00 ( 0.000000e+00 +/- 0.000000e+00) [K]
Molecule-molecule
    Van der Waals/kʙ       -2.727088e+05 (-2.741740e+05 +/- 0.000000e+00) [K]
    Van der Waals (Tail)/kʙ-8.574853e+03 (-8.688803e+03 +/- 0.000000e+00) [K]
    Coulombic Real/kʙ      -8.198472e+04 (-8.417029e+04 +/- 0.000000e+00) [K]
    Coulombic Fourier/kʙ   -1.293222e+04 (-1.262661e+04 +/- 0.000000e+00) [K]
    Molecule Intra/kʙ       0.000000e+00 ( 0.000000e+00 +/- 0.000000e+00) [K]

Current cycle: 1400 out of 5000
===============================================================================

Box:      25.57969   0.00000   0.00000  Average:  25.88041   0.00000   0.00000
           0.00000  25.57969   0.00000             0.00000  25.88041   0.00000
           0.00000   0.00000  25.57969             0.00000   0.00000  25.88041
Lengths:  25.57969  25.57969  25.57969  Average:  25.88041  25.88041  25.88041
Angles:   90.00000  90.00000  90.00000  Average:  90.00000  90.00000  90.00000
Rectangular boundary conditions

net charge:   0.00000000

component 0 (CO2) lambda:  0 occupancy:  1 (1.000000)
    net charge:   0.00000000 [e]

Amount of molecules per component :
-------------------------------------------------------------------------------
Component 0 (CO2)
    molecules:      2.500000e+02 molecules  (2.500000e+02 +/- 0.000000e+00)
    number density: 1.493668e-02 molec./A^3 (1.442871e-02 +/- 0.000000e+00)
    density:        1.091299e+03 kg/m^3     (1.054186e+03 +/- 0.000000e+00)

Average pressure tensor: 
-------------------------------------------------------------------------------
-6.0615e+01 -5.0943e+01  3.8825e+01 +/- 0.0000e+00 0.0000e+00 0.0000e+00 [bar]
-5.0943e+01  7.0246e+01  4.3929e+00 +/- 0.0000e+00 0.0000e+00 0.0000e+00 [bar]
 3.8825e+01  4.3929e+00  5.5939e+01 +/- 0.0000e+00 0.0000e+00 0.0000e+00 [bar]
Ideal-gas pressure:   4.980251e+02 +/ 0.000000e+00 [bar]
Excess pressure:     -4.761687e+02 +/ 0.000000e+00 [bar]
Pressure:             2.185635e+01 +/ 0.000000e+00 [bar]

Total potential energy/kʙ  -3.966188e+05 (-3.798877e+05 +/- 0.000000e+00) [K]
-------------------------------------------------------------------------------
ExternalField-molecule
    Van der Waals/kʙ        0.000000e+00 ( 0.000000e+00 +/- 0.000000e+00) [K]
Framework-molecule
    Van der Waals/kʙ        0.000000e+00 ( 0.000000e+00 +/- 0.000000e+00) [K]
    Van der Waals (Tail)/kʙ 0.000000e+00 ( 0.000000e+00 +/- 0.000000e+00) [K]
    Coulombic Real/kʙ       0.000000e+00 ( 0.000000e+00 +/- 0.000000e+00) [K]
    Coulombic Fourier/kʙ    0.000000e+00 ( 0.000000e+00 +/- 0.000000e+00) [K]
Molecule-molecule
    Van der Waals/kʙ       -2.825309e+05 (-2.743568e+05 +/- 0.000000e+00) [K]
    Van der Waals (Tail)/kʙ-9.002670e+03 (-8.694962e+03 +/- 0.000000e+00) [K]
    Coulombic Real/kʙ      -9.231973e+04 (-8.422203e+04 +/- 0.000000e+00) [K]
    Coulombic Fourier/kʙ   -1.276553e+04 (-1.261386e+04 +/- 0.000000e+00) [K]
    Molecule Intra/kʙ       0.000000e+00 ( 0.000000e+00 +/- 0.000000e+00) [K]

Current cycle: 1500 out of 5000
===============================================================================

Box:      25.87719   0.00000   0.00000  Average:  25.86574   0.00000   0.00000
           0.00000  25.87719   0.00000             0.00000  25.86574   0.00000
           0.00000   0.00000  25.87719             0.00000   0.00000  25.86574
Lengths:  25.87719  25.87719  25.87719  Average:  25.86574  25.86574  25.86574
Angles:   90.00000  90.00000  90.00000  Average:  90.00000  90.00000  90.00000
Rectangular boundary conditions

net charge:   0.00000000

component 0 (CO2) lambda:  0 occupancy:  1 (1.000000)
    net charge:   0.00000000 [e]

Amount of molecules per component :
-------------------------------------------------------------------------------
Component 0 (CO2)
    molecules:      2.500000e+02 molecules  (2.500000e+02 +/- 0.000000e+00)
    number density: 1.442742e-02 molec./A^3 (1.445328e-02 +/- 0.000000e+00)
    density:        1.054092e+03 kg/m^3     (1.055982e+03 +/- 0.000000e+00)

Average pressure tensor: 
-------------------------------------------------------------------------------
-5.2547e+01 -4.1426e+01  3.6482e+01 +/- 0.0000e+00 0.0000e+00 0.0000e+00 [bar]
-4.1426e+01  7.9412e+01  8.9494e+00 +/- 0.0000e+00 0.0000e+00 0.0000e+00 [bar]
 3.6482e+01  8.9494e+00  4.8409e+01 +/- 0.0000e+00 0.0000e+00 0.0000e+00 [bar]
Ideal-gas pressure:   4.988733e+02 +/ 0.000000e+00 [bar]
Excess pressure:     -4.737821e+02 +/ 0.000000e+00 [bar]
Pressure:             2.509120e+01 +/ 0.000000e+00 [bar]

Total potential energy/kʙ  -3.809312e+05 (-3.806652e+05 +/- 0.000000e+00) [K]
-------------------------------------------------------------------------------
ExternalField-molecule
    Van der Waals/kʙ        0.000000e+00 ( 0.000000e+00 +/- 0.000000e+00) [K]
Framework-molecule
    Van der Waals/kʙ        0.000000e+00 ( 0.000000e+00 +/- 0.000000e+00) [K]
    Van der Waals (Tail)/kʙ 0.000000e+00 ( 0.000000e+00 +/- 0.000000e+00) [K]
    Coulombic Real/kʙ       0.000000e+00 ( 0.000000e+00 +/- 0.000000e+00) [K]
    Coulombic Fourier/kʙ    0.000000e+00 ( 0.000000e+00 +/- 0.000000e+00) [K]
Molecule-molecule
    Van der Waals/kʙ       -2.762576e+05 (-2.748129e+05 +/- 0.000000e+00) [K]
    Van der Waals (Tail)/kʙ-8.695731e+03 (-8.709224e+03 +/- 0.000000e+00) [K]
    Coulombic Real/kʙ      -8.372929e+04 (-8.455094e+04 +/- 0.000000e+00) [K]
    Coulombic Fourier/kʙ   -1.224866e+04 (-1.259219e+04 +/- 0.000000e+00) [K]
    Molecule Intra/kʙ       0.000000e+00 ( 0.000000e+00 +/- 0.000000e+00) [K]

Current cycle: 1600 out of 5000
===============================================================================

Box:      25.64833   0.00000   0.00000  Average:  25.85087   0.00000   0.00000
           0.00000  25.64833   0.00000             0.00000  25.85087   0.00000
           0.00000   0.00000  25.64833             0.00000   0.00000  25.85087
Lengths:  25.64833  25.64833  25.64833  Average:  25.85087  25.85087  25.85087
Angles:   90.00000  90.00000  90.00000  Average:  90.00000  90.00000  90.00000
Rectangular boundary conditions

net charge:   0.00000000

component 0 (CO2) lambda:  0 occupancy:  1 (1.000000)
    net charge:   0.00000000 [e]

Amount of molecules per component :
-------------------------------------------------------------------------------
Component 0 (CO2)
    molecules:      2.500000e+02 molecules  (2.500000e+02 +/- 0.000000e+00)
    number density: 1.481708e-02 molec./A^3 (1.447837e-02 +/- 0.000000e+00)
    density:        1.082561e+03 kg/m^3     (1.057815e+03 +/- 0.000000e+00)

Average pressure tensor: 
-------------------------------------------------------------------------------
-6.2027e+01 -2.6612e+01  3.7173e+01 +/- 0.0000e+00 0.0000e+00 0.0000e+00 [bar]
-2.6612e+01  6.2534e+01  3.7324e+00 +/- 0.0000e+00 0.0000e+00 0.0000e+00 [bar]
 3.7173e+01  3.7324e+00  5.2566e+01 +/- 0.0000e+00 0.0000e+00 0.0000e+00 [bar]
Ideal-gas pressure:   4.997392e+02 +/ 0.000000e+00 [bar]
Excess pressure:     -4.820484e+02 +/ 0.000000e+00 [bar]
Pressure:             1.769086e+01 +/ 0.000000e+00 [bar]

Total potential energy/kʙ  -3.983030e+05 (-3.816705e+05 +/- 0.000000e+00) [K]
-------------------------------------------------------------------------------
ExternalField-molecule
    Van der Waals/kʙ        0.000000e+00 ( 0.000000e+00 +/- 0.000000e+00) [K]
Framework-molecule
    Van der Waals/kʙ        0.000000e+00 ( 0.000000e+00 +/- 0.000000e+00) [K]
    Van der Waals (Tail)/kʙ 0.000000e+00 ( 0.000000e+00 +/- 0.000000e+00) [K]
    Coulombic Real/kʙ       0.000000e+00 ( 0.000000e+00 +/- 0.000000e+00) [K]
    Coulombic Fourier/kʙ    0.000000e+00 ( 0.000000e+00 +/- 0.000000e+00) [K]
Molecule-molecule
    Van der Waals/kʙ       -2.839363e+05 (-2.753668e+05 +/- 0.000000e+00) [K]
    Van der Waals (Tail)/kʙ-8.930586e+03 (-8.724788e+03 +/- 0.000000e+00) [K]
    Coulombic Real/kʙ      -9.231292e+04 (-8.496497e+04 +/- 0.000000e+00) [K]
    Coulombic Fourier/kʙ   -1.312318e+04 (-1.261400e+04 +/- 0.000000e+00) [K]
    Molecule Intra/kʙ       0.000000e+00 ( 0.000000e+00 +/- 0.000000e+00) [K]

Current cycle: 1700 out of 5000
===============================================================================

Box:      25.73980   0.00000   0.00000  Average:  25.83968   0.00000   0.00000
           0.00000  25.73980   0.00000             0.00000  25.83968   0.00000
           0.00000   0.00000  25.73980             0.00000   0.00000  25.83968
Lengths:  25.73980  25.73980  25.73980  Average:  25.83968  25.83968  25.83968
Angles:   90.00000  90.00000  90.00000  Average:  90.00000  90.00000  90.00000
Rectangular boundary conditions

net charge:   0.00000000

component 0 (CO2) lambda:  0 occupancy:  1 (1.000000)
    net charge:   0.00000000 [e]

Amount of molecules per component :
-------------------------------------------------------------------------------
Component 0 (CO2)
    molecules:      2.500000e+02 molecules  (2.500000e+02 +/- 0.000000e+00)
    number density: 1.465967e-02 molec./A^3 (1.449707e-02 +/- 0.000000e+00)
    density:        1.071061e+03 kg/m^3     (1.059181e+03 +/- 0.000000e+00)

Average pressure tensor: 
-------------------------------------------------------------------------------
-5.7957e+01 -2.4545e+01  3.4171e+01 +/- 0.0000e+00 0.0000e+00 0.0000e+00 [bar]
-2.4545e+01  6.4346e+01  1.2529e+01 +/- 0.0000e+00 0.0000e+00 0.0000e+00 [bar]
 3.4171e+01  1.2529e+01  5.4490e+01 +/- 0.0000e+00 0.0000e+00 0.0000e+00 [bar]
Ideal-gas pressure:   5.003846e+02 +/ 0.000000e+00 [bar]
Excess pressure:     -4.800916e+02 +/ 0.000000e+00 [bar]
Pressure:             2.029303e+01 +/ 0.000000e+00 [bar]

Total potential energy/kʙ  -3.862260e+05 (-3.822848e+05 +/- 0.000000e+00) [K]
-------------------------------------------------------------------------------
ExternalField-molecule
    Van der Waals/kʙ        0.000000e+00 ( 0.000000e+00 +/- 0.000000e+00) [K]
Framework-molecule
    Van der Waals/kʙ        0.000000e+00 ( 0.000000e+00 +/- 0.000000e+00) [K]
    Van der Waals (Tail)/kʙ 0.000000e+00 ( 0.000000e+00 +/- 0.000000e+00) [K]
    Coulombic Real/kʙ       0.000000e+00 ( 0.000000e+00 +/- 0.000000e+00) [K]
    Coulombic Fourier/kʙ    0.000000e+00 ( 0.000000e+00 +/- 0.000000e+00) [K]
Molecule-molecule
    Van der Waals/kʙ       -2.749668e+05 (-2.756635e+05 +/- 0.000000e+00) [K]
    Van der Waals (Tail)/kʙ-8.835713e+03 (-8.736138e+03 +/- 0.000000e+00) [K]
    Coulombic Real/kʙ      -8.925815e+04 (-8.527192e+04 +/- 0.000000e+00) [K]
    Coulombic Fourier/kʙ   -1.316538e+04 (-1.261324e+04 +/- 0.000000e+00) [K]
    Molecule Intra/kʙ       0.000000e+00 ( 0.000000e+00 +/- 0.000000e+00) [K]

Current cycle: 1800 out of 5000
===============================================================================

Box:      26.01068   0.00000   0.00000  Average:  25.83704   0.00000   0.00000
           0.00000  26.01068   0.00000             0.00000  25.83704   0.00000
           0.00000   0.00000  26.01068             0.00000   0.00000  25.83704
Lengths:  26.01068  26.01068  26.01068  Average:  25.83704  25.83704  25.83704
Angles:   90.00000  90.00000  90.00000  Average:  90.00000  90.00000  90.00000
Rectangular boundary conditions

net charge:   0.00000000

component 0 (CO2) lambda:  0 occupancy:  1 (1.000000)
    net charge:   0.00000000 [e]

Amount of molecules per component :
-------------------------------------------------------------------------------
Component 0 (CO2)
    molecules:      2.500000e+02 molecules  (2.500000e+02 +/- 0.000000e+00)
    number density: 1.420643e-02 molec./A^3 (1.450124e-02 +/- 0.000000e+00)
    density:        1.037946e+03 kg/m^3     (1.059485e+03 +/- 0.000000e+00)

Average pressure tensor: 
-------------------------------------------------------------------------------
-4.5454e+01 -2.9054e+01  2.6489e+01 +/- 0.0000e+00 0.0000e+00 0.0000e+00 [bar]
-2.9054e+01  6.6072e+01  4.7939e+00 +/- 0.0000e+00 0.0000e+00 0.0000e+00 [bar]
 2.6489e+01  4.7939e+00  5.8321e+01 +/- 0.0000e+00 0.0000e+00 0.0000e+00 [bar]
Ideal-gas pressure:   5.005285e+02 +/ 0.000000e+00 [bar]
Excess pressure:     -4.742156e+02 +/ 0.000000e+00 [bar]
Pressure:             2.631290e+01 +/ 0.000000e+00 [bar]

Total potential energy/kʙ  -3.756924e+05 (-3.822897e+05 +/- 0.000000e+00) [K]
-------------------------------------------------------------------------------
ExternalField-molecule
    Van der Waals/kʙ        0.000000e+00 ( 0.000000e+00 +/- 0.000000e+00) [K]
Framework-molecule
    Van der Waals/kʙ        0.000000e+00 ( 0.000000e+00 +/- 0.000000e+00) [K]
    Van der Waals (Tail)/kʙ 0.000000e+00 ( 0.000000e+00 +/- 0.000000e+00) [K]
    Coulombic Real/kʙ       0.000000e+00 ( 0.000000e+00 +/- 0.000000e+00) [K]
    Coulombic Fourier/kʙ    0.000000e+00 ( 0.000000e+00 +/- 0.000000e+00) [K]
Molecule-molecule
    Van der Waals/kʙ       -2.767673e+05 (-2.756688e+05 +/- 0.000000e+00) [K]
    Van der Waals (Tail)/kʙ-8.562531e+03 (-8.738586e+03 +/- 0.000000e+00) [K]
    Coulombic Real/kʙ      -7.831179e+04 (-8.525048e+04 +/- 0.000000e+00) [K]
    Coulombic Fourier/kʙ   -1.205074e+04 (-1.263182e+04 +/- 0.000000e+00) [K]
    Molecule Intra/kʙ       0.000000e+00 ( 0.000000e+00 +/- 0.000000e+00) [K]

Current cycle: 1900 out of 5000
===============================================================================

Box:      25.73674   0.00000   0.00000  Average:  25.83829   0.00000   0.00000
           0.00000  25.73674   0.00000             0.00000  25.83829   0.00000
           0.00000   0.00000  25.73674             0.00000   0.00000  25.83829
Lengths:  25.73674  25.73674  25.73674  Average:  25.83829  25.83829  25.83829
Angles:   90.00000  90.00000  90.00000  Average:  90.00000  90.00000  90.00000
Rectangular boundary conditions

net charge:   0.00000000

component 0 (CO2) lambda:  0 occupancy:  1 (1.000000)
    net charge:   0.00000000 [e]

Amount of molecules per component :
-------------------------------------------------------------------------------
Component 0 (CO2)
    molecules:      2.500000e+02 molecules  (2.500000e+02 +/- 0.000000e+00)
    number density: 1.466490e-02 molec./A^3 (1.449884e-02 +/- 0.000000e+00)
    density:        1.071443e+03 kg/m^3     (1.059310e+03 +/- 0.000000e+00)

Average pressure tensor: 
-------------------------------------------------------------------------------
-4.9571e+01 -2.5104e+01  2.2425e+01 +/- 0.0000e+00 0.0000e+00 0.0000e+00 [bar]
-2.5104e+01  6.3197e+01 -6.6087e+00 +/- 0.0000e+00 0.0000e+00 0.0000e+00 [bar]
 2.2425e+01 -6.6087e+00  4.9307e+01 +/- 0.0000e+00 0.0000e+00 0.0000e+00 [bar]
Ideal-gas pressure:   5.004456e+02 +/ 0.000000e+00 [bar]
Excess pressure:     -4.794680e+02 +/ 0.000000e+00 [bar]
Pressure:             2.097759e+01 +/ 0.000000e+00 [bar]

Total potential energy/kʙ  -3.779463e+05 (-3.822117e+05 +/- 0.000000e+00) [K]
-------------------------------------------------------------------------------
ExternalField-molecule
    Van der Waals/kʙ        0.000000e+00 ( 0.000000e+00 +/- 0.000000e+00) [K]
Framework-molecule
    Van der Waals/kʙ        0.000000e+00 ( 0.000000e+00 +/- 0.000000e+00) [K]
    Van der Waals (Tail)/kʙ 0.000000e+00 ( 0.000000e+00 +/- 0.000000e+00) [K]
    Coulombic Real/kʙ       0.000000e+00 ( 0.000000e+00 +/- 0.000000e+00) [K]
    Coulombic Fourier/kʙ    0.000000e+00 ( 0.000000e+00 +/- 0.000000e+00) [K]
Molecule-molecule
    Van der Waals/kʙ       -2.762610e+05 (-2.755774e+05 +/- 0.000000e+00) [K]
    Van der Waals (Tail)/kʙ-8.838865e+03 (-8.737077e+03 +/- 0.000000e+00) [K]
    Coulombic Real/kʙ      -8.175193e+04 (-8.528671e+04 +/- 0.000000e+00) [K]
    Coulombic Fourier/kʙ   -1.109444e+04 (-1.261054e+04 +/- 0.000000e+00) [K]
    Molecule Intra/kʙ       0.000000e+00 ( 0.000000e+00 +/- 0.000000e+00) [K]

Current cycle: 2000 out of 5000
===============================================================================

Box:      25.48724   0.00000   0.00000  Average:  25.82755   0.00000   0.00000
           0.00000  25.48724   0.00000             0.00000  25.82755   0.00000
           0.00000   0.00000  25.48724             0.00000   0.00000  25.82755
Lengths:  25.48724  25.48724  25.48724  Average:  25.82755  25.82755  25.82755
Angles:   90.00000  90.00000  90.00000  Average:  90.00000  90.00000  90.00000
Rectangular boundary conditions

net charge:   0.00000000

component 0 (CO2) lambda:  0 occupancy:  1 (1.000000)
    net charge:   0.00000000 [e]

Amount of molecules per component :
-------------------------------------------------------------------------------
Component 0 (CO2)
    molecules:      2.500000e+02 molecules  (2.500000e+02 +/- 0.000000e+00)
    number density: 1.509982e-02 molec./A^3 (1.451696e-02 +/- 0.000000e+00)
    density:        1.103219e+03 kg/m^3     (1.060634e+03 +/- 0.000000e+00)

Average pressure tensor: 
-------------------------------------------------------------------------------
-4.2522e+01 -2.7410e+01  2.5868e+01 +/- 0.0000e+00 0.0000e+00 0.0000e+00 [bar]
-2.7410e+01  5.8672e+01 -3.9926e+00 +/- 0.0000e+00 0.0000e+00 0.0000e+00 [bar]
 2.5868e+01 -3.9926e+00  5.5745e+01 +/- 0.0000e+00 0.0000e+00 0.0000e+00 [bar]
Ideal-gas pressure:   5.010710e+02 +/ 0.000000e+00 [bar]
Excess pressure:     -4.771059e+02 +/ 0.000000e+00 [bar]
Pressure:             2.396517e+01 +/ 0.000000e+00 [bar]

Total potential energy/kʙ  -3.968413e+05 (-3.827215e+05 +/- 0.000000e+00) [K]
-------------------------------------------------------------------------------
ExternalField-molecule
    Van der Waals/kʙ        0.000000e+00 ( 0.000000e+00 +/- 0.000000e+00) [K]
Framework-molecule
    Van der Waals/kʙ        0.000000e+00 ( 0.000000e+00 +/- 0.000000e+00) [K]
    Van der Waals (Tail)/kʙ 0.000000e+00 ( 0.000000e+00 +/- 0.000000e+00) [K]
    Coulombic Real/kʙ       0.000000e+00 ( 0.000000e+00 +/- 0.000000e+00) [K]
    Coulombic Fourier/kʙ    0.000000e+00 ( 0.000000e+00 +/- 0.000000e+00) [K]
Molecule-molecule
    Van der Waals/kʙ       -2.835786e+05 (-2.759386e+05 +/- 0.000000e+00) [K]
    Van der Waals (Tail)/kʙ-9.101000e+03 (-8.749198e+03 +/- 0.000000e+00) [K]
    Coulombic Real/kʙ      -9.118387e+04 (-8.543357e+04 +/- 0.000000e+00) [K]
    Coulombic Fourier/kʙ   -1.297781e+04 (-1.260011e+04 +/- 0.000000e+00) [K]
    Molecule Intra/kʙ       0.000000e+00 ( 0.000000e+00 +/- 0.000000e+00) [K]

Current cycle: 2100 out of 5000
===============================================================================

Box:      25.68885   0.00000   0.00000  Average:  25.81761   0.00000   0.00000
           0.00000  25.68885   0.00000             0.00000  25.81761   0.00000
           0.00000   0.00000  25.68885             0.00000   0.00000  25.81761
Lengths:  25.68885  25.68885  25.68885  Average:  25.81761  25.81761  25.81761
Angles:   90.00000  90.00000  90.00000  Average:  90.00000  90.00000  90.00000
Rectangular boundary conditions

net charge:   0.00000000

component 0 (CO2) lambda:  0 occupancy:  1 (1.000000)
    net charge:   0.00000000 [e]

Amount of molecules per component :
-------------------------------------------------------------------------------
Component 0 (CO2)
    molecules:      2.500000e+02 molecules  (2.500000e+02 +/- 0.000000e+00)
    number density: 1.474708e-02 molec./A^3 (1.453373e-02 +/- 0.000000e+00)
    density:        1.077447e+03 kg/m^3     (1.061859e+03 +/- 0.000000e+00)

Average pressure tensor: 
-------------------------------------------------------------------------------
-3.4138e+01 -3.2081e+01  2.6277e+01 +/- 0.0000e+00 0.0000e+00 0.0000e+00 [bar]
-3.2081e+01  5.4751e+01 -4.9166e+00 +/- 0.0000e+00 0.0000e+00 0.0000e+00 [bar]
 2.6277e+01 -4.9166e+00  6.9768e+01 +/- 0.0000e+00 0.0000e+00 0.0000e+00 [bar]
Ideal-gas pressure:   5.016498e+02 +/ 0.000000e+00 [bar]
Excess pressure:     -4.715226e+02 +/ 0.000000e+00 [bar]
Pressure:             3.012721e+01 +/ 0.000000e+00 [bar]

Total potential energy/kʙ  -3.909224e+05 (-3.830558e+05 +/- 0.000000e+00) [K]
-------------------------------------------------------------------------------
ExternalField-molecule
    Van der Waals/kʙ        0.000000e+00 ( 0.000000e+00 +/- 0.000000e+00) [K]
Framework-molecule
    Van der Waals/kʙ        0.000000e+00 ( 0.000000e+00 +/- 0.000000e+00) [K]
    Van der Waals (Tail)/kʙ 0.000000e+00 ( 0.000000e+00 +/- 0.000000e+00) [K]
[...]
    Coulombic Fourier/kʙ    0.000000e+00 ( 0.000000e+00 +/- 0.000000e+00) [K]
Molecule-molecule
    Van der Waals/kʙ       -2.689993e+05 (-2.750255e+05 +/- 6.834335e+03) [K]
    Van der Waals (Tail)/kʙ-8.383545e+03 (-8.727728e+03 +/- 1.953767e+02) [K]
    Coulombic Real/kʙ      -7.457954e+04 (-8.548973e+04 +/- 3.912956e+03) [K]
    Coulombic Fourier/kʙ   -1.188705e+04 (-1.270951e+04 +/- 4.264460e+02) [K]
    Molecule Intra/kʙ       0.000000e+00 ( 0.000000e+00 +/- 0.000000e+00) [K]

Current cycle: 4700 out of 5000
===============================================================================

Box:      25.79998   0.00000   0.00000  Average:  25.85127   0.00000   0.00000
           0.00000  25.79998   0.00000             0.00000  25.85127   0.00000
           0.00000   0.00000  25.79998             0.00000   0.00000  25.85127
Lengths:  25.79998  25.79998  25.79998  Average:  25.85127  25.85127  25.85127
Angles:   90.00000  90.00000  90.00000  Average:  90.00000  90.00000  90.00000
Rectangular boundary conditions

net charge:   0.00000000

component 0 (CO2) lambda:  0 occupancy:  1 (1.000000)
    net charge:   0.00000000 [e]

Amount of molecules per component :
-------------------------------------------------------------------------------
Component 0 (CO2)
    molecules:      2.500000e+02 molecules  (2.500000e+02 +/- 3.944933e-14)
    number density: 1.455734e-02 molec./A^3 (1.447840e-02 +/- 3.282639e-04)
    density:        1.063584e+03 kg/m^3     (1.057817e+03 +/- 2.398353e+01)

Average pressure tensor: 
-------------------------------------------------------------------------------
-4.1606e+00 -6.2518e+00  1.4242e+01 +/- 7.0625e+01 3.9116e+01 2.2656e+01 [bar]
-6.2518e+00  4.8409e+01 -1.0516e+01 +/- 3.9116e+01 4.8913e+01 3.5371e+01 [bar]
 1.4242e+01 -1.0516e+01  7.0789e+01 +/- 2.2656e+01 3.5371e+01 5.8664e+01 [bar]
Ideal-gas pressure:   4.997403e+02 +/ 1.133044e+01 [bar]
Excess pressure:     -4.613943e+02 +/ 2.580350e+01 [bar]
Pressure:             3.834598e+01 +/ 2.378146e+01 [bar]

Total potential energy/kʙ  -3.802950e+05 (-3.818951e+05 +/- 1.068827e+04) [K]
-------------------------------------------------------------------------------
ExternalField-molecule
    Van der Waals/kʙ        0.000000e+00 ( 0.000000e+00 +/- 0.000000e+00) [K]
Framework-molecule
    Van der Waals/kʙ        0.000000e+00 ( 0.000000e+00 +/- 0.000000e+00) [K]
    Van der Waals (Tail)/kʙ 0.000000e+00 ( 0.000000e+00 +/- 0.000000e+00) [K]
    Coulombic Real/kʙ       0.000000e+00 ( 0.000000e+00 +/- 0.000000e+00) [K]
    Coulombic Fourier/kʙ    0.000000e+00 ( 0.000000e+00 +/- 0.000000e+00) [K]
Molecule-molecule
    Van der Waals/kʙ       -2.748637e+05 (-2.749868e+05 +/- 6.557595e+03) [K]
    Van der Waals (Tail)/kʙ-8.774033e+03 (-8.726623e+03 +/- 1.891873e+02) [K]
    Coulombic Real/kʙ      -8.308848e+04 (-8.546461e+04 +/- 3.857003e+03) [K]
    Coulombic Fourier/kʙ   -1.356874e+04 (-1.271707e+04 +/- 4.152682e+02) [K]
    Molecule Intra/kʙ       0.000000e+00 ( 0.000000e+00 +/- 0.000000e+00) [K]

Current cycle: 4800 out of 5000
===============================================================================

Box:      25.82603   0.00000   0.00000  Average:  25.84861   0.00000   0.00000
           0.00000  25.82603   0.00000             0.00000  25.84861   0.00000
           0.00000   0.00000  25.82603             0.00000   0.00000  25.84861
Lengths:  25.82603  25.82603  25.82603  Average:  25.84861  25.84861  25.84861
Angles:   90.00000  90.00000  90.00000  Average:  90.00000  90.00000  90.00000
Rectangular boundary conditions

net charge:   0.00000000

component 0 (CO2) lambda:  0 occupancy:  1 (1.000000)
    net charge:   0.00000000 [e]

Amount of molecules per component :
-------------------------------------------------------------------------------
Component 0 (CO2)
    molecules:      2.500000e+02 molecules  (2.500000e+02 +/- 0.000000e+00)
    number density: 1.451333e-02 molec./A^3 (1.448277e-02 +/- 3.104032e-04)
    density:        1.060369e+03 kg/m^3     (1.058136e+03 +/- 2.267859e+01)

Average pressure tensor: 
-------------------------------------------------------------------------------
-1.7266e+00 -7.4236e+00  1.4895e+01 +/- 7.2741e+01 3.5760e+01 2.2742e+01 [bar]
-7.4236e+00  4.7509e+01 -8.1274e+00 +/- 3.5760e+01 4.8839e+01 3.6655e+01 [bar]
 1.4895e+01 -8.1274e+00  7.1467e+01 +/- 2.2742e+01 3.6655e+01 5.8094e+01 [bar]
Ideal-gas pressure:   4.998912e+02 +/ 1.071396e+01 [bar]
Excess pressure:     -4.608078e+02 +/ 2.609477e+01 [bar]
Pressure:             3.908336e+01 +/ 2.430000e+01 [bar]

Total potential energy/kʙ  -3.865013e+05 (-3.820658e+05 +/- 1.007798e+04) [K]
-------------------------------------------------------------------------------
ExternalField-molecule
    Van der Waals/kʙ        0.000000e+00 ( 0.000000e+00 +/- 0.000000e+00) [K]
Framework-molecule
    Van der Waals/kʙ        0.000000e+00 ( 0.000000e+00 +/- 0.000000e+00) [K]
    Van der Waals (Tail)/kʙ 0.000000e+00 ( 0.000000e+00 +/- 0.000000e+00) [K]
    Coulombic Real/kʙ       0.000000e+00 ( 0.000000e+00 +/- 0.000000e+00) [K]
    Coulombic Fourier/kʙ    0.000000e+00 ( 0.000000e+00 +/- 0.000000e+00) [K]
Molecule-molecule
    Van der Waals/kʙ       -2.810003e+05 (-2.750921e+05 +/- 6.098729e+03) [K]
    Van der Waals (Tail)/kʙ-8.747510e+03 (-8.729585e+03 +/- 1.782321e+02) [K]
    Coulombic Real/kʙ      -8.417209e+04 (-8.551414e+04 +/- 3.727995e+03) [K]
    Coulombic Fourier/kʙ   -1.258140e+04 (-1.273001e+04 +/- 4.079988e+02) [K]
    Molecule Intra/kʙ       0.000000e+00 ( 0.000000e+00 +/- 0.000000e+00) [K]

Current cycle: 4900 out of 5000
===============================================================================

Box:      26.16029   0.00000   0.00000  Average:  25.85040   0.00000   0.00000
           0.00000  26.16029   0.00000             0.00000  25.85040   0.00000
           0.00000   0.00000  26.16029             0.00000   0.00000  25.85040
Lengths:  26.16029  26.16029  26.16029  Average:  25.85040  25.85040  25.85040
Angles:   90.00000  90.00000  90.00000  Average:  90.00000  90.00000  90.00000
Rectangular boundary conditions

net charge:   0.00000000

component 0 (CO2) lambda:  0 occupancy:  1 (1.000000)
    net charge:   0.00000000 [e]

Amount of molecules per component :
-------------------------------------------------------------------------------
Component 0 (CO2)
    molecules:      2.500000e+02 molecules  (2.500000e+02 +/- 0.000000e+00)
    number density: 1.396408e-02 molec./A^3 (1.447968e-02 +/- 3.082400e-04)
    density:        1.020240e+03 kg/m^3     (1.057910e+03 +/- 2.252054e+01)

Average pressure tensor: 
-------------------------------------------------------------------------------
 2.0305e-01 -9.1537e+00  1.5957e+01 +/- 7.4015e+01 3.3213e+01 2.3201e+01 [bar]
-9.1537e+00  4.4079e+01 -1.3589e+01 +/- 3.3213e+01 5.0033e+01 3.6118e+01 [bar]
 1.5957e+01 -1.3589e+01  6.9169e+01 +/- 2.3201e+01 3.6118e+01 5.9243e+01 [bar]
Ideal-gas pressure:   4.997844e+02 +/ 1.063929e+01 [bar]
Excess pressure:     -4.619672e+02 +/ 2.410499e+01 [bar]
Pressure:             3.781724e+01 +/ 2.323128e+01 [bar]

Total potential energy/kʙ  -3.708177e+05 (-3.819644e+05 +/- 1.001725e+04) [K]
-------------------------------------------------------------------------------
ExternalField-molecule
    Van der Waals/kʙ        0.000000e+00 ( 0.000000e+00 +/- 0.000000e+00) [K]
Framework-molecule
    Van der Waals/kʙ        0.000000e+00 ( 0.000000e+00 +/- 0.000000e+00) [K]
    Van der Waals (Tail)/kʙ 0.000000e+00 ( 0.000000e+00 +/- 0.000000e+00) [K]
    Coulombic Real/kʙ       0.000000e+00 ( 0.000000e+00 +/- 0.000000e+00) [K]
    Coulombic Fourier/kʙ    0.000000e+00 ( 0.000000e+00 +/- 0.000000e+00) [K]
Molecule-molecule
    Van der Waals/kʙ       -2.700977e+05 (-2.750365e+05 +/- 6.024649e+03) [K]
    Van der Waals (Tail)/kʙ-8.416464e+03 (-8.727436e+03 +/- 1.775645e+02) [K]
    Coulombic Real/kʙ      -7.919438e+04 (-8.547287e+04 +/- 3.729566e+03) [K]
    Coulombic Fourier/kʙ   -1.310925e+04 (-1.272763e+04 +/- 4.083456e+02) [K]
    Molecule Intra/kʙ       0.000000e+00 ( 0.000000e+00 +/- 0.000000e+00) [K]


Energy statistics             |  Energy [K]   | Recomputed [K]|  Drift [K]    |
===============================================================================
Total potential energy/kʙ     | -3.872719e+05 | -3.872719e+05 |  1.682374e-09 |
    external field VDW/kʙ     |  0.000000e+00 |  0.000000e+00 |  0.000000e+00 |
    external field Real/kʙ    |  0.000000e+00 |  0.000000e+00 |  0.000000e+00 |
    framework-molecule VDW/kʙ |  0.000000e+00 |  0.000000e+00 |  0.000000e+00 |
    framework-molecule Real/kʙ|  0.000000e+00 |  0.000000e+00 |  0.000000e+00 |
    molecule-molecule VDW/kʙ  | -2.760585e+05 | -2.760585e+05 |  3.465384e-09 |
    molecule-molecule Real/kʙ | -8.978419e+04 | -8.978419e+04 | -1.785198e-09 |
    Van der Waals (Tail)/kʙ   | -8.818101e+03 | -8.818101e+03 |  0.000000e+00 |
    Ewald Fourier/kʙ          |  1.008026e+04 |  1.008026e+04 |  2.187743e-12 |
    Ewald self/kʙ             | -5.029674e+06 | -5.029674e+06 |  0.000000e+00 |
    Ewald exclusion/kʙ        |  5.006983e+06 |  5.006983e+06 |  0.000000e+00 |
    intra VDW/kʙ              |  0.000000e+00 |  0.000000e+00 |  0.000000e+00 |
    intra Coulombic/kʙ        |  0.000000e+00 |  0.000000e+00 |  0.000000e+00 |
    polarization/kʙ           |  0.000000e+00 |  0.000000e+00 |  0.000000e+00 |
    dU/dlambda VDW/kʙ         |  0.000000e+00 |  0.000000e+00 |  0.000000e+00 |
    dU/dlambda Real/kʙ        |  0.000000e+00 |  0.000000e+00 |  0.000000e+00 |
    dU/dlambda Ewald/kʙ       |  0.000000e+00 |  0.000000e+00 |  0.000000e+00 |
-------------------------------------------------------------------------------


Monte-Carlo moves statistics
===============================================================================

    Volume change        all:                8220
    Volume change        total:              8220
    Volume change        constructed:        8220
    Volume change        accepted:           1728
    Volume change        fraction:       0.210219
    Volume change        max-change:     0.066667

Component 0 [CO2]
    Reinsertion (CBMC)   all:              414064
    Reinsertion (CBMC)   total:            414064
    Reinsertion (CBMC)   constructed:      369889
    Reinsertion (CBMC)   accepted:           6129
    Reinsertion (CBMC)   fraction:       0.014802
    Reinsertion (CBMC)   max-change:     0.000000

    Translation          all:              414198
    Translation          total:            138197     138340     137661
    Translation          constructed:      138197     138316     137660
    Translation          accepted:          72031      53088      59284
    Translation          fraction:       0.521220   0.383750   0.430652
    Translation          max-change:     0.633333   0.962963   0.820513

    Rotation             all:              413518
    Rotation             total:            137627     137921     137970
    Rotation             constructed:      137481     137921     137968
    Rotation             accepted:          49190      80646      62047
    Rotation             fraction:       0.357415   0.584726   0.449714
    Rotation             max-change:     1.127094   0.526646   0.820513



Production run counting of the MC moves summed over systems and components
===============================================================================

Volume change                          8220 (0.6576 [%])
Reinsertion (CBMC)                   414064 (33.1251 [%])
Translation                          414198 (33.1358 [%])
Rotation                             413518 (33.0814 [%])

Production count MC-steps:          1250000 [-]
               All summed:          1250000 [-]
               difference:                0 [-]


Production run CPU timings of the MC moves
===============================================================================

Component 0 CO2

Rotation                             59.929282 [s]
    Ewald                            23.312985 [s]
    ExternalField-Molecule            0.014564 [s]
    Framework-Molecule                0.013126 [s]
    Molecule-Molecule                34.685563 [s]
    Overhead                          1.903044 [s]

Reinsertion (CBMC)                  259.655443 [s]
    Ewald                            21.009469 [s]
    NonEwald                        238.240537 [s]
    Overhead                          0.405437 [s]

Translation                          60.053222 [s]
    Ewald                            23.381783 [s]
    ExternalField-Molecule            0.015208 [s]
    Framework-Molecule                0.022886 [s]
    Molecule-Molecule                34.844541 [s]
    Overhead                          1.788804 [s]



Volume change                         69.980877 [s]
    Ewald                             23.347882 [s]
    NonEwald                          43.177723 [s]
    Tail                               3.169085 [s]

Property sampling                     0.314024 [s]
Energy/pressure sampling:             8.264136 [s]


Production run CPU timings of the MC moves summed over systems and components
===============================================================================


Translation                          60.053222 [s]
    Ewald                            23.381783 [s]
    ExternalField-Molecule            0.015208 [s]
    Framework-Molecule                0.022886 [s]
    Molecule-Molecule                34.844541 [s]
    Overhead                          1.788804 [s]

Rotation                             59.929282 [s]
    Ewald                            23.312985 [s]
    ExternalField-Molecule            0.014564 [s]
    Framework-Molecule                0.013126 [s]
    Molecule-Molecule                34.685563 [s]
    Overhead                          1.903044 [s]

Volume change                        69.980877 [s]
    Ewald                            23.347882 [s]
    NonEwald                         43.177723 [s]
    Tail                              3.169085 [s]
    Overhead                          0.286187 [s]

Reinsertion (CBMC)                  259.655443 [s]
    Ewald                            21.009469 [s]
    NonEwald                        238.240537 [s]
    Overhead                          0.405437 [s]

Property sampling:                    0.314024 [s]
Energy/pressure sampling:             8.264136 [s]

Production simulation time:         459.182790 [s]
                All summed:         458.196984 [s]
                  Overhead:           0.985806 [s]


Initalization simulation time:       88.530588 [s]
Equilibration simulation time:        0.000000 [s]
Production simulation time:         459.182790 [s]
Total simulation time:              547.713378 [s]


Energy averages and statistics:
===============================================================================

Framework-molecule energy:
-------------------------------------------------------------------------------



Framework-molecule energy contributions per energy type:
-------------------------------------------------------------------------------



Inter-molecular energy:
-------------------------------------------------------------------------------

    Inter-molecular energy/kʙ 0-0 [CO2-CO2]:
    ---------------------------------------------------------------------------
        Block[  0] -3.806813e+05
        Block[  1] -3.846206e+05
        Block[  2] -3.743873e+05
        Block[  3] -3.942172e+05
        Block[  4] -3.752841e+05
        -----------------------------------------------------------------------
        Average  -3.818381e+05 +/-  1.002424e+04 [K]



Inter-molecular energy contributions per energy type:
-------------------------------------------------------------------------------

    Van der Waals energy/kʙ 0-0 [CO2-CO2]:
    ---------------------------------------------------------------------------
        Block[  0] -2.758192e+05
        Block[  1] -2.759817e+05
        Block[  2] -2.704127e+05
        Block[  3] -2.821184e+05
        Block[  4] -2.706401e+05
        -----------------------------------------------------------------------
        Average  -2.749944e+05 +/-  5.965477e+03 [K]

    VDW Tail-Correction energy/kʙ 0-0 [CO2-CO2]:
    ---------------------------------------------------------------------------
        Block[  0] -8.725784e+03
        Block[  1] -8.769094e+03
        Block[  2] -8.585171e+03
        Block[  3] -8.939963e+03
        Block[  4] -8.613551e+03
        -----------------------------------------------------------------------
        Average  -8.726713e+03 +/-  1.756930e+02 [K]

    Coulomb Real energy/kʙ 0-0 [CO2-CO2]:
    ---------------------------------------------------------------------------
        Block[  0] -8.355436e+04
        Block[  1] -8.725528e+04
        Block[  2] -8.292623e+04
        Block[  3] -8.986016e+04
        Block[  4] -8.336384e+04
        -----------------------------------------------------------------------
        Average  -8.539197e+04 +/-  3.776105e+03 [K]

    Coulomb Fourier energy/kʙ 0-0 [CO2-CO2]:
    ---------------------------------------------------------------------------
        Block[  0] -1.258191e+04
        Block[  1] -1.261454e+04
        Block[  2] -1.246328e+04
        Block[  3] -1.329867e+04
        Block[  4] -1.266666e+04
        -----------------------------------------------------------------------
        Average  -1.272501e+04 +/-  4.087764e+02 [K]


Total energy/kʙ
-------------------------------------------------------------------------------
    Block[  0] -3.806813e+05
    Block[  1] -3.846206e+05
    Block[  2] -3.743873e+05
    Block[  3] -3.942172e+05
    Block[  4] -3.752841e+05
    ---------------------------------------------------------------------------
    Average  -3.818381e+05 +/-  1.002424e+04 [K]

Pressure averages and statistics:
===============================================================================

Average pressure tensor: 
-------------------------------------------------------------------------------
 4.7623e+00 -8.6949e+00  1.9121e+01 +/- 7.9096e+01 3.3359e+01 2.6310e+01 [bar]
-8.6949e+00  4.3893e+01 -1.2149e+01 +/- 3.3359e+01 4.9954e+01 3.5435e+01 [bar]
 1.9121e+01 -1.2149e+01  6.6364e+01 +/- 2.6310e+01 3.5435e+01 6.1151e+01 [bar]

    Block[  0]  4.999306e+07
    Block[  1]  5.021913e+07
    Block[  2]  4.910916e+07
    Block[  3]  5.124384e+07
    Block[  4]  4.930489e+07
    ---------------------------------------------------------------------------
    Ideal gas pressure   4.997402e+07 +/-  6.331282e-02 [Pa]
                         4.997402e+02 +/-  1.051335e+01 [bar]


    Block[  0] -4.945905e+07
    Block[  1] -4.597554e+07
    Block[  2] -4.450232e+07
    Block[  3] -4.593437e+07
    Block[  4] -4.482878e+07
    ---------------------------------------------------------------------------
    Excess pressure  -4.614001e+07 +/-  2.442781e+06 [Pa]
                     -4.614001e+02 +/-  2.442781e+01 [bar]


    Block[  0]  5.340077e+05
    Block[  1]  4.243587e+06
    Block[  2]  4.606839e+06
    Block[  3]  5.309473e+06
    Block[  4]  4.476107e+06
    ---------------------------------------------------------------------------
    Pressure average   3.834003e+06 +/-  2.342746e+06 [Pa]
                       3.834003e+01 +/-  2.342746e+01 [bar]


Enthalpy of adsorption
===============================================================================

No fluctuating components present.


Densities
===============================================================================

Component 0 (CO2)
    Block[  0] 250
    Block[  1] 250
    Block[  2] 250
    Block[  3] 250
    Block[  4] 250
    -----------------------------------------------------------------------
    Density average   2.500000e+02 +/-  0.000000e+00 [molecules]
    Density average   1.447840e-02 +/-  3.045912e-04 [molec/A^3]
    Density average   1.057817e+03 +/-  2.225395e+01 [kg.m⁻³]

