Compiler and run-time data
===============================================================================
RASPA 3.0.4

Random seed: 1057959557

Compiled as a 64-bits application
Compiler: gcc Ubuntu Clang 18.1.3 (1ubuntu1)
Compile Date = Mar 15 2025, Compile Time = 19:39:45

2025-06-02 13:48:15.165370
Simulation started on Mon, Jun 02
The start time was 13:48:00

Hostname:    c060
OS type:     Linux on x86_64
OS release:  6.8.0-58-generic
OS version:  #60-Ubuntu SMP PREEMPT_DYNAMIC Fri Mar 14 18:29:48 UTC 2025


Mutual consistent basic set of units:
===============================================================================

Unit of temperature: 1 [K]
Unit of length:      1e-10 [m]
Unit of time:        1e-12 [s]
Unit of mass:        1.6605402e-27 [kg]
Unit of charge:      1.60217733e-19 [C/particle]


Boltzmann constant (internal units):          0.8314464919307584 [-]
represents conversion from energy (internal units) to temperature (in Kelvin)

Derived units and their conversion factors:
===============================================================================

Unit of energy:                           1.6605402000000002e-23 [J]
Unit of energy:                           10.000008872307538 [J.mol⁻¹]
Unit of velocity:                         100 [m.s⁻¹]
Unit of force:                            1.6605402000000002e-13 [N]
Unit of diffusion:                        1.0000000000000002e-08 [m².s⁻¹]
Unit of acceleration:                     1.0000000000000002e-08 [m².s⁻¹]
Unit of torque:                           1.6605402000000002e-23 [N.m]
Unit of pressure:                         16605402 [Pa]
Unit of volume:                           1e-30 [m³]
Unit of density:                          1660.5402 [kg.m⁻³]
Unit of dynamic viscosity:                1.6605401999999997e-05 [N.s.m⁻²]
Unit of enthalpy:                         1.6605402000000002e-23 [J]
Unit of polarizability:                   1.5458657349975198e-35 [-]
Unit of Coulomb potential:                167101.08000665612 [K]
Unit of dielectric constant:              1.5458657349975193e-05 [s².C².kg⁻¹.m⁻³]
Unit of dipole moment:                    1.60217733e-29 [C.m]
Unit of Debye:                            4.803206799099162 [C.m]
Unit of electric potential:               0.00010364272224473431 [V]
Unit of electric field:                   1036427.222447343 [V.m⁻¹]
Unit of isothermal compressibility:       6.02213665167516e-08 [Pa⁻¹]
Unit of heat capacity:                    10.000008872307538 [J.mol⁻¹.K⁻¹]
Unit of volumetric expansion coefficient: 1 [K⁻¹]


Internal conversion factors:
===============================================================================

Energy (internal units) to Kelvin:      1.202724284692786 [-]
Kelvin to energy (internal units):      0.8314457542157567 [-]


System definitions
===============================================================================

Temperature:          250 [K]
Beta:                 0.0048108928702210625 [-]
Pressure:             4e+06 [Pa]
Helium void fraction: 1 [-]

Box:      30.00000   0.00000   0.00000
           0.00000  30.00000   0.00000
           0.00000   0.00000  30.00000
Lengths:  30.00000  30.00000  30.00000
Angles:   90.00000  90.00000  90.00000
Rectangular boundary conditions



Property measurement settings
===============================================================================




Pseudo-atoms
===============================================================================

  0 - C_co2    framework-atom: false
  1 - O_co2    framework-atom: false

  0 - C_co2    mass: 12.00000, charge:  0.70000
  1 - O_co2    mass: 15.99940, charge: -0.35000

  0 - C_co2    polarizability:  0.00000
  1 - O_co2    polarizability:  0.00000

  0 - J. J. Potoff et al., AIChE J. 2001, 47, 1676–1682.
  1 - J. J. Potoff et al., AIChE J. 2001, 47, 1676–1682.

Force field status
===============================================================================

Cutoff Framework-Molecule VDW:  10.00000 [Å]
Cutoff Molecule-Molecule VDW:   10.00000 [Å]
Cutoff Coulomb:                 10.00000 [Å]

Overlap-criteria VDW:           1.000000e+05 [K]

C_co2    - C_co2    Lennard-Jones p₀/kʙ:  27.00000 [K], p₁:  2.80000 [Å]
                                  shift:   0.00000 [K], tailcorrections: true
C_co2    - O_co2    Lennard-Jones p₀/kʙ:  46.18441 [K], p₁:  2.92500 [Å]
                                  shift:   0.00000 [K], tailcorrections: true
O_co2    - O_co2    Lennard-Jones p₀/kʙ:  79.00000 [K], p₁:  3.05000 [Å]
                                  shift:   0.00000 [K], tailcorrections: true

Ewald precision: 1e-06
Ewald alpha: 0.32079885109097883
Ewald k-vectors: 10 10 10


Component definitions
===============================================================================

Component 0 [CO2]

    Type: Adsorbate

    Critical temperature:  304.1282 [K]
    Critical pressure:     7377300 [Pa]
    Acentric factor:       0.22394 [-]

    Mol-fraction:                 1 [-]
    Swappable:                   false

    Mass:                         43.9988 [-]
    Bulk fluid density:           0 [-]
    Compressibility:              0 [-]
    Excess molecules:             0 [-]

    Number Of Atoms:    3
    CBMC starting bead: 0
      0: O_co2  position  0.00000 -0.00000  1.16000, charge -0.35000
      1: C_co2  position  0.00000 -0.00000  0.00000, charge  0.70000
      2: O_co2  position  0.00000 -0.00000 -1.16000, charge -0.35000
    Diagonalized inertia-vector:      43.05758528 43.05758528 0.00000000
    Translational degrees of freedom: 3
    Rotational degrees of freedom:    2
    Shape of the molecule is: 'Linear'
    Net-charge:        0.00000000 [e]

    Move probabilities:
    Translation:                   0.331126 [-]
    Random translation:            0.000000 [-]
    Rotation:                      0.331126 [-]
    Random rotation:               0.000000 [-]
    Volume change:                 0.006623 [-]
    Reinsertion (CBMC):            0.331126 [-]
    Identity change (CBMC):        0.000000 [-]
    Swap:                          0.000000 [-]
    Swap (CBMC):                   0.000000 [-]
    Swap (CFCMC):                  0.000000 [-]
    Swap (CB/CFCMC):               0.000000 [-]
    Gibbs volume:                  0.000000 [-]
    Gibbs swap (CBMC):             0.000000 [-]
    Gibbs swap (CFCMC):            0.000000 [-]
    Widom:                         0.000000 [-]
    Widom (CFCMC):                 0.000000 [-]
    Widom (CB/CFCMC):              0.000000 [-]
    Parallel tempering:            0.000000 [-]
    Hybrid MC:                     0.000000 [-]

    number of blocking-pockets: 0

    number of bonds: 0





Number of pseudo-atoms
===============================================================================

Component   0 (CO2)
-------------------------------------------------------------------------------
    index   0 (C_co2): 250 atoms
    index   1 (O_co2): 500 atoms

Total number of pseudo-atoms:
-------------------------------------------------------------------------------
    index   0 (C_co2): 250 atoms
    index   1 (O_co2): 500 atoms




Energy status Recomputed from scratch
===============================================================================

Total potential energy/kʙ       -5.911953e+04 [K]
    external field VDW/kʙ        0.000000e+00 [K]
    external field Real/kʙ       0.000000e+00 [K]
    framework-molecule VDW/kʙ    0.000000e+00 [K]
    framework-molecule Real/kʙ   0.000000e+00 [K]
    molecule-molecule VDW/kʙ    -2.933397e+04 [K]
    molecule-molecule Real/kʙ   -1.727783e+04 [K]
    Van der Waals (Tail)/kʙ     -7.427197e+03 [K]
    Ewald Fourier/kʙ             3.124661e+04 [K]
    Ewald self/kʙ               -5.557308e+06 [K]
    Ewald exclusion/kʙ           5.520981e+06 [K]
    intra VDW/kʙ                 0.000000e+00 [K]
    intra Coulombic/kʙ           0.000000e+00 [K]
    polarization/kʙ              0.000000e+00 [K]
    dU/dlambda VDW/kʙ            0.000000e+00 [K]
    dU/dlambda Real/kʙ           0.000000e+00 [K]
    dU/dlambda Ewald/kʙ          0.000000e+00 [K]





Initialization: Current cycle: 0 out of 1000
===============================================================================

Box:      30.29325   0.00000   0.00000
           0.00000  30.29325   0.00000
           0.00000   0.00000  30.29325
Lengths:  30.29325  30.29325  30.29325
Angles:   90.00000  90.00000  90.00000
Rectangular boundary conditions

net charge:   0.00000000

component   0 (CO2) lambda:  0 occupancy:  1 (1.000000)
    net charge:   0.00000000 [e]

Amount of molecules per component :
-------------------------------------------------------------------------------
Component 0 (CO2)
    molecules:         2.500000e+02 molecules
    number density:    8.992956e-03 molec/A^3
    density:           6.570407e+02 kg/m^3

Total potential energy/kʙ       -1.388681e+05 [K]
-------------------------------------------------------------------------------
    external field VDW/kʙ        0.000000e+00 [K]
    external field Real/kʙ       0.000000e+00 [K]
    framework-molecule VDW/kʙ    0.000000e+00 [K]
    framework-molecule Real/kʙ   0.000000e+00 [K]
    molecule-molecule VDW/kʙ    -1.052434e+05 [K]
    molecule-molecule Real/kʙ   -1.960399e+04 [K]
    Van der Waals (Tail)/kʙ     -7.213585e+03 [K]
    Ewald Fourier/kʙ             2.952000e+04 [K]
    Ewald self/kʙ               -5.557308e+06 [K]
    Ewald exclusion/kʙ           5.520981e+06 [K]
    intra VDW/kʙ                 0.000000e+00 [K]
    intra Coulombic/kʙ           0.000000e+00 [K]
    polarization/kʙ              0.000000e+00 [K]
    dU/dlambda VDW/kʙ            0.000000e+00 [K]
    dU/dlambda Real/kʙ           0.000000e+00 [K]
    dU/dlambda Ewald/kʙ          0.000000e+00 [K]


Initialization: Current cycle: 100 out of 1000
===============================================================================

Box:      28.28068   0.00000   0.00000
           0.00000  28.28068   0.00000
           0.00000   0.00000  28.28068
Lengths:  28.28068  28.28068  28.28068
Angles:   90.00000  90.00000  90.00000
Rectangular boundary conditions

net charge:   0.00000000

component   0 (CO2) lambda:  0 occupancy:  1 (1.000000)
    net charge:   0.00000000 [e]

Amount of molecules per component :
-------------------------------------------------------------------------------
Component 0 (CO2)
    molecules:         2.500000e+02 molecules
    number density:    1.105275e-02 molec/A^3
    density:           8.075331e+02 kg/m^3

Total potential energy/kʙ       -2.913155e+05 [K]
-------------------------------------------------------------------------------
    external field VDW/kʙ        0.000000e+00 [K]
    external field Real/kʙ       0.000000e+00 [K]
    framework-molecule VDW/kʙ    0.000000e+00 [K]
    framework-molecule Real/kʙ   0.000000e+00 [K]
    molecule-molecule VDW/kʙ    -2.114029e+05 [K]
    molecule-molecule Real/kʙ   -5.588186e+04 [K]
    Van der Waals (Tail)/kʙ     -8.865826e+03 [K]
    Ewald Fourier/kʙ             2.116224e+04 [K]
    Ewald self/kʙ               -5.557308e+06 [K]
    Ewald exclusion/kʙ           5.520981e+06 [K]
    intra VDW/kʙ                 0.000000e+00 [K]
    intra Coulombic/kʙ           0.000000e+00 [K]
    polarization/kʙ              0.000000e+00 [K]
    dU/dlambda VDW/kʙ            0.000000e+00 [K]
    dU/dlambda Real/kʙ           0.000000e+00 [K]
    dU/dlambda Ewald/kʙ          0.000000e+00 [K]


Initialization: Current cycle: 200 out of 1000
===============================================================================

Box:      28.02343   0.00000   0.00000
           0.00000  28.02343   0.00000
           0.00000   0.00000  28.02343
Lengths:  28.02343  28.02343  28.02343
Angles:   90.00000  90.00000  90.00000
Rectangular boundary conditions

net charge:   0.00000000

component   0 (CO2) lambda:  0 occupancy:  1 (1.000000)
    net charge:   0.00000000 [e]

Amount of molecules per component :
-------------------------------------------------------------------------------
Component 0 (CO2)
    molecules:         2.500000e+02 molecules
    number density:    1.135994e-02 molec/A^3
    density:           8.299770e+02 kg/m^3

Total potential energy/kʙ       -3.117163e+05 [K]
-------------------------------------------------------------------------------
    external field VDW/kʙ        0.000000e+00 [K]
    external field Real/kʙ       0.000000e+00 [K]
    framework-molecule VDW/kʙ    0.000000e+00 [K]
    framework-molecule Real/kʙ   0.000000e+00 [K]
    molecule-molecule VDW/kʙ    -2.248895e+05 [K]
    molecule-molecule Real/kʙ   -6.171814e+04 [K]
    Van der Waals (Tail)/kʙ     -9.112235e+03 [K]
    Ewald Fourier/kʙ             2.033065e+04 [K]
    Ewald self/kʙ               -5.557308e+06 [K]
    Ewald exclusion/kʙ           5.520981e+06 [K]
    intra VDW/kʙ                 0.000000e+00 [K]
    intra Coulombic/kʙ           0.000000e+00 [K]
    polarization/kʙ              0.000000e+00 [K]
    dU/dlambda VDW/kʙ            0.000000e+00 [K]
    dU/dlambda Real/kʙ           0.000000e+00 [K]
    dU/dlambda Ewald/kʙ          0.000000e+00 [K]


Initialization: Current cycle: 300 out of 1000
===============================================================================

Box:      27.37517   0.00000   0.00000
           0.00000  27.37517   0.00000
           0.00000   0.00000  27.37517
Lengths:  27.37517  27.37517  27.37517
Angles:   90.00000  90.00000  90.00000
Rectangular boundary conditions

net charge:   0.00000000

component   0 (CO2) lambda:  0 occupancy:  1 (1.000000)
    net charge:   0.00000000 [e]

Amount of molecules per component :
-------------------------------------------------------------------------------
Component 0 (CO2)
    molecules:         2.500000e+02 molecules
    number density:    1.218623e-02 molec/A^3
    density:           8.903471e+02 kg/m^3

Total potential energy/kʙ       -3.175782e+05 [K]
-------------------------------------------------------------------------------
    external field VDW/kʙ        0.000000e+00 [K]
    external field Real/kʙ       0.000000e+00 [K]
    framework-molecule VDW/kʙ    0.000000e+00 [K]
    framework-molecule Real/kʙ   0.000000e+00 [K]
    molecule-molecule VDW/kʙ    -2.274272e+05 [K]
    molecule-molecule Real/kʙ   -6.314517e+04 [K]
    Van der Waals (Tail)/kʙ     -9.775032e+03 [K]
    Ewald Fourier/kʙ             1.909636e+04 [K]
    Ewald self/kʙ               -5.557308e+06 [K]
    Ewald exclusion/kʙ           5.520981e+06 [K]
    intra VDW/kʙ                 0.000000e+00 [K]
    intra Coulombic/kʙ           0.000000e+00 [K]
    polarization/kʙ              0.000000e+00 [K]
    dU/dlambda VDW/kʙ            0.000000e+00 [K]
    dU/dlambda Real/kʙ           0.000000e+00 [K]
    dU/dlambda Ewald/kʙ          0.000000e+00 [K]


Initialization: Current cycle: 400 out of 1000
===============================================================================

Box:      26.95350   0.00000   0.00000
           0.00000  26.95350   0.00000
           0.00000   0.00000  26.95350
Lengths:  26.95350  26.95350  26.95350
Angles:   90.00000  90.00000  90.00000
Rectangular boundary conditions

net charge:   0.00000000

component   0 (CO2) lambda:  0 occupancy:  1 (1.000000)
    net charge:   0.00000000 [e]

Amount of molecules per component :
-------------------------------------------------------------------------------
Component 0 (CO2)
    molecules:         2.500000e+02 molecules
    number density:    1.276717e-02 molec/A^3
    density:           9.327914e+02 kg/m^3

Total potential energy/kʙ       -3.265285e+05 [K]
-------------------------------------------------------------------------------
    external field VDW/kʙ        0.000000e+00 [K]
    external field Real/kʙ       0.000000e+00 [K]
    framework-molecule VDW/kʙ    0.000000e+00 [K]
    framework-molecule Real/kʙ   0.000000e+00 [K]
    molecule-molecule VDW/kʙ    -2.347242e+05 [K]
    molecule-molecule Real/kʙ   -6.394347e+04 [K]
    Van der Waals (Tail)/kʙ     -1.024102e+04 [K]
    Ewald Fourier/kʙ             1.870734e+04 [K]
    Ewald self/kʙ               -5.557308e+06 [K]
    Ewald exclusion/kʙ           5.520981e+06 [K]
    intra VDW/kʙ                 0.000000e+00 [K]
    intra Coulombic/kʙ           0.000000e+00 [K]
    polarization/kʙ              0.000000e+00 [K]
    dU/dlambda VDW/kʙ            0.000000e+00 [K]
    dU/dlambda Real/kʙ           0.000000e+00 [K]
    dU/dlambda Ewald/kʙ          0.000000e+00 [K]


Initialization: Current cycle: 500 out of 1000
===============================================================================

Box:      26.79686   0.00000   0.00000
           0.00000  26.79686   0.00000
           0.00000   0.00000  26.79686
Lengths:  26.79686  26.79686  26.79686
Angles:   90.00000  90.00000  90.00000
Rectangular boundary conditions

net charge:   0.00000000

component   0 (CO2) lambda:  0 occupancy:  1 (1.000000)
    net charge:   0.00000000 [e]

Amount of molecules per component :
-------------------------------------------------------------------------------
Component 0 (CO2)
    molecules:         2.500000e+02 molecules
    number density:    1.299237e-02 molec/A^3
    density:           9.492449e+02 kg/m^3

Total potential energy/kʙ       -3.389819e+05 [K]
-------------------------------------------------------------------------------
    external field VDW/kʙ        0.000000e+00 [K]
    external field Real/kʙ       0.000000e+00 [K]
    framework-molecule VDW/kʙ    0.000000e+00 [K]
    framework-molecule Real/kʙ   0.000000e+00 [K]
    molecule-molecule VDW/kʙ    -2.423274e+05 [K]
    molecule-molecule Real/kʙ   -6.841195e+04 [K]
    Van der Waals (Tail)/kʙ     -1.042167e+04 [K]
    Ewald Fourier/kʙ             1.850634e+04 [K]
    Ewald self/kʙ               -5.557308e+06 [K]
    Ewald exclusion/kʙ           5.520981e+06 [K]
    intra VDW/kʙ                 0.000000e+00 [K]
    intra Coulombic/kʙ           0.000000e+00 [K]
    polarization/kʙ              0.000000e+00 [K]
    dU/dlambda VDW/kʙ            0.000000e+00 [K]
    dU/dlambda Real/kʙ           0.000000e+00 [K]
    dU/dlambda Ewald/kʙ          0.000000e+00 [K]


Initialization: Current cycle: 600 out of 1000
===============================================================================

Box:      26.49208   0.00000   0.00000
           0.00000  26.49208   0.00000
           0.00000   0.00000  26.49208
Lengths:  26.49208  26.49208  26.49208
Angles:   90.00000  90.00000  90.00000
Rectangular boundary conditions

net charge:   0.00000000

component   0 (CO2) lambda:  0 occupancy:  1 (1.000000)
    net charge:   0.00000000 [e]

Amount of molecules per component :
-------------------------------------------------------------------------------
Component 0 (CO2)
    molecules:         2.500000e+02 molecules
    number density:    1.344596e-02 molec/A^3
    density:           9.823845e+02 kg/m^3

Total potential energy/kʙ       -3.464507e+05 [K]
-------------------------------------------------------------------------------
    external field VDW/kʙ        0.000000e+00 [K]
    external field Real/kʙ       0.000000e+00 [K]
    framework-molecule VDW/kʙ    0.000000e+00 [K]
    framework-molecule Real/kʙ   0.000000e+00 [K]
    molecule-molecule VDW/kʙ    -2.504230e+05 [K]
    molecule-molecule Real/kʙ   -6.748161e+04 [K]
    Van der Waals (Tail)/kʙ     -1.078550e+04 [K]
    Ewald Fourier/kʙ             1.856653e+04 [K]
    Ewald self/kʙ               -5.557308e+06 [K]
    Ewald exclusion/kʙ           5.520981e+06 [K]
    intra VDW/kʙ                 0.000000e+00 [K]
    intra Coulombic/kʙ           0.000000e+00 [K]
    polarization/kʙ              0.000000e+00 [K]
    dU/dlambda VDW/kʙ            0.000000e+00 [K]
    dU/dlambda Real/kʙ           0.000000e+00 [K]
    dU/dlambda Ewald/kʙ          0.000000e+00 [K]


Initialization: Current cycle: 700 out of 1000
===============================================================================

Box:      26.01189   0.00000   0.00000
           0.00000  26.01189   0.00000
           0.00000   0.00000  26.01189
Lengths:  26.01189  26.01189  26.01189
Angles:   90.00000  90.00000  90.00000
Rectangular boundary conditions

net charge:   0.00000000

component   0 (CO2) lambda:  0 occupancy:  1 (1.000000)
    net charge:   0.00000000 [e]

Amount of molecules per component :
-------------------------------------------------------------------------------
Component 0 (CO2)
    molecules:         2.500000e+02 molecules
    number density:    1.420445e-02 molec/A^3
    density:           1.037801e+03 kg/m^3

Total potential energy/kʙ       -3.678671e+05 [K]
-------------------------------------------------------------------------------
    external field VDW/kʙ        0.000000e+00 [K]
    external field Real/kʙ       0.000000e+00 [K]
    framework-molecule VDW/kʙ    0.000000e+00 [K]
    framework-molecule Real/kʙ   0.000000e+00 [K]
    molecule-molecule VDW/kʙ    -2.683716e+05 [K]
    molecule-molecule Real/kʙ   -7.073977e+04 [K]
    Van der Waals (Tail)/kʙ     -1.139392e+04 [K]
    Ewald Fourier/kʙ             1.896529e+04 [K]
    Ewald self/kʙ               -5.557308e+06 [K]
    Ewald exclusion/kʙ           5.520981e+06 [K]
    intra VDW/kʙ                 0.000000e+00 [K]
    intra Coulombic/kʙ           0.000000e+00 [K]
    polarization/kʙ              0.000000e+00 [K]
    dU/dlambda VDW/kʙ            0.000000e+00 [K]
    dU/dlambda Real/kʙ           0.000000e+00 [K]
    dU/dlambda Ewald/kʙ          0.000000e+00 [K]


Initialization: Current cycle: 800 out of 1000
===============================================================================

Box:      25.92286   0.00000   0.00000
           0.00000  25.92286   0.00000
           0.00000   0.00000  25.92286
Lengths:  25.92286  25.92286  25.92286
Angles:   90.00000  90.00000  90.00000
Rectangular boundary conditions

net charge:   0.00000000

component   0 (CO2) lambda:  0 occupancy:  1 (1.000000)
    net charge:   0.00000000 [e]

Amount of molecules per component :
-------------------------------------------------------------------------------
Component 0 (CO2)
    molecules:         2.500000e+02 molecules
    number density:    1.435130e-02 molec/A^3
    density:           1.048531e+03 kg/m^3

Total potential energy/kʙ       -3.829737e+05 [K]
-------------------------------------------------------------------------------
    external field VDW/kʙ        0.000000e+00 [K]
    external field Real/kʙ       0.000000e+00 [K]
    framework-molecule VDW/kʙ    0.000000e+00 [K]
    framework-molecule Real/kʙ   0.000000e+00 [K]
    molecule-molecule VDW/kʙ    -2.697780e+05 [K]
    molecule-molecule Real/kʙ   -8.210424e+04 [K]
    Van der Waals (Tail)/kʙ     -1.151172e+04 [K]
    Ewald Fourier/kʙ             1.674741e+04 [K]
    Ewald self/kʙ               -5.557308e+06 [K]
    Ewald exclusion/kʙ           5.520981e+06 [K]
    intra VDW/kʙ                 0.000000e+00 [K]
    intra Coulombic/kʙ           0.000000e+00 [K]
    polarization/kʙ              0.000000e+00 [K]
    dU/dlambda VDW/kʙ            0.000000e+00 [K]
    dU/dlambda Real/kʙ           0.000000e+00 [K]
    dU/dlambda Ewald/kʙ          0.000000e+00 [K]


Initialization: Current cycle: 900 out of 1000
===============================================================================

Box:      26.04242   0.00000   0.00000
           0.00000  26.04242   0.00000
           0.00000   0.00000  26.04242
Lengths:  26.04242  26.04242  26.04242
Angles:   90.00000  90.00000  90.00000
Rectangular boundary conditions

net charge:   0.00000000

component   0 (CO2) lambda:  0 occupancy:  1 (1.000000)
    net charge:   0.00000000 [e]

Amount of molecules per component :
-------------------------------------------------------------------------------
Component 0 (CO2)
    molecules:         2.500000e+02 molecules
    number density:    1.415455e-02 molec/A^3
    density:           1.034155e+03 kg/m^3

Total potential energy/kʙ       -3.738258e+05 [K]
-------------------------------------------------------------------------------
    external field VDW/kʙ        0.000000e+00 [K]
    external field Real/kʙ       0.000000e+00 [K]
    framework-molecule VDW/kʙ    0.000000e+00 [K]
    framework-molecule Real/kʙ   0.000000e+00 [K]
    molecule-molecule VDW/kʙ    -2.641383e+05 [K]
    molecule-molecule Real/kʙ   -7.944982e+04 [K]
    Van der Waals (Tail)/kʙ     -1.135389e+04 [K]
    Ewald Fourier/kʙ             1.744331e+04 [K]
    Ewald self/kʙ               -5.557308e+06 [K]
    Ewald exclusion/kʙ           5.520981e+06 [K]
    intra VDW/kʙ                 0.000000e+00 [K]
    intra Coulombic/kʙ           0.000000e+00 [K]
    polarization/kʙ              0.000000e+00 [K]
    dU/dlambda VDW/kʙ            0.000000e+00 [K]
    dU/dlambda Real/kʙ           0.000000e+00 [K]
    dU/dlambda Ewald/kʙ          0.000000e+00 [K]


Current cycle: 0 out of 5000
===============================================================================

Box:      25.81596   0.00000   0.00000  Average:  25.81596   0.00000   0.00000
           0.00000  25.81596   0.00000             0.00000  25.81596   0.00000
           0.00000   0.00000  25.81596             0.00000   0.00000  25.81596
Lengths:  25.81596  25.81596  25.81596  Average:  25.81596  25.81596  25.81596
Angles:   90.00000  90.00000  90.00000  Average:  90.00000  90.00000  90.00000
Rectangular boundary conditions

net charge:   0.00000000

component 0 (CO2) lambda:  0 occupancy:  1 (1.000000)
    net charge:   0.00000000 [e]

Amount of molecules per component :
-------------------------------------------------------------------------------
Component 0 (CO2)
    molecules:      2.500000e+02 molecules  (2.500000e+02 +/- 0.000000e+00)
    number density: 1.453032e-02 molec./A^3 (1.453032e-02 +/- 0.000000e+00)
    density:        1.061610e+03 kg/m^3     (1.061610e+03 +/- 0.000000e+00)

Average pressure tensor: 
-------------------------------------------------------------------------------
 5.0153e+02  0.0000e+00  0.0000e+00 +/- 0.0000e+00 0.0000e+00 0.0000e+00 [bar]
 0.0000e+00  5.0153e+02  0.0000e+00 +/- 0.0000e+00 0.0000e+00 0.0000e+00 [bar]
 0.0000e+00  0.0000e+00  5.0153e+02 +/- 0.0000e+00 0.0000e+00 0.0000e+00 [bar]
Ideal-gas pressure:   5.015322e+02 +/ 0.000000e+00 [bar]
Excess pressure:      0.000000e+00 +/ 0.000000e+00 [bar]
Pressure:             5.015322e+02 +/ 0.000000e+00 [bar]

Total potential energy/kʙ  -3.862373e+05 (-3.862373e+05 +/- 0.000000e+00) [K]
-------------------------------------------------------------------------------
ExternalField-molecule
    Van der Waals/kʙ        0.000000e+00 ( 0.000000e+00 +/- 0.000000e+00) [K]
Framework-molecule
    Van der Waals/kʙ        0.000000e+00 ( 0.000000e+00 +/- 0.000000e+00) [K]
    Van der Waals (Tail)/kʙ 0.000000e+00 ( 0.000000e+00 +/- 0.000000e+00) [K]
    Coulombic Real/kʙ       0.000000e+00 ( 0.000000e+00 +/- 0.000000e+00) [K]
    Coulombic Fourier/kʙ    0.000000e+00 ( 0.000000e+00 +/- 0.000000e+00) [K]
Molecule-molecule
    Van der Waals/kʙ       -2.716712e+05 (-2.716712e+05 +/- 0.000000e+00) [K]
    Van der Waals (Tail)/kʙ-1.165531e+04 (-1.165531e+04 +/- 0.000000e+00) [K]
    Coulombic Real/kʙ      -8.258610e+04 (-8.258610e+04 +/- 0.000000e+00) [K]
    Coulombic Fourier/kʙ   -2.032468e+04 (-2.032468e+04 +/- 0.000000e+00) [K]
    Molecule Intra/kʙ       0.000000e+00 ( 0.000000e+00 +/- 0.000000e+00) [K]

Current cycle: 100 out of 5000
===============================================================================

Box:      25.94057   0.00000   0.00000  Average:  25.76437   0.00000   0.00000
           0.00000  25.94057   0.00000             0.00000  25.76437   0.00000
           0.00000   0.00000  25.94057             0.00000   0.00000  25.76437
Lengths:  25.94057  25.94057  25.94057  Average:  25.76437  25.76437  25.76437
Angles:   90.00000  90.00000  90.00000  Average:  90.00000  90.00000  90.00000
Rectangular boundary conditions

net charge:   0.00000000

component 0 (CO2) lambda:  0 occupancy:  1 (1.000000)
    net charge:   0.00000000 [e]

Amount of molecules per component :
-------------------------------------------------------------------------------
Component 0 (CO2)
    molecules:      2.500000e+02 molecules  (2.500000e+02 +/- 0.000000e+00)
    number density: 1.432193e-02 molec./A^3 (1.461903e-02 +/- 0.000000e+00)
    density:        1.046385e+03 kg/m^3     (1.068091e+03 +/- 0.000000e+00)

Average pressure tensor: 
-------------------------------------------------------------------------------
 2.6915e+02 -1.8765e+02 -4.8120e+01 +/- 0.0000e+00 0.0000e+00 0.0000e+00 [bar]
-1.8765e+02 -6.5489e+01 -1.5189e+02 +/- 0.0000e+00 0.0000e+00 0.0000e+00 [bar]
-4.8120e+01 -1.5189e+02 -1.7565e+02 +/- 0.0000e+00 0.0000e+00 0.0000e+00 [bar]
Ideal-gas pressure:   5.045941e+02 +/ 0.000000e+00 [bar]
Excess pressure:     -4.952542e+02 +/ 0.000000e+00 [bar]
Pressure:             9.339828e+00 +/ 0.000000e+00 [bar]

Total potential energy/kʙ  -3.845601e+05 (-3.868697e+05 +/- 0.000000e+00) [K]
-------------------------------------------------------------------------------
ExternalField-molecule
    Van der Waals/kʙ        0.000000e+00 ( 0.000000e+00 +/- 0.000000e+00) [K]
Framework-molecule
    Van der Waals/kʙ        0.000000e+00 ( 0.000000e+00 +/- 0.000000e+00) [K]
    Van der Waals (Tail)/kʙ 0.000000e+00 ( 0.000000e+00 +/- 0.000000e+00) [K]
    Coulombic Real/kʙ       0.000000e+00 ( 0.000000e+00 +/- 0.000000e+00) [K]
    Coulombic Fourier/kʙ    0.000000e+00 ( 0.000000e+00 +/- 0.000000e+00) [K]
Molecule-molecule
    Van der Waals/kʙ       -2.714055e+05 (-2.748253e+05 +/- 0.000000e+00) [K]
    Van der Waals (Tail)/kʙ-1.148815e+04 (-1.171268e+04 +/- 0.000000e+00) [K]
    Coulombic Real/kʙ      -8.293590e+04 (-8.085290e+04 +/- 0.000000e+00) [K]
    Coulombic Fourier/kʙ   -1.873056e+04 (-1.947883e+04 +/- 0.000000e+00) [K]
    Molecule Intra/kʙ       0.000000e+00 ( 0.000000e+00 +/- 0.000000e+00) [K]

Current cycle: 200 out of 5000
===============================================================================

Box:      26.00433   0.00000   0.00000  Average:  25.83060   0.00000   0.00000
           0.00000  26.00433   0.00000             0.00000  25.83060   0.00000
           0.00000   0.00000  26.00433             0.00000   0.00000  25.83060
Lengths:  26.00433  26.00433  26.00433  Average:  25.83060  25.83060  25.83060
Angles:   90.00000  90.00000  90.00000  Average:  90.00000  90.00000  90.00000
Rectangular boundary conditions

net charge:   0.00000000

component 0 (CO2) lambda:  0 occupancy:  1 (1.000000)
    net charge:   0.00000000 [e]

Amount of molecules per component :
-------------------------------------------------------------------------------
Component 0 (CO2)
    molecules:      2.500000e+02 molecules  (2.500000e+02 +/- 0.000000e+00)
    number density: 1.421685e-02 molec./A^3 (1.450747e-02 +/- 0.000000e+00)
    density:        1.038707e+03 kg/m^3     (1.059941e+03 +/- 0.000000e+00)

Average pressure tensor: 
-------------------------------------------------------------------------------
 1.5993e+02 -1.2402e+02 -4.4235e+01 +/- 0.0000e+00 0.0000e+00 0.0000e+00 [bar]
-1.2402e+02  4.0485e+01 -7.9146e+01 +/- 0.0000e+00 0.0000e+00 0.0000e+00 [bar]
-4.4235e+01 -7.9146e+01 -1.5648e+02 +/- 0.0000e+00 0.0000e+00 0.0000e+00 [bar]
Ideal-gas pressure:   5.007436e+02 +/ 0.000000e+00 [bar]
Excess pressure:     -4.860989e+02 +/ 0.000000e+00 [bar]
Pressure:             1.464468e+01 +/ 0.000000e+00 [bar]

Total potential energy/kʙ  -3.790297e+05 (-3.849151e+05 +/- 0.000000e+00) [K]
-------------------------------------------------------------------------------
ExternalField-molecule
    Van der Waals/kʙ        0.000000e+00 ( 0.000000e+00 +/- 0.000000e+00) [K]
Framework-molecule
    Van der Waals/kʙ        0.000000e+00 ( 0.000000e+00 +/- 0.000000e+00) [K]
    Van der Waals (Tail)/kʙ 0.000000e+00 ( 0.000000e+00 +/- 0.000000e+00) [K]
    Coulombic Real/kʙ       0.000000e+00 ( 0.000000e+00 +/- 0.000000e+00) [K]
    Coulombic Fourier/kʙ    0.000000e+00 ( 0.000000e+00 +/- 0.000000e+00) [K]
Molecule-molecule
    Van der Waals/kʙ       -2.709274e+05 (-2.721110e+05 +/- 0.000000e+00) [K]
    Van der Waals (Tail)/kʙ-1.140386e+04 (-1.163192e+04 +/- 0.000000e+00) [K]
    Coulombic Real/kʙ      -7.697890e+04 (-8.173730e+04 +/- 0.000000e+00) [K]
    Coulombic Fourier/kʙ   -1.971959e+04 (-1.943483e+04 +/- 0.000000e+00) [K]
    Molecule Intra/kʙ       0.000000e+00 ( 0.000000e+00 +/- 0.000000e+00) [K]

Current cycle: 300 out of 5000
===============================================================================

Box:      25.66152   0.00000   0.00000  Average:  25.80234   0.00000   0.00000
           0.00000  25.66152   0.00000             0.00000  25.80234   0.00000
           0.00000   0.00000  25.66152             0.00000   0.00000  25.80234
Lengths:  25.66152  25.66152  25.66152  Average:  25.80234  25.80234  25.80234
Angles:   90.00000  90.00000  90.00000  Average:  90.00000  90.00000  90.00000
Rectangular boundary conditions

net charge:   0.00000000

component 0 (CO2) lambda:  0 occupancy:  1 (1.000000)
    net charge:   0.00000000 [e]

Amount of molecules per component :
-------------------------------------------------------------------------------
Component 0 (CO2)
    molecules:      2.500000e+02 molecules  (2.500000e+02 +/- 0.000000e+00)
    number density: 1.479424e-02 molec./A^3 (1.455513e-02 +/- 0.000000e+00)
    density:        1.080893e+03 kg/m^3     (1.063422e+03 +/- 0.000000e+00)

Average pressure tensor: 
-------------------------------------------------------------------------------
 9.6957e+01 -5.8148e+01 -5.1888e+01 +/- 0.0000e+00 0.0000e+00 0.0000e+00 [bar]
-5.8148e+01  2.7725e+01 -3.3942e+01 +/- 0.0000e+00 0.0000e+00 0.0000e+00 [bar]
-5.1888e+01 -3.3942e+01 -1.0153e+02 +/- 0.0000e+00 0.0000e+00 0.0000e+00 [bar]
Ideal-gas pressure:   5.023885e+02 +/ 0.000000e+00 [bar]
Excess pressure:     -4.946693e+02 +/ 0.000000e+00 [bar]
Pressure:             7.719171e+00 +/ 0.000000e+00 [bar]

Total potential energy/kʙ  -3.950287e+05 (-3.870501e+05 +/- 0.000000e+00) [K]
-------------------------------------------------------------------------------
ExternalField-molecule
    Van der Waals/kʙ        0.000000e+00 ( 0.000000e+00 +/- 0.000000e+00) [K]
Framework-molecule
    Van der Waals/kʙ        0.000000e+00 ( 0.000000e+00 +/- 0.000000e+00) [K]
    Van der Waals (Tail)/kʙ 0.000000e+00 ( 0.000000e+00 +/- 0.000000e+00) [K]
    Coulombic Real/kʙ       0.000000e+00 ( 0.000000e+00 +/- 0.000000e+00) [K]
    Coulombic Fourier/kʙ    0.000000e+00 ( 0.000000e+00 +/- 0.000000e+00) [K]
Molecule-molecule
    Van der Waals/kʙ       -2.847283e+05 (-2.733410e+05 +/- 0.000000e+00) [K]
    Van der Waals (Tail)/kʙ-1.186701e+04 (-1.167244e+04 +/- 0.000000e+00) [K]
    Coulombic Real/kʙ      -7.871688e+04 (-8.232790e+04 +/- 0.000000e+00) [K]
    Coulombic Fourier/kʙ   -1.971644e+04 (-1.970871e+04 +/- 0.000000e+00) [K]
    Molecule Intra/kʙ       0.000000e+00 ( 0.000000e+00 +/- 0.000000e+00) [K]

Current cycle: 400 out of 5000
===============================================================================

Box:      25.60536   0.00000   0.00000  Average:  25.75645   0.00000   0.00000
           0.00000  25.60536   0.00000             0.00000  25.75645   0.00000
           0.00000   0.00000  25.60536             0.00000   0.00000  25.75645
Lengths:  25.60536  25.60536  25.60536  Average:  25.75645  25.75645  25.75645
Angles:   90.00000  90.00000  90.00000  Average:  90.00000  90.00000  90.00000
Rectangular boundary conditions

net charge:   0.00000000

component 0 (CO2) lambda:  0 occupancy:  1 (1.000000)
    net charge:   0.00000000 [e]

Amount of molecules per component :
-------------------------------------------------------------------------------
Component 0 (CO2)
    molecules:      2.500000e+02 molecules  (2.500000e+02 +/- 0.000000e+00)
    number density: 1.489180e-02 molec./A^3 (1.463378e-02 +/- 0.000000e+00)
    density:        1.088020e+03 kg/m^3     (1.069169e+03 +/- 0.000000e+00)

Average pressure tensor: 
-------------------------------------------------------------------------------
 1.2173e+02 -5.2844e+01 -1.1173e+01 +/- 0.0000e+00 0.0000e+00 0.0000e+00 [bar]
-5.2844e+01  1.3180e+01 -3.9635e+01 +/- 0.0000e+00 0.0000e+00 0.0000e+00 [bar]
-1.1173e+01 -3.9635e+01 -5.4082e+01 +/- 0.0000e+00 0.0000e+00 0.0000e+00 [bar]
Ideal-gas pressure:   5.051033e+02 +/ 0.000000e+00 [bar]
Excess pressure:     -4.781600e+02 +/ 0.000000e+00 [bar]
Pressure:             2.694328e+01 +/ 0.000000e+00 [bar]

Total potential energy/kʙ  -4.027853e+05 (-3.894602e+05 +/- 0.000000e+00) [K]
-------------------------------------------------------------------------------
ExternalField-molecule
    Van der Waals/kʙ        0.000000e+00 ( 0.000000e+00 +/- 0.000000e+00) [K]
Framework-molecule
    Van der Waals/kʙ        0.000000e+00 ( 0.000000e+00 +/- 0.000000e+00) [K]
    Van der Waals (Tail)/kʙ 0.000000e+00 ( 0.000000e+00 +/- 0.000000e+00) [K]
    Coulombic Real/kʙ       0.000000e+00 ( 0.000000e+00 +/- 0.000000e+00) [K]
    Coulombic Fourier/kʙ    0.000000e+00 ( 0.000000e+00 +/- 0.000000e+00) [K]
Molecule-molecule
    Van der Waals/kʙ       -2.811864e+05 (-2.752880e+05 +/- 0.000000e+00) [K]
    Van der Waals (Tail)/kʙ-1.194527e+04 (-1.174185e+04 +/- 0.000000e+00) [K]
    Coulombic Real/kʙ      -8.868086e+04 (-8.269119e+04 +/- 0.000000e+00) [K]
    Coulombic Fourier/kʙ   -2.097284e+04 (-1.973918e+04 +/- 0.000000e+00) [K]
    Molecule Intra/kʙ       0.000000e+00 ( 0.000000e+00 +/- 0.000000e+00) [K]

Current cycle: 500 out of 5000
===============================================================================

Box:      26.00537   0.00000   0.00000  Average:  25.76121   0.00000   0.00000
           0.00000  26.00537   0.00000             0.00000  25.76121   0.00000
           0.00000   0.00000  26.00537             0.00000   0.00000  25.76121
Lengths:  26.00537  26.00537  26.00537  Average:  25.76121  25.76121  25.76121
Angles:   90.00000  90.00000  90.00000  Average:  90.00000  90.00000  90.00000
Rectangular boundary conditions

net charge:   0.00000000

component 0 (CO2) lambda:  0 occupancy:  1 (1.000000)
    net charge:   0.00000000 [e]

Amount of molecules per component :
-------------------------------------------------------------------------------
Component 0 (CO2)
    molecules:      2.500000e+02 molecules  (2.500000e+02 +/- 0.000000e+00)
    number density: 1.421513e-02 molec./A^3 (1.462562e-02 +/- 0.000000e+00)
    density:        1.038581e+03 kg/m^3     (1.068573e+03 +/- 0.000000e+00)

Average pressure tensor: 
-------------------------------------------------------------------------------
 1.3925e+02 -3.6718e+01 -1.0117e+01 +/- 0.0000e+00 0.0000e+00 0.0000e+00 [bar]
-3.6718e+01  5.4202e+01 -2.7013e+01 +/- 0.0000e+00 0.0000e+00 0.0000e+00 [bar]
-1.0117e+01 -2.7013e+01 -4.8450e+01 +/- 0.0000e+00 0.0000e+00 0.0000e+00 [bar]
Ideal-gas pressure:   5.048217e+02 +/ 0.000000e+00 [bar]
Excess pressure:     -4.564875e+02 +/ 0.000000e+00 [bar]
Pressure:             4.833416e+01 +/ 0.000000e+00 [bar]

Total potential energy/kʙ  -3.784827e+05 (-3.884617e+05 +/- 0.000000e+00) [K]
-------------------------------------------------------------------------------
ExternalField-molecule
    Van der Waals/kʙ        0.000000e+00 ( 0.000000e+00 +/- 0.000000e+00) [K]
Framework-molecule
    Van der Waals/kʙ        0.000000e+00 ( 0.000000e+00 +/- 0.000000e+00) [K]
    Van der Waals (Tail)/kʙ 0.000000e+00 ( 0.000000e+00 +/- 0.000000e+00) [K]
    Coulombic Real/kʙ       0.000000e+00 ( 0.000000e+00 +/- 0.000000e+00) [K]
    Coulombic Fourier/kʙ    0.000000e+00 ( 0.000000e+00 +/- 0.000000e+00) [K]
Molecule-molecule
    Van der Waals/kʙ       -2.703864e+05 (-2.749919e+05 +/- 0.000000e+00) [K]
    Van der Waals (Tail)/kʙ-1.140248e+04 (-1.172819e+04 +/- 0.000000e+00) [K]
    Coulombic Real/kʙ      -7.831875e+04 (-8.198083e+04 +/- 0.000000e+00) [K]
    Coulombic Fourier/kʙ   -1.837503e+04 (-1.976081e+04 +/- 0.000000e+00) [K]
    Molecule Intra/kʙ       0.000000e+00 ( 0.000000e+00 +/- 0.000000e+00) [K]

Current cycle: 600 out of 5000
===============================================================================

Box:      25.95985   0.00000   0.00000  Average:  25.76935   0.00000   0.00000
           0.00000  25.95985   0.00000             0.00000  25.76935   0.00000
           0.00000   0.00000  25.95985             0.00000   0.00000  25.76935
Lengths:  25.95985  25.95985  25.95985  Average:  25.76935  25.76935  25.76935
Angles:   90.00000  90.00000  90.00000  Average:  90.00000  90.00000  90.00000
Rectangular boundary conditions

net charge:   0.00000000

component 0 (CO2) lambda:  0 occupancy:  1 (1.000000)
    net charge:   0.00000000 [e]

Amount of molecules per component :
-------------------------------------------------------------------------------
Component 0 (CO2)
    molecules:      2.500000e+02 molecules  (2.500000e+02 +/- 0.000000e+00)
    number density: 1.429004e-02 molec./A^3 (1.461157e-02 +/- 0.000000e+00)
    density:        1.044055e+03 kg/m^3     (1.067547e+03 +/- 0.000000e+00)

Average pressure tensor: 
-------------------------------------------------------------------------------
 1.1731e+02 -1.2201e+01  2.3523e+00 +/- 0.0000e+00 0.0000e+00 0.0000e+00 [bar]
-1.2201e+01  4.8191e+01 -2.8505e+01 +/- 0.0000e+00 0.0000e+00 0.0000e+00 [bar]
 2.3523e+00 -2.8505e+01 -2.7508e+00 +/- 0.0000e+00 0.0000e+00 0.0000e+00 [bar]
Ideal-gas pressure:   5.043369e+02 +/ 0.000000e+00 [bar]
Excess pressure:     -4.500865e+02 +/ 0.000000e+00 [bar]
Pressure:             5.425035e+01 +/ 0.000000e+00 [bar]

Total potential energy/kʙ  -3.753470e+05 (-3.877374e+05 +/- 0.000000e+00) [K]
-------------------------------------------------------------------------------
ExternalField-molecule
    Van der Waals/kʙ        0.000000e+00 ( 0.000000e+00 +/- 0.000000e+00) [K]
Framework-molecule
    Van der Waals/kʙ        0.000000e+00 ( 0.000000e+00 +/- 0.000000e+00) [K]
    Van der Waals (Tail)/kʙ 0.000000e+00 ( 0.000000e+00 +/- 0.000000e+00) [K]
    Coulombic Real/kʙ       0.000000e+00 ( 0.000000e+00 +/- 0.000000e+00) [K]
    Coulombic Fourier/kʙ    0.000000e+00 ( 0.000000e+00 +/- 0.000000e+00) [K]
Molecule-molecule
    Van der Waals/kʙ       -2.708200e+05 (-2.747198e+05 +/- 0.000000e+00) [K]
    Van der Waals (Tail)/kʙ-1.146257e+04 (-1.171567e+04 +/- 0.000000e+00) [K]
    Coulombic Real/kʙ      -7.401678e+04 (-8.156143e+04 +/- 0.000000e+00) [K]
    Coulombic Fourier/kʙ   -1.904768e+04 (-1.974052e+04 +/- 0.000000e+00) [K]
    Molecule Intra/kʙ       0.000000e+00 ( 0.000000e+00 +/- 0.000000e+00) [K]

Current cycle: 700 out of 5000
===============================================================================

Box:      25.76361   0.00000   0.00000  Average:  25.78404   0.00000   0.00000
           0.00000  25.76361   0.00000             0.00000  25.78404   0.00000
           0.00000   0.00000  25.76361             0.00000   0.00000  25.78404
Lengths:  25.76361  25.76361  25.76361  Average:  25.78404  25.78404  25.78404
Angles:   90.00000  90.00000  90.00000  Average:  90.00000  90.00000  90.00000
Rectangular boundary conditions

net charge:   0.00000000

component 0 (CO2) lambda:  0 occupancy:  1 (1.000000)
    net charge:   0.00000000 [e]

Amount of molecules per component :
-------------------------------------------------------------------------------
Component 0 (CO2)
    molecules:      2.500000e+02 molecules  (2.500000e+02 +/- 0.000000e+00)
    number density: 1.461908e-02 molec./A^3 (1.458661e-02 +/- 0.000000e+00)
    density:        1.068095e+03 kg/m^3     (1.065723e+03 +/- 0.000000e+00)

Average pressure tensor: 
-------------------------------------------------------------------------------
 1.0075e+02  2.1182e+01 -1.9847e+00 +/- 0.0000e+00 0.0000e+00 0.0000e+00 [bar]
 2.1182e+01  2.0062e+01 -1.5787e+01 +/- 0.0000e+00 0.0000e+00 0.0000e+00 [bar]
-1.9847e+00 -1.5787e+01  4.2070e+01 +/- 0.0000e+00 0.0000e+00 0.0000e+00 [bar]
Ideal-gas pressure:   5.034753e+02 +/ 0.000000e+00 [bar]
Excess pressure:     -4.491817e+02 +/ 0.000000e+00 [bar]
Pressure:             5.429362e+01 +/ 0.000000e+00 [bar]

Total potential energy/kʙ  -3.859408e+05 (-3.869312e+05 +/- 0.000000e+00) [K]
-------------------------------------------------------------------------------
ExternalField-molecule
    Van der Waals/kʙ        0.000000e+00 ( 0.000000e+00 +/- 0.000000e+00) [K]
Framework-molecule
    Van der Waals/kʙ        0.000000e+00 ( 0.000000e+00 +/- 0.000000e+00) [K]
    Van der Waals (Tail)/kʙ 0.000000e+00 ( 0.000000e+00 +/- 0.000000e+00) [K]
    Coulombic Real/kʙ       0.000000e+00 ( 0.000000e+00 +/- 0.000000e+00) [K]
    Coulombic Fourier/kʙ    0.000000e+00 ( 0.000000e+00 +/- 0.000000e+00) [K]
Molecule-molecule
    Van der Waals/kʙ       -2.728638e+05 (-2.740458e+05 +/- 0.000000e+00) [K]
    Van der Waals (Tail)/kʙ-1.172651e+04 (-1.170087e+04 +/- 0.000000e+00) [K]
    Coulombic Real/kʙ      -8.163423e+04 (-8.149976e+04 +/- 0.000000e+00) [K]
    Coulombic Fourier/kʙ   -1.971618e+04 (-1.968472e+04 +/- 0.000000e+00) [K]
    Molecule Intra/kʙ       0.000000e+00 ( 0.000000e+00 +/- 0.000000e+00) [K]

Current cycle: 800 out of 5000
===============================================================================

Box:      26.11195   0.00000   0.00000  Average:  25.80002   0.00000   0.00000
           0.00000  26.11195   0.00000             0.00000  25.80002   0.00000
           0.00000   0.00000  26.11195             0.00000   0.00000  25.80002
Lengths:  26.11195  26.11195  26.11195  Average:  25.80002  25.80002  25.80002
Angles:   90.00000  90.00000  90.00000  Average:  90.00000  90.00000  90.00000
Rectangular boundary conditions

net charge:   0.00000000

component 0 (CO2) lambda:  0 occupancy:  1 (1.000000)
    net charge:   0.00000000 [e]

Amount of molecules per component :
-------------------------------------------------------------------------------
Component 0 (CO2)
    molecules:      2.500000e+02 molecules  (2.500000e+02 +/- 0.000000e+00)
    number density: 1.404178e-02 molec./A^3 (1.455968e-02 +/- 0.000000e+00)
    density:        1.025917e+03 kg/m^3     (1.063755e+03 +/- 0.000000e+00)

Average pressure tensor: 
-------------------------------------------------------------------------------
 1.1477e+02 -1.0819e+01  3.2965e+01 +/- 0.0000e+00 0.0000e+00 0.0000e+00 [bar]
-1.0819e+01  3.6252e+01 -8.0431e+00 +/- 0.0000e+00 0.0000e+00 0.0000e+00 [bar]
 3.2965e+01 -8.0431e+00  8.5613e+01 +/- 0.0000e+00 0.0000e+00 0.0000e+00 [bar]
Ideal-gas pressure:   5.025457e+02 +/ 0.000000e+00 [bar]
Excess pressure:     -4.236670e+02 +/ 0.000000e+00 [bar]
Pressure:             7.887871e+01 +/ 0.000000e+00 [bar]

Total potential energy/kʙ  -3.674563e+05 (-3.858254e+05 +/- 0.000000e+00) [K]
-------------------------------------------------------------------------------
ExternalField-molecule
    Van der Waals/kʙ        0.000000e+00 ( 0.000000e+00 +/- 0.000000e+00) [K]
Framework-molecule
    Van der Waals/kʙ        0.000000e+00 ( 0.000000e+00 +/- 0.000000e+00) [K]
    Van der Waals (Tail)/kʙ 0.000000e+00 ( 0.000000e+00 +/- 0.000000e+00) [K]
    Coulombic Real/kʙ       0.000000e+00 ( 0.000000e+00 +/- 0.000000e+00) [K]
    Coulombic Fourier/kʙ    0.000000e+00 ( 0.000000e+00 +/- 0.000000e+00) [K]
Molecule-molecule
    Van der Waals/kʙ       -2.673867e+05 (-2.732976e+05 +/- 0.000000e+00) [K]
    Van der Waals (Tail)/kʙ-1.126344e+04 (-1.168408e+04 +/- 0.000000e+00) [K]
    Coulombic Real/kʙ      -7.084088e+04 (-8.126533e+04 +/- 0.000000e+00) [K]
    Coulombic Fourier/kʙ   -1.796530e+04 (-1.957836e+04 +/- 0.000000e+00) [K]
    Molecule Intra/kʙ       0.000000e+00 ( 0.000000e+00 +/- 0.000000e+00) [K]

Current cycle: 900 out of 5000
===============================================================================

Box:      25.70048   0.00000   0.00000  Average:  25.80057   0.00000   0.00000
           0.00000  25.70048   0.00000             0.00000  25.80057   0.00000
           0.00000   0.00000  25.70048             0.00000   0.00000  25.80057
Lengths:  25.70048  25.70048  25.70048  Average:  25.80057  25.80057  25.80057
Angles:   90.00000  90.00000  90.00000  Average:  90.00000  90.00000  90.00000
Rectangular boundary conditions

net charge:   0.00000000

component 0 (CO2) lambda:  0 occupancy:  1 (1.000000)
    net charge:   0.00000000 [e]

Amount of molecules per component :
-------------------------------------------------------------------------------
Component 0 (CO2)
    molecules:      2.500000e+02 molecules  (2.500000e+02 +/- 0.000000e+00)
    number density: 1.472707e-02 molec./A^3 (1.455866e-02 +/- 0.000000e+00)
    density:        1.075985e+03 kg/m^3     (1.063681e+03 +/- 0.000000e+00)

Average pressure tensor: 
-------------------------------------------------------------------------------
 1.1349e+02 -1.8769e+01  3.4493e+01 +/- 0.0000e+00 0.0000e+00 0.0000e+00 [bar]
-1.8769e+01  3.7913e+01  9.9323e+00 +/- 0.0000e+00 0.0000e+00 0.0000e+00 [bar]
 3.4493e+01  9.9323e+00  8.8142e+01 +/- 0.0000e+00 0.0000e+00 0.0000e+00 [bar]
Ideal-gas pressure:   5.025104e+02 +/ 0.000000e+00 [bar]
Excess pressure:     -4.226616e+02 +/ 0.000000e+00 [bar]
Pressure:             7.984886e+01 +/ 0.000000e+00 [bar]

Total potential energy/kʙ  -3.826800e+05 (-3.853227e+05 +/- 0.000000e+00) [K]
-------------------------------------------------------------------------------
ExternalField-molecule
    Van der Waals/kʙ        0.000000e+00 ( 0.000000e+00 +/- 0.000000e+00) [K]
Framework-molecule
    Van der Waals/kʙ        0.000000e+00 ( 0.000000e+00 +/- 0.000000e+00) [K]
    Van der Waals (Tail)/kʙ 0.000000e+00 ( 0.000000e+00 +/- 0.000000e+00) [K]
    Coulombic Real/kʙ       0.000000e+00 ( 0.000000e+00 +/- 0.000000e+00) [K]
    Coulombic Fourier/kʙ    0.000000e+00 ( 0.000000e+00 +/- 0.000000e+00) [K]
Molecule-molecule
    Van der Waals/kʙ       -2.745082e+05 (-2.732205e+05 +/- 0.000000e+00) [K]
    Van der Waals (Tail)/kʙ-1.181313e+04 (-1.168911e+04 +/- 0.000000e+00) [K]
    Coulombic Real/kʙ      -7.719234e+04 (-8.086103e+04 +/- 0.000000e+00) [K]
    Coulombic Fourier/kʙ   -1.916636e+04 (-1.955205e+04 +/- 0.000000e+00) [K]
    Molecule Intra/kʙ       0.000000e+00 ( 0.000000e+00 +/- 0.000000e+00) [K]

Current cycle: 1000 out of 5000
===============================================================================

Box:      25.82574   0.00000   0.00000  Average:  25.80548   0.00000   0.00000
           0.00000  25.82574   0.00000             0.00000  25.80548   0.00000
           0.00000   0.00000  25.82574             0.00000   0.00000  25.80548
Lengths:  25.82574  25.82574  25.82574  Average:  25.80548  25.80548  25.80548
Angles:   90.00000  90.00000  90.00000  Average:  90.00000  90.00000  90.00000
Rectangular boundary conditions

net charge:   0.00000000

component 0 (CO2) lambda:  0 occupancy:  1 (1.000000)
    net charge:   0.00000000 [e]

Amount of molecules per component :
-------------------------------------------------------------------------------
Component 0 (CO2)
    molecules:      2.500000e+02 molecules  (2.500000e+02 +/- 0.000000e+00)
    number density: 1.451381e-02 molec./A^3 (1.455025e-02 +/- 0.000000e+00)
    density:        1.060404e+03 kg/m^3     (1.063066e+03 +/- 0.000000e+00)

Average pressure tensor: 
-------------------------------------------------------------------------------
 1.2150e+02 -1.6666e+01  2.4483e+01 +/- 0.0000e+00 0.0000e+00 0.0000e+00 [bar]
-1.6666e+01  1.6621e+01 -1.5846e+00 +/- 0.0000e+00 0.0000e+00 0.0000e+00 [bar]
 2.4483e+01 -1.5846e+00  1.0559e+02 +/- 0.0000e+00 0.0000e+00 0.0000e+00 [bar]
Ideal-gas pressure:   5.022201e+02 +/ 0.000000e+00 [bar]
Excess pressure:     -4.209834e+02 +/ 0.000000e+00 [bar]
Pressure:             8.123673e+01 +/ 0.000000e+00 [bar]

Total potential energy/kʙ  -3.841639e+05 (-3.846319e+05 +/- 0.000000e+00) [K]
-------------------------------------------------------------------------------
ExternalField-molecule
    Van der Waals/kʙ        0.000000e+00 ( 0.000000e+00 +/- 0.000000e+00) [K]
Framework-molecule
    Van der Waals/kʙ        0.000000e+00 ( 0.000000e+00 +/- 0.000000e+00) [K]
    Van der Waals (Tail)/kʙ 0.000000e+00 ( 0.000000e+00 +/- 0.000000e+00) [K]
    Coulombic Real/kʙ       0.000000e+00 ( 0.000000e+00 +/- 0.000000e+00) [K]
    Coulombic Fourier/kʙ    0.000000e+00 ( 0.000000e+00 +/- 0.000000e+00) [K]
Molecule-molecule
    Van der Waals/kʙ       -2.740195e+05 (-2.729888e+05 +/- 0.000000e+00) [K]
    Van der Waals (Tail)/kʙ-1.164207e+04 (-1.168089e+04 +/- 0.000000e+00) [K]
    Coulombic Real/kʙ      -7.803735e+04 (-8.040843e+04 +/- 0.000000e+00) [K]
    Coulombic Fourier/kʙ   -2.046500e+04 (-1.955378e+04 +/- 0.000000e+00) [K]
    Molecule Intra/kʙ       0.000000e+00 ( 0.000000e+00 +/- 0.000000e+00) [K]

Current cycle: 1100 out of 5000
===============================================================================

Box:      25.65810   0.00000   0.00000  Average:  25.79808   0.00000   0.00000
           0.00000  25.65810   0.00000             0.00000  25.79808   0.00000
           0.00000   0.00000  25.65810             0.00000   0.00000  25.79808
Lengths:  25.65810  25.65810  25.65810  Average:  25.79808  25.79808  25.79808
Angles:   90.00000  90.00000  90.00000  Average:  90.00000  90.00000  90.00000
Rectangular boundary conditions

net charge:   0.00000000

component 0 (CO2) lambda:  0 occupancy:  1 (1.000000)
    net charge:   0.00000000 [e]

Amount of molecules per component :
-------------------------------------------------------------------------------
Component 0 (CO2)
    molecules:      2.500000e+02 molecules  (2.500000e+02 +/- 0.000000e+00)
    number density: 1.480017e-02 molec./A^3 (1.456284e-02 +/- 0.000000e+00)
    density:        1.081326e+03 kg/m^3     (1.063986e+03 +/- 0.000000e+00)

Average pressure tensor: 
-------------------------------------------------------------------------------
 1.0808e+02 -1.1095e+01  2.2560e+01 +/- 0.0000e+00 0.0000e+00 0.0000e+00 [bar]
-1.1095e+01  2.4781e+01 -1.4740e+01 +/- 0.0000e+00 0.0000e+00 0.0000e+00 [bar]
 2.2560e+01 -1.4740e+01  8.7351e+01 +/- 0.0000e+00 0.0000e+00 0.0000e+00 [bar]
Ideal-gas pressure:   5.026548e+02 +/ 0.000000e+00 [bar]
Excess pressure:     -4.292514e+02 +/ 0.000000e+00 [bar]
Pressure:             7.340339e+01 +/ 0.000000e+00 [bar]

Total potential energy/kʙ  -3.813550e+05 (-3.847255e+05 +/- 0.000000e+00) [K]
-------------------------------------------------------------------------------
ExternalField-molecule
    Van der Waals/kʙ        0.000000e+00 ( 0.000000e+00 +/- 0.000000e+00) [K]
Framework-molecule
    Van der Waals/kʙ        0.000000e+00 ( 0.000000e+00 +/- 0.000000e+00) [K]
    Van der Waals (Tail)/kʙ 0.000000e+00 ( 0.000000e+00 +/- 0.000000e+00) [K]
    Coulombic Real/kʙ       0.000000e+00 ( 0.000000e+00 +/- 0.000000e+00) [K]
    Coulombic Fourier/kʙ    0.000000e+00 ( 0.000000e+00 +/- 0.000000e+00) [K]
Molecule-molecule
    Van der Waals/kʙ       -2.739195e+05 (-2.733446e+05 +/- 0.000000e+00) [K]
    Van der Waals (Tail)/kʙ-1.187177e+04 (-1.169097e+04 +/- 0.000000e+00) [K]
    Coulombic Real/kʙ      -7.568039e+04 (-8.011308e+04 +/- 0.000000e+00) [K]
    Coulombic Fourier/kʙ   -1.988339e+04 (-1.957690e+04 +/- 0.000000e+00) [K]
    Molecule Intra/kʙ       0.000000e+00 ( 0.000000e+00 +/- 0.000000e+00) [K]

Current cycle: 1200 out of 5000
===============================================================================

Box:      25.77950   0.00000   0.00000  Average:  25.78854   0.00000   0.00000
           0.00000  25.77950   0.00000             0.00000  25.78854   0.00000
           0.00000   0.00000  25.77950             0.00000   0.00000  25.78854
Lengths:  25.77950  25.77950  25.77950  Average:  25.78854  25.78854  25.78854
Angles:   90.00000  90.00000  90.00000  Average:  90.00000  90.00000  90.00000
Rectangular boundary conditions

net charge:   0.00000000

component 0 (CO2) lambda:  0 occupancy:  1 (1.000000)
    net charge:   0.00000000 [e]

Amount of molecules per component :
-------------------------------------------------------------------------------
Component 0 (CO2)
    molecules:      2.500000e+02 molecules  (2.500000e+02 +/- 0.000000e+00)
    number density: 1.459206e-02 molec./A^3 (1.457903e-02 +/- 0.000000e+00)
    density:        1.066121e+03 kg/m^3     (1.065169e+03 +/- 0.000000e+00)

Average pressure tensor: 
-------------------------------------------------------------------------------
 1.1334e+02 -1.7275e+01  2.3945e+01 +/- 0.0000e+00 0.0000e+00 0.0000e+00 [bar]
-1.7275e+01  3.6754e+01 -3.1263e+01 +/- 0.0000e+00 0.0000e+00 0.0000e+00 [bar]
 2.3945e+01 -3.1263e+01  1.0398e+02 +/- 0.0000e+00 0.0000e+00 0.0000e+00 [bar]
Ideal-gas pressure:   5.032135e+02 +/ 0.000000e+00 [bar]
Excess pressure:     -4.185218e+02 +/ 0.000000e+00 [bar]
Pressure:             8.469170e+01 +/ 0.000000e+00 [bar]

Total potential energy/kʙ  -3.906244e+05 (-3.849125e+05 +/- 0.000000e+00) [K]
-------------------------------------------------------------------------------
ExternalField-molecule
    Van der Waals/kʙ        0.000000e+00 ( 0.000000e+00 +/- 0.000000e+00) [K]
Framework-molecule
    Van der Waals/kʙ        0.000000e+00 ( 0.000000e+00 +/- 0.000000e+00) [K]
    Van der Waals (Tail)/kʙ 0.000000e+00 ( 0.000000e+00 +/- 0.000000e+00) [K]
    Coulombic Real/kʙ       0.000000e+00 ( 0.000000e+00 +/- 0.000000e+00) [K]
    Coulombic Fourier/kʙ    0.000000e+00 ( 0.000000e+00 +/- 0.000000e+00) [K]
Molecule-molecule
    Van der Waals/kʙ       -2.786643e+05 (-2.735950e+05 +/- 0.000000e+00) [K]
    Van der Waals (Tail)/kʙ-1.170484e+04 (-1.170483e+04 +/- 0.000000e+00) [K]
    Coulombic Real/kʙ      -7.997927e+04 (-8.003917e+04 +/- 0.000000e+00) [K]
    Coulombic Fourier/kʙ   -2.027602e+04 (-1.957352e+04 +/- 0.000000e+00) [K]
    Molecule Intra/kʙ       0.000000e+00 ( 0.000000e+00 +/- 0.000000e+00) [K]

Current cycle: 1300 out of 5000
===============================================================================

Box:      25.83493   0.00000   0.00000  Average:  25.78525   0.00000   0.00000
           0.00000  25.83493   0.00000             0.00000  25.78525   0.00000
           0.00000   0.00000  25.83493             0.00000   0.00000  25.78525
Lengths:  25.83493  25.83493  25.83493  Average:  25.78525  25.78525  25.78525
Angles:   90.00000  90.00000  90.00000  Average:  90.00000  90.00000  90.00000
Rectangular boundary conditions

net charge:   0.00000000

component 0 (CO2) lambda:  0 occupancy:  1 (1.000000)
    net charge:   0.00000000 [e]

Amount of molecules per component :
-------------------------------------------------------------------------------
Component 0 (CO2)
    molecules:      2.500000e+02 molecules  (2.500000e+02 +/- 0.000000e+00)
    number density: 1.449834e-02 molec./A^3 (1.458453e-02 +/- 0.000000e+00)
    density:        1.059273e+03 kg/m^3     (1.065570e+03 +/- 0.000000e+00)

Average pressure tensor: 
-------------------------------------------------------------------------------
 1.1071e+02 -1.8111e+01  2.2708e+01 +/- 0.0000e+00 0.0000e+00 0.0000e+00 [bar]
-1.8111e+01  4.4318e+01 -2.7929e+01 +/- 0.0000e+00 0.0000e+00 0.0000e+00 [bar]
 2.2708e+01 -2.7929e+01  8.7661e+01 +/- 0.0000e+00 0.0000e+00 0.0000e+00 [bar]
Ideal-gas pressure:   5.034033e+02 +/ 0.000000e+00 [bar]
Excess pressure:     -4.225075e+02 +/ 0.000000e+00 [bar]
Pressure:             8.089579e+01 +/ 0.000000e+00 [bar]

Total potential energy/kʙ  -3.824316e+05 (-3.848976e+05 +/- 0.000000e+00) [K]
-------------------------------------------------------------------------------
ExternalField-molecule
    Van der Waals/kʙ        0.000000e+00 ( 0.000000e+00 +/- 0.000000e+00) [K]
Framework-molecule
    Van der Waals/kʙ        0.000000e+00 ( 0.000000e+00 +/- 0.000000e+00) [K]
    Van der Waals (Tail)/kʙ 0.000000e+00 ( 0.000000e+00 +/- 0.000000e+00) [K]
    Coulombic Real/kʙ       0.000000e+00 ( 0.000000e+00 +/- 0.000000e+00) [K]
    Coulombic Fourier/kʙ    0.000000e+00 ( 0.000000e+00 +/- 0.000000e+00) [K]
Molecule-molecule
    Van der Waals/kʙ       -2.741201e+05 (-2.737983e+05 +/- 0.000000e+00) [K]
    Van der Waals (Tail)/kʙ-1.162965e+04 (-1.170606e+04 +/- 0.000000e+00) [K]
    Coulombic Real/kʙ      -7.712538e+04 (-7.983132e+04 +/- 0.000000e+00) [K]
    Coulombic Fourier/kʙ   -1.955651e+04 (-1.956197e+04 +/- 0.000000e+00) [K]
    Molecule Intra/kʙ       0.000000e+00 ( 0.000000e+00 +/- 0.000000e+00) [K]

Current cycle: 1400 out of 5000
===============================================================================

Box:      25.77818   0.00000   0.00000  Average:  25.79597   0.00000   0.00000
           0.00000  25.77818   0.00000             0.00000  25.79597   0.00000
           0.00000   0.00000  25.77818             0.00000   0.00000  25.79597
Lengths:  25.77818  25.77818  25.77818  Average:  25.79597  25.79597  25.79597
Angles:   90.00000  90.00000  90.00000  Average:  90.00000  90.00000  90.00000
Rectangular boundary conditions

net charge:   0.00000000

component 0 (CO2) lambda:  0 occupancy:  1 (1.000000)
    net charge:   0.00000000 [e]

Amount of molecules per component :
-------------------------------------------------------------------------------
Component 0 (CO2)
    molecules:      2.500000e+02 molecules  (2.500000e+02 +/- 0.000000e+00)
    number density: 1.459430e-02 molec./A^3 (1.456645e-02 +/- 0.000000e+00)
    density:        1.066285e+03 kg/m^3     (1.064249e+03 +/- 0.000000e+00)

Average pressure tensor: 
-------------------------------------------------------------------------------
 9.7312e+01 -1.0150e+01  2.2599e+01 +/- 0.0000e+00 0.0000e+00 0.0000e+00 [bar]
-1.0150e+01  3.4921e+01 -3.3099e+01 +/- 0.0000e+00 0.0000e+00 0.0000e+00 [bar]
 2.2599e+01 -3.3099e+01  7.8696e+01 +/- 0.0000e+00 0.0000e+00 0.0000e+00 [bar]
Ideal-gas pressure:   5.027792e+02 +/ 0.000000e+00 [bar]
Excess pressure:     -4.324697e+02 +/ 0.000000e+00 [bar]
Pressure:             7.030949e+01 +/ 0.000000e+00 [bar]

Total potential energy/kʙ  -3.891628e+05 (-3.844953e+05 +/- 0.000000e+00) [K]
-------------------------------------------------------------------------------
ExternalField-molecule
    Van der Waals/kʙ        0.000000e+00 ( 0.000000e+00 +/- 0.000000e+00) [K]
Framework-molecule
    Van der Waals/kʙ        0.000000e+00 ( 0.000000e+00 +/- 0.000000e+00) [K]
    Van der Waals (Tail)/kʙ 0.000000e+00 ( 0.000000e+00 +/- 0.000000e+00) [K]
    Coulombic Real/kʙ       0.000000e+00 ( 0.000000e+00 +/- 0.000000e+00) [K]
    Coulombic Fourier/kʙ    0.000000e+00 ( 0.000000e+00 +/- 0.000000e+00) [K]
Molecule-molecule
    Van der Waals/kʙ       -2.781193e+05 (-2.736755e+05 +/- 0.000000e+00) [K]
    Van der Waals (Tail)/kʙ-1.170664e+04 (-1.169090e+04 +/- 0.000000e+00) [K]
    Coulombic Real/kʙ      -7.905179e+04 (-7.959572e+04 +/- 0.000000e+00) [K]
    Coulombic Fourier/kʙ   -2.028513e+04 (-1.953315e+04 +/- 0.000000e+00) [K]
    Molecule Intra/kʙ       0.000000e+00 ( 0.000000e+00 +/- 0.000000e+00) [K]

Current cycle: 1500 out of 5000
===============================================================================

Box:      25.56067   0.00000   0.00000  Average:  25.79162   0.00000   0.00000
           0.00000  25.56067   0.00000             0.00000  25.79162   0.00000
           0.00000   0.00000  25.56067             0.00000   0.00000  25.79162
Lengths:  25.56067  25.56067  25.56067  Average:  25.79162  25.79162  25.79162
Angles:   90.00000  90.00000  90.00000  Average:  90.00000  90.00000  90.00000
Rectangular boundary conditions

net charge:   0.00000000

component 0 (CO2) lambda:  0 occupancy:  1 (1.000000)
    net charge:   0.00000000 [e]

Amount of molecules per component :
-------------------------------------------------------------------------------
Component 0 (CO2)
    molecules:      2.500000e+02 molecules  (2.500000e+02 +/- 0.000000e+00)
    number density: 1.497005e-02 molec./A^3 (1.457375e-02 +/- 0.000000e+00)
    density:        1.093738e+03 kg/m^3     (1.064783e+03 +/- 0.000000e+00)

Average pressure tensor: 
-------------------------------------------------------------------------------
 1.0056e+02 -6.6822e+00  2.2246e+01 +/- 0.0000e+00 0.0000e+00 0.0000e+00 [bar]
-6.6822e+00  3.1295e+01 -2.4478e+01 +/- 0.0000e+00 0.0000e+00 0.0000e+00 [bar]
 2.2246e+01 -2.4478e+01  7.8478e+01 +/- 0.0000e+00 0.0000e+00 0.0000e+00 [bar]
Ideal-gas pressure:   5.030312e+02 +/ 0.000000e+00 [bar]
Excess pressure:     -4.329197e+02 +/ 0.000000e+00 [bar]
Pressure:             7.011152e+01 +/ 0.000000e+00 [bar]

Total potential energy/kʙ  -3.916037e+05 (-3.847297e+05 +/- 0.000000e+00) [K]
-------------------------------------------------------------------------------
ExternalField-molecule
    Van der Waals/kʙ        0.000000e+00 ( 0.000000e+00 +/- 0.000000e+00) [K]
Framework-molecule
    Van der Waals/kʙ        0.000000e+00 ( 0.000000e+00 +/- 0.000000e+00) [K]
    Van der Waals (Tail)/kʙ 0.000000e+00 ( 0.000000e+00 +/- 0.000000e+00) [K]
    Coulombic Real/kʙ       0.000000e+00 ( 0.000000e+00 +/- 0.000000e+00) [K]
    Coulombic Fourier/kʙ    0.000000e+00 ( 0.000000e+00 +/- 0.000000e+00) [K]
Molecule-molecule
    Van der Waals/kʙ       -2.768092e+05 (-2.739177e+05 +/- 0.000000e+00) [K]
    Van der Waals (Tail)/kʙ-1.200804e+04 (-1.169859e+04 +/- 0.000000e+00) [K]
    Coulombic Real/kʙ      -8.321885e+04 (-7.960346e+04 +/- 0.000000e+00) [K]
    Coulombic Fourier/kʙ   -1.956758e+04 (-1.950997e+04 +/- 0.000000e+00) [K]
    Molecule Intra/kʙ       0.000000e+00 ( 0.000000e+00 +/- 0.000000e+00) [K]

Current cycle: 1600 out of 5000
===============================================================================

Box:      25.54085   0.00000   0.00000  Average:  25.77912   0.00000   0.00000
           0.00000  25.54085   0.00000             0.00000  25.77912   0.00000
           0.00000   0.00000  25.54085             0.00000   0.00000  25.77912
Lengths:  25.54085  25.54085  25.54085  Average:  25.77912  25.77912  25.77912
Angles:   90.00000  90.00000  90.00000  Average:  90.00000  90.00000  90.00000
Rectangular boundary conditions

net charge:   0.00000000

component 0 (CO2) lambda:  0 occupancy:  1 (1.000000)
    net charge:   0.00000000 [e]

Amount of molecules per component :
-------------------------------------------------------------------------------
Component 0 (CO2)
    molecules:      2.500000e+02 molecules  (2.500000e+02 +/- 0.000000e+00)
    number density: 1.500492e-02 molec./A^3 (1.459518e-02 +/- 0.000000e+00)
    density:        1.096285e+03 kg/m^3     (1.066349e+03 +/- 0.000000e+00)

Average pressure tensor: 
-------------------------------------------------------------------------------
 1.1813e+02 -3.6289e+00  2.1515e+01 +/- 0.0000e+00 0.0000e+00 0.0000e+00 [bar]
-3.6289e+00  2.9017e+01 -2.4164e+01 +/- 0.0000e+00 0.0000e+00 0.0000e+00 [bar]
 2.1515e+01 -2.4164e+01  6.2960e+01 +/- 0.0000e+00 0.0000e+00 0.0000e+00 [bar]
Ideal-gas pressure:   5.037709e+02 +/ 0.000000e+00 [bar]
Excess pressure:     -4.337362e+02 +/ 0.000000e+00 [bar]
Pressure:             7.003469e+01 +/ 0.000000e+00 [bar]

Total potential energy/kʙ  -3.938059e+05 (-3.852095e+05 +/- 0.000000e+00) [K]
-------------------------------------------------------------------------------
ExternalField-molecule
    Van der Waals/kʙ        0.000000e+00 ( 0.000000e+00 +/- 0.000000e+00) [K]
Framework-molecule
    Van der Waals/kʙ        0.000000e+00 ( 0.000000e+00 +/- 0.000000e+00) [K]
    Van der Waals (Tail)/kʙ 0.000000e+00 ( 0.000000e+00 +/- 0.000000e+00) [K]
    Coulombic Real/kʙ       0.000000e+00 ( 0.000000e+00 +/- 0.000000e+00) [K]
    Coulombic Fourier/kʙ    0.000000e+00 ( 0.000000e+00 +/- 0.000000e+00) [K]
Molecule-molecule
    Van der Waals/kʙ       -2.761536e+05 (-2.743644e+05 +/- 0.000000e+00) [K]
    Van der Waals (Tail)/kʙ-1.203601e+04 (-1.171505e+04 +/- 0.000000e+00) [K]
    Coulombic Real/kʙ      -8.524502e+04 (-7.958288e+04 +/- 0.000000e+00) [K]
    Coulombic Fourier/kʙ   -2.037129e+04 (-1.954717e+04 +/- 0.000000e+00) [K]
    Molecule Intra/kʙ       0.000000e+00 ( 0.000000e+00 +/- 0.000000e+00) [K]

Current cycle: 1700 out of 5000
===============================================================================

Box:      26.13963   0.00000   0.00000  Average:  25.78303   0.00000   0.00000
           0.00000  26.13963   0.00000             0.00000  25.78303   0.00000
           0.00000   0.00000  26.13963             0.00000   0.00000  25.78303
Lengths:  26.13963  26.13963  26.13963  Average:  25.78303  25.78303  25.78303
Angles:   90.00000  90.00000  90.00000  Average:  90.00000  90.00000  90.00000
Rectangular boundary conditions

net charge:   0.00000000

component 0 (CO2) lambda:  0 occupancy:  1 (1.000000)
    net charge:   0.00000000 [e]

Amount of molecules per component :
-------------------------------------------------------------------------------
Component 0 (CO2)
    molecules:      2.500000e+02 molecules  (2.500000e+02 +/- 0.000000e+00)
    number density: 1.399721e-02 molec./A^3 (1.458860e-02 +/- 0.000000e+00)
    density:        1.022660e+03 kg/m^3     (1.065868e+03 +/- 0.000000e+00)

Average pressure tensor: 
-------------------------------------------------------------------------------
 1.1878e+02 -5.3247e+00  2.4435e+01 +/- 0.0000e+00 0.0000e+00 0.0000e+00 [bar]
-5.3247e+00  2.3780e+01 -8.0739e+00 +/- 0.0000e+00 0.0000e+00 0.0000e+00 [bar]
 2.4435e+01 -8.0739e+00  6.2914e+01 +/- 0.0000e+00 0.0000e+00 0.0000e+00 [bar]
Ideal-gas pressure:   5.035438e+02 +/ 0.000000e+00 [bar]
Excess pressure:     -4.350538e+02 +/ 0.000000e+00 [bar]
Pressure:             6.848998e+01 +/ 0.000000e+00 [bar]

Total potential energy/kʙ  -3.601092e+05 (-3.848216e+05 +/- 0.000000e+00) [K]
-------------------------------------------------------------------------------
ExternalField-molecule
    Van der Waals/kʙ        0.000000e+00 ( 0.000000e+00 +/- 0.000000e+00) [K]
Framework-molecule
    Van der Waals/kʙ        0.000000e+00 ( 0.000000e+00 +/- 0.000000e+00) [K]
    Van der Waals (Tail)/kʙ 0.000000e+00 ( 0.000000e+00 +/- 0.000000e+00) [K]
    Coulombic Real/kʙ       0.000000e+00 ( 0.000000e+00 +/- 0.000000e+00) [K]
    Coulombic Fourier/kʙ    0.000000e+00 ( 0.000000e+00 +/- 0.000000e+00) [K]
Molecule-molecule
    Van der Waals/kʙ       -2.571616e+05 (-2.741898e+05 +/- 0.000000e+00) [K]
    Van der Waals (Tail)/kʙ-1.122769e+04 (-1.170887e+04 +/- 0.000000e+00) [K]
    Coulombic Real/kʙ      -7.362740e+04 (-7.941714e+04 +/- 0.000000e+00) [K]
    Coulombic Fourier/kʙ   -1.809256e+04 (-1.950580e+04 +/- 0.000000e+00) [K]
    Molecule Intra/kʙ       0.000000e+00 ( 0.000000e+00 +/- 0.000000e+00) [K]

Current cycle: 1800 out of 5000
===============================================================================

Box:      26.21174   0.00000   0.00000  Average:  25.80611   0.00000   0.00000
           0.00000  26.21174   0.00000             0.00000  25.80611   0.00000
           0.00000   0.00000  26.21174             0.00000   0.00000  25.80611
Lengths:  26.21174  26.21174  26.21174  Average:  25.80611  25.80611  25.80611
Angles:   90.00000  90.00000  90.00000  Average:  90.00000  90.00000  90.00000
Rectangular boundary conditions

net charge:   0.00000000

component 0 (CO2) lambda:  0 occupancy:  1 (1.000000)
    net charge:   0.00000000 [e]

Amount of molecules per component :
-------------------------------------------------------------------------------
Component 0 (CO2)
    molecules:      2.500000e+02 molecules  (2.500000e+02 +/- 0.000000e+00)
    number density: 1.388201e-02 molec./A^3 (1.455064e-02 +/- 0.000000e+00)
    density:        1.014243e+03 kg/m^3     (1.063095e+03 +/- 0.000000e+00)

Average pressure tensor: 
-------------------------------------------------------------------------------
 1.1651e+02 -7.3956e+00  1.5302e+01 +/- 0.0000e+00 0.0000e+00 0.0000e+00 [bar]
-7.3956e+00  3.0880e+01 -1.9709e+01 +/- 0.0000e+00 0.0000e+00 0.0000e+00 [bar]
 1.5302e+01 -1.9709e+01  5.6479e+01 +/- 0.0000e+00 0.0000e+00 0.0000e+00 [bar]
Ideal-gas pressure:   5.022337e+02 +/ 0.000000e+00 [bar]
Excess pressure:     -4.342787e+02 +/ 0.000000e+00 [bar]
Pressure:             6.795498e+01 +/ 0.000000e+00 [bar]

Total potential energy/kʙ  -3.718399e+05 (-3.835863e+05 +/- 0.000000e+00) [K]
-------------------------------------------------------------------------------
ExternalField-molecule
    Van der Waals/kʙ        0.000000e+00 ( 0.000000e+00 +/- 0.000000e+00) [K]
Framework-molecule
    Van der Waals/kʙ        0.000000e+00 ( 0.000000e+00 +/- 0.000000e+00) [K]
    Van der Waals (Tail)/kʙ 0.000000e+00 ( 0.000000e+00 +/- 0.000000e+00) [K]
    Coulombic Real/kʙ       0.000000e+00 ( 0.000000e+00 +/- 0.000000e+00) [K]
    Coulombic Fourier/kʙ    0.000000e+00 ( 0.000000e+00 +/- 0.000000e+00) [K]
Molecule-molecule
    Van der Waals/kʙ       -2.593015e+05 (-2.733515e+05 +/- 0.000000e+00) [K]
    Van der Waals (Tail)/kʙ-1.113528e+04 (-1.167877e+04 +/- 0.000000e+00) [K]
    Coulombic Real/kʙ      -8.144566e+04 (-7.911172e+04 +/- 0.000000e+00) [K]
    Coulombic Fourier/kʙ   -1.995744e+04 (-1.944432e+04 +/- 0.000000e+00) [K]
    Molecule Intra/kʙ       0.000000e+00 ( 0.000000e+00 +/- 0.000000e+00) [K]

Current cycle: 1900 out of 5000
===============================================================================

Box:      25.90267   0.00000   0.00000  Average:  25.82577   0.00000   0.00000
           0.00000  25.90267   0.00000             0.00000  25.82577   0.00000
           0.00000   0.00000  25.90267             0.00000   0.00000  25.82577
Lengths:  25.90267  25.90267  25.90267  Average:  25.82577  25.82577  25.82577
Angles:   90.00000  90.00000  90.00000  Average:  90.00000  90.00000  90.00000
Rectangular boundary conditions

net charge:   0.00000000

component 0 (CO2) lambda:  0 occupancy:  1 (1.000000)
    net charge:   0.00000000 [e]

Amount of molecules per component :
-------------------------------------------------------------------------------
Component 0 (CO2)
    molecules:      2.500000e+02 molecules  (2.500000e+02 +/- 0.000000e+00)
    number density: 1.438489e-02 molec./A^3 (1.451824e-02 +/- 0.000000e+00)
    density:        1.050985e+03 kg/m^3     (1.060727e+03 +/- 0.000000e+00)

Average pressure tensor: 
-------------------------------------------------------------------------------
 1.2039e+02 -1.6475e+01  1.9449e+01 +/- 0.0000e+00 0.0000e+00 0.0000e+00 [bar]
-1.6475e+01  2.5336e+01 -1.6489e+01 +/- 0.0000e+00 0.0000e+00 0.0000e+00 [bar]
 1.9449e+01 -1.6489e+01  6.3529e+01 +/- 0.0000e+00 0.0000e+00 0.0000e+00 [bar]
Ideal-gas pressure:   5.011153e+02 +/ 0.000000e+00 [bar]
Excess pressure:     -4.313649e+02 +/ 0.000000e+00 [bar]
Pressure:             6.975034e+01 +/ 0.000000e+00 [bar]

Total potential energy/kʙ  -3.734882e+05 (-3.827350e+05 +/- 0.000000e+00) [K]
-------------------------------------------------------------------------------
ExternalField-molecule
    Van der Waals/kʙ        0.000000e+00 ( 0.000000e+00 +/- 0.000000e+00) [K]
Framework-molecule
    Van der Waals/kʙ        0.000000e+00 ( 0.000000e+00 +/- 0.000000e+00) [K]
    Van der Waals (Tail)/kʙ 0.000000e+00 ( 0.000000e+00 +/- 0.000000e+00) [K]
    Coulombic Real/kʙ       0.000000e+00 ( 0.000000e+00 +/- 0.000000e+00) [K]
    Coulombic Fourier/kʙ    0.000000e+00 ( 0.000000e+00 +/- 0.000000e+00) [K]
Molecule-molecule
    Van der Waals/kʙ       -2.686063e+05 (-2.728748e+05 +/- 0.000000e+00) [K]
    Van der Waals (Tail)/kʙ-1.153866e+04 (-1.165488e+04 +/- 0.000000e+00) [K]
    Coulombic Real/kʙ      -7.512150e+04 (-7.882711e+04 +/- 0.000000e+00) [K]
    Coulombic Fourier/kʙ   -1.822180e+04 (-1.937826e+04 +/- 0.000000e+00) [K]
    Molecule Intra/kʙ       0.000000e+00 ( 0.000000e+00 +/- 0.000000e+00) [K]

Current cycle: 2000 out of 5000
===============================================================================

Box:      26.22316   0.00000   0.00000  Average:  25.84191   0.00000   0.00000
           0.00000  26.22316   0.00000             0.00000  25.84191   0.00000
           0.00000   0.00000  26.22316             0.00000   0.00000  25.84191
Lengths:  26.22316  26.22316  26.22316  Average:  25.84191  25.84191  25.84191
Angles:   90.00000  90.00000  90.00000  Average:  90.00000  90.00000  90.00000
Rectangular boundary conditions

net charge:   0.00000000

component 0 (CO2) lambda:  0 occupancy:  1 (1.000000)
    net charge:   0.00000000 [e]

Amount of molecules per component :
-------------------------------------------------------------------------------
Component 0 (CO2)
    molecules:      2.500000e+02 molecules  (2.500000e+02 +/- 0.000000e+00)
    number density: 1.386389e-02 molec./A^3 (1.449152e-02 +/- 0.000000e+00)
    density:        1.012919e+03 kg/m^3     (1.058776e+03 +/- 0.000000e+00)

Average pressure tensor: 
-------------------------------------------------------------------------------
 1.1665e+02 -2.3710e+01  2.0905e+01 +/- 0.0000e+00 0.0000e+00 0.0000e+00 [bar]
-2.3710e+01  2.5285e+01 -1.7677e+01 +/- 0.0000e+00 0.0000e+00 0.0000e+00 [bar]
 2.0905e+01 -1.7677e+01  6.5007e+01 +/- 0.0000e+00 0.0000e+00 0.0000e+00 [bar]
Ideal-gas pressure:   5.001932e+02 +/ 0.000000e+00 [bar]
Excess pressure:     -4.312111e+02 +/ 0.000000e+00 [bar]
Pressure:             6.898208e+01 +/ 0.000000e+00 [bar]

Total potential energy/kʙ  -3.618519e+05 (-3.818244e+05 +/- 0.000000e+00) [K]
-------------------------------------------------------------------------------
ExternalField-molecule
    Van der Waals/kʙ        0.000000e+00 ( 0.000000e+00 +/- 0.000000e+00) [K]
Framework-molecule
    Van der Waals/kʙ        0.000000e+00 ( 0.000000e+00 +/- 0.000000e+00) [K]
    Van der Waals (Tail)/kʙ 0.000000e+00 ( 0.000000e+00 +/- 0.000000e+00) [K]
    Coulombic Real/kʙ       0.000000e+00 ( 0.000000e+00 +/- 0.000000e+00) [K]
    Coulombic Fourier/kʙ    0.000000e+00 ( 0.000000e+00 +/- 0.000000e+00) [K]
Molecule-molecule
    Van der Waals/kʙ       -2.597104e+05 (-2.722307e+05 +/- 0.000000e+00) [K]
    Van der Waals (Tail)/kʙ-1.112074e+04 (-1.163270e+04 +/- 0.000000e+00) [K]
    Coulombic Real/kʙ      -7.239439e+04 (-7.863157e+04 +/- 0.000000e+00) [K]
    Coulombic Fourier/kʙ   -1.862630e+04 (-1.932940e+04 +/- 0.000000e+00) [K]
    Molecule Intra/kʙ       0.000000e+00 ( 0.000000e+00 +/- 0.000000e+00) [K]

Current cycle: 2100 out of 5000
===============================================================================

Box:      25.81903   0.00000   0.00000  Average:  25.85405   0.00000   0.00000
           0.00000  25.81903   0.00000             0.00000  25.85405   0.00000
           0.00000   0.00000  25.81903             0.00000   0.00000  25.85405
Lengths:  25.81903  25.81903  25.81903  Average:  25.85405  25.85405  25.85405
Angles:   90.00000  90.00000  90.00000  Average:  90.00000  90.00000  90.00000
Rectangular boundary conditions

net charge:   0.00000000

component 0 (CO2) lambda:  0 occupancy:  1 (1.000000)
    net charge:   0.00000000 [e]

Amount of molecules per component :
-------------------------------------------------------------------------------
Component 0 (CO2)
    molecules:      2.500000e+02 molecules  (2.500000e+02 +/- 0.000000e+00)
    number density: 1.452514e-02 molec./A^3 (1.447137e-02 +/- 0.000000e+00)
    density:        1.061232e+03 kg/m^3     (1.057303e+03 +/- 0.000000e+00)

Average pressure tensor: 
-------------------------------------------------------------------------------
 1.0929e+02 -3.0462e+01  2.1776e+01 +/- 0.0000e+00 0.0000e+00 0.0000e+00 [bar]
-3.0462e+01  2.8540e+01 -1.2161e+01 +/- 0.0000e+00 0.0000e+00 0.0000e+00 [bar]
 2.1776e+01 -1.2161e+01  6.8068e+01 +/- 0.0000e+00 0.0000e+00 0.0000e+00 [bar]
Ideal-gas pressure:   4.994975e+02 +/ 0.000000e+00 [bar]
Excess pressure:     -4.308637e+02 +/ 0.000000e+00 [bar]
Pressure:             6.863388e+01 +/ 0.000000e+00 [bar]

Total potential energy/kʙ  -3.822965e+05 (-3.812164e+05 +/- 0.000000e+00) [K]
-------------------------------------------------------------------------------
ExternalField-molecule
    Van der Waals/kʙ        0.000000e+00 ( 0.000000e+00 +/- 0.000000e+00) [K]
Framework-molecule
    Van der Waals/kʙ        0.000000e+00 ( 0.000000e+00 +/- 0.000000e+00) [K]
    Van der Waals (Tail)/kʙ 0.000000e+00 ( 0.000000e+00 +/- 0.000000e+00) [K]
[...]
    Coulombic Fourier/kʙ    0.000000e+00 ( 0.000000e+00 +/- 0.000000e+00) [K]
Molecule-molecule
    Van der Waals/kʙ       -2.655528e+05 (-2.709704e+05 +/- 5.528395e+03) [K]
    Van der Waals (Tail)/kʙ-1.126886e+04 (-1.157943e+04 +/- 2.303393e+02) [K]
    Coulombic Real/kʙ      -7.491704e+04 (-7.798309e+04 +/- 2.997860e+03) [K]
    Coulombic Fourier/kʙ   -1.868005e+04 (-1.929323e+04 +/- 4.415278e+02) [K]
    Molecule Intra/kʙ       0.000000e+00 ( 0.000000e+00 +/- 0.000000e+00) [K]

Current cycle: 4700 out of 5000
===============================================================================

Box:      26.31464   0.00000   0.00000  Average:  25.88443   0.00000   0.00000
           0.00000  26.31464   0.00000             0.00000  25.88443   0.00000
           0.00000   0.00000  26.31464             0.00000   0.00000  25.88443
Lengths:  26.31464  26.31464  26.31464  Average:  25.88443  25.88443  25.88443
Angles:   90.00000  90.00000  90.00000  Average:  90.00000  90.00000  90.00000
Rectangular boundary conditions

net charge:   0.00000000

component 0 (CO2) lambda:  0 occupancy:  1 (1.000000)
    net charge:   0.00000000 [e]

Amount of molecules per component :
-------------------------------------------------------------------------------
Component 0 (CO2)
    molecules:      2.500000e+02 molecules  (2.500000e+02 +/- 3.944933e-14)
    number density: 1.371980e-02 molec./A^3 (1.442261e-02 +/- 2.881079e-04)
    density:        1.002392e+03 kg/m^3     (1.053741e+03 +/- 2.104965e+01)

Average pressure tensor: 
-------------------------------------------------------------------------------
 6.9487e+01 -2.8477e+01  1.6159e+01 +/- 6.3802e+01 1.8591e+01 1.3185e+01 [bar]
-2.8477e+01  2.4751e+01 -1.3842e+01 +/- 1.8591e+01 1.3254e+01 3.2844e+01 [bar]
 1.6159e+01 -1.3842e+01  6.7403e+01 +/- 1.3185e+01 3.2844e+01 7.7816e+01 [bar]
Ideal-gas pressure:   4.978145e+02 +/ 9.944405e+00 [bar]
Excess pressure:     -4.439345e+02 +/ 2.403942e+01 [bar]
Pressure:             5.388003e+01 +/ 2.691366e+01 [bar]

Total potential energy/kʙ  -3.613921e+05 (-3.797043e+05 +/- 9.031737e+03) [K]
-------------------------------------------------------------------------------
ExternalField-molecule
    Van der Waals/kʙ        0.000000e+00 ( 0.000000e+00 +/- 0.000000e+00) [K]
Framework-molecule
    Van der Waals/kʙ        0.000000e+00 ( 0.000000e+00 +/- 0.000000e+00) [K]
    Van der Waals (Tail)/kʙ 0.000000e+00 ( 0.000000e+00 +/- 0.000000e+00) [K]
    Coulombic Real/kʙ       0.000000e+00 ( 0.000000e+00 +/- 0.000000e+00) [K]
    Coulombic Fourier/kʙ    0.000000e+00 ( 0.000000e+00 +/- 0.000000e+00) [K]
Molecule-molecule
    Van der Waals/kʙ       -2.643139e+05 (-2.709084e+05 +/- 5.542591e+03) [K]
    Van der Waals (Tail)/kʙ-1.100516e+04 (-1.157434e+04 +/- 2.330754e+02) [K]
    Coulombic Real/kʙ      -6.790690e+04 (-7.794478e+04 +/- 3.010340e+03) [K]
    Coulombic Fourier/kʙ   -1.816615e+04 (-1.927673e+04 +/- 4.535765e+02) [K]
    Molecule Intra/kʙ       0.000000e+00 ( 0.000000e+00 +/- 0.000000e+00) [K]

Current cycle: 4800 out of 5000
===============================================================================

Box:      25.85526   0.00000   0.00000  Average:  25.88715   0.00000   0.00000
           0.00000  25.85526   0.00000             0.00000  25.88715   0.00000
           0.00000   0.00000  25.85526             0.00000   0.00000  25.88715
Lengths:  25.85526  25.85526  25.85526  Average:  25.88715  25.88715  25.88715
Angles:   90.00000  90.00000  90.00000  Average:  90.00000  90.00000  90.00000
Rectangular boundary conditions

net charge:   0.00000000

component 0 (CO2) lambda:  0 occupancy:  1 (1.000000)
    net charge:   0.00000000 [e]

Amount of molecules per component :
-------------------------------------------------------------------------------
Component 0 (CO2)
    molecules:      2.500000e+02 molecules  (2.500000e+02 +/- 0.000000e+00)
    number density: 1.446417e-02 molec./A^3 (1.441802e-02 +/- 2.900171e-04)
    density:        1.056777e+03 kg/m^3     (1.053405e+03 +/- 2.118915e+01)

Average pressure tensor: 
-------------------------------------------------------------------------------
 6.7891e+01 -2.5559e+01  1.5532e+01 +/- 6.3640e+01 2.1919e+01 1.3797e+01 [bar]
-2.5559e+01  2.5291e+01 -1.1249e+01 +/- 2.1919e+01 1.1687e+01 2.6311e+01 [bar]
 1.5532e+01 -1.1249e+01  6.7807e+01 +/- 1.3797e+01 2.6311e+01 7.1787e+01 [bar]
Ideal-gas pressure:   4.976560e+02 +/ 1.001031e+01 [bar]
Excess pressure:     -4.439930e+02 +/ 2.248416e+01 [bar]
Pressure:             5.366300e+01 +/ 2.563460e+01 [bar]

Total potential energy/kʙ  -3.844864e+05 (-3.796160e+05 +/- 9.048325e+03) [K]
-------------------------------------------------------------------------------
ExternalField-molecule
    Van der Waals/kʙ        0.000000e+00 ( 0.000000e+00 +/- 0.000000e+00) [K]
Framework-molecule
    Van der Waals/kʙ        0.000000e+00 ( 0.000000e+00 +/- 0.000000e+00) [K]
    Van der Waals (Tail)/kʙ 0.000000e+00 ( 0.000000e+00 +/- 0.000000e+00) [K]
    Coulombic Real/kʙ       0.000000e+00 ( 0.000000e+00 +/- 0.000000e+00) [K]
    Coulombic Fourier/kʙ    0.000000e+00 ( 0.000000e+00 +/- 0.000000e+00) [K]
Molecule-molecule
    Van der Waals/kʙ       -2.666525e+05 (-2.708104e+05 +/- 5.588540e+03) [K]
    Van der Waals (Tail)/kʙ-1.160225e+04 (-1.157098e+04 +/- 2.343482e+02) [K]
    Coulombic Real/kʙ      -8.688565e+04 (-7.796495e+04 +/- 2.996688e+03) [K]
    Coulombic Fourier/kʙ   -1.934594e+04 (-1.926966e+04 +/- 4.562883e+02) [K]
    Molecule Intra/kʙ       0.000000e+00 ( 0.000000e+00 +/- 0.000000e+00) [K]

Current cycle: 4900 out of 5000
===============================================================================

Box:      26.09125   0.00000   0.00000  Average:  25.88910   0.00000   0.00000
           0.00000  26.09125   0.00000             0.00000  25.88910   0.00000
           0.00000   0.00000  26.09125             0.00000   0.00000  25.88910
Lengths:  26.09125  26.09125  26.09125  Average:  25.88910  25.88910  25.88910
Angles:   90.00000  90.00000  90.00000  Average:  90.00000  90.00000  90.00000
Rectangular boundary conditions

net charge:   0.00000000

component 0 (CO2) lambda:  0 occupancy:  1 (1.000000)
    net charge:   0.00000000 [e]

Amount of molecules per component :
-------------------------------------------------------------------------------
Component 0 (CO2)
    molecules:      2.500000e+02 molecules  (2.500000e+02 +/- 0.000000e+00)
    number density: 1.407522e-02 molec./A^3 (1.441467e-02 +/- 2.909396e-04)
    density:        1.028360e+03 kg/m^3     (1.053160e+03 +/- 2.125655e+01)

Average pressure tensor: 
-------------------------------------------------------------------------------
 6.6008e+01 -2.8492e+01  1.4544e+01 +/- 6.3985e+01 1.8533e+01 1.4997e+01 [bar]
-2.8492e+01  2.8662e+01 -1.0701e+01 +/- 1.8533e+01 1.1327e+01 2.5204e+01 [bar]
 1.4544e+01 -1.0701e+01  6.5790e+01 +/- 1.4997e+01 2.5204e+01 7.2617e+01 [bar]
Ideal-gas pressure:   4.975403e+02 +/ 1.004215e+01 [bar]
Excess pressure:     -4.440537e+02 +/ 2.135062e+01 [bar]
Pressure:             5.348664e+01 +/ 2.461753e+01 [bar]

Total potential energy/kʙ  -3.672420e+05 (-3.794992e+05 +/- 9.085275e+03) [K]
-------------------------------------------------------------------------------
ExternalField-molecule
    Van der Waals/kʙ        0.000000e+00 ( 0.000000e+00 +/- 0.000000e+00) [K]
Framework-molecule
    Van der Waals/kʙ        0.000000e+00 ( 0.000000e+00 +/- 0.000000e+00) [K]
    Van der Waals (Tail)/kʙ 0.000000e+00 ( 0.000000e+00 +/- 0.000000e+00) [K]
    Coulombic Real/kʙ       0.000000e+00 ( 0.000000e+00 +/- 0.000000e+00) [K]
    Coulombic Fourier/kʙ    0.000000e+00 ( 0.000000e+00 +/- 0.000000e+00) [K]
Molecule-molecule
    Van der Waals/kʙ       -2.626422e+05 (-2.707504e+05 +/- 5.597664e+03) [K]
    Van der Waals (Tail)/kʙ-1.129026e+04 (-1.156774e+04 +/- 2.354478e+02) [K]
    Coulombic Real/kʙ      -7.466651e+04 (-7.792092e+04 +/- 3.009047e+03) [K]
    Coulombic Fourier/kʙ   -1.864307e+04 (-1.926013e+04 +/- 4.612690e+02) [K]
    Molecule Intra/kʙ       0.000000e+00 ( 0.000000e+00 +/- 0.000000e+00) [K]


Energy statistics             |  Energy [K]   | Recomputed [K]|  Drift [K]    |
===============================================================================
Total potential energy/kʙ     | -3.641039e+05 | -3.641039e+05 | -1.498604e-09 |
    external field VDW/kʙ     |  0.000000e+00 |  0.000000e+00 |  0.000000e+00 |
    external field Real/kʙ    |  0.000000e+00 |  0.000000e+00 |  0.000000e+00 |
    framework-molecule VDW/kʙ |  0.000000e+00 |  0.000000e+00 |  0.000000e+00 |
    framework-molecule Real/kʙ|  0.000000e+00 |  0.000000e+00 |  0.000000e+00 |
    molecule-molecule VDW/kʙ  | -2.628227e+05 | -2.628227e+05 | -1.820202e-09 |
    molecule-molecule Real/kʙ | -7.204946e+04 | -7.204946e+04 |  3.500388e-10 |
    Van der Waals (Tail)/kʙ   | -1.135121e+04 | -1.135121e+04 |  0.000000e+00 |
    Ewald Fourier/kʙ          |  1.844662e+04 |  1.844662e+04 | -2.844066e-11 |
    Ewald self/kʙ             | -5.557308e+06 | -5.557308e+06 |  0.000000e+00 |
    Ewald exclusion/kʙ        |  5.520981e+06 |  5.520981e+06 |  0.000000e+00 |
    intra VDW/kʙ              |  0.000000e+00 |  0.000000e+00 |  0.000000e+00 |
    intra Coulombic/kʙ        |  0.000000e+00 |  0.000000e+00 |  0.000000e+00 |
    polarization/kʙ           |  0.000000e+00 |  0.000000e+00 |  0.000000e+00 |
    dU/dlambda VDW/kʙ         |  0.000000e+00 |  0.000000e+00 |  0.000000e+00 |
    dU/dlambda Real/kʙ        |  0.000000e+00 |  0.000000e+00 |  0.000000e+00 |
    dU/dlambda Ewald/kʙ       |  0.000000e+00 |  0.000000e+00 |  0.000000e+00 |
-------------------------------------------------------------------------------


Monte-Carlo moves statistics
===============================================================================

    Volume change        all:                8334
    Volume change        total:              8334
    Volume change        constructed:        8334
    Volume change        accepted:           2266
    Volume change        fraction:       0.271898
    Volume change        max-change:     0.050000

Component 0 [CO2]
    Reinsertion (CBMC)   all:              414358
    Reinsertion (CBMC)   total:            414358
    Reinsertion (CBMC)   constructed:      371413
    Reinsertion (CBMC)   accepted:           6533
    Reinsertion (CBMC)   fraction:       0.015767
    Reinsertion (CBMC)   max-change:     0.000000

    Translation          all:              414654
    Translation          total:            138176     138517     137961
    Translation          constructed:      138176     138517     137959
    Translation          accepted:          82232      74032      58322
    Translation          fraction:       0.595125   0.534461   0.422743
    Translation          max-change:     0.500000   0.604396   0.846154

    Rotation             all:              412654
    Rotation             total:            137243     137821     137590
    Rotation             constructed:      137243     137820     137590
    Rotation             accepted:          70559      62059      64859
    Rotation             fraction:       0.514117   0.450287   0.471393
    Rotation             max-change:     0.656104   0.812500   0.766284



Production run counting of the MC moves summed over systems and components
===============================================================================

Volume change                          8334 (0.6667 [%])
Reinsertion (CBMC)                   414358 (33.1486 [%])
Translation                          414654 (33.1723 [%])
Rotation                             412654 (33.0123 [%])

Production count MC-steps:          1250000 [-]
               All summed:          1250000 [-]
               difference:                0 [-]


Production run CPU timings of the MC moves
===============================================================================

Component 0 CO2

Rotation                             62.188689 [s]
    Ewald                            30.909224 [s]
    ExternalField-Molecule            0.015096 [s]
    Framework-Molecule                0.014968 [s]
    Molecule-Molecule                28.757023 [s]
    Overhead                          2.492378 [s]

Reinsertion (CBMC)                  232.505395 [s]
    Ewald                            29.186530 [s]
    NonEwald                        202.891458 [s]
    Overhead                          0.427407 [s]

Translation                          65.378528 [s]
    Ewald                            31.037317 [s]
    ExternalField-Molecule            0.013851 [s]
    Framework-Molecule                0.031278 [s]
    Molecule-Molecule                31.673728 [s]
    Overhead                          2.622354 [s]



Volume change                         71.947330 [s]
    Ewald                             30.102096 [s]
    NonEwald                          39.068806 [s]
    Tail                               2.462278 [s]

Property sampling                     0.308062 [s]
Energy/pressure sampling:             9.070375 [s]


Production run CPU timings of the MC moves summed over systems and components
===============================================================================


Translation                          65.378528 [s]
    Ewald                            31.037317 [s]
    ExternalField-Molecule            0.013851 [s]
    Framework-Molecule                0.031278 [s]
    Molecule-Molecule                31.673728 [s]
    Overhead                          2.622354 [s]

Rotation                             62.188689 [s]
    Ewald                            30.909224 [s]
    ExternalField-Molecule            0.015096 [s]
    Framework-Molecule                0.014968 [s]
    Molecule-Molecule                28.757023 [s]
    Overhead                          2.492378 [s]

Volume change                        71.947330 [s]
    Ewald                            30.102096 [s]
    NonEwald                         39.068806 [s]
    Tail                              2.462278 [s]
    Overhead                          0.314150 [s]

Reinsertion (CBMC)                  232.505395 [s]
    Ewald                            29.186530 [s]
    NonEwald                        202.891458 [s]
    Overhead                          0.427407 [s]

Property sampling:                    0.308062 [s]
Energy/pressure sampling:             9.070375 [s]

Production simulation time:         442.386001 [s]
                All summed:         441.398379 [s]
                  Overhead:           0.987622 [s]


Initalization simulation time:       84.025213 [s]
Equilibration simulation time:        0.000000 [s]
Production simulation time:         442.386001 [s]
Total simulation time:              526.411214 [s]


Energy averages and statistics:
===============================================================================

Framework-molecule energy:
-------------------------------------------------------------------------------



Framework-molecule energy contributions per energy type:
-------------------------------------------------------------------------------



Inter-molecular energy:
-------------------------------------------------------------------------------

    Inter-molecular energy/kʙ 0-0 [CO2-CO2]:
    ---------------------------------------------------------------------------
        Block[  0] -3.846365e+05
        Block[  1] -3.792119e+05
        Block[  2] -3.692090e+05
        Block[  3] -3.879292e+05
        Block[  4] -3.748903e+05
        -----------------------------------------------------------------------
        Average  -3.791754e+05 +/-  9.293270e+03 [K]



Inter-molecular energy contributions per energy type:
-------------------------------------------------------------------------------

    Van der Waals energy/kʙ 0-0 [CO2-CO2]:
    ---------------------------------------------------------------------------
        Block[  0] -2.729785e+05
        Block[  1] -2.716081e+05
        Block[  2] -2.643834e+05
        Block[  3] -2.761817e+05
        Block[  4] -2.679312e+05
        -----------------------------------------------------------------------
        Average  -2.706166e+05 +/-  5.675409e+03 [K]

    VDW Tail-Correction energy/kʙ 0-0 [CO2-CO2]:
    ---------------------------------------------------------------------------
        Block[  0] -1.168127e+04
        Block[  1] -1.158924e+04
        Block[  2] -1.129579e+04
        Block[  3] -1.178747e+04
        Block[  4] -1.145205e+04
        -----------------------------------------------------------------------
        Average  -1.156116e+04 +/-  2.394130e+02 [K]

    Coulomb Real energy/kʙ 0-0 [CO2-CO2]:
    ---------------------------------------------------------------------------
        Block[  0] -8.043214e+04
        Block[  1] -7.689336e+04
        Block[  2] -7.468444e+04
        Block[  3] -8.022269e+04
        Block[  4] -7.657812e+04
        -----------------------------------------------------------------------
        Average  -7.776215e+04 +/-  3.091981e+03 [K]

    Coulomb Fourier energy/kʙ 0-0 [CO2-CO2]:
    ---------------------------------------------------------------------------
        Block[  0] -1.954466e+04
        Block[  1] -1.912118e+04
        Block[  2] -1.884536e+04
        Block[  3] -1.973729e+04
        Block[  4] -1.892898e+04
        -----------------------------------------------------------------------
        Average  -1.923550e+04 +/-  4.834573e+02 [K]


Total energy/kʙ
-------------------------------------------------------------------------------
    Block[  0] -3.846365e+05
    Block[  1] -3.792119e+05
    Block[  2] -3.692090e+05
    Block[  3] -3.879292e+05
    Block[  4] -3.748903e+05
    ---------------------------------------------------------------------------
    Average  -3.791754e+05 +/-  9.293270e+03 [K]

Pressure averages and statistics:
===============================================================================

Average pressure tensor: 
-------------------------------------------------------------------------------
 6.2530e+01 -2.6114e+01  1.2727e+01 +/- 6.5573e+01 2.0225e+01 1.7796e+01 [bar]
-2.6114e+01  2.7472e+01 -9.0330e+00 +/- 2.0225e+01 1.0252e+01 2.3839e+01 [bar]
 1.2727e+01 -9.0330e+00  6.2859e+01 +/- 1.7796e+01 2.3839e+01 7.5441e+01 [bar]

    Block[  0]  5.022214e+07
    Block[  1]  4.981866e+07
    Block[  2]  4.858272e+07
    Block[  3]  5.070404e+07
    Block[  4]  4.930559e+07
    ---------------------------------------------------------------------------
    Ideal gas pressure   4.972663e+07 +/-  6.136826e-02 [Pa]
                         4.972663e+02 +/-  1.019045e+01 [bar]


    Block[  0] -4.209823e+07
    Block[  1] -4.413942e+07
    Block[  2] -4.400658e+07
    Block[  3] -4.525269e+07
    Block[  4] -4.765943e+07
    ---------------------------------------------------------------------------
    Excess pressure  -4.463127e+07 +/-  2.529386e+06 [Pa]
                     -4.463127e+02 +/-  2.529386e+01 [bar]


    Block[  0]  8.123901e+06
    Block[  1]  5.679245e+06
    Block[  2]  4.576145e+06
    Block[  3]  5.451347e+06
    Block[  4]  1.646168e+06
    ---------------------------------------------------------------------------
    Pressure average   5.095361e+06 +/-  2.898643e+06 [Pa]
                       5.095361e+01 +/-  2.898643e+01 [bar]


Enthalpy of adsorption
===============================================================================

No fluctuating components present.


Densities
===============================================================================

Component 0 (CO2)
    Block[  0] 250
    Block[  1] 250
    Block[  2] 250
    Block[  3] 250
    Block[  4] 250
    -----------------------------------------------------------------------
    Density average   2.500000e+02 +/-  0.000000e+00 [molecules]
    Density average   1.440673e-02 +/-  2.952361e-04 [molec/A^3]
    Density average   1.052580e+03 +/-  2.157046e+01 [kg.m⁻³]

