Compiler and run-time data
===============================================================================
RASPA 3.0.4

Random seed: 4239333151

Compiled as a 64-bits application
Compiler: gcc Ubuntu Clang 18.1.3 (1ubuntu1)
Compile Date = Mar 15 2025, Compile Time = 19:39:45

2025-06-03 11:00:36.151194
Simulation started on Tue, Jun 03
The start time was 11:00:00

Hostname:    c060
OS type:     Linux on x86_64
OS release:  6.8.0-58-generic
OS version:  #60-Ubuntu SMP PREEMPT_DYNAMIC Fri Mar 14 18:29:48 UTC 2025


Mutual consistent basic set of units:
===============================================================================

Unit of temperature: 1 [K]
Unit of length:      1e-10 [m]
Unit of time:        1e-12 [s]
Unit of mass:        1.6605402e-27 [kg]
Unit of charge:      1.60217733e-19 [C/particle]


Boltzmann constant (internal units):          0.8314464919307584 [-]
represents conversion from energy (internal units) to temperature (in Kelvin)

Derived units and their conversion factors:
===============================================================================

Unit of energy:                           1.6605402000000002e-23 [J]
Unit of energy:                           10.000008872307538 [J.mol⁻¹]
Unit of velocity:                         100 [m.s⁻¹]
Unit of force:                            1.6605402000000002e-13 [N]
Unit of diffusion:                        1.0000000000000002e-08 [m².s⁻¹]
Unit of acceleration:                     1.0000000000000002e-08 [m².s⁻¹]
Unit of torque:                           1.6605402000000002e-23 [N.m]
Unit of pressure:                         16605402 [Pa]
Unit of volume:                           1e-30 [m³]
Unit of density:                          1660.5402 [kg.m⁻³]
Unit of dynamic viscosity:                1.6605401999999997e-05 [N.s.m⁻²]
Unit of enthalpy:                         1.6605402000000002e-23 [J]
Unit of polarizability:                   1.5458657349975198e-35 [-]
Unit of Coulomb potential:                167101.08000665612 [K]
Unit of dielectric constant:              1.5458657349975193e-05 [s².C².kg⁻¹.m⁻³]
Unit of dipole moment:                    1.60217733e-29 [C.m]
Unit of Debye:                            4.803206799099162 [C.m]
Unit of electric potential:               0.00010364272224473431 [V]
Unit of electric field:                   1036427.222447343 [V.m⁻¹]
Unit of isothermal compressibility:       6.02213665167516e-08 [Pa⁻¹]
Unit of heat capacity:                    10.000008872307538 [J.mol⁻¹.K⁻¹]
Unit of volumetric expansion coefficient: 1 [K⁻¹]


Internal conversion factors:
===============================================================================

Energy (internal units) to Kelvin:      1.202724284692786 [-]
Kelvin to energy (internal units):      0.8314457542157567 [-]


System definitions
===============================================================================

Temperature:          240 [K]
Beta:                 0.005011346739813608 [-]
Pressure:             0 [Pa]
Helium void fraction: 1 [-]

Box:      30.00000   0.00000   0.00000
           0.00000  30.00000   0.00000
           0.00000   0.00000  30.00000
Lengths:  30.00000  30.00000  30.00000
Angles:   90.00000  90.00000  90.00000
Rectangular boundary conditions



Property measurement settings
===============================================================================




Pseudo-atoms
===============================================================================

  0 - C_co2    framework-atom: false
  1 - O_co2    framework-atom: false

  0 - C_co2    mass: 12.00000, charge:  0.70000
  1 - O_co2    mass: 15.99940, charge: -0.35000

  0 - C_co2    polarizability:  0.00000
  1 - O_co2    polarizability:  0.00000

  0 - J. J. Potoff et al., AIChE J. 2001, 47, 1676–1682.
  1 - J. J. Potoff et al., AIChE J. 2001, 47, 1676–1682.

Force field status
===============================================================================

Cutoff Framework-Molecule VDW:  12.00000 [Å]
Cutoff Molecule-Molecule VDW:   12.00000 [Å]
Cutoff Coulomb:                 12.00000 [Å]

Overlap-criteria VDW:           1.000000e+05 [K]

C_co2    - C_co2    Lennard-Jones p₀/kʙ:  27.00000 [K], p₁:  2.80000 [Å]
                                  shift:   0.00000 [K], tailcorrections: true
C_co2    - O_co2    Lennard-Jones p₀/kʙ:  46.18441 [K], p₁:  2.92500 [Å]
                                  shift:   0.00000 [K], tailcorrections: true
O_co2    - O_co2    Lennard-Jones p₀/kʙ:  79.00000 [K], p₁:  3.05000 [Å]
                                  shift:   0.00000 [K], tailcorrections: true

Ewald precision: 1e-06
Ewald alpha: 0.26505830360350674
Ewald k-vectors: 8 8 8


Component definitions
===============================================================================

Component 0 [CO2]

    Type: Adsorbate

    Critical temperature:  304.1282 [K]
    Critical pressure:     7377300 [Pa]
    Acentric factor:       0.22394 [-]

    Mol-fraction:                 1 [-]
    Swappable:                   true

    Mass:                         43.9988 [-]
    Fugacity coefficient:         -nan [-]
    Bulk fluid density:           0 [-]
    Compressibility:              1 [-]
    Excess molecules:             0 [-]

    Number Of Atoms:    3
    CBMC starting bead: 0
      0: O_co2  position  0.00000 -0.00000  1.16000, charge -0.35000
      1: C_co2  position  0.00000 -0.00000  0.00000, charge  0.70000
      2: O_co2  position  0.00000 -0.00000 -1.16000, charge -0.35000
    Diagonalized inertia-vector:      43.05758528 43.05758528 0.00000000
    Translational degrees of freedom: 3
    Rotational degrees of freedom:    2
    Shape of the molecule is: 'Linear'
    Net-charge:        0.00000000 [e]

    Move probabilities:
    Translation:                   0.199203 [-]
    Random translation:            0.000000 [-]
    Rotation:                      0.199203 [-]
    Random rotation:               0.000000 [-]
    Volume change:                 0.000000 [-]
    Reinsertion (CBMC):            0.199203 [-]
    Identity change (CBMC):        0.000000 [-]
    Swap:                          0.000000 [-]
    Swap (CBMC):                   0.000000 [-]
    Swap (CFCMC):                  0.000000 [-]
    Swap (CB/CFCMC):               0.000000 [-]
    Gibbs volume:                  0.003984 [-]
    Gibbs swap (CBMC):             0.398406 [-]
    Gibbs swap (CFCMC):            0.000000 [-]
    Widom:                         0.000000 [-]
    Widom (CFCMC):                 0.000000 [-]
    Widom (CB/CFCMC):              0.000000 [-]
    Parallel tempering:            0.000000 [-]
    Hybrid MC:                     0.000000 [-]

    number of blocking-pockets: 0

    number of bonds: 0





Number of pseudo-atoms
===============================================================================

Component   0 (CO2)
-------------------------------------------------------------------------------
    index   0 (C_co2): 40 atoms
    index   1 (O_co2): 80 atoms

Total number of pseudo-atoms:
-------------------------------------------------------------------------------
    index   0 (C_co2): 40 atoms
    index   1 (O_co2): 80 atoms




Energy status Recomputed from scratch
===============================================================================

Total potential energy/kʙ       -5.798602e+03 [K]
    external field VDW/kʙ        0.000000e+00 [K]
    external field Real/kʙ       0.000000e+00 [K]
    framework-molecule VDW/kʙ    0.000000e+00 [K]
    framework-molecule Real/kʙ   0.000000e+00 [K]
    molecule-molecule VDW/kʙ    -4.686552e+03 [K]
    molecule-molecule Real/kʙ   -9.884835e+02 [K]
    Van der Waals (Tail)/kʙ     -1.100506e+02 [K]
    Ewald Fourier/kʙ             2.338710e+03 [K]
    Ewald self/kʙ               -7.346713e+05 [K]
    Ewald exclusion/kʙ           7.323191e+05 [K]
    intra VDW/kʙ                 0.000000e+00 [K]
    intra Coulombic/kʙ           0.000000e+00 [K]
    polarization/kʙ              0.000000e+00 [K]
    dU/dlambda VDW/kʙ            0.000000e+00 [K]
    dU/dlambda Real/kʙ           0.000000e+00 [K]
    dU/dlambda Ewald/kʙ          0.000000e+00 [K]





Initialization: Current cycle: 0 out of 2000
===============================================================================

Box:      30.00000   0.00000   0.00000
           0.00000  30.00000   0.00000
           0.00000   0.00000  30.00000
Lengths:  30.00000  30.00000  30.00000
Angles:   90.00000  90.00000  90.00000
Rectangular boundary conditions

net charge:   0.00000000

component   0 (CO2) lambda:  0 occupancy:  1 (1.000000)
    net charge:   0.00000000 [e]

Amount of molecules per component :
-------------------------------------------------------------------------------
Component 0 (CO2)
    molecules:         3.300000e+01 molecules
    number density:    1.222222e-03 molec/A^3
    density:           8.929765e+01 kg/m^3

Total potential energy/kʙ       -3.871142e+03 [K]
-------------------------------------------------------------------------------
    external field VDW/kʙ        0.000000e+00 [K]
    external field Real/kʙ       0.000000e+00 [K]
    framework-molecule VDW/kʙ    0.000000e+00 [K]
    framework-molecule Real/kʙ   0.000000e+00 [K]
    molecule-molecule VDW/kʙ    -3.227144e+03 [K]
    molecule-molecule Real/kʙ   -4.094817e+02 [K]
    Van der Waals (Tail)/kʙ     -7.490319e+01 [K]
    Ewald Fourier/kʙ             1.780974e+03 [K]
    Ewald self/kʙ               -6.061038e+05 [K]
    Ewald exclusion/kʙ           6.041632e+05 [K]
    intra VDW/kʙ                 0.000000e+00 [K]
    intra Coulombic/kʙ           0.000000e+00 [K]
    polarization/kʙ              0.000000e+00 [K]
    dU/dlambda VDW/kʙ            0.000000e+00 [K]
    dU/dlambda Real/kʙ           0.000000e+00 [K]
    dU/dlambda Ewald/kʙ          0.000000e+00 [K]


Initialization: Current cycle: 100 out of 2000
===============================================================================

Box:      30.99957   0.00000   0.00000
           0.00000  30.99957   0.00000
           0.00000   0.00000  30.99957
Lengths:  30.99957  30.99957  30.99957
Angles:   90.00000  90.00000  90.00000
Rectangular boundary conditions

net charge:   0.00000000

component   0 (CO2) lambda:  0 occupancy:  1 (1.000000)
    net charge:   0.00000000 [e]

Amount of molecules per component :
-------------------------------------------------------------------------------
Component 0 (CO2)
    molecules:         8.000000e+00 molecules
    number density:    2.685487e-04 molec/A^3
    density:           1.962063e+01 kg/m^3

Total potential energy/kʙ       -7.812778e+02 [K]
-------------------------------------------------------------------------------
    external field VDW/kʙ        0.000000e+00 [K]
    external field Real/kʙ       0.000000e+00 [K]
    framework-molecule VDW/kʙ    0.000000e+00 [K]
    framework-molecule Real/kʙ   0.000000e+00 [K]
    molecule-molecule VDW/kʙ    -4.217047e+02 [K]
    molecule-molecule Real/kʙ   -3.637618e+02 [K]
    Van der Waals (Tail)/kʙ     -3.989783e+00 [K]
    Ewald Fourier/kʙ             4.786237e+02 [K]
    Ewald self/kʙ               -1.469343e+05 [K]
    Ewald exclusion/kʙ           1.464638e+05 [K]
    intra VDW/kʙ                 0.000000e+00 [K]
    intra Coulombic/kʙ           0.000000e+00 [K]
    polarization/kʙ              0.000000e+00 [K]
    dU/dlambda VDW/kʙ            0.000000e+00 [K]
    dU/dlambda Real/kʙ           0.000000e+00 [K]
    dU/dlambda Ewald/kʙ          0.000000e+00 [K]


Initialization: Current cycle: 200 out of 2000
===============================================================================

Box:      31.59429   0.00000   0.00000
           0.00000  31.59429   0.00000
           0.00000   0.00000  31.59429
Lengths:  31.59429  31.59429  31.59429
Angles:   90.00000  90.00000  90.00000
Rectangular boundary conditions

net charge:   0.00000000

component   0 (CO2) lambda:  0 occupancy:  1 (1.000000)
    net charge:   0.00000000 [e]

Amount of molecules per component :
-------------------------------------------------------------------------------
Component 0 (CO2)
    molecules:         6.000000e+00 molecules
    number density:    1.902503e-04 molec/A^3
    density:           1.390002e+01 kg/m^3

Total potential energy/kʙ       -4.038070e+01 [K]
-------------------------------------------------------------------------------
    external field VDW/kʙ        0.000000e+00 [K]
    external field Real/kʙ       0.000000e+00 [K]
    framework-molecule VDW/kʙ    0.000000e+00 [K]
    framework-molecule Real/kʙ   0.000000e+00 [K]
    molecule-molecule VDW/kʙ    -2.454547e+01 [K]
    molecule-molecule Real/kʙ   -4.132415e+00 [K]
    Van der Waals (Tail)/kʙ     -2.119888e+00 [K]
    Ewald Fourier/kʙ             3.432509e+02 [K]
    Ewald self/kʙ               -1.102007e+05 [K]
    Ewald exclusion/kʙ           1.098479e+05 [K]
    intra VDW/kʙ                 0.000000e+00 [K]
    intra Coulombic/kʙ           0.000000e+00 [K]
    polarization/kʙ              0.000000e+00 [K]
    dU/dlambda VDW/kʙ            0.000000e+00 [K]
    dU/dlambda Real/kʙ           0.000000e+00 [K]
    dU/dlambda Ewald/kʙ          0.000000e+00 [K]


Initialization: Current cycle: 300 out of 2000
===============================================================================

Box:      32.96345   0.00000   0.00000
           0.00000  32.96345   0.00000
           0.00000   0.00000  32.96345
Lengths:  32.96345  32.96345  32.96345
Angles:   90.00000  90.00000  90.00000
Rectangular boundary conditions

net charge:   0.00000000

component   0 (CO2) lambda:  0 occupancy:  1 (1.000000)
    net charge:   0.00000000 [e]

Amount of molecules per component :
-------------------------------------------------------------------------------
Component 0 (CO2)
    molecules:         5.000000e+00 molecules
    number density:    1.395957e-04 molec/A^3
    density:           1.019910e+01 kg/m^3

Total potential energy/kʙ       -2.868601e+01 [K]
-------------------------------------------------------------------------------
    external field VDW/kʙ        0.000000e+00 [K]
    external field Real/kʙ       0.000000e+00 [K]
    framework-molecule VDW/kʙ    0.000000e+00 [K]
    framework-molecule Real/kʙ   0.000000e+00 [K]
    molecule-molecule VDW/kʙ    -3.564677e+01 [K]
    molecule-molecule Real/kʙ    1.136749e+01 [K]
    Van der Waals (Tail)/kʙ     -1.296219e+00 [K]
    Ewald Fourier/kʙ             2.909177e+02 [K]
    Ewald self/kʙ               -9.183391e+04 [K]
    Ewald exclusion/kʙ           9.153988e+04 [K]
    intra VDW/kʙ                 0.000000e+00 [K]
    intra Coulombic/kʙ           0.000000e+00 [K]
    polarization/kʙ              0.000000e+00 [K]
    dU/dlambda VDW/kʙ            0.000000e+00 [K]
    dU/dlambda Real/kʙ           0.000000e+00 [K]
    dU/dlambda Ewald/kʙ          0.000000e+00 [K]


Initialization: Current cycle: 400 out of 2000
===============================================================================

Box:      33.27607   0.00000   0.00000
           0.00000  33.27607   0.00000
           0.00000   0.00000  33.27607
Lengths:  33.27607  33.27607  33.27607
Angles:   90.00000  90.00000  90.00000
Rectangular boundary conditions

net charge:   0.00000000

component   0 (CO2) lambda:  0 occupancy:  1 (1.000000)
    net charge:   0.00000000 [e]

Amount of molecules per component :
-------------------------------------------------------------------------------
Component 0 (CO2)
    molecules:         1.400000e+01 molecules
    number density:    3.799547e-04 molec/A^3
    density:           2.776014e+01 kg/m^3

Total potential energy/kʙ       -8.837525e+02 [K]
-------------------------------------------------------------------------------
    external field VDW/kʙ        0.000000e+00 [K]
    external field Real/kʙ       0.000000e+00 [K]
    framework-molecule VDW/kʙ    0.000000e+00 [K]
    framework-molecule Real/kʙ   0.000000e+00 [K]
    molecule-molecule VDW/kʙ    -7.459914e+02 [K]
    molecule-molecule Real/kʙ   -8.304525e+01 [K]
    Van der Waals (Tail)/kʙ     -9.878616e+00 [K]
    Ewald Fourier/kʙ             7.784417e+02 [K]
    Ewald self/kʙ               -2.571349e+05 [K]
    Ewald exclusion/kʙ           2.563117e+05 [K]
    intra VDW/kʙ                 0.000000e+00 [K]
    intra Coulombic/kʙ           0.000000e+00 [K]
    polarization/kʙ              0.000000e+00 [K]
    dU/dlambda VDW/kʙ            0.000000e+00 [K]
    dU/dlambda Real/kʙ           0.000000e+00 [K]
    dU/dlambda Ewald/kʙ          0.000000e+00 [K]


Initialization: Current cycle: 500 out of 2000
===============================================================================

Box:      33.21923   0.00000   0.00000
           0.00000  33.21923   0.00000
           0.00000   0.00000  33.21923
Lengths:  33.21923  33.21923  33.21923
Angles:   90.00000  90.00000  90.00000
Rectangular boundary conditions

net charge:   0.00000000

component   0 (CO2) lambda:  0 occupancy:  1 (1.000000)
    net charge:   0.00000000 [e]

Amount of molecules per component :
-------------------------------------------------------------------------------
Component 0 (CO2)
    molecules:         8.000000e+00 molecules
    number density:    2.182334e-04 molec/A^3
    density:           1.594451e+01 kg/m^3

Total potential energy/kʙ       -5.428235e+02 [K]
-------------------------------------------------------------------------------
    external field VDW/kʙ        0.000000e+00 [K]
    external field Real/kʙ       0.000000e+00 [K]
    framework-molecule VDW/kʙ    0.000000e+00 [K]
    framework-molecule Real/kʙ   0.000000e+00 [K]
    molecule-molecule VDW/kʙ    -3.858012e+02 [K]
    molecule-molecule Real/kʙ   -1.472732e+02 [K]
    Van der Waals (Tail)/kʙ     -3.242257e+00 [K]
    Ewald Fourier/kʙ             4.639383e+02 [K]
    Ewald self/kʙ               -1.469343e+05 [K]
    Ewald exclusion/kʙ           1.464638e+05 [K]
    intra VDW/kʙ                 0.000000e+00 [K]
    intra Coulombic/kʙ           0.000000e+00 [K]
    polarization/kʙ              0.000000e+00 [K]
    dU/dlambda VDW/kʙ            0.000000e+00 [K]
    dU/dlambda Real/kʙ           0.000000e+00 [K]
    dU/dlambda Ewald/kʙ          0.000000e+00 [K]


Initialization: Current cycle: 600 out of 2000
===============================================================================

Box:      33.26664   0.00000   0.00000
           0.00000  33.26664   0.00000
           0.00000   0.00000  33.26664
Lengths:  33.26664  33.26664  33.26664
Angles:   90.00000  90.00000  90.00000
Rectangular boundary conditions

net charge:   0.00000000

component   0 (CO2) lambda:  0 occupancy:  1 (1.000000)
    net charge:   0.00000000 [e]

Amount of molecules per component :
-------------------------------------------------------------------------------
Component 0 (CO2)
    molecules:         1.300000e+01 molecules
    number density:    3.531152e-04 molec/A^3
    density:           2.579920e+01 kg/m^3

Total potential energy/kʙ       -9.909651e+02 [K]
-------------------------------------------------------------------------------
    external field VDW/kʙ        0.000000e+00 [K]
    external field Real/kʙ       0.000000e+00 [K]
    framework-molecule VDW/kʙ    0.000000e+00 [K]
    framework-molecule Real/kʙ   0.000000e+00 [K]
    molecule-molecule VDW/kʙ    -7.190462e+02 [K]
    molecule-molecule Real/kʙ   -2.229963e+02 [K]
    Van der Waals (Tail)/kʙ     -8.525032e+00 [K]
    Ewald Fourier/kʙ             7.240758e+02 [K]
    Ewald self/kʙ               -2.387682e+05 [K]
    Ewald exclusion/kʙ           2.380037e+05 [K]
    intra VDW/kʙ                 0.000000e+00 [K]
    intra Coulombic/kʙ           0.000000e+00 [K]
    polarization/kʙ              0.000000e+00 [K]
    dU/dlambda VDW/kʙ            0.000000e+00 [K]
    dU/dlambda Real/kʙ           0.000000e+00 [K]
    dU/dlambda Ewald/kʙ          0.000000e+00 [K]


Initialization: Current cycle: 700 out of 2000
===============================================================================

Box:      33.52501   0.00000   0.00000
           0.00000  33.52501   0.00000
           0.00000   0.00000  33.52501
Lengths:  33.52501  33.52501  33.52501
Angles:   90.00000  90.00000  90.00000
Rectangular boundary conditions

net charge:   0.00000000

component   0 (CO2) lambda:  0 occupancy:  1 (1.000000)
    net charge:   0.00000000 [e]

Amount of molecules per component :
-------------------------------------------------------------------------------
Component 0 (CO2)
    molecules:         1.300000e+01 molecules
    number density:    3.450138e-04 molec/A^3
    density:           2.520730e+01 kg/m^3

Total potential energy/kʙ       -4.678437e+02 [K]
-------------------------------------------------------------------------------
    external field VDW/kʙ        0.000000e+00 [K]
    external field Real/kʙ       0.000000e+00 [K]
    framework-molecule VDW/kʙ    0.000000e+00 [K]
    framework-molecule Real/kʙ   0.000000e+00 [K]
    molecule-molecule VDW/kʙ    -3.549323e+02 [K]
    molecule-molecule Real/kʙ   -1.172614e+02 [K]
    Van der Waals (Tail)/kʙ     -8.329445e+00 [K]
    Ewald Fourier/kʙ             7.771528e+02 [K]
    Ewald self/kʙ               -2.387682e+05 [K]
    Ewald exclusion/kʙ           2.380037e+05 [K]
    intra VDW/kʙ                 0.000000e+00 [K]
    intra Coulombic/kʙ           0.000000e+00 [K]
    polarization/kʙ              0.000000e+00 [K]
    dU/dlambda VDW/kʙ            0.000000e+00 [K]
    dU/dlambda Real/kʙ           0.000000e+00 [K]
    dU/dlambda Ewald/kʙ          0.000000e+00 [K]


Initialization: Current cycle: 800 out of 2000
===============================================================================

Box:      33.65730   0.00000   0.00000
           0.00000  33.65730   0.00000
           0.00000   0.00000  33.65730
Lengths:  33.65730  33.65730  33.65730
Angles:   90.00000  90.00000  90.00000
Rectangular boundary conditions

net charge:   0.00000000

component   0 (CO2) lambda:  0 occupancy:  1 (1.000000)
    net charge:   0.00000000 [e]

Amount of molecules per component :
-------------------------------------------------------------------------------
Component 0 (CO2)
    molecules:         9.000000e+00 molecules
    number density:    2.360504e-04 molec/A^3
    density:           1.724625e+01 kg/m^3

Total potential energy/kʙ       -4.855325e+02 [K]
-------------------------------------------------------------------------------
    external field VDW/kʙ        0.000000e+00 [K]
    external field Real/kʙ       0.000000e+00 [K]
    framework-molecule VDW/kʙ    0.000000e+00 [K]
    framework-molecule Real/kʙ   0.000000e+00 [K]
    molecule-molecule VDW/kʙ    -3.765173e+02 [K]
    molecule-molecule Real/kʙ   -1.216711e+02 [K]
    Van der Waals (Tail)/kʙ     -3.945331e+00 [K]
    Ewald Fourier/kʙ             5.458521e+02 [K]
    Ewald self/kʙ               -1.653010e+05 [K]
    Ewald exclusion/kʙ           1.647718e+05 [K]
    intra VDW/kʙ                 0.000000e+00 [K]
    intra Coulombic/kʙ           0.000000e+00 [K]
    polarization/kʙ              0.000000e+00 [K]
    dU/dlambda VDW/kʙ            0.000000e+00 [K]
    dU/dlambda Real/kʙ           0.000000e+00 [K]
    dU/dlambda Ewald/kʙ          0.000000e+00 [K]


Initialization: Current cycle: 900 out of 2000
===============================================================================

Box:      33.66945   0.00000   0.00000
           0.00000  33.66945   0.00000
           0.00000   0.00000  33.66945
Lengths:  33.66945  33.66945  33.66945
Angles:   90.00000  90.00000  90.00000
Rectangular boundary conditions

net charge:   0.00000000

component   0 (CO2) lambda:  0 occupancy:  1 (1.000000)
    net charge:   0.00000000 [e]

Amount of molecules per component :
-------------------------------------------------------------------------------
Component 0 (CO2)
    molecules:         1.800000e+01 molecules
    number density:    4.715898e-04 molec/A^3
    density:           3.445516e+01 kg/m^3

Total potential energy/kʙ       -1.326799e+03 [K]
-------------------------------------------------------------------------------
    external field VDW/kʙ        0.000000e+00 [K]
    external field Real/kʙ       0.000000e+00 [K]
    framework-molecule VDW/kʙ    0.000000e+00 [K]
    framework-molecule Real/kʙ   0.000000e+00 [K]
    molecule-molecule VDW/kʙ    -7.792455e+02 [K]
    molecule-molecule Real/kʙ   -4.710389e+02 [K]
    Van der Waals (Tail)/kʙ     -1.576424e+01 [K]
    Ewald Fourier/kʙ             9.977512e+02 [K]
    Ewald self/kʙ               -3.306021e+05 [K]
    Ewald exclusion/kʙ           3.295436e+05 [K]
    intra VDW/kʙ                 0.000000e+00 [K]
    intra Coulombic/kʙ           0.000000e+00 [K]
    polarization/kʙ              0.000000e+00 [K]
    dU/dlambda VDW/kʙ            0.000000e+00 [K]
    dU/dlambda Real/kʙ           0.000000e+00 [K]
    dU/dlambda Ewald/kʙ          0.000000e+00 [K]


Initialization: Current cycle: 1000 out of 2000
===============================================================================

Box:      33.76810   0.00000   0.00000
           0.00000  33.76810   0.00000
           0.00000   0.00000  33.76810
Lengths:  33.76810  33.76810  33.76810
Angles:   90.00000  90.00000  90.00000
Rectangular boundary conditions

net charge:   0.00000000

component   0 (CO2) lambda:  0 occupancy:  1 (1.000000)
    net charge:   0.00000000 [e]

Amount of molecules per component :
-------------------------------------------------------------------------------
Component 0 (CO2)
    molecules:         1.800000e+01 molecules
    number density:    4.674687e-04 molec/A^3
    density:           3.415406e+01 kg/m^3

Total potential energy/kʙ       -1.508060e+03 [K]
-------------------------------------------------------------------------------
    external field VDW/kʙ        0.000000e+00 [K]
    external field Real/kʙ       0.000000e+00 [K]
    framework-molecule VDW/kʙ    0.000000e+00 [K]
    framework-molecule Real/kʙ   0.000000e+00 [K]
    molecule-molecule VDW/kʙ    -9.388332e+02 [K]
    molecule-molecule Real/kʙ   -4.822630e+02 [K]
    Van der Waals (Tail)/kʙ     -1.562648e+01 [K]
    Ewald Fourier/kʙ             9.871645e+02 [K]
    Ewald self/kʙ               -3.306021e+05 [K]
    Ewald exclusion/kʙ           3.295436e+05 [K]
    intra VDW/kʙ                 0.000000e+00 [K]
    intra Coulombic/kʙ           0.000000e+00 [K]
    polarization/kʙ              0.000000e+00 [K]
    dU/dlambda VDW/kʙ            0.000000e+00 [K]
    dU/dlambda Real/kʙ           0.000000e+00 [K]
    dU/dlambda Ewald/kʙ          0.000000e+00 [K]


Initialization: Current cycle: 1100 out of 2000
===============================================================================

Box:      33.60230   0.00000   0.00000
           0.00000  33.60230   0.00000
           0.00000   0.00000  33.60230
Lengths:  33.60230  33.60230  33.60230
Angles:   90.00000  90.00000  90.00000
Rectangular boundary conditions

net charge:   0.00000000

component   0 (CO2) lambda:  0 occupancy:  1 (1.000000)
    net charge:   0.00000000 [e]

Amount of molecules per component :
-------------------------------------------------------------------------------
Component 0 (CO2)
    molecules:         1.200000e+01 molecules
    number density:    3.162817e-04 molec/A^3
    density:           2.310808e+01 kg/m^3

Total potential energy/kʙ       -2.421800e+02 [K]
-------------------------------------------------------------------------------
    external field VDW/kʙ        0.000000e+00 [K]
    external field Real/kʙ       0.000000e+00 [K]
    framework-molecule VDW/kʙ    0.000000e+00 [K]
    framework-molecule Real/kʙ   0.000000e+00 [K]
    molecule-molecule VDW/kʙ    -1.876059e+02 [K]
    molecule-molecule Real/kʙ    9.946082e+00 [K]
    Van der Waals (Tail)/kʙ     -7.048416e+00 [K]
    Ewald Fourier/kʙ             6.481960e+02 [K]
    Ewald self/kʙ               -2.204014e+05 [K]
    Ewald exclusion/kʙ           2.196957e+05 [K]
    intra VDW/kʙ                 0.000000e+00 [K]
    intra Coulombic/kʙ           0.000000e+00 [K]
    polarization/kʙ              0.000000e+00 [K]
    dU/dlambda VDW/kʙ            0.000000e+00 [K]
    dU/dlambda Real/kʙ           0.000000e+00 [K]
    dU/dlambda Ewald/kʙ          0.000000e+00 [K]


Initialization: Current cycle: 1200 out of 2000
===============================================================================

Box:      33.78183   0.00000   0.00000
           0.00000  33.78183   0.00000
           0.00000   0.00000  33.78183
Lengths:  33.78183  33.78183  33.78183
Angles:   90.00000  90.00000  90.00000
Rectangular boundary conditions

net charge:   0.00000000

component   0 (CO2) lambda:  0 occupancy:  1 (1.000000)
    net charge:   0.00000000 [e]

Amount of molecules per component :
-------------------------------------------------------------------------------
Component 0 (CO2)
    molecules:         1.400000e+01 molecules
    number density:    3.631437e-04 molec/A^3
    density:           2.653190e+01 kg/m^3

Total potential energy/kʙ       -4.720521e+02 [K]
-------------------------------------------------------------------------------
    external field VDW/kʙ        0.000000e+00 [K]
    external field Real/kʙ       0.000000e+00 [K]
    framework-molecule VDW/kʙ    0.000000e+00 [K]
    framework-molecule Real/kʙ   0.000000e+00 [K]
    molecule-molecule VDW/kʙ    -4.581617e+02 [K]
    molecule-molecule Real/kʙ   -2.714500e+01 [K]
    Van der Waals (Tail)/kʙ     -9.441538e+00 [K]
    Ewald Fourier/kʙ             8.459750e+02 [K]
    Ewald self/kʙ               -2.571349e+05 [K]
    Ewald exclusion/kʙ           2.563117e+05 [K]
    intra VDW/kʙ                 0.000000e+00 [K]
    intra Coulombic/kʙ           0.000000e+00 [K]
    polarization/kʙ              0.000000e+00 [K]
    dU/dlambda VDW/kʙ            0.000000e+00 [K]
    dU/dlambda Real/kʙ           0.000000e+00 [K]
    dU/dlambda Ewald/kʙ          0.000000e+00 [K]


Initialization: Current cycle: 1300 out of 2000
===============================================================================

Box:      33.71747   0.00000   0.00000
           0.00000  33.71747   0.00000
           0.00000   0.00000  33.71747
Lengths:  33.71747  33.71747  33.71747
Angles:   90.00000  90.00000  90.00000
Rectangular boundary conditions

net charge:   0.00000000

component   0 (CO2) lambda:  0 occupancy:  1 (1.000000)
    net charge:   0.00000000 [e]

Amount of molecules per component :
-------------------------------------------------------------------------------
Component 0 (CO2)
    molecules:         1.500000e+01 molecules
    number density:    3.913147e-04 molec/A^3
    density:           2.859012e+01 kg/m^3

Total potential energy/kʙ       -1.840306e+03 [K]
-------------------------------------------------------------------------------
    external field VDW/kʙ        0.000000e+00 [K]
    external field Real/kʙ       0.000000e+00 [K]
    framework-molecule VDW/kʙ    0.000000e+00 [K]
    framework-molecule Real/kʙ   0.000000e+00 [K]
    molecule-molecule VDW/kʙ    -1.414099e+03 [K]
    molecule-molecule Real/kʙ   -4.314467e+02 [K]
    Van der Waals (Tail)/kʙ     -1.090068e+01 [K]
    Ewald Fourier/kʙ             8.982253e+02 [K]
    Ewald self/kʙ               -2.755017e+05 [K]
    Ewald exclusion/kʙ           2.746196e+05 [K]
    intra VDW/kʙ                 0.000000e+00 [K]
    intra Coulombic/kʙ           0.000000e+00 [K]
    polarization/kʙ              0.000000e+00 [K]
    dU/dlambda VDW/kʙ            0.000000e+00 [K]
    dU/dlambda Real/kʙ           0.000000e+00 [K]
    dU/dlambda Ewald/kʙ          0.000000e+00 [K]


Initialization: Current cycle: 1400 out of 2000
===============================================================================

Box:      33.72221   0.00000   0.00000
           0.00000  33.72221   0.00000
           0.00000   0.00000  33.72221
Lengths:  33.72221  33.72221  33.72221
Angles:   90.00000  90.00000  90.00000
Rectangular boundary conditions

net charge:   0.00000000

component   0 (CO2) lambda:  0 occupancy:  1 (1.000000)
    net charge:   0.00000000 [e]

Amount of molecules per component :
-------------------------------------------------------------------------------
Component 0 (CO2)
    molecules:         1.600000e+01 molecules
    number density:    4.172264e-04 molec/A^3
    density:           3.048327e+01 kg/m^3

Total potential energy/kʙ       -1.365211e+02 [K]
-------------------------------------------------------------------------------
    external field VDW/kʙ        0.000000e+00 [K]
    external field Real/kʙ       0.000000e+00 [K]
    framework-molecule VDW/kʙ    0.000000e+00 [K]
    framework-molecule Real/kʙ   0.000000e+00 [K]
    molecule-molecule VDW/kʙ    -1.019799e+02 [K]
    molecule-molecule Real/kʙ    3.746699e-01 [K]
    Van der Waals (Tail)/kʙ     -1.239732e+01 [K]
    Ewald Fourier/kʙ             9.183717e+02 [K]
    Ewald self/kʙ               -2.938685e+05 [K]
    Ewald exclusion/kʙ           2.929276e+05 [K]
    intra VDW/kʙ                 0.000000e+00 [K]
    intra Coulombic/kʙ           0.000000e+00 [K]
    polarization/kʙ              0.000000e+00 [K]
    dU/dlambda VDW/kʙ            0.000000e+00 [K]
    dU/dlambda Real/kʙ           0.000000e+00 [K]
    dU/dlambda Ewald/kʙ          0.000000e+00 [K]


Initialization: Current cycle: 1500 out of 2000
===============================================================================

Box:      33.72686   0.00000   0.00000
           0.00000  33.72686   0.00000
           0.00000   0.00000  33.72686
Lengths:  33.72686  33.72686  33.72686
Angles:   90.00000  90.00000  90.00000
Rectangular boundary conditions

net charge:   0.00000000

component   0 (CO2) lambda:  0 occupancy:  1 (1.000000)
    net charge:   0.00000000 [e]

Amount of molecules per component :
-------------------------------------------------------------------------------
Component 0 (CO2)
    molecules:         1.400000e+01 molecules
    number density:    3.649221e-04 molec/A^3
    density:           2.666183e+01 kg/m^3

Total potential energy/kʙ       -8.841443e+02 [K]
-------------------------------------------------------------------------------
    external field VDW/kʙ        0.000000e+00 [K]
    external field Real/kʙ       0.000000e+00 [K]
    framework-molecule VDW/kʙ    0.000000e+00 [K]
    framework-molecule Real/kʙ   0.000000e+00 [K]
    molecule-molecule VDW/kʙ    -7.667905e+02 [K]
    molecule-molecule Real/kʙ   -1.195896e+02 [K]
    Van der Waals (Tail)/kʙ     -9.487775e+00 [K]
    Ewald Fourier/kʙ             8.350026e+02 [K]
    Ewald self/kʙ               -2.571349e+05 [K]
    Ewald exclusion/kʙ           2.563117e+05 [K]
    intra VDW/kʙ                 0.000000e+00 [K]
    intra Coulombic/kʙ           0.000000e+00 [K]
    polarization/kʙ              0.000000e+00 [K]
    dU/dlambda VDW/kʙ            0.000000e+00 [K]
    dU/dlambda Real/kʙ           0.000000e+00 [K]
    dU/dlambda Ewald/kʙ          0.000000e+00 [K]


Initialization: Current cycle: 1600 out of 2000
===============================================================================

Box:      33.70008   0.00000   0.00000
           0.00000  33.70008   0.00000
           0.00000   0.00000  33.70008
Lengths:  33.70008  33.70008  33.70008
Angles:   90.00000  90.00000  90.00000
Rectangular boundary conditions

net charge:   0.00000000

component   0 (CO2) lambda:  0 occupancy:  1 (1.000000)
    net charge:   0.00000000 [e]

Amount of molecules per component :
-------------------------------------------------------------------------------
Component 0 (CO2)
    molecules:         1.800000e+01 molecules
    number density:    4.703051e-04 molec/A^3
    density:           3.436129e+01 kg/m^3

Total potential energy/kʙ       -1.162782e+03 [K]
-------------------------------------------------------------------------------
    external field VDW/kʙ        0.000000e+00 [K]
    external field Real/kʙ       0.000000e+00 [K]
    framework-molecule VDW/kʙ    0.000000e+00 [K]
    framework-molecule Real/kʙ   0.000000e+00 [K]
    molecule-molecule VDW/kʙ    -9.056385e+02 [K]
    molecule-molecule Real/kʙ   -1.372126e+02 [K]
    Van der Waals (Tail)/kʙ     -1.572130e+01 [K]
    Ewald Fourier/kʙ             9.542918e+02 [K]
    Ewald self/kʙ               -3.306021e+05 [K]
    Ewald exclusion/kʙ           3.295436e+05 [K]
    intra VDW/kʙ                 0.000000e+00 [K]
    intra Coulombic/kʙ           0.000000e+00 [K]
    polarization/kʙ              0.000000e+00 [K]
    dU/dlambda VDW/kʙ            0.000000e+00 [K]
    dU/dlambda Real/kʙ           0.000000e+00 [K]
    dU/dlambda Ewald/kʙ          0.000000e+00 [K]


Initialization: Current cycle: 1700 out of 2000
===============================================================================

Box:      33.66008   0.00000   0.00000
           0.00000  33.66008   0.00000
           0.00000   0.00000  33.66008
Lengths:  33.66008  33.66008  33.66008
Angles:   90.00000  90.00000  90.00000
Rectangular boundary conditions

net charge:   0.00000000

component   0 (CO2) lambda:  0 occupancy:  1 (1.000000)
    net charge:   0.00000000 [e]

Amount of molecules per component :
-------------------------------------------------------------------------------
Component 0 (CO2)
    molecules:         2.100000e+01 molecules
    number density:    5.506475e-04 molec/A^3
    density:           4.023125e+01 kg/m^3

Total potential energy/kʙ       -7.622946e+02 [K]
-------------------------------------------------------------------------------
    external field VDW/kʙ        0.000000e+00 [K]
    external field Real/kʙ       0.000000e+00 [K]
    framework-molecule VDW/kʙ    0.000000e+00 [K]
    framework-molecule Real/kʙ   0.000000e+00 [K]
    molecule-molecule VDW/kʙ    -4.897433e+02 [K]
    molecule-molecule Real/kʙ   -2.053663e+02 [K]
    Van der Waals (Tail)/kʙ     -2.147480e+01 [K]
    Ewald Fourier/kʙ             1.189208e+03 [K]
    Ewald self/kʙ               -3.857024e+05 [K]
    Ewald exclusion/kʙ           3.844675e+05 [K]
    intra VDW/kʙ                 0.000000e+00 [K]
    intra Coulombic/kʙ           0.000000e+00 [K]
    polarization/kʙ              0.000000e+00 [K]
    dU/dlambda VDW/kʙ            0.000000e+00 [K]
    dU/dlambda Real/kʙ           0.000000e+00 [K]
    dU/dlambda Ewald/kʙ          0.000000e+00 [K]


Initialization: Current cycle: 1800 out of 2000
===============================================================================

Box:      33.68206   0.00000   0.00000
           0.00000  33.68206   0.00000
           0.00000   0.00000  33.68206
Lengths:  33.68206  33.68206  33.68206
Angles:   90.00000  90.00000  90.00000
Rectangular boundary conditions

net charge:   0.00000000

component   0 (CO2) lambda:  0 occupancy:  1 (1.000000)
    net charge:   0.00000000 [e]

Amount of molecules per component :
-------------------------------------------------------------------------------
Component 0 (CO2)
    molecules:         1.600000e+01 molecules
    number density:    4.187202e-04 molec/A^3
    density:           3.059241e+01 kg/m^3

Total potential energy/kʙ       -1.475326e+03 [K]
-------------------------------------------------------------------------------
    external field VDW/kʙ        0.000000e+00 [K]
    external field Real/kʙ       0.000000e+00 [K]
    framework-molecule VDW/kʙ    0.000000e+00 [K]
    framework-molecule Real/kʙ   0.000000e+00 [K]
    molecule-molecule VDW/kʙ    -9.524285e+02 [K]
    molecule-molecule Real/kʙ   -4.819729e+02 [K]
    Van der Waals (Tail)/kʙ     -1.244171e+01 [K]
    Ewald Fourier/kʙ             9.124076e+02 [K]
    Ewald self/kʙ               -2.938685e+05 [K]
    Ewald exclusion/kʙ           2.929276e+05 [K]
    intra VDW/kʙ                 0.000000e+00 [K]
    intra Coulombic/kʙ           0.000000e+00 [K]
    polarization/kʙ              0.000000e+00 [K]
    dU/dlambda VDW/kʙ            0.000000e+00 [K]
    dU/dlambda Real/kʙ           0.000000e+00 [K]
    dU/dlambda Ewald/kʙ          0.000000e+00 [K]


Initialization: Current cycle: 1900 out of 2000
===============================================================================

Box:      33.79828   0.00000   0.00000
           0.00000  33.79828   0.00000
           0.00000   0.00000  33.79828
Lengths:  33.79828  33.79828  33.79828
Angles:   90.00000  90.00000  90.00000
Rectangular boundary conditions

net charge:   0.00000000

component   0 (CO2) lambda:  0 occupancy:  1 (1.000000)
    net charge:   0.00000000 [e]

Amount of molecules per component :
-------------------------------------------------------------------------------
Component 0 (CO2)
    molecules:         1.400000e+01 molecules
    number density:    3.626136e-04 molec/A^3
    density:           2.649317e+01 kg/m^3

Total potential energy/kʙ       -2.010860e+02 [K]
-------------------------------------------------------------------------------
    external field VDW/kʙ        0.000000e+00 [K]
    external field Real/kʙ       0.000000e+00 [K]
    framework-molecule VDW/kʙ    0.000000e+00 [K]
    framework-molecule Real/kʙ   0.000000e+00 [K]
    molecule-molecule VDW/kʙ    -1.992125e+02 [K]
    molecule-molecule Real/kʙ   -7.704698e+00 [K]
    Van der Waals (Tail)/kʙ     -9.427756e+00 [K]
    Ewald Fourier/kʙ             8.385379e+02 [K]
    Ewald self/kʙ               -2.571349e+05 [K]
    Ewald exclusion/kʙ           2.563117e+05 [K]
    intra VDW/kʙ                 0.000000e+00 [K]
    intra Coulombic/kʙ           0.000000e+00 [K]
    polarization/kʙ              0.000000e+00 [K]
    dU/dlambda VDW/kʙ            0.000000e+00 [K]
    dU/dlambda Real/kʙ           0.000000e+00 [K]
    dU/dlambda Ewald/kʙ          0.000000e+00 [K]


Current cycle: 0 out of 6000
===============================================================================

Box:      33.78995   0.00000   0.00000  Average:  33.78995   0.00000   0.00000
           0.00000  33.78995   0.00000             0.00000  33.78995   0.00000
           0.00000   0.00000  33.78995             0.00000   0.00000  33.78995
Lengths:  33.78995  33.78995  33.78995  Average:  33.78995  33.78995  33.78995
Angles:   90.00000  90.00000  90.00000  Average:  90.00000  90.00000  90.00000
Rectangular boundary conditions

net charge:   0.00000000

component 0 (CO2) lambda:  0 occupancy:  1 (1.000000)
    net charge:   0.00000000 [e]

Amount of molecules per component :
-------------------------------------------------------------------------------
Component 0 (CO2)
    molecules:      1.500000e+01 molecules  (1.500000e+01 +/- 0.000000e+00)
    number density: 3.888022e-04 molec./A^3 (3.888022e-04 +/- 0.000000e+00)
    density:        2.840656e+01 kg/m^3     (2.840656e+01 +/- 0.000000e+00)

Average pressure tensor: 
-------------------------------------------------------------------------------
 1.2883e+01  0.0000e+00  0.0000e+00 +/- 0.0000e+00 0.0000e+00 0.0000e+00 [bar]
 0.0000e+00  1.2883e+01  0.0000e+00 +/- 0.0000e+00 0.0000e+00 0.0000e+00 [bar]
 0.0000e+00  0.0000e+00  1.2883e+01 +/- 0.0000e+00 0.0000e+00 0.0000e+00 [bar]
Ideal-gas pressure:   1.288320e+01 +/ 0.000000e+00 [bar]
Excess pressure:      0.000000e+00 +/ 0.000000e+00 [bar]
Pressure:             1.288320e+01 +/ 0.000000e+00 [bar]

Total potential energy/kʙ  -5.386270e+02 (-5.386270e+02 +/- 0.000000e+00) [K]
-------------------------------------------------------------------------------
ExternalField-molecule
    Van der Waals/kʙ        0.000000e+00 ( 0.000000e+00 +/- 0.000000e+00) [K]
Framework-molecule
    Van der Waals/kʙ        0.000000e+00 ( 0.000000e+00 +/- 0.000000e+00) [K]
    Van der Waals (Tail)/kʙ 0.000000e+00 ( 0.000000e+00 +/- 0.000000e+00) [K]
    Coulombic Real/kʙ       0.000000e+00 ( 0.000000e+00 +/- 0.000000e+00) [K]
    Coulombic Fourier/kʙ    0.000000e+00 ( 0.000000e+00 +/- 0.000000e+00) [K]
Molecule-molecule
    Van der Waals/kʙ       -4.018420e+02 (-4.018420e+02 +/- 0.000000e+00) [K]
    Van der Waals (Tail)/kʙ-1.083069e+01 (-1.083069e+01 +/- 0.000000e+00) [K]
    Coulombic Real/kʙ      -4.706936e+01 (-4.706936e+01 +/- 0.000000e+00) [K]
    Coulombic Fourier/kʙ   -7.888498e+01 (-7.888498e+01 +/- 0.000000e+00) [K]
    Molecule Intra/kʙ       0.000000e+00 ( 0.000000e+00 +/- 0.000000e+00) [K]

Current cycle: 100 out of 6000
===============================================================================

Box:      33.80948   0.00000   0.00000  Average:  33.79040   0.00000   0.00000
           0.00000  33.80948   0.00000             0.00000  33.79040   0.00000
           0.00000   0.00000  33.80948             0.00000   0.00000  33.79040
Lengths:  33.80948  33.80948  33.80948  Average:  33.79040  33.79040  33.79040
Angles:   90.00000  90.00000  90.00000  Average:  90.00000  90.00000  90.00000
Rectangular boundary conditions

net charge:   0.00000000

component 0 (CO2) lambda:  0 occupancy:  1 (1.000000)
    net charge:   0.00000000 [e]

Amount of molecules per component :
-------------------------------------------------------------------------------
Component 0 (CO2)
    molecules:      2.000000e+01 molecules  (1.425743e+01 +/- 0.000000e+00)
    number density: 5.175050e-04 molec./A^3 (3.695101e-04 +/- 0.000000e+00)
    density:        3.780980e+01 kg/m^3     (2.699704e+01 +/- 0.000000e+00)

Average pressure tensor: 
-------------------------------------------------------------------------------
 8.8974e+00  1.3602e-01  6.0714e-01 +/- 0.0000e+00 0.0000e+00 0.0000e+00 [bar]
 1.3602e-01  1.0484e+01 -1.3892e+00 +/- 0.0000e+00 0.0000e+00 0.0000e+00 [bar]
 6.0714e-01 -1.3892e+00  1.4470e+01 +/- 0.0000e+00 0.0000e+00 0.0000e+00 [bar]
Ideal-gas pressure:   1.224394e+01 +/ 0.000000e+00 [bar]
Excess pressure:     -9.600593e-01 +/ 0.000000e+00 [bar]
Pressure:             1.128388e+01 +/ 0.000000e+00 [bar]

Total potential energy/kʙ  -1.291254e+03 (-1.063187e+03 +/- 0.000000e+00) [K]
-------------------------------------------------------------------------------
ExternalField-molecule
    Van der Waals/kʙ        0.000000e+00 ( 0.000000e+00 +/- 0.000000e+00) [K]
Framework-molecule
    Van der Waals/kʙ        0.000000e+00 ( 0.000000e+00 +/- 0.000000e+00) [K]
    Van der Waals (Tail)/kʙ 0.000000e+00 ( 0.000000e+00 +/- 0.000000e+00) [K]
    Coulombic Real/kʙ       0.000000e+00 ( 0.000000e+00 +/- 0.000000e+00) [K]
    Coulombic Fourier/kʙ    0.000000e+00 ( 0.000000e+00 +/- 0.000000e+00) [K]
Molecule-molecule
    Van der Waals/kʙ       -9.870699e+02 (-6.835727e+02 +/- 0.000000e+00) [K]
    Van der Waals (Tail)/kʙ-1.922121e+01 (-1.130881e+01 +/- 0.000000e+00) [K]
    Coulombic Real/kʙ      -2.326971e+02 (-3.381066e+02 +/- 0.000000e+00) [K]
    Coulombic Fourier/kʙ   -5.226567e+01 (-3.019910e+01 +/- 0.000000e+00) [K]
    Molecule Intra/kʙ       0.000000e+00 ( 0.000000e+00 +/- 0.000000e+00) [K]

Current cycle: 200 out of 6000
===============================================================================

Box:      33.64468   0.00000   0.00000  Average:  33.79684   0.00000   0.00000
           0.00000  33.64468   0.00000             0.00000  33.79684   0.00000
           0.00000   0.00000  33.64468             0.00000   0.00000  33.79684
Lengths:  33.64468  33.64468  33.64468  Average:  33.79684  33.79684  33.79684
Angles:   90.00000  90.00000  90.00000  Average:  90.00000  90.00000  90.00000
Rectangular boundary conditions

net charge:   0.00000000

component 0 (CO2) lambda:  0 occupancy:  1 (1.000000)
    net charge:   0.00000000 [e]

Amount of molecules per component :
-------------------------------------------------------------------------------
Component 0 (CO2)
    molecules:      1.500000e+01 molecules  (1.558209e+01 +/- 0.000000e+00)
    number density: 3.938602e-04 molec./A^3 (4.035982e-04 +/- 0.000000e+00)
    density:        2.877610e+01 kg/m^3     (2.948758e+01 +/- 0.000000e+00)

Average pressure tensor: 
-------------------------------------------------------------------------------
 1.0337e+01  6.3289e-02  2.3831e-01 +/- 0.0000e+00 0.0000e+00 0.0000e+00 [bar]
 6.3289e-02  1.1021e+01 -2.3485e-01 +/- 0.0000e+00 0.0000e+00 0.0000e+00 [bar]
 2.3831e-01 -2.3485e-01  1.2157e+01 +/- 0.0000e+00 0.0000e+00 0.0000e+00 [bar]
Ideal-gas pressure:   1.337347e+01 +/ 0.000000e+00 [bar]
Excess pressure:     -2.201834e+00 +/ 0.000000e+00 [bar]
Pressure:             1.117164e+01 +/ 0.000000e+00 [bar]

Total potential energy/kʙ  -8.926106e+02 (-1.065103e+03 +/- 0.000000e+00) [K]
-------------------------------------------------------------------------------
ExternalField-molecule
    Van der Waals/kʙ        0.000000e+00 ( 0.000000e+00 +/- 0.000000e+00) [K]
Framework-molecule
    Van der Waals/kʙ        0.000000e+00 ( 0.000000e+00 +/- 0.000000e+00) [K]
    Van der Waals (Tail)/kʙ 0.000000e+00 ( 0.000000e+00 +/- 0.000000e+00) [K]
    Coulombic Real/kʙ       0.000000e+00 ( 0.000000e+00 +/- 0.000000e+00) [K]
    Coulombic Fourier/kʙ    0.000000e+00 ( 0.000000e+00 +/- 0.000000e+00) [K]
Molecule-molecule
    Van der Waals/kʙ       -7.020059e+02 (-7.472564e+02 +/- 0.000000e+00) [K]
    Van der Waals (Tail)/kʙ-1.097159e+01 (-1.274789e+01 +/- 0.000000e+00) [K]
    Coulombic Real/kʙ      -9.639187e+01 (-2.674591e+02 +/- 0.000000e+00) [K]
    Coulombic Fourier/kʙ   -8.324120e+01 (-3.763940e+01 +/- 0.000000e+00) [K]
    Molecule Intra/kʙ       0.000000e+00 ( 0.000000e+00 +/- 0.000000e+00) [K]

Current cycle: 300 out of 6000
===============================================================================

Box:      33.76155   0.00000   0.00000  Average:  33.77552   0.00000   0.00000
           0.00000  33.76155   0.00000             0.00000  33.77552   0.00000
           0.00000   0.00000  33.76155             0.00000   0.00000  33.77552
Lengths:  33.76155  33.76155  33.76155  Average:  33.77552  33.77552  33.77552
Angles:   90.00000  90.00000  90.00000  Average:  90.00000  90.00000  90.00000
Rectangular boundary conditions

net charge:   0.00000000

component 0 (CO2) lambda:  0 occupancy:  1 (1.000000)
    net charge:   0.00000000 [e]

Amount of molecules per component :
-------------------------------------------------------------------------------
Component 0 (CO2)
    molecules:      1.700000e+01 molecules  (1.499668e+01 +/- 0.000000e+00)
    number density: 4.417554e-04 molec./A^3 (3.891062e-04 +/- 0.000000e+00)
    density:        3.227541e+01 kg/m^3     (2.842876e+01 +/- 0.000000e+00)

Average pressure tensor: 
-------------------------------------------------------------------------------
 9.6220e+00  7.8607e-02 -2.5271e-01 +/- 0.0000e+00 0.0000e+00 0.0000e+00 [bar]
 7.8607e-02  1.0312e+01 -3.5142e-02 +/- 0.0000e+00 0.0000e+00 0.0000e+00 [bar]
-2.5271e-01 -3.5142e-02  1.0730e+01 +/- 0.0000e+00 0.0000e+00 0.0000e+00 [bar]
Ideal-gas pressure:   1.289327e+01 +/ 0.000000e+00 [bar]
Excess pressure:     -2.671925e+00 +/ 0.000000e+00 [bar]
Pressure:             1.022134e+01 +/ 0.000000e+00 [bar]

Total potential energy/kʙ  -2.103011e+03 (-1.017832e+03 +/- 0.000000e+00) [K]
-------------------------------------------------------------------------------
ExternalField-molecule
    Van der Waals/kʙ        0.000000e+00 ( 0.000000e+00 +/- 0.000000e+00) [K]
Framework-molecule
    Van der Waals/kʙ        0.000000e+00 ( 0.000000e+00 +/- 0.000000e+00) [K]
    Van der Waals (Tail)/kʙ 0.000000e+00 ( 0.000000e+00 +/- 0.000000e+00) [K]
    Coulombic Real/kʙ       0.000000e+00 ( 0.000000e+00 +/- 0.000000e+00) [K]
    Coulombic Fourier/kʙ    0.000000e+00 ( 0.000000e+00 +/- 0.000000e+00) [K]
Molecule-molecule
    Van der Waals/kʙ       -1.813425e+03 (-7.310881e+02 +/- 0.000000e+00) [K]
    Van der Waals (Tail)/kʙ-1.394656e+01 (-1.203926e+01 +/- 0.000000e+00) [K]
    Coulombic Real/kʙ      -2.461469e+02 (-2.344966e+02 +/- 0.000000e+00) [K]
    Coulombic Fourier/kʙ   -2.949250e+01 (-4.020803e+01 +/- 0.000000e+00) [K]
    Molecule Intra/kʙ       0.000000e+00 ( 0.000000e+00 +/- 0.000000e+00) [K]

Current cycle: 400 out of 6000
===============================================================================

Box:      33.78894   0.00000   0.00000  Average:  33.78077   0.00000   0.00000
           0.00000  33.78894   0.00000             0.00000  33.78077   0.00000
           0.00000   0.00000  33.78894             0.00000   0.00000  33.78077
Lengths:  33.78894  33.78894  33.78894  Average:  33.78077  33.78077  33.78077
Angles:   90.00000  90.00000  90.00000  Average:  90.00000  90.00000  90.00000
Rectangular boundary conditions

net charge:   0.00000000

component 0 (CO2) lambda:  0 occupancy:  1 (1.000000)
    net charge:   0.00000000 [e]

Amount of molecules per component :
-------------------------------------------------------------------------------
Component 0 (CO2)
    molecules:      2.300000e+01 molecules  (1.618953e+01 +/- 0.000000e+00)
    number density: 5.962165e-04 molec./A^3 (4.198392e-04 +/- 0.000000e+00)
    density:        4.356060e+01 kg/m^3     (3.067417e+01 +/- 0.000000e+00)

Average pressure tensor: 
-------------------------------------------------------------------------------
 1.1625e+01  4.0507e-02 -8.1608e-02 +/- 0.0000e+00 0.0000e+00 0.0000e+00 [bar]
 4.0507e-02  1.1061e+01 -7.1681e-02 +/- 0.0000e+00 0.0000e+00 0.0000e+00 [bar]
-8.1608e-02 -7.1681e-02  1.1160e+01 +/- 0.0000e+00 0.0000e+00 0.0000e+00 [bar]
Ideal-gas pressure:   1.391163e+01 +/ 0.000000e+00 [bar]
Excess pressure:     -2.629750e+00 +/ 0.000000e+00 [bar]
Pressure:             1.128188e+01 +/ 0.000000e+00 [bar]

Total potential energy/kʙ  -2.690691e+03 (-1.091536e+03 +/- 0.000000e+00) [K]
-------------------------------------------------------------------------------
ExternalField-molecule
    Van der Waals/kʙ        0.000000e+00 ( 0.000000e+00 +/- 0.000000e+00) [K]
Framework-molecule
    Van der Waals/kʙ        0.000000e+00 ( 0.000000e+00 +/- 0.000000e+00) [K]
    Van der Waals (Tail)/kʙ 0.000000e+00 ( 0.000000e+00 +/- 0.000000e+00) [K]
    Coulombic Real/kʙ       0.000000e+00 ( 0.000000e+00 +/- 0.000000e+00) [K]
    Coulombic Fourier/kʙ    0.000000e+00 ( 0.000000e+00 +/- 0.000000e+00) [K]
Molecule-molecule
    Van der Waals/kʙ       -1.987528e+03 (-8.087805e+02 +/- 0.000000e+00) [K]
    Van der Waals (Tail)/kʙ-2.546643e+01 (-1.387492e+01 +/- 0.000000e+00) [K]
    Coulombic Real/kʙ      -6.851486e+02 (-2.320064e+02 +/- 0.000000e+00) [K]
    Coulombic Fourier/kʙ    7.452909e+00 (-3.687414e+01 +/- 0.000000e+00) [K]
    Molecule Intra/kʙ       0.000000e+00 ( 0.000000e+00 +/- 0.000000e+00) [K]

Current cycle: 500 out of 6000
===============================================================================

Box:      33.74939   0.00000   0.00000  Average:  33.78403   0.00000   0.00000
           0.00000  33.74939   0.00000             0.00000  33.78403   0.00000
           0.00000   0.00000  33.74939             0.00000   0.00000  33.78403
Lengths:  33.74939  33.74939  33.74939  Average:  33.78403  33.78403  33.78403
Angles:   90.00000  90.00000  90.00000  Average:  90.00000  90.00000  90.00000
Rectangular boundary conditions

net charge:   0.00000000

component 0 (CO2) lambda:  0 occupancy:  1 (1.000000)
    net charge:   0.00000000 [e]

Amount of molecules per component :
-------------------------------------------------------------------------------
Component 0 (CO2)
    molecules:      1.600000e+01 molecules  (1.680240e+01 +/- 0.000000e+00)
    number density: 4.162193e-04 molec./A^3 (4.355921e-04 +/- 0.000000e+00)
    density:        3.040969e+01 kg/m^3     (3.182510e+01 +/- 0.000000e+00)

Average pressure tensor: 
-------------------------------------------------------------------------------
 1.2012e+01  1.3543e-01  1.0321e-01 +/- 0.0000e+00 0.0000e+00 0.0000e+00 [bar]
 1.3543e-01  1.1641e+01 -9.3864e-02 +/- 0.0000e+00 0.0000e+00 0.0000e+00 [bar]
 1.0321e-01 -9.3864e-02  1.1444e+01 +/- 0.0000e+00 0.0000e+00 0.0000e+00 [bar]
Ideal-gas pressure:   1.443361e+01 +/ 0.000000e+00 [bar]
Excess pressure:     -2.734527e+00 +/ 0.000000e+00 [bar]
Pressure:             1.169908e+01 +/ 0.000000e+00 [bar]

Total potential energy/kʙ  -1.231961e+03 (-1.239490e+03 +/- 0.000000e+00) [K]
-------------------------------------------------------------------------------
ExternalField-molecule
    Van der Waals/kʙ        0.000000e+00 ( 0.000000e+00 +/- 0.000000e+00) [K]
Framework-molecule
    Van der Waals/kʙ        0.000000e+00 ( 0.000000e+00 +/- 0.000000e+00) [K]
    Van der Waals (Tail)/kʙ 0.000000e+00 ( 0.000000e+00 +/- 0.000000e+00) [K]
    Coulombic Real/kʙ       0.000000e+00 ( 0.000000e+00 +/- 0.000000e+00) [K]
    Coulombic Fourier/kʙ    0.000000e+00 ( 0.000000e+00 +/- 0.000000e+00) [K]
Molecule-molecule
    Van der Waals/kʙ       -7.736779e+02 (-8.958209e+02 +/- 0.000000e+00) [K]
    Van der Waals (Tail)/kʙ-1.236740e+01 (-1.467501e+01 +/- 0.000000e+00) [K]
    Coulombic Real/kʙ      -4.418630e+02 (-2.917533e+02 +/- 0.000000e+00) [K]
    Coulombic Fourier/kʙ   -4.053143e+00 (-3.724078e+01 +/- 0.000000e+00) [K]
    Molecule Intra/kʙ       0.000000e+00 ( 0.000000e+00 +/- 0.000000e+00) [K]

Current cycle: 600 out of 6000
===============================================================================

Box:      33.84900   0.00000   0.00000  Average:  33.79486   0.00000   0.00000
           0.00000  33.84900   0.00000             0.00000  33.79486   0.00000
           0.00000   0.00000  33.84900             0.00000   0.00000  33.79486
Lengths:  33.84900  33.84900  33.84900  Average:  33.79486  33.79486  33.79486
Angles:   90.00000  90.00000  90.00000  Average:  90.00000  90.00000  90.00000
Rectangular boundary conditions

net charge:   0.00000000

component 0 (CO2) lambda:  0 occupancy:  1 (1.000000)
    net charge:   0.00000000 [e]

Amount of molecules per component :
-------------------------------------------------------------------------------
Component 0 (CO2)
    molecules:      1.500000e+01 molecules  (1.696839e+01 +/- 0.000000e+00)
    number density: 3.867707e-04 molec./A^3 (4.394735e-04 +/- 0.000000e+00)
    density:        2.825813e+01 kg/m^3     (3.210868e+01 +/- 0.000000e+00)

Average pressure tensor: 
-------------------------------------------------------------------------------
 1.2300e+01 -4.4136e-01 -8.1172e-02 +/- 0.0000e+00 0.0000e+00 0.0000e+00 [bar]
-4.4136e-01  1.2091e+01 -2.6476e-01 +/- 0.0000e+00 0.0000e+00 0.0000e+00 [bar]
-8.1172e-02 -2.6476e-01  1.1882e+01 +/- 0.0000e+00 0.0000e+00 0.0000e+00 [bar]
Ideal-gas pressure:   1.456222e+01 +/ 0.000000e+00 [bar]
Excess pressure:     -2.470862e+00 +/ 0.000000e+00 [bar]
Pressure:             1.209136e+01 +/ 0.000000e+00 [bar]

Total potential energy/kʙ  -8.331822e+02 (-1.276842e+03 +/- 0.000000e+00) [K]
-------------------------------------------------------------------------------
ExternalField-molecule
    Van der Waals/kʙ        0.000000e+00 ( 0.000000e+00 +/- 0.000000e+00) [K]
Framework-molecule
    Van der Waals/kʙ        0.000000e+00 ( 0.000000e+00 +/- 0.000000e+00) [K]
    Van der Waals (Tail)/kʙ 0.000000e+00 ( 0.000000e+00 +/- 0.000000e+00) [K]
    Coulombic Real/kʙ       0.000000e+00 ( 0.000000e+00 +/- 0.000000e+00) [K]
    Coulombic Fourier/kʙ    0.000000e+00 ( 0.000000e+00 +/- 0.000000e+00) [K]
Molecule-molecule
    Van der Waals/kʙ       -6.560812e+02 (-8.962746e+02 +/- 0.000000e+00) [K]
    Van der Waals (Tail)/kʙ-1.077410e+01 (-1.496333e+01 +/- 0.000000e+00) [K]
    Coulombic Real/kʙ      -1.646889e+02 (-3.283671e+02 +/- 0.000000e+00) [K]
    Coulombic Fourier/kʙ   -1.637989e+00 (-3.723739e+01 +/- 0.000000e+00) [K]
    Molecule Intra/kʙ       0.000000e+00 ( 0.000000e+00 +/- 0.000000e+00) [K]

Current cycle: 700 out of 6000
===============================================================================

Box:      33.84687   0.00000   0.00000  Average:  33.79603   0.00000   0.00000
           0.00000  33.84687   0.00000             0.00000  33.79603   0.00000
           0.00000   0.00000  33.84687             0.00000   0.00000  33.79603
Lengths:  33.84687  33.84687  33.84687  Average:  33.79603  33.79603  33.79603
Angles:   90.00000  90.00000  90.00000  Average:  90.00000  90.00000  90.00000
Rectangular boundary conditions

net charge:   0.00000000

component 0 (CO2) lambda:  0 occupancy:  1 (1.000000)
    net charge:   0.00000000 [e]

Amount of molecules per component :
-------------------------------------------------------------------------------
Component 0 (CO2)
    molecules:      1.900000e+01 molecules  (1.711555e+01 +/- 0.000000e+00)
    number density: 4.900024e-04 molec./A^3 (4.432520e-04 +/- 0.000000e+00)
    density:        3.580041e+01 kg/m^3     (3.238475e+01 +/- 0.000000e+00)

Average pressure tensor: 
-------------------------------------------------------------------------------
 1.2489e+01 -4.4544e-01  6.6872e-02 +/- 0.0000e+00 0.0000e+00 0.0000e+00 [bar]
-4.4544e-01  1.2668e+01 -3.1561e-01 +/- 0.0000e+00 0.0000e+00 0.0000e+00 [bar]
 6.6872e-02 -3.1561e-01  1.2035e+01 +/- 0.0000e+00 0.0000e+00 0.0000e+00 [bar]
Ideal-gas pressure:   1.468742e+01 +/ 0.000000e+00 [bar]
Excess pressure:     -2.290113e+00 +/ 0.000000e+00 [bar]
Pressure:             1.239731e+01 +/ 0.000000e+00 [bar]

Total potential energy/kʙ  -7.947723e+02 (-1.293285e+03 +/- 0.000000e+00) [K]
-------------------------------------------------------------------------------
ExternalField-molecule
    Van der Waals/kʙ        0.000000e+00 ( 0.000000e+00 +/- 0.000000e+00) [K]
Framework-molecule
    Van der Waals/kʙ        0.000000e+00 ( 0.000000e+00 +/- 0.000000e+00) [K]
    Van der Waals (Tail)/kʙ 0.000000e+00 ( 0.000000e+00 +/- 0.000000e+00) [K]
    Coulombic Real/kʙ       0.000000e+00 ( 0.000000e+00 +/- 0.000000e+00) [K]
    Coulombic Fourier/kʙ    0.000000e+00 ( 0.000000e+00 +/- 0.000000e+00) [K]
Molecule-molecule
    Van der Waals/kʙ       -5.148951e+02 (-9.053977e+02 +/- 0.000000e+00) [K]
    Van der Waals (Tail)/kʙ-1.728972e+01 (-1.501707e+01 +/- 0.000000e+00) [K]
    Coulombic Real/kʙ      -2.315913e+02 (-3.386871e+02 +/- 0.000000e+00) [K]
    Coulombic Fourier/kʙ   -3.099624e+01 (-3.418273e+01 +/- 0.000000e+00) [K]
    Molecule Intra/kʙ       0.000000e+00 ( 0.000000e+00 +/- 0.000000e+00) [K]

Current cycle: 800 out of 6000
===============================================================================

Box:      33.99037   0.00000   0.00000  Average:  33.81253   0.00000   0.00000
           0.00000  33.99037   0.00000             0.00000  33.81253   0.00000
           0.00000   0.00000  33.99037             0.00000   0.00000  33.81253
Lengths:  33.99037  33.99037  33.99037  Average:  33.81253  33.81253  33.81253
Angles:   90.00000  90.00000  90.00000  Average:  90.00000  90.00000  90.00000
Rectangular boundary conditions

net charge:   0.00000000

component 0 (CO2) lambda:  0 occupancy:  1 (1.000000)
    net charge:   0.00000000 [e]

Amount of molecules per component :
-------------------------------------------------------------------------------
Component 0 (CO2)
    molecules:      2.000000e+01 molecules  (1.773658e+01 +/- 0.000000e+00)
    number density: 5.092868e-04 molec./A^3 (4.585226e-04 +/- 0.000000e+00)
    density:        3.720937e+01 kg/m^3     (3.350044e+01 +/- 0.000000e+00)

Average pressure tensor: 
-------------------------------------------------------------------------------
 1.2848e+01 -3.6544e-01  1.4872e-01 +/- 0.0000e+00 0.0000e+00 0.0000e+00 [bar]
-3.6544e-01  1.2744e+01 -5.8406e-01 +/- 0.0000e+00 0.0000e+00 0.0000e+00 [bar]
 1.4872e-01 -5.8406e-01  1.2919e+01 +/- 0.0000e+00 0.0000e+00 0.0000e+00 [bar]
Ideal-gas pressure:   1.519342e+01 +/ 0.000000e+00 [bar]
Excess pressure:     -2.356394e+00 +/ 0.000000e+00 [bar]
Pressure:             1.283703e+01 +/ 0.000000e+00 [bar]

Total potential energy/kʙ  -1.269326e+03 (-1.353498e+03 +/- 0.000000e+00) [K]
-------------------------------------------------------------------------------
ExternalField-molecule
    Van der Waals/kʙ        0.000000e+00 ( 0.000000e+00 +/- 0.000000e+00) [K]
Framework-molecule
    Van der Waals/kʙ        0.000000e+00 ( 0.000000e+00 +/- 0.000000e+00) [K]
    Van der Waals (Tail)/kʙ 0.000000e+00 ( 0.000000e+00 +/- 0.000000e+00) [K]
    Coulombic Real/kʙ       0.000000e+00 ( 0.000000e+00 +/- 0.000000e+00) [K]
    Coulombic Fourier/kʙ    0.000000e+00 ( 0.000000e+00 +/- 0.000000e+00) [K]
Molecule-molecule
    Van der Waals/kʙ       -1.039642e+03 (-9.462443e+02 +/- 0.000000e+00) [K]
    Van der Waals (Tail)/kʙ-1.891597e+01 (-1.589361e+01 +/- 0.000000e+00) [K]
    Coulombic Real/kʙ      -2.180865e+02 (-3.578419e+02 +/- 0.000000e+00) [K]
    Coulombic Fourier/kʙ    7.318874e+00 (-3.351831e+01 +/- 0.000000e+00) [K]
    Molecule Intra/kʙ       0.000000e+00 ( 0.000000e+00 +/- 0.000000e+00) [K]

Current cycle: 900 out of 6000
===============================================================================

Box:      33.91654   0.00000   0.00000  Average:  33.82366   0.00000   0.00000
           0.00000  33.91654   0.00000             0.00000  33.82366   0.00000
           0.00000   0.00000  33.91654             0.00000   0.00000  33.82366
Lengths:  33.91654  33.91654  33.91654  Average:  33.82366  33.82366  33.82366
Angles:   90.00000  90.00000  90.00000  Average:  90.00000  90.00000  90.00000
Rectangular boundary conditions

net charge:   0.00000000

component 0 (CO2) lambda:  0 occupancy:  1 (1.000000)
    net charge:   0.00000000 [e]

Amount of molecules per component :
-------------------------------------------------------------------------------
Component 0 (CO2)
    molecules:      2.000000e+01 molecules  (1.799334e+01 +/- 0.000000e+00)
    number density: 5.126199e-04 molec./A^3 (4.646855e-04 +/- 0.000000e+00)
    density:        3.745289e+01 kg/m^3     (3.395072e+01 +/- 0.000000e+00)

Average pressure tensor: 
-------------------------------------------------------------------------------
 1.2614e+01 -2.7767e-01 -2.4467e-01 +/- 0.0000e+00 0.0000e+00 0.0000e+00 [bar]
-2.7767e-01  1.2761e+01 -2.4138e-01 +/- 0.0000e+00 0.0000e+00 0.0000e+00 [bar]
-2.4467e-01 -2.4138e-01  1.2952e+01 +/- 0.0000e+00 0.0000e+00 0.0000e+00 [bar]
Ideal-gas pressure:   1.539764e+01 +/ 0.000000e+00 [bar]
Excess pressure:     -2.621947e+00 +/ 0.000000e+00 [bar]
Pressure:             1.277569e+01 +/ 0.000000e+00 [bar]

Total potential energy/kʙ  -1.853281e+03 (-1.444294e+03 +/- 0.000000e+00) [K]
-------------------------------------------------------------------------------
ExternalField-molecule
    Van der Waals/kʙ        0.000000e+00 ( 0.000000e+00 +/- 0.000000e+00) [K]
Framework-molecule
    Van der Waals/kʙ        0.000000e+00 ( 0.000000e+00 +/- 0.000000e+00) [K]
    Van der Waals (Tail)/kʙ 0.000000e+00 ( 0.000000e+00 +/- 0.000000e+00) [K]
    Coulombic Real/kʙ       0.000000e+00 ( 0.000000e+00 +/- 0.000000e+00) [K]
    Coulombic Fourier/kʙ    0.000000e+00 ( 0.000000e+00 +/- 0.000000e+00) [K]
Molecule-molecule
    Van der Waals/kʙ       -1.242306e+03 (-1.000893e+03 +/- 0.000000e+00) [K]
    Van der Waals (Tail)/kʙ-1.903977e+01 (-1.637647e+01 +/- 0.000000e+00) [K]
    Coulombic Real/kʙ      -4.677891e+02 (-3.909975e+02 +/- 0.000000e+00) [K]
    Coulombic Fourier/kʙ   -1.241459e+02 (-3.602725e+01 +/- 0.000000e+00) [K]
    Molecule Intra/kʙ       0.000000e+00 ( 0.000000e+00 +/- 0.000000e+00) [K]

Current cycle: 1000 out of 6000
===============================================================================

Box:      33.88662   0.00000   0.00000  Average:  33.83389   0.00000   0.00000
           0.00000  33.88662   0.00000             0.00000  33.83389   0.00000
           0.00000   0.00000  33.88662             0.00000   0.00000  33.83389
Lengths:  33.88662  33.88662  33.88662  Average:  33.83389  33.83389  33.83389
Angles:   90.00000  90.00000  90.00000  Average:  90.00000  90.00000  90.00000
Rectangular boundary conditions

net charge:   0.00000000

component 0 (CO2) lambda:  0 occupancy:  1 (1.000000)
    net charge:   0.00000000 [e]

Amount of molecules per component :
-------------------------------------------------------------------------------
Component 0 (CO2)
    molecules:      2.000000e+01 molecules  (1.830569e+01 +/- 0.000000e+00)
    number density: 5.139787e-04 molec./A^3 (4.722811e-04 +/- 0.000000e+00)
    density:        3.755216e+01 kg/m^3     (3.450566e+01 +/- 0.000000e+00)

Average pressure tensor: 
-------------------------------------------------------------------------------
 1.2771e+01 -1.9654e-01 -2.9773e-01 +/- 0.0000e+00 0.0000e+00 0.0000e+00 [bar]
-1.9654e-01  1.2682e+01 -2.9668e-02 +/- 0.0000e+00 0.0000e+00 0.0000e+00 [bar]
-2.9773e-01 -2.9668e-02  1.3133e+01 +/- 0.0000e+00 0.0000e+00 0.0000e+00 [bar]
Ideal-gas pressure:   1.564932e+01 +/ 0.000000e+00 [bar]
Excess pressure:     -2.787544e+00 +/ 0.000000e+00 [bar]
Pressure:             1.286178e+01 +/ 0.000000e+00 [bar]

Total potential energy/kʙ  -1.656839e+03 (-1.447954e+03 +/- 0.000000e+00) [K]
-------------------------------------------------------------------------------
ExternalField-molecule
    Van der Waals/kʙ        0.000000e+00 ( 0.000000e+00 +/- 0.000000e+00) [K]
Framework-molecule
    Van der Waals/kʙ        0.000000e+00 ( 0.000000e+00 +/- 0.000000e+00) [K]
    Van der Waals (Tail)/kʙ 0.000000e+00 ( 0.000000e+00 +/- 0.000000e+00) [K]
    Coulombic Real/kʙ       0.000000e+00 ( 0.000000e+00 +/- 0.000000e+00) [K]
    Coulombic Fourier/kʙ    0.000000e+00 ( 0.000000e+00 +/- 0.000000e+00) [K]
Molecule-molecule
    Van der Waals/kʙ       -1.359526e+03 (-1.014232e+03 +/- 0.000000e+00) [K]
    Van der Waals (Tail)/kʙ-1.909024e+01 (-1.685630e+01 +/- 0.000000e+00) [K]
    Coulombic Real/kʙ      -3.413840e+02 (-3.833581e+02 +/- 0.000000e+00) [K]
    Coulombic Fourier/kʙ    6.316145e+01 (-3.350749e+01 +/- 0.000000e+00) [K]
    Molecule Intra/kʙ       0.000000e+00 ( 0.000000e+00 +/- 0.000000e+00) [K]

Current cycle: 1100 out of 6000
===============================================================================

Box:      33.95843   0.00000   0.00000  Average:  33.83852   0.00000   0.00000
           0.00000  33.95843   0.00000             0.00000  33.83852   0.00000
           0.00000   0.00000  33.95843             0.00000   0.00000  33.83852
Lengths:  33.95843  33.95843  33.95843  Average:  33.83852  33.83852  33.83852
Angles:   90.00000  90.00000  90.00000  Average:  90.00000  90.00000  90.00000
Rectangular boundary conditions

net charge:   0.00000000

component 0 (CO2) lambda:  0 occupancy:  1 (1.000000)
    net charge:   0.00000000 [e]

Amount of molecules per component :
-------------------------------------------------------------------------------
Component 0 (CO2)
    molecules:      2.100000e+01 molecules  (1.863397e+01 +/- 0.000000e+00)
    number density: 5.362612e-04 molec./A^3 (4.805542e-04 +/- 0.000000e+00)
    density:        3.918016e+01 kg/m^3     (3.511011e+01 +/- 0.000000e+00)

Average pressure tensor: 
-------------------------------------------------------------------------------
 1.3032e+01 -1.8628e-01 -2.7733e-01 +/- 0.0000e+00 0.0000e+00 0.0000e+00 [bar]
-1.8628e-01  1.3158e+01  1.8380e-01 +/- 0.0000e+00 0.0000e+00 0.0000e+00 [bar]
-2.7733e-01  1.8380e-01  1.3328e+01 +/- 0.0000e+00 0.0000e+00 0.0000e+00 [bar]
Ideal-gas pressure:   1.592346e+01 +/ 0.000000e+00 [bar]
Excess pressure:     -2.750560e+00 +/ 0.000000e+00 [bar]
Pressure:             1.317290e+01 +/ 0.000000e+00 [bar]

Total potential energy/kʙ  -2.936203e+03 (-1.490962e+03 +/- 0.000000e+00) [K]
-------------------------------------------------------------------------------
ExternalField-molecule
    Van der Waals/kʙ        0.000000e+00 ( 0.000000e+00 +/- 0.000000e+00) [K]
Framework-molecule
    Van der Waals/kʙ        0.000000e+00 ( 0.000000e+00 +/- 0.000000e+00) [K]
    Van der Waals (Tail)/kʙ 0.000000e+00 ( 0.000000e+00 +/- 0.000000e+00) [K]
    Coulombic Real/kʙ       0.000000e+00 ( 0.000000e+00 +/- 0.000000e+00) [K]
    Coulombic Fourier/kʙ    0.000000e+00 ( 0.000000e+00 +/- 0.000000e+00) [K]
Molecule-molecule
    Van der Waals/kʙ       -2.104789e+03 (-1.043557e+03 +/- 0.000000e+00) [K]
    Van der Waals (Tail)/kʙ-2.091375e+01 (-1.739198e+01 +/- 0.000000e+00) [K]
    Coulombic Real/kʙ      -8.756663e+02 (-3.948972e+02 +/- 0.000000e+00) [K]
    Coulombic Fourier/kʙ    6.516547e+01 (-3.511552e+01 +/- 0.000000e+00) [K]
    Molecule Intra/kʙ       0.000000e+00 ( 0.000000e+00 +/- 0.000000e+00) [K]

Current cycle: 1200 out of 6000
===============================================================================

Box:      33.80528   0.00000   0.00000  Average:  33.83470   0.00000   0.00000
           0.00000  33.80528   0.00000             0.00000  33.83470   0.00000
           0.00000   0.00000  33.80528             0.00000   0.00000  33.83470
Lengths:  33.80528  33.80528  33.80528  Average:  33.83470  33.83470  33.83470
Angles:   90.00000  90.00000  90.00000  Average:  90.00000  90.00000  90.00000
Rectangular boundary conditions

net charge:   0.00000000

component 0 (CO2) lambda:  0 occupancy:  1 (1.000000)
    net charge:   0.00000000 [e]

Amount of molecules per component :
-------------------------------------------------------------------------------
Component 0 (CO2)
    molecules:      1.900000e+01 molecules  (1.853289e+01 +/- 0.000000e+00)
    number density: 4.918129e-04 molec./A^3 (4.781037e-04 +/- 0.000000e+00)
    density:        3.593269e+01 kg/m^3     (3.493108e+01 +/- 0.000000e+00)

Average pressure tensor: 
-------------------------------------------------------------------------------
 1.3022e+01 -1.7070e-01 -3.6416e-01 +/- 0.0000e+00 0.0000e+00 0.0000e+00 [bar]
-1.7070e-01  1.3278e+01  1.4106e-01 +/- 0.0000e+00 0.0000e+00 0.0000e+00 [bar]
-3.6416e-01  1.4106e-01  1.3176e+01 +/- 0.0000e+00 0.0000e+00 0.0000e+00 [bar]
Ideal-gas pressure:   1.584226e+01 +/ 0.000000e+00 [bar]
Excess pressure:     -2.683451e+00 +/ 0.000000e+00 [bar]
Pressure:             1.315881e+01 +/ 0.000000e+00 [bar]

Total potential energy/kʙ  -1.015997e+03 (-1.476041e+03 +/- 0.000000e+00) [K]
-------------------------------------------------------------------------------
ExternalField-molecule
    Van der Waals/kʙ        0.000000e+00 ( 0.000000e+00 +/- 0.000000e+00) [K]
Framework-molecule
    Van der Waals/kʙ        0.000000e+00 ( 0.000000e+00 +/- 0.000000e+00) [K]
    Van der Waals (Tail)/kʙ 0.000000e+00 ( 0.000000e+00 +/- 0.000000e+00) [K]
    Coulombic Real/kʙ       0.000000e+00 ( 0.000000e+00 +/- 0.000000e+00) [K]
    Coulombic Fourier/kʙ    0.000000e+00 ( 0.000000e+00 +/- 0.000000e+00) [K]
Molecule-molecule
    Van der Waals/kʙ       -9.596365e+02 (-1.032941e+03 +/- 0.000000e+00) [K]
    Van der Waals (Tail)/kʙ-1.735361e+01 (-1.714260e+01 +/- 0.000000e+00) [K]
    Coulombic Real/kʙ      -8.148200e+01 (-3.897169e+02 +/- 0.000000e+00) [K]
    Coulombic Fourier/kʙ    4.247492e+01 (-3.624057e+01 +/- 0.000000e+00) [K]
    Molecule Intra/kʙ       0.000000e+00 ( 0.000000e+00 +/- 0.000000e+00) [K]

Current cycle: 1300 out of 6000
===============================================================================

Box:      33.69735   0.00000   0.00000  Average:  33.82699   0.00000   0.00000
           0.00000  33.69735   0.00000             0.00000  33.82699   0.00000
           0.00000   0.00000  33.69735             0.00000   0.00000  33.82699
Lengths:  33.69735  33.69735  33.69735  Average:  33.82699  33.82699  33.82699
Angles:   90.00000  90.00000  90.00000  Average:  90.00000  90.00000  90.00000
Rectangular boundary conditions

net charge:   0.00000000

component 0 (CO2) lambda:  0 occupancy:  1 (1.000000)
    net charge:   0.00000000 [e]

Amount of molecules per component :
-------------------------------------------------------------------------------
Component 0 (CO2)
    molecules:      2.000000e+01 molecules  (1.840892e+01 +/- 0.000000e+00)
    number density: 5.226883e-04 molec./A^3 (4.752214e-04 +/- 0.000000e+00)
    density:        3.818850e+01 kg/m^3     (3.472049e+01 +/- 0.000000e+00)

Average pressure tensor: 
-------------------------------------------------------------------------------
 1.2775e+01  2.6246e-02 -4.0703e-01 +/- 0.0000e+00 0.0000e+00 0.0000e+00 [bar]
 2.6246e-02  1.3243e+01  9.5299e-02 +/- 0.0000e+00 0.0000e+00 0.0000e+00 [bar]
-4.0703e-01  9.5299e-02  1.3219e+01 +/- 0.0000e+00 0.0000e+00 0.0000e+00 [bar]
Ideal-gas pressure:   1.574675e+01 +/ 0.000000e+00 [bar]
Excess pressure:     -2.667580e+00 +/ 0.000000e+00 [bar]
Pressure:             1.307917e+01 +/ 0.000000e+00 [bar]

Total potential energy/kʙ  -1.933084e+03 (-1.451865e+03 +/- 0.000000e+00) [K]
-------------------------------------------------------------------------------
ExternalField-molecule
    Van der Waals/kʙ        0.000000e+00 ( 0.000000e+00 +/- 0.000000e+00) [K]
Framework-molecule
    Van der Waals/kʙ        0.000000e+00 ( 0.000000e+00 +/- 0.000000e+00) [K]
    Van der Waals (Tail)/kʙ 0.000000e+00 ( 0.000000e+00 +/- 0.000000e+00) [K]
    Coulombic Real/kʙ       0.000000e+00 ( 0.000000e+00 +/- 0.000000e+00) [K]
    Coulombic Fourier/kʙ    0.000000e+00 ( 0.000000e+00 +/- 0.000000e+00) [K]
Molecule-molecule
    Van der Waals/kʙ       -1.209383e+03 (-1.013353e+03 +/- 0.000000e+00) [K]
    Van der Waals (Tail)/kʙ-1.941373e+01 (-1.688385e+01 +/- 0.000000e+00) [K]
    Coulombic Real/kʙ      -6.229345e+02 (-3.853360e+02 +/- 0.000000e+00) [K]
    Coulombic Fourier/kʙ   -8.135276e+01 (-3.629206e+01 +/- 0.000000e+00) [K]
    Molecule Intra/kʙ       0.000000e+00 ( 0.000000e+00 +/- 0.000000e+00) [K]

Current cycle: 1400 out of 6000
===============================================================================

Box:      33.79044   0.00000   0.00000  Average:  33.81698   0.00000   0.00000
           0.00000  33.79044   0.00000             0.00000  33.81698   0.00000
           0.00000   0.00000  33.79044             0.00000   0.00000  33.81698
Lengths:  33.79044  33.79044  33.79044  Average:  33.81698  33.81698  33.81698
Angles:   90.00000  90.00000  90.00000  Average:  90.00000  90.00000  90.00000
Rectangular boundary conditions

net charge:   0.00000000

component 0 (CO2) lambda:  0 occupancy:  1 (1.000000)
    net charge:   0.00000000 [e]

Amount of molecules per component :
-------------------------------------------------------------------------------
Component 0 (CO2)
    molecules:      1.800000e+01 molecules  (1.808494e+01 +/- 0.000000e+00)
    number density: 4.665420e-04 molec./A^3 (4.671812e-04 +/- 0.000000e+00)
    density:        3.408636e+01 kg/m^3     (3.413306e+01 +/- 0.000000e+00)

Average pressure tensor: 
-------------------------------------------------------------------------------
 1.2501e+01  1.5571e-02 -3.4760e-01 +/- 0.0000e+00 0.0000e+00 0.0000e+00 [bar]
 1.5571e-02  1.3048e+01  6.2887e-02 +/- 0.0000e+00 0.0000e+00 0.0000e+00 [bar]
-3.4760e-01  6.2887e-02  1.2934e+01 +/- 0.0000e+00 0.0000e+00 0.0000e+00 [bar]
Ideal-gas pressure:   1.548033e+01 +/ 0.000000e+00 [bar]
Excess pressure:     -2.652764e+00 +/ 0.000000e+00 [bar]
Pressure:             1.282757e+01 +/ 0.000000e+00 [bar]

Total potential energy/kʙ  -1.233393e+03 (-1.397030e+03 +/- 0.000000e+00) [K]
-------------------------------------------------------------------------------
ExternalField-molecule
    Van der Waals/kʙ        0.000000e+00 ( 0.000000e+00 +/- 0.000000e+00) [K]
Framework-molecule
    Van der Waals/kʙ        0.000000e+00 ( 0.000000e+00 +/- 0.000000e+00) [K]
    Van der Waals (Tail)/kʙ 0.000000e+00 ( 0.000000e+00 +/- 0.000000e+00) [K]
    Coulombic Real/kʙ       0.000000e+00 ( 0.000000e+00 +/- 0.000000e+00) [K]
    Coulombic Fourier/kʙ    0.000000e+00 ( 0.000000e+00 +/- 0.000000e+00) [K]
Molecule-molecule
    Van der Waals/kʙ       -9.600288e+02 (-9.808777e+02 +/- 0.000000e+00) [K]
    Van der Waals (Tail)/kʙ-1.559551e+01 (-1.637410e+01 +/- 0.000000e+00) [K]
    Coulombic Real/kʙ      -2.233647e+02 (-3.659100e+02 +/- 0.000000e+00) [K]
    Coulombic Fourier/kʙ   -3.440414e+01 (-3.386794e+01 +/- 0.000000e+00) [K]
    Molecule Intra/kʙ       0.000000e+00 ( 0.000000e+00 +/- 0.000000e+00) [K]

Current cycle: 1500 out of 6000
===============================================================================

Box:      33.61573   0.00000   0.00000  Average:  33.80984   0.00000   0.00000
           0.00000  33.61573   0.00000             0.00000  33.80984   0.00000
           0.00000   0.00000  33.61573             0.00000   0.00000  33.80984
[...]
    number density: 5.102683e-04 molec./A^3 (3.936516e-04 +/- 9.858071e-05)
    density:        3.728107e+01 kg/m^3     (2.876086e+01 +/- 7.202476e+00)

Average pressure tensor: 
-------------------------------------------------------------------------------
 1.1221e+01 -1.9449e-01  3.6357e-02 +/- 2.2552e+00 6.1368e-01 3.1370e-01 [bar]
-1.9449e-01  1.1608e+01  5.7432e-02 +/- 6.1368e-01 3.0396e+00 3.7712e-01 [bar]
 3.6357e-02  5.7432e-02  1.1444e+01 +/- 3.1370e-01 3.7712e-01 2.1117e+00 [bar]
Ideal-gas pressure:   1.304389e+01 +/ 3.266532e+00 [bar]
Excess pressure:     -1.619448e+00 +/ 9.127540e-01 [bar]
Pressure:             1.142444e+01 +/ 2.446578e+00 [bar]

Total potential energy/kʙ  -4.437719e+02 (-1.001290e+03 +/- 5.341138e+02) [K]
-------------------------------------------------------------------------------
ExternalField-molecule
    Van der Waals/kʙ        0.000000e+00 ( 0.000000e+00 +/- 0.000000e+00) [K]
Framework-molecule
    Van der Waals/kʙ        0.000000e+00 ( 0.000000e+00 +/- 0.000000e+00) [K]
    Van der Waals (Tail)/kʙ 0.000000e+00 ( 0.000000e+00 +/- 0.000000e+00) [K]
    Coulombic Real/kʙ       0.000000e+00 ( 0.000000e+00 +/- 0.000000e+00) [K]
    Coulombic Fourier/kʙ    0.000000e+00 ( 0.000000e+00 +/- 0.000000e+00) [K]
Molecule-molecule
    Van der Waals/kʙ       -4.373147e+02 (-7.037799e+02 +/- 3.802466e+02) [K]
    Van der Waals (Tail)/kʙ-1.895242e+01 (-1.195814e+01 +/- 6.011438e+00) [K]
    Coulombic Real/kʙ       8.265956e+01 (-2.638484e+02 +/- 1.364550e+02) [K]
    Coulombic Fourier/kʙ   -7.016438e+01 (-2.170371e+01 +/- 1.352401e+01) [K]
    Molecule Intra/kʙ       0.000000e+00 ( 0.000000e+00 +/- 0.000000e+00) [K]

Current cycle: 5800 out of 6000
===============================================================================

Box:      33.77270   0.00000   0.00000  Average:  33.68777   0.00000   0.00000
           0.00000  33.77270   0.00000             0.00000  33.68777   0.00000
           0.00000   0.00000  33.77270             0.00000   0.00000  33.68777
Lengths:  33.77270  33.77270  33.77270  Average:  33.68777  33.68777  33.68777
Angles:   90.00000  90.00000  90.00000  Average:  90.00000  90.00000  90.00000
Rectangular boundary conditions

net charge:   0.00000000

component 0 (CO2) lambda:  0 occupancy:  1 (1.000000)
    net charge:   0.00000000 [e]

Amount of molecules per component :
-------------------------------------------------------------------------------
Component 0 (CO2)
    molecules:      2.000000e+01 molecules  (1.516876e+01 +/- 4.017491e+00)
    number density: 5.191976e-04 molec./A^3 (3.956909e-04 +/- 9.949331e-05)
    density:        3.793347e+01 kg/m^3     (2.890985e+01 +/- 7.269151e+00)

Average pressure tensor: 
-------------------------------------------------------------------------------
 1.1318e+01 -2.0970e-01  4.3240e-02 +/- 2.3730e+00 6.1365e-01 3.1164e-01 [bar]
-2.0970e-01  1.1623e+01  3.2537e-02 +/- 6.1365e-01 2.9263e+00 2.9864e-01 [bar]
 4.3240e-02  3.2537e-02  1.1511e+01 +/- 3.1164e-01 2.9864e-01 2.1776e+00 [bar]
Ideal-gas pressure:   1.311146e+01 +/ 3.296771e+00 [bar]
Excess pressure:     -1.627457e+00 +/ 9.115558e-01 [bar]
Pressure:             1.148400e+01 +/ 2.482094e+00 [bar]

Total potential energy/kʙ  -1.351803e+03 (-1.014681e+03 +/- 5.435107e+02) [K]
-------------------------------------------------------------------------------
ExternalField-molecule
    Van der Waals/kʙ        0.000000e+00 ( 0.000000e+00 +/- 0.000000e+00) [K]
Framework-molecule
    Van der Waals/kʙ        0.000000e+00 ( 0.000000e+00 +/- 0.000000e+00) [K]
    Van der Waals (Tail)/kʙ 0.000000e+00 ( 0.000000e+00 +/- 0.000000e+00) [K]
    Coulombic Real/kʙ       0.000000e+00 ( 0.000000e+00 +/- 0.000000e+00) [K]
    Coulombic Fourier/kʙ    0.000000e+00 ( 0.000000e+00 +/- 0.000000e+00) [K]
Molecule-molecule
    Van der Waals/kʙ       -1.211220e+03 (-7.131815e+02 +/- 3.865563e+02) [K]
    Van der Waals (Tail)/kʙ-1.928408e+01 (-1.208197e+01 +/- 6.064588e+00) [K]
    Coulombic Real/kʙ      -1.470061e+02 (-2.672711e+02 +/- 1.389365e+02) [K]
    Coulombic Fourier/kʙ    2.570765e+01 (-2.214673e+01 +/- 1.393900e+01) [K]
    Molecule Intra/kʙ       0.000000e+00 ( 0.000000e+00 +/- 0.000000e+00) [K]

Current cycle: 5900 out of 6000
===============================================================================

Box:      33.77023   0.00000   0.00000  Average:  33.68971   0.00000   0.00000
           0.00000  33.77023   0.00000             0.00000  33.68971   0.00000
           0.00000   0.00000  33.77023             0.00000   0.00000  33.68971
Lengths:  33.77023  33.77023  33.77023  Average:  33.68971  33.68971  33.68971
Angles:   90.00000  90.00000  90.00000  Average:  90.00000  90.00000  90.00000
Rectangular boundary conditions

net charge:   0.00000000

component 0 (CO2) lambda:  0 occupancy:  1 (1.000000)
    net charge:   0.00000000 [e]

Amount of molecules per component :
-------------------------------------------------------------------------------
Component 0 (CO2)
    molecules:      2.000000e+01 molecules  (1.520166e+01 +/- 3.967780e+00)
    number density: 5.193116e-04 molec./A^3 (3.964937e-04 +/- 9.820880e-05)
    density:        3.794179e+01 kg/m^3     (2.896851e+01 +/- 7.175303e+00)

Average pressure tensor: 
-------------------------------------------------------------------------------
 1.1326e+01 -1.7670e-01  3.8097e-02 +/- 2.3218e+00 4.8666e-01 3.1255e-01 [bar]
-1.7670e-01  1.1648e+01  3.1756e-02 +/- 4.8666e-01 2.8605e+00 2.8758e-01 [bar]
 3.8097e-02  3.1756e-02  1.1526e+01 +/- 3.1255e-01 2.8758e-01 2.1435e+00 [bar]
Ideal-gas pressure:   1.313806e+01 +/ 3.254208e+00 [bar]
Excess pressure:     -1.637917e+00 +/ 9.136399e-01 [bar]
Pressure:             1.150014e+01 +/ 2.431451e+00 [bar]

Total potential energy/kʙ  -2.391058e+03 (-1.017530e+03 +/- 5.333391e+02) [K]
-------------------------------------------------------------------------------
ExternalField-molecule
    Van der Waals/kʙ        0.000000e+00 ( 0.000000e+00 +/- 0.000000e+00) [K]
Framework-molecule
    Van der Waals/kʙ        0.000000e+00 ( 0.000000e+00 +/- 0.000000e+00) [K]
    Van der Waals (Tail)/kʙ 0.000000e+00 ( 0.000000e+00 +/- 0.000000e+00) [K]
    Coulombic Real/kʙ       0.000000e+00 ( 0.000000e+00 +/- 0.000000e+00) [K]
    Coulombic Fourier/kʙ    0.000000e+00 ( 0.000000e+00 +/- 0.000000e+00) [K]
Molecule-molecule
    Van der Waals/kʙ       -1.772481e+03 (-7.150919e+02 +/- 3.787992e+02) [K]
    Van der Waals (Tail)/kʙ-1.928831e+01 (-1.212459e+01 +/- 5.973506e+00) [K]
    Coulombic Real/kʙ      -6.309840e+02 (-2.677599e+02 +/- 1.361806e+02) [K]
    Coulombic Fourier/kʙ    3.169549e+01 (-2.255367e+01 +/- 1.428456e+01) [K]
    Molecule Intra/kʙ       0.000000e+00 ( 0.000000e+00 +/- 0.000000e+00) [K]


Energy statistics             |  Energy [K]   | Recomputed [K]|  Drift [K]    |
===============================================================================
Total potential energy/kʙ     | -9.286884e+02 | -9.229680e+02 | -5.720364e+00 |
    external field VDW/kʙ     |  0.000000e+00 |  0.000000e+00 |  0.000000e+00 |
    external field Real/kʙ    |  0.000000e+00 |  0.000000e+00 |  0.000000e+00 |
    framework-molecule VDW/kʙ |  0.000000e+00 |  0.000000e+00 |  0.000000e+00 |
    framework-molecule Real/kʙ|  0.000000e+00 |  0.000000e+00 |  0.000000e+00 |
    molecule-molecule VDW/kʙ  | -8.848015e+02 | -8.790387e+02 | -5.762822e+00 |
    molecule-molecule Real/kʙ | -3.478624e+01 | -3.482870e+01 |  4.245867e-02 |
    Van der Waals (Tail)/kʙ   | -1.732788e+01 | -1.732788e+01 |  0.000000e+00 |
    Ewald Fourier/kʙ          |  1.125534e+03 |  1.125534e+03 | -4.102018e-13 |
    Ewald self/kʙ             | -3.489689e+05 | -3.489689e+05 |  0.000000e+00 |
    Ewald exclusion/kʙ        |  3.478516e+05 |  3.478516e+05 |  0.000000e+00 |
    intra VDW/kʙ              |  0.000000e+00 |  0.000000e+00 |  0.000000e+00 |
    intra Coulombic/kʙ        |  0.000000e+00 |  0.000000e+00 |  0.000000e+00 |
    polarization/kʙ           |  0.000000e+00 |  0.000000e+00 |  0.000000e+00 |
    dU/dlambda VDW/kʙ         |  0.000000e+00 |  0.000000e+00 |  0.000000e+00 |
    dU/dlambda Real/kʙ        |  0.000000e+00 |  0.000000e+00 |  0.000000e+00 |
    dU/dlambda Ewald/kʙ       |  0.000000e+00 |  0.000000e+00 |  0.000000e+00 |
-------------------------------------------------------------------------------


Monte-Carlo moves statistics
===============================================================================

    Gibbs volume         all:                2911
    Gibbs volume         total:              5945
    Gibbs volume         constructed:        5945
    Gibbs volume         accepted:           3572
    Gibbs volume         fraction:       0.600841
    Gibbs volume         max-change:     0.041282

Component 0 [CO2]
    Reinsertion (CBMC)   all:              149882
    Reinsertion (CBMC)   total:            149882
    Reinsertion (CBMC)   constructed:      149882
    Reinsertion (CBMC)   accepted:         118228
    Reinsertion (CBMC)   fraction:       0.788807
    Reinsertion (CBMC)   max-change:     0.000000

    Gibbs swap (CBMC)    all:              298872
    Gibbs swap (CBMC)    total:            596904
    Gibbs swap (CBMC)    constructed:      552512
    Gibbs swap (CBMC)    accepted:          22993
    Gibbs swap (CBMC)    fraction:       0.038520
    Gibbs swap (CBMC)    max-change:     0.000000

    Translation          all:              149438
    Translation          total:             49756      50065      49617
    Translation          constructed:       49709      50023      49557
    Translation          accepted:          44994      45137      44783
    Translation          fraction:       0.904293   0.901568   0.902574
    Translation          max-change:     1.500000   1.500000   1.500000

    Rotation             all:              149887
    Rotation             total:             49687      50097      50103
    Rotation             constructed:       49671      50081      50096
    Rotation             accepted:          44790      45125      45494
    Rotation             fraction:       0.901443   0.900753   0.908010
    Rotation             max-change:     1.500000   1.500000   1.500000



Production run counting of the MC moves summed over systems and components
===============================================================================

Reinsertion (CBMC)                   299647 (19.9765 [%])
Gibbs volume                           5945 (0.3963 [%])
Gibbs swap (CBMC)                    596904 (39.7936 [%])
Translation                          298706 (19.9137 [%])
Rotation                             298798 (19.9199 [%])

Production count MC-steps:          1500000 [-]
               All summed:          1500000 [-]
               difference:                0 [-]


Production run CPU timings of the MC moves
===============================================================================

Component 0 CO2

Rotation                              7.519861 [s]
    Ewald                             6.019986 [s]
    ExternalField-Molecule            0.005517 [s]
    Framework-Molecule                0.005707 [s]
    Molecule-Molecule                 0.597370 [s]
    Overhead                          0.891281 [s]

Reinsertion (CBMC)                   14.770271 [s]
    Ewald                             6.072943 [s]
    NonEwald                          7.917944 [s]
    Overhead                          0.779384 [s]

Translation                           7.503308 [s]
    Ewald                             6.001573 [s]
    ExternalField-Molecule            0.005036 [s]
    Framework-Molecule                0.011779 [s]
    Molecule-Molecule                 0.603144 [s]
    Overhead                          0.881776 [s]



Gibbs swap (CBMC)                   177.349982 [s]
    Ewald                            27.975066 [s]
    NonEwald                        147.050938 [s]
    Tail                              1.551776 [s]

Gibbs volume                         23.405032 [s]
    Ewald                            10.150282 [s]
    NonEwald                         12.225158 [s]
    Tail                              0.877608 [s]

Property sampling                     0.233662 [s]
Energy/pressure sampling:             0.282125 [s]


Production run CPU timings of the MC moves summed over systems and components
===============================================================================


Translation                          30.317584 [s]
    Ewald                            17.249761 [s]
    ExternalField-Molecule            0.009890 [s]
    Framework-Molecule                0.023574 [s]
    Molecule-Molecule                11.130744 [s]
    Overhead                          1.903615 [s]

Rotation                             30.177915 [s]
    Ewald                            17.235808 [s]
    ExternalField-Molecule            0.010770 [s]
    Framework-Molecule                0.011649 [s]
    Molecule-Molecule                11.088828 [s]
    Overhead                          1.830860 [s]

Reinsertion (CBMC)                   95.427122 [s]
    Ewald                            15.788324 [s]
    NonEwald                         78.679403 [s]
    Overhead                          0.959395 [s]

Gibbs volume                         47.815173 [s]
    Ewald                            20.726904 [s]
    NonEwald                         24.981840 [s]
    Tail                              1.793221 [s]
    Overhead                          0.313208 [s]

Gibbs swap (CBMC)                   291.489370 [s]
    Ewald                            51.673191 [s]
    NonEwald                        235.589404 [s]
    Tail                              2.760114 [s]
    Overhead                          1.466661 [s]

Property sampling:                    0.563430 [s]
Energy/pressure sampling:            11.007119 [s]

Production simulation time:         508.143098 [s]
                All summed:         506.797713 [s]
                  Overhead:           1.345385 [s]


Initalization simulation time:      163.905088 [s]
Equilibration simulation time:        0.000000 [s]
Production simulation time:         508.143098 [s]
Total simulation time:              672.048186 [s]


Energy averages and statistics:
===============================================================================

Framework-molecule energy:
-------------------------------------------------------------------------------



Framework-molecule energy contributions per energy type:
-------------------------------------------------------------------------------



Inter-molecular energy:
-------------------------------------------------------------------------------

    Inter-molecular energy/kʙ 0-0 [CO2-CO2]:
    ---------------------------------------------------------------------------
        Block[  0] -1.479875e+03
        Block[  1] -8.538059e+02
        Block[  2] -5.535679e+02
        Block[  3] -7.553120e+02
        Block[  4] -1.493679e+03
        -----------------------------------------------------------------------
        Average  -1.027248e+03 +/-  5.378684e+02 [K]



Inter-molecular energy contributions per energy type:
-------------------------------------------------------------------------------

    Van der Waals energy/kʙ 0-0 [CO2-CO2]:
    ---------------------------------------------------------------------------
        Block[  0] -1.033552e+03
        Block[  1] -6.020885e+02
        Block[  2] -3.725044e+02
        Block[  3] -5.434896e+02
        Block[  4] -1.057229e+03
        -----------------------------------------------------------------------
        Average  -7.217727e+02 +/-  3.815535e+02 [K]

    VDW Tail-Correction energy/kʙ 0-0 [CO2-CO2]:
    ---------------------------------------------------------------------------
        Block[  0] -1.714084e+01
        Block[  1] -1.015349e+01
        Block[  2] -6.392053e+00
        Block[  3] -1.005710e+01
        Block[  4] -1.721839e+01
        -----------------------------------------------------------------------
        Average  -1.219238e+01 +/-  5.957360e+00 [K]

    Coulomb Real energy/kʙ 0-0 [CO2-CO2]:
    ---------------------------------------------------------------------------
        Block[  0] -3.922855e+02
        Block[  1] -2.276026e+02
        Block[  2] -1.571646e+02
        Block[  3] -1.897604e+02
        Block[  4] -3.872239e+02
        -----------------------------------------------------------------------
        Average  -2.708074e+02 +/-  1.383268e+02 [K]

    Coulomb Fourier energy/kʙ 0-0 [CO2-CO2]:
    ---------------------------------------------------------------------------
        Block[  0] -3.689653e+01
        Block[  1] -1.396134e+01
        Block[  2] -1.750689e+01
        Block[  3] -1.200489e+01
        Block[  4] -3.200722e+01
        -----------------------------------------------------------------------
        Average  -2.247538e+01 +/-  1.395795e+01 [K]


Total energy/kʙ
-------------------------------------------------------------------------------
    Block[  0] -1.479875e+03
    Block[  1] -8.538059e+02
    Block[  2] -5.535679e+02
    Block[  3] -7.553120e+02
    Block[  4] -1.493679e+03
    ---------------------------------------------------------------------------
    Average  -1.027248e+03 +/-  5.378684e+02 [K]

Pressure averages and statistics:
===============================================================================

Average pressure tensor: 
-------------------------------------------------------------------------------
 1.1376e+01 -1.8249e-01  1.3469e-02 +/- 2.3492e+00 4.7582e-01 3.2510e-01 [bar]
-1.8249e-01  1.1678e+01  9.5471e-03 +/- 4.7582e-01 2.8195e+00 2.4872e-01 [bar]
 1.3469e-02  9.5471e-03  1.1537e+01 +/- 3.2510e-01 2.4872e-01 2.1122e+00 [bar]

    Block[  0]  1.584188e+06
    Block[  1]  1.216932e+06
    Block[  2]  9.915737e+05
    Block[  3]  1.207558e+06
    Block[  4]  1.586621e+06
    ---------------------------------------------------------------------------
    Ideal gas pressure   1.317375e+06 +/-  1.949493e-02 [Pa]
                         1.317375e+01 +/-  3.237211e+00 [bar]


    Block[  0] -2.678886e+05
    Block[  1] -1.390020e+05
    Block[  2] -9.882590e+04
    Block[  3] -1.041589e+05
    Block[  4] -2.118023e+05
    ---------------------------------------------------------------------------
    Excess pressure  -1.643355e+05 +/-  9.108252e+04 [Pa]
                     -1.643355e+00 +/-  9.108252e-01 [bar]


    Block[  0]  1.316299e+06
    Block[  1]  1.077930e+06
    Block[  2]  8.927478e+05
    Block[  3]  1.103399e+06
    Block[  4]  1.374819e+06
    ---------------------------------------------------------------------------
    Pressure average   1.153039e+06 +/-  2.417649e+05 [Pa]
                       1.153039e+01 +/-  2.417649e+00 [bar]


Enthalpy of adsorption
===============================================================================

Component 0 [CO2]
-------------------------------------------------------------------------------
    Block[  0] -3.945224e+02
    Block[  1] -3.574676e+02
    Block[  2] -3.322350e+02
    Block[  3] -3.649776e+02
    Block[  4] -3.904450e+02
    ---------------------------------------------------------------------------
    Enthalpy of adsorption: -3.679295e+02 +/-  3.169017e+01 [K]
                            -3.059137e+00 +/-  2.634868e-01 [kJ/mol]
    Warning: need to subtract the ideal-gas energy.


Densities
===============================================================================

Component 0 (CO2)
    Block[  0] 18.532500000000002
    Block[  1] 14.016666666666667
    Block[  2] 11.285833333333334
    Block[  3] 13.887500000000001
    Block[  4] 18.5025
    -----------------------------------------------------------------------
    Density average   1.524500e+01 +/-  3.947662e+00 [molecules]
    Density average   3.975707e-04 +/-  9.769585e-05 [molec/A^3]
    Density average   2.904719e+01 +/-  7.137826e+00 [kg.m⁻³]

