Compiler and run-time data
===============================================================================
RASPA 3.0.4

Random seed: 2264253579

Compiled as a 64-bits application
Compiler: gcc Ubuntu Clang 18.1.3 (1ubuntu1)
Compile Date = Mar 15 2025, Compile Time = 19:39:45

2025-06-03 11:00:44.299553
Simulation started on Tue, Jun 03
The start time was 11:00:00

Hostname:    c108
OS type:     Linux on x86_64
OS release:  6.8.0-58-generic
OS version:  #60-Ubuntu SMP PREEMPT_DYNAMIC Fri Mar 14 18:29:48 UTC 2025


Mutual consistent basic set of units:
===============================================================================

Unit of temperature: 1 [K]
Unit of length:      1e-10 [m]
Unit of time:        1e-12 [s]
Unit of mass:        1.6605402e-27 [kg]
Unit of charge:      1.60217733e-19 [C/particle]


Boltzmann constant (internal units):          0.8314464919307584 [-]
represents conversion from energy (internal units) to temperature (in Kelvin)

Derived units and their conversion factors:
===============================================================================

Unit of energy:                           1.6605402000000002e-23 [J]
Unit of energy:                           10.000008872307538 [J.mol⁻¹]
Unit of velocity:                         100 [m.s⁻¹]
Unit of force:                            1.6605402000000002e-13 [N]
Unit of diffusion:                        1.0000000000000002e-08 [m².s⁻¹]
Unit of acceleration:                     1.0000000000000002e-08 [m².s⁻¹]
Unit of torque:                           1.6605402000000002e-23 [N.m]
Unit of pressure:                         16605402 [Pa]
Unit of volume:                           1e-30 [m³]
Unit of density:                          1660.5402 [kg.m⁻³]
Unit of dynamic viscosity:                1.6605401999999997e-05 [N.s.m⁻²]
Unit of enthalpy:                         1.6605402000000002e-23 [J]
Unit of polarizability:                   1.5458657349975198e-35 [-]
Unit of Coulomb potential:                167101.08000665612 [K]
Unit of dielectric constant:              1.5458657349975193e-05 [s².C².kg⁻¹.m⁻³]
Unit of dipole moment:                    1.60217733e-29 [C.m]
Unit of Debye:                            4.803206799099162 [C.m]
Unit of electric potential:               0.00010364272224473431 [V]
Unit of electric field:                   1036427.222447343 [V.m⁻¹]
Unit of isothermal compressibility:       6.02213665167516e-08 [Pa⁻¹]
Unit of heat capacity:                    10.000008872307538 [J.mol⁻¹.K⁻¹]
Unit of volumetric expansion coefficient: 1 [K⁻¹]


Internal conversion factors:
===============================================================================

Energy (internal units) to Kelvin:      1.202724284692786 [-]
Kelvin to energy (internal units):      0.8314457542157567 [-]


System definitions
===============================================================================

Temperature:          270 [K]
Beta:                 0.004454530435389873 [-]
Pressure:             0 [Pa]
Helium void fraction: 1 [-]

Box:      30.00000   0.00000   0.00000
           0.00000  30.00000   0.00000
           0.00000   0.00000  30.00000
Lengths:  30.00000  30.00000  30.00000
Angles:   90.00000  90.00000  90.00000
Rectangular boundary conditions



Property measurement settings
===============================================================================




Pseudo-atoms
===============================================================================

  0 - C_co2    framework-atom: false
  1 - O_co2    framework-atom: false

  0 - C_co2    mass: 12.00000, charge:  0.70000
  1 - O_co2    mass: 15.99940, charge: -0.35000

  0 - C_co2    polarizability:  0.00000
  1 - O_co2    polarizability:  0.00000

  0 - J. J. Potoff et al., AIChE J. 2001, 47, 1676–1682.
  1 - J. J. Potoff et al., AIChE J. 2001, 47, 1676–1682.

Force field status
===============================================================================

Cutoff Framework-Molecule VDW:  12.00000 [Å]
Cutoff Molecule-Molecule VDW:   12.00000 [Å]
Cutoff Coulomb:                 12.00000 [Å]

Overlap-criteria VDW:           1.000000e+05 [K]

C_co2    - C_co2    Lennard-Jones p₀/kʙ:  27.00000 [K], p₁:  2.80000 [Å]
                                  shift:   0.00000 [K], tailcorrections: true
C_co2    - O_co2    Lennard-Jones p₀/kʙ:  46.18441 [K], p₁:  2.92500 [Å]
                                  shift:   0.00000 [K], tailcorrections: true
O_co2    - O_co2    Lennard-Jones p₀/kʙ:  79.00000 [K], p₁:  3.05000 [Å]
                                  shift:   0.00000 [K], tailcorrections: true

Ewald precision: 1e-06
Ewald alpha: 0.26505830360350674
Ewald k-vectors: 8 8 8


Component definitions
===============================================================================

Component 0 [CO2]

    Type: Adsorbate

    Critical temperature:  304.1282 [K]
    Critical pressure:     7377300 [Pa]
    Acentric factor:       0.22394 [-]

    Mol-fraction:                 1 [-]
    Swappable:                   true

    Mass:                         43.9988 [-]
    Fugacity coefficient:         -nan [-]
    Bulk fluid density:           0 [-]
    Compressibility:              1 [-]
    Excess molecules:             0 [-]

    Number Of Atoms:    3
    CBMC starting bead: 0
      0: O_co2  position  0.00000 -0.00000  1.16000, charge -0.35000
      1: C_co2  position  0.00000 -0.00000  0.00000, charge  0.70000
      2: O_co2  position  0.00000 -0.00000 -1.16000, charge -0.35000
    Diagonalized inertia-vector:      43.05758528 43.05758528 0.00000000
    Translational degrees of freedom: 3
    Rotational degrees of freedom:    2
    Shape of the molecule is: 'Linear'
    Net-charge:        0.00000000 [e]

    Move probabilities:
    Translation:                   0.199203 [-]
    Random translation:            0.000000 [-]
    Rotation:                      0.199203 [-]
    Random rotation:               0.000000 [-]
    Volume change:                 0.000000 [-]
    Reinsertion (CBMC):            0.199203 [-]
    Identity change (CBMC):        0.000000 [-]
    Swap:                          0.000000 [-]
    Swap (CBMC):                   0.000000 [-]
    Swap (CFCMC):                  0.000000 [-]
    Swap (CB/CFCMC):               0.000000 [-]
    Gibbs volume:                  0.003984 [-]
    Gibbs swap (CBMC):             0.398406 [-]
    Gibbs swap (CFCMC):            0.000000 [-]
    Widom:                         0.000000 [-]
    Widom (CFCMC):                 0.000000 [-]
    Widom (CB/CFCMC):              0.000000 [-]
    Parallel tempering:            0.000000 [-]
    Hybrid MC:                     0.000000 [-]

    number of blocking-pockets: 0

    number of bonds: 0





Number of pseudo-atoms
===============================================================================

Component   0 (CO2)
-------------------------------------------------------------------------------
    index   0 (C_co2): 40 atoms
    index   1 (O_co2): 80 atoms

Total number of pseudo-atoms:
-------------------------------------------------------------------------------
    index   0 (C_co2): 40 atoms
    index   1 (O_co2): 80 atoms




Energy status Recomputed from scratch
===============================================================================

Total potential energy/kʙ       -7.401160e+03 [K]
    external field VDW/kʙ        0.000000e+00 [K]
    external field Real/kʙ       0.000000e+00 [K]
    framework-molecule VDW/kʙ    0.000000e+00 [K]
    framework-molecule Real/kʙ   0.000000e+00 [K]
    molecule-molecule VDW/kʙ    -5.575042e+03 [K]
    molecule-molecule Real/kʙ   -1.689602e+03 [K]
    Van der Waals (Tail)/kʙ     -1.100506e+02 [K]
    Ewald Fourier/kʙ             2.325760e+03 [K]
    Ewald self/kʙ               -7.346713e+05 [K]
    Ewald exclusion/kʙ           7.323191e+05 [K]
    intra VDW/kʙ                 0.000000e+00 [K]
    intra Coulombic/kʙ           0.000000e+00 [K]
    polarization/kʙ              0.000000e+00 [K]
    dU/dlambda VDW/kʙ            0.000000e+00 [K]
    dU/dlambda Real/kʙ           0.000000e+00 [K]
    dU/dlambda Ewald/kʙ          0.000000e+00 [K]





Initialization: Current cycle: 0 out of 2000
===============================================================================

Box:      30.00000   0.00000   0.00000
           0.00000  30.00000   0.00000
           0.00000   0.00000  30.00000
Lengths:  30.00000  30.00000  30.00000
Angles:   90.00000  90.00000  90.00000
Rectangular boundary conditions

net charge:   0.00000000

component   0 (CO2) lambda:  0 occupancy:  1 (1.000000)
    net charge:   0.00000000 [e]

Amount of molecules per component :
-------------------------------------------------------------------------------
Component 0 (CO2)
    molecules:         5.000000e+01 molecules
    number density:    1.851852e-03 molec/A^3
    density:           1.352995e+02 kg/m^3

Total potential energy/kʙ       -1.102080e+04 [K]
-------------------------------------------------------------------------------
    external field VDW/kʙ        0.000000e+00 [K]
    external field Real/kʙ       0.000000e+00 [K]
    framework-molecule VDW/kʙ    0.000000e+00 [K]
    framework-molecule Real/kʙ   0.000000e+00 [K]
    molecule-molecule VDW/kʙ    -7.064412e+03 [K]
    molecule-molecule Real/kʙ   -3.494895e+03 [K]
    Van der Waals (Tail)/kʙ     -1.719541e+02 [K]
    Ewald Fourier/kʙ             2.650745e+03 [K]
    Ewald self/kʙ               -9.183391e+05 [K]
    Ewald exclusion/kʙ           9.153988e+05 [K]
    intra VDW/kʙ                 0.000000e+00 [K]
    intra Coulombic/kʙ           0.000000e+00 [K]
    polarization/kʙ              0.000000e+00 [K]
    dU/dlambda VDW/kʙ            0.000000e+00 [K]
    dU/dlambda Real/kʙ           0.000000e+00 [K]
    dU/dlambda Ewald/kʙ          0.000000e+00 [K]


Initialization: Current cycle: 100 out of 2000
===============================================================================

Box:      30.91089   0.00000   0.00000
           0.00000  30.91089   0.00000
           0.00000   0.00000  30.91089
Lengths:  30.91089  30.91089  30.91089
Angles:   90.00000  90.00000  90.00000
Rectangular boundary conditions

net charge:   0.00000000

component   0 (CO2) lambda:  0 occupancy:  1 (1.000000)
    net charge:   0.00000000 [e]

Amount of molecules per component :
-------------------------------------------------------------------------------
Component 0 (CO2)
    molecules:         3.600000e+01 molecules
    number density:    1.218899e-03 molec/A^3
    density:           8.905488e+01 kg/m^3

Total potential energy/kʙ       -6.241063e+03 [K]
-------------------------------------------------------------------------------
    external field VDW/kʙ        0.000000e+00 [K]
    external field Real/kʙ       0.000000e+00 [K]
    framework-molecule VDW/kʙ    0.000000e+00 [K]
    framework-molecule Real/kʙ   0.000000e+00 [K]
    molecule-molecule VDW/kʙ    -4.456086e+03 [K]
    molecule-molecule Real/kʙ   -1.670121e+03 [K]
    Van der Waals (Tail)/kʙ     -8.149043e+01 [K]
    Ewald Fourier/kʙ             2.083637e+03 [K]
    Ewald self/kʙ               -6.612042e+05 [K]
    Ewald exclusion/kʙ           6.590872e+05 [K]
    intra VDW/kʙ                 0.000000e+00 [K]
    intra Coulombic/kʙ           0.000000e+00 [K]
    polarization/kʙ              0.000000e+00 [K]
    dU/dlambda VDW/kʙ            0.000000e+00 [K]
    dU/dlambda Real/kʙ           0.000000e+00 [K]
    dU/dlambda Ewald/kʙ          0.000000e+00 [K]


Initialization: Current cycle: 200 out of 2000
===============================================================================

Box:      31.55123   0.00000   0.00000
           0.00000  31.55123   0.00000
           0.00000   0.00000  31.55123
Lengths:  31.55123  31.55123  31.55123
Angles:   90.00000  90.00000  90.00000
Rectangular boundary conditions

net charge:   0.00000000

component   0 (CO2) lambda:  0 occupancy:  1 (1.000000)
    net charge:   0.00000000 [e]

Amount of molecules per component :
-------------------------------------------------------------------------------
Component 0 (CO2)
    molecules:         2.100000e+01 molecules
    number density:    6.686064e-04 molec/A^3
    density:           4.884953e+01 kg/m^3

Total potential energy/kʙ       -2.677584e+03 [K]
-------------------------------------------------------------------------------
    external field VDW/kʙ        0.000000e+00 [K]
    external field Real/kʙ       0.000000e+00 [K]
    framework-molecule VDW/kʙ    0.000000e+00 [K]
    framework-molecule Real/kʙ   0.000000e+00 [K]
    molecule-molecule VDW/kʙ    -2.265407e+03 [K]
    molecule-molecule Real/kʙ   -4.074803e+02 [K]
    Van der Waals (Tail)/kʙ     -2.607510e+01 [K]
    Ewald Fourier/kʙ             1.256297e+03 [K]
    Ewald self/kʙ               -3.857024e+05 [K]
    Ewald exclusion/kʙ           3.844675e+05 [K]
    intra VDW/kʙ                 0.000000e+00 [K]
    intra Coulombic/kʙ           0.000000e+00 [K]
    polarization/kʙ              0.000000e+00 [K]
    dU/dlambda VDW/kʙ            0.000000e+00 [K]
    dU/dlambda Real/kʙ           0.000000e+00 [K]
    dU/dlambda Ewald/kʙ          0.000000e+00 [K]


Initialization: Current cycle: 300 out of 2000
===============================================================================

Box:      31.94897   0.00000   0.00000
           0.00000  31.94897   0.00000
           0.00000   0.00000  31.94897
Lengths:  31.94897  31.94897  31.94897
Angles:   90.00000  90.00000  90.00000
Rectangular boundary conditions

net charge:   0.00000000

component   0 (CO2) lambda:  0 occupancy:  1 (1.000000)
    net charge:   0.00000000 [e]

Amount of molecules per component :
-------------------------------------------------------------------------------
Component 0 (CO2)
    molecules:         2.800000e+01 molecules
    number density:    8.585928e-04 molec/A^3
    density:           6.273026e+01 kg/m^3

Total potential energy/kʙ       -3.228216e+03 [K]
-------------------------------------------------------------------------------
    external field VDW/kʙ        0.000000e+00 [K]
    external field Real/kʙ       0.000000e+00 [K]
    framework-molecule VDW/kʙ    0.000000e+00 [K]
    framework-molecule Real/kʙ   0.000000e+00 [K]
    molecule-molecule VDW/kʙ    -2.284081e+03 [K]
    molecule-molecule Real/kʙ   -7.951151e+02 [K]
    Van der Waals (Tail)/kʙ     -4.464589e+01 [K]
    Ewald Fourier/kʙ             1.542185e+03 [K]
    Ewald self/kʙ               -5.142699e+05 [K]
    Ewald exclusion/kʙ           5.126233e+05 [K]
    intra VDW/kʙ                 0.000000e+00 [K]
    intra Coulombic/kʙ           0.000000e+00 [K]
    polarization/kʙ              0.000000e+00 [K]
    dU/dlambda VDW/kʙ            0.000000e+00 [K]
    dU/dlambda Real/kʙ           0.000000e+00 [K]
    dU/dlambda Ewald/kʙ          0.000000e+00 [K]


Initialization: Current cycle: 400 out of 2000
===============================================================================

Box:      32.11520   0.00000   0.00000
           0.00000  32.11520   0.00000
           0.00000   0.00000  32.11520
Lengths:  32.11520  32.11520  32.11520
Angles:   90.00000  90.00000  90.00000
Rectangular boundary conditions

net charge:   0.00000000

component   0 (CO2) lambda:  0 occupancy:  1 (1.000000)
    net charge:   0.00000000 [e]

Amount of molecules per component :
-------------------------------------------------------------------------------
Component 0 (CO2)
    molecules:         3.800000e+01 molecules
    number density:    1.147233e-03 molec/A^3
    density:           8.381879e+01 kg/m^3

Total potential energy/kʙ       -5.763286e+03 [K]
-------------------------------------------------------------------------------
    external field VDW/kʙ        0.000000e+00 [K]
    external field Real/kʙ       0.000000e+00 [K]
    framework-molecule VDW/kʙ    0.000000e+00 [K]
    framework-molecule Real/kʙ   0.000000e+00 [K]
    molecule-molecule VDW/kʙ    -4.644921e+03 [K]
    molecule-molecule Real/kʙ   -9.811112e+02 [K]
    Van der Waals (Tail)/kʙ     -8.096016e+01 [K]
    Ewald Fourier/kʙ             2.178320e+03 [K]
    Ewald self/kʙ               -6.979377e+05 [K]
    Ewald exclusion/kʙ           6.957031e+05 [K]
    intra VDW/kʙ                 0.000000e+00 [K]
    intra Coulombic/kʙ           0.000000e+00 [K]
    polarization/kʙ              0.000000e+00 [K]
    dU/dlambda VDW/kʙ            0.000000e+00 [K]
    dU/dlambda Real/kʙ           0.000000e+00 [K]
    dU/dlambda Ewald/kʙ          0.000000e+00 [K]


Initialization: Current cycle: 500 out of 2000
===============================================================================

Box:      32.88268   0.00000   0.00000
           0.00000  32.88268   0.00000
           0.00000   0.00000  32.88268
Lengths:  32.88268  32.88268  32.88268
Angles:   90.00000  90.00000  90.00000
Rectangular boundary conditions

net charge:   0.00000000

component   0 (CO2) lambda:  0 occupancy:  1 (1.000000)
    net charge:   0.00000000 [e]

Amount of molecules per component :
-------------------------------------------------------------------------------
Component 0 (CO2)
    molecules:         3.400000e+01 molecules
    number density:    9.562632e-04 molec/A^3
    density:           6.986623e+01 kg/m^3

Total potential energy/kʙ       -4.916860e+03 [K]
-------------------------------------------------------------------------------
    external field VDW/kʙ        0.000000e+00 [K]
    external field Real/kʙ       0.000000e+00 [K]
    framework-molecule VDW/kʙ    0.000000e+00 [K]
    framework-molecule Real/kʙ   0.000000e+00 [K]
    molecule-molecule VDW/kʙ    -3.715946e+03 [K]
    molecule-molecule Real/kʙ   -1.095049e+03 [K]
    Van der Waals (Tail)/kʙ     -6.037993e+01 [K]
    Ewald Fourier/kʙ             1.953907e+03 [K]
    Ewald self/kʙ               -6.244706e+05 [K]
    Ewald exclusion/kʙ           6.224712e+05 [K]
    intra VDW/kʙ                 0.000000e+00 [K]
    intra Coulombic/kʙ           0.000000e+00 [K]
    polarization/kʙ              0.000000e+00 [K]
    dU/dlambda VDW/kʙ            0.000000e+00 [K]
    dU/dlambda Real/kʙ           0.000000e+00 [K]
    dU/dlambda Ewald/kʙ          0.000000e+00 [K]


Initialization: Current cycle: 600 out of 2000
===============================================================================

Box:      32.71904   0.00000   0.00000
           0.00000  32.71904   0.00000
           0.00000   0.00000  32.71904
Lengths:  32.71904  32.71904  32.71904
Angles:   90.00000  90.00000  90.00000
Rectangular boundary conditions

net charge:   0.00000000

component   0 (CO2) lambda:  0 occupancy:  1 (1.000000)
    net charge:   0.00000000 [e]

Amount of molecules per component :
-------------------------------------------------------------------------------
Component 0 (CO2)
    molecules:         2.200000e+01 molecules
    number density:    6.280886e-04 molec/A^3
    density:           4.588923e+01 kg/m^3

Total potential energy/kʙ       -1.939146e+03 [K]
-------------------------------------------------------------------------------
    external field VDW/kʙ        0.000000e+00 [K]
    external field Real/kʙ       0.000000e+00 [K]
    framework-molecule VDW/kʙ    0.000000e+00 [K]
    framework-molecule Real/kʙ   0.000000e+00 [K]
    molecule-molecule VDW/kʙ    -1.697993e+03 [K]
    molecule-molecule Real/kʙ   -1.031979e+02 [K]
    Van der Waals (Tail)/kʙ     -2.566137e+01 [K]
    Ewald Fourier/kʙ             1.181431e+03 [K]
    Ewald self/kʙ               -4.040692e+05 [K]
    Ewald exclusion/kʙ           4.027755e+05 [K]
    intra VDW/kʙ                 0.000000e+00 [K]
    intra Coulombic/kʙ           0.000000e+00 [K]
    polarization/kʙ              0.000000e+00 [K]
    dU/dlambda VDW/kʙ            0.000000e+00 [K]
    dU/dlambda Real/kʙ           0.000000e+00 [K]
    dU/dlambda Ewald/kʙ          0.000000e+00 [K]


Initialization: Current cycle: 700 out of 2000
===============================================================================

Box:      32.58853   0.00000   0.00000
           0.00000  32.58853   0.00000
           0.00000   0.00000  32.58853
Lengths:  32.58853  32.58853  32.58853
Angles:   90.00000  90.00000  90.00000
Rectangular boundary conditions

net charge:   0.00000000

component   0 (CO2) lambda:  0 occupancy:  1 (1.000000)
    net charge:   0.00000000 [e]

Amount of molecules per component :
-------------------------------------------------------------------------------
Component 0 (CO2)
    molecules:         2.300000e+01 molecules
    number density:    6.645587e-04 molec/A^3
    density:           4.855379e+01 kg/m^3

Total potential energy/kʙ       -4.175466e+03 [K]
-------------------------------------------------------------------------------
    external field VDW/kʙ        0.000000e+00 [K]
    external field Real/kʙ       0.000000e+00 [K]
    framework-molecule VDW/kʙ    0.000000e+00 [K]
    framework-molecule Real/kʙ   0.000000e+00 [K]
    molecule-molecule VDW/kʙ    -2.458050e+03 [K]
    molecule-molecule Real/kʙ   -1.672444e+03 [K]
    Van der Waals (Tail)/kʙ     -2.838555e+01 [K]
    Ewald Fourier/kʙ             1.335943e+03 [K]
    Ewald self/kʙ               -4.224360e+05 [K]
    Ewald exclusion/kʙ           4.210835e+05 [K]
    intra VDW/kʙ                 0.000000e+00 [K]
    intra Coulombic/kʙ           0.000000e+00 [K]
    polarization/kʙ              0.000000e+00 [K]
    dU/dlambda VDW/kʙ            0.000000e+00 [K]
    dU/dlambda Real/kʙ           0.000000e+00 [K]
    dU/dlambda Ewald/kʙ          0.000000e+00 [K]


Initialization: Current cycle: 800 out of 2000
===============================================================================

Box:      32.73320   0.00000   0.00000
           0.00000  32.73320   0.00000
           0.00000   0.00000  32.73320
Lengths:  32.73320  32.73320  32.73320
Angles:   90.00000  90.00000  90.00000
Rectangular boundary conditions

net charge:   0.00000000

component   0 (CO2) lambda:  0 occupancy:  1 (1.000000)
    net charge:   0.00000000 [e]

Amount of molecules per component :
-------------------------------------------------------------------------------
Component 0 (CO2)
    molecules:         3.100000e+01 molecules
    number density:    8.838858e-04 molec/A^3
    density:           6.457821e+01 kg/m^3

Total potential energy/kʙ       -5.583083e+03 [K]
-------------------------------------------------------------------------------
    external field VDW/kʙ        0.000000e+00 [K]
    external field Real/kʙ       0.000000e+00 [K]
    framework-molecule VDW/kʙ    0.000000e+00 [K]
    framework-molecule Real/kʙ   0.000000e+00 [K]
    molecule-molecule VDW/kʙ    -4.149132e+03 [K]
    molecule-molecule Real/kʙ   -1.200142e+03 [K]
    Van der Waals (Tail)/kʙ     -5.088550e+01 [K]
    Ewald Fourier/kʙ             1.640051e+03 [K]
    Ewald self/kʙ               -5.693702e+05 [K]
    Ewald exclusion/kʙ           5.675473e+05 [K]
    intra VDW/kʙ                 0.000000e+00 [K]
    intra Coulombic/kʙ           0.000000e+00 [K]
    polarization/kʙ              0.000000e+00 [K]
    dU/dlambda VDW/kʙ            0.000000e+00 [K]
    dU/dlambda Real/kʙ           0.000000e+00 [K]
    dU/dlambda Ewald/kʙ          0.000000e+00 [K]


Initialization: Current cycle: 900 out of 2000
===============================================================================

Box:      32.97199   0.00000   0.00000
           0.00000  32.97199   0.00000
           0.00000   0.00000  32.97199
Lengths:  32.97199  32.97199  32.97199
Angles:   90.00000  90.00000  90.00000
Rectangular boundary conditions

net charge:   0.00000000

component   0 (CO2) lambda:  0 occupancy:  1 (1.000000)
    net charge:   0.00000000 [e]

Amount of molecules per component :
-------------------------------------------------------------------------------
Component 0 (CO2)
    molecules:         2.700000e+01 molecules
    number density:    7.532313e-04 molec/A^3
    density:           5.503237e+01 kg/m^3

Total potential energy/kʙ       -1.997961e+03 [K]
-------------------------------------------------------------------------------
    external field VDW/kʙ        0.000000e+00 [K]
    external field Real/kʙ       0.000000e+00 [K]
    framework-molecule VDW/kʙ    0.000000e+00 [K]
    framework-molecule Real/kʙ   0.000000e+00 [K]
    molecule-molecule VDW/kʙ    -1.872179e+03 [K]
    molecule-molecule Real/kʙ   -1.363922e+01 [K]
    Van der Waals (Tail)/kʙ     -3.776838e+01 [K]
    Ewald Fourier/kʙ             1.513378e+03 [K]
    Ewald self/kʙ               -4.959031e+05 [K]
    Ewald exclusion/kʙ           4.943154e+05 [K]
    intra VDW/kʙ                 0.000000e+00 [K]
    intra Coulombic/kʙ           0.000000e+00 [K]
    polarization/kʙ              0.000000e+00 [K]
    dU/dlambda VDW/kʙ            0.000000e+00 [K]
    dU/dlambda Real/kʙ           0.000000e+00 [K]
    dU/dlambda Ewald/kʙ          0.000000e+00 [K]


Initialization: Current cycle: 1000 out of 2000
===============================================================================

Box:      33.01506   0.00000   0.00000
           0.00000  33.01506   0.00000
           0.00000   0.00000  33.01506
Lengths:  33.01506  33.01506  33.01506
Angles:   90.00000  90.00000  90.00000
Rectangular boundary conditions

net charge:   0.00000000

component   0 (CO2) lambda:  0 occupancy:  1 (1.000000)
    net charge:   0.00000000 [e]

Amount of molecules per component :
-------------------------------------------------------------------------------
Component 0 (CO2)
    molecules:         2.600000e+01 molecules
    number density:    7.224988e-04 molec/A^3
    density:           5.278700e+01 kg/m^3

Total potential energy/kʙ       -2.745570e+03 [K]
-------------------------------------------------------------------------------
    external field VDW/kʙ        0.000000e+00 [K]
    external field Real/kʙ       0.000000e+00 [K]
    framework-molecule VDW/kʙ    0.000000e+00 [K]
    framework-molecule Real/kʙ   0.000000e+00 [K]
    molecule-molecule VDW/kʙ    -2.460217e+03 [K]
    molecule-molecule Real/kʙ   -2.096683e+02 [K]
    Van der Waals (Tail)/kʙ     -3.488564e+01 [K]
    Ewald Fourier/kʙ             1.488148e+03 [K]
    Ewald self/kʙ               -4.775363e+05 [K]
    Ewald exclusion/kʙ           4.760074e+05 [K]
    intra VDW/kʙ                 0.000000e+00 [K]
    intra Coulombic/kʙ           0.000000e+00 [K]
    polarization/kʙ              0.000000e+00 [K]
    dU/dlambda VDW/kʙ            0.000000e+00 [K]
    dU/dlambda Real/kʙ           0.000000e+00 [K]
    dU/dlambda Ewald/kʙ          0.000000e+00 [K]


Initialization: Current cycle: 1100 out of 2000
===============================================================================

Box:      32.91011   0.00000   0.00000
           0.00000  32.91011   0.00000
           0.00000   0.00000  32.91011
Lengths:  32.91011  32.91011  32.91011
Angles:   90.00000  90.00000  90.00000
Rectangular boundary conditions

net charge:   0.00000000

component   0 (CO2) lambda:  0 occupancy:  1 (1.000000)
    net charge:   0.00000000 [e]

Amount of molecules per component :
-------------------------------------------------------------------------------
Component 0 (CO2)
    molecules:         2.300000e+01 molecules
    number density:    6.452677e-04 molec/A^3
    density:           4.714436e+01 kg/m^3

Total potential energy/kʙ       -2.372431e+03 [K]
-------------------------------------------------------------------------------
    external field VDW/kʙ        0.000000e+00 [K]
    external field Real/kʙ       0.000000e+00 [K]
    framework-molecule VDW/kʙ    0.000000e+00 [K]
    framework-molecule Real/kʙ   0.000000e+00 [K]
    molecule-molecule VDW/kʙ    -1.488033e+03 [K]
    molecule-molecule Real/kʙ   -7.236978e+02 [K]
    Van der Waals (Tail)/kʙ     -2.756157e+01 [K]
    Ewald Fourier/kʙ             1.219391e+03 [K]
    Ewald self/kʙ               -4.224360e+05 [K]
    Ewald exclusion/kʙ           4.210835e+05 [K]
    intra VDW/kʙ                 0.000000e+00 [K]
    intra Coulombic/kʙ           0.000000e+00 [K]
    polarization/kʙ              0.000000e+00 [K]
    dU/dlambda VDW/kʙ            0.000000e+00 [K]
    dU/dlambda Real/kʙ           0.000000e+00 [K]
    dU/dlambda Ewald/kʙ          0.000000e+00 [K]


Initialization: Current cycle: 1200 out of 2000
===============================================================================

Box:      32.76836   0.00000   0.00000
           0.00000  32.76836   0.00000
           0.00000   0.00000  32.76836
Lengths:  32.76836  32.76836  32.76836
Angles:   90.00000  90.00000  90.00000
Rectangular boundary conditions

net charge:   0.00000000

component   0 (CO2) lambda:  0 occupancy:  1 (1.000000)
    net charge:   0.00000000 [e]

Amount of molecules per component :
-------------------------------------------------------------------------------
Component 0 (CO2)
    molecules:         3.400000e+01 molecules
    number density:    9.663063e-04 molec/A^3
    density:           7.059999e+01 kg/m^3

Total potential energy/kʙ       -4.423314e+03 [K]
-------------------------------------------------------------------------------
    external field VDW/kʙ        0.000000e+00 [K]
    external field Real/kʙ       0.000000e+00 [K]
    framework-molecule VDW/kʙ    0.000000e+00 [K]
    framework-molecule Real/kʙ   0.000000e+00 [K]
    molecule-molecule VDW/kʙ    -2.493356e+03 [K]
    molecule-molecule Real/kʙ   -1.730294e+03 [K]
    Van der Waals (Tail)/kʙ     -6.101406e+01 [K]
    Ewald Fourier/kʙ             1.860742e+03 [K]
    Ewald self/kʙ               -6.244706e+05 [K]
    Ewald exclusion/kʙ           6.224712e+05 [K]
    intra VDW/kʙ                 0.000000e+00 [K]
    intra Coulombic/kʙ           0.000000e+00 [K]
    polarization/kʙ              0.000000e+00 [K]
    dU/dlambda VDW/kʙ            0.000000e+00 [K]
    dU/dlambda Real/kʙ           0.000000e+00 [K]
    dU/dlambda Ewald/kʙ          0.000000e+00 [K]


Initialization: Current cycle: 1300 out of 2000
===============================================================================

Box:      32.73297   0.00000   0.00000
           0.00000  32.73297   0.00000
           0.00000   0.00000  32.73297
Lengths:  32.73297  32.73297  32.73297
Angles:   90.00000  90.00000  90.00000
Rectangular boundary conditions

net charge:   0.00000000

component   0 (CO2) lambda:  0 occupancy:  1 (1.000000)
    net charge:   0.00000000 [e]

Amount of molecules per component :
-------------------------------------------------------------------------------
Component 0 (CO2)
    molecules:         2.100000e+01 molecules
    number density:    5.987744e-04 molec/A^3
    density:           4.374748e+01 kg/m^3

Total potential energy/kʙ       -1.970673e+03 [K]
-------------------------------------------------------------------------------
    external field VDW/kʙ        0.000000e+00 [K]
    external field Real/kʙ       0.000000e+00 [K]
    framework-molecule VDW/kʙ    0.000000e+00 [K]
    framework-molecule Real/kʙ   0.000000e+00 [K]
    molecule-molecule VDW/kʙ    -1.905979e+03 [K]
    molecule-molecule Real/kʙ   -8.494382e+01 [K]
    Van der Waals (Tail)/kʙ     -2.335171e+01 [K]
    Ewald Fourier/kʙ             1.278520e+03 [K]
    Ewald self/kʙ               -3.857024e+05 [K]
    Ewald exclusion/kʙ           3.844675e+05 [K]
    intra VDW/kʙ                 0.000000e+00 [K]
    intra Coulombic/kʙ           0.000000e+00 [K]
    polarization/kʙ              0.000000e+00 [K]
    dU/dlambda VDW/kʙ            0.000000e+00 [K]
    dU/dlambda Real/kʙ           0.000000e+00 [K]
    dU/dlambda Ewald/kʙ          0.000000e+00 [K]


Initialization: Current cycle: 1400 out of 2000
===============================================================================

Box:      33.07267   0.00000   0.00000
           0.00000  33.07267   0.00000
           0.00000   0.00000  33.07267
Lengths:  33.07267  33.07267  33.07267
Angles:   90.00000  90.00000  90.00000
Rectangular boundary conditions

net charge:   0.00000000

component   0 (CO2) lambda:  0 occupancy:  1 (1.000000)
    net charge:   0.00000000 [e]

Amount of molecules per component :
-------------------------------------------------------------------------------
Component 0 (CO2)
    molecules:         3.200000e+01 molecules
    number density:    8.845902e-04 molec/A^3
    density:           6.462968e+01 kg/m^3

Total potential energy/kʙ       -2.456470e+03 [K]
-------------------------------------------------------------------------------
    external field VDW/kʙ        0.000000e+00 [K]
    external field Real/kʙ       0.000000e+00 [K]
    framework-molecule VDW/kʙ    0.000000e+00 [K]
    framework-molecule Real/kʙ   0.000000e+00 [K]
    molecule-molecule VDW/kʙ    -2.652848e+03 [K]
    molecule-molecule Real/kʙ    3.042011e+02 [K]
    Van der Waals (Tail)/kʙ     -5.256883e+01 [K]
    Ewald Fourier/kʙ             1.826526e+03 [K]
    Ewald self/kʙ               -5.877370e+05 [K]
    Ewald exclusion/kʙ           5.858552e+05 [K]
    intra VDW/kʙ                 0.000000e+00 [K]
    intra Coulombic/kʙ           0.000000e+00 [K]
    polarization/kʙ              0.000000e+00 [K]
    dU/dlambda VDW/kʙ            0.000000e+00 [K]
    dU/dlambda Real/kʙ           0.000000e+00 [K]
    dU/dlambda Ewald/kʙ          0.000000e+00 [K]


Initialization: Current cycle: 1500 out of 2000
===============================================================================

Box:      33.27835   0.00000   0.00000
           0.00000  33.27835   0.00000
           0.00000   0.00000  33.27835
Lengths:  33.27835  33.27835  33.27835
Angles:   90.00000  90.00000  90.00000
Rectangular boundary conditions

net charge:   0.00000000

component   0 (CO2) lambda:  0 occupancy:  1 (1.000000)
    net charge:   0.00000000 [e]

Amount of molecules per component :
-------------------------------------------------------------------------------
Component 0 (CO2)
    molecules:         2.400000e+01 molecules
    number density:    6.512175e-04 molec/A^3
    density:           4.757906e+01 kg/m^3

Total potential energy/kʙ       -3.245040e+03 [K]
-------------------------------------------------------------------------------
    external field VDW/kʙ        0.000000e+00 [K]
    external field Real/kʙ       0.000000e+00 [K]
    framework-molecule VDW/kʙ    0.000000e+00 [K]
    framework-molecule Real/kʙ   0.000000e+00 [K]
    molecule-molecule VDW/kʙ    -2.200042e+03 [K]
    molecule-molecule Real/kʙ   -1.045024e+03 [K]
    Van der Waals (Tail)/kʙ     -2.902508e+01 [K]
    Ewald Fourier/kʙ             1.440386e+03 [K]
    Ewald self/kʙ               -4.408028e+05 [K]
    Ewald exclusion/kʙ           4.393914e+05 [K]
    intra VDW/kʙ                 0.000000e+00 [K]
    intra Coulombic/kʙ           0.000000e+00 [K]
    polarization/kʙ              0.000000e+00 [K]
    dU/dlambda VDW/kʙ            0.000000e+00 [K]
    dU/dlambda Real/kʙ           0.000000e+00 [K]
    dU/dlambda Ewald/kʙ          0.000000e+00 [K]


Initialization: Current cycle: 1600 out of 2000
===============================================================================

Box:      33.51157   0.00000   0.00000
           0.00000  33.51157   0.00000
           0.00000   0.00000  33.51157
Lengths:  33.51157  33.51157  33.51157
Angles:   90.00000  90.00000  90.00000
Rectangular boundary conditions

net charge:   0.00000000

component   0 (CO2) lambda:  0 occupancy:  1 (1.000000)
    net charge:   0.00000000 [e]

Amount of molecules per component :
-------------------------------------------------------------------------------
Component 0 (CO2)
    molecules:         3.100000e+01 molecules
    number density:    8.237159e-04 molec/A^3
    density:           6.018209e+01 kg/m^3

Total potential energy/kʙ       -2.989824e+03 [K]
-------------------------------------------------------------------------------
    external field VDW/kʙ        0.000000e+00 [K]
    external field Real/kʙ       0.000000e+00 [K]
    framework-molecule VDW/kʙ    0.000000e+00 [K]
    framework-molecule Real/kʙ   0.000000e+00 [K]
    molecule-molecule VDW/kʙ    -2.311641e+03 [K]
    molecule-molecule Real/kʙ   -6.693605e+02 [K]
    Van der Waals (Tail)/kʙ     -4.742151e+01 [K]
    Ewald Fourier/kʙ             1.861574e+03 [K]
    Ewald self/kʙ               -5.693702e+05 [K]
    Ewald exclusion/kʙ           5.675473e+05 [K]
    intra VDW/kʙ                 0.000000e+00 [K]
    intra Coulombic/kʙ           0.000000e+00 [K]
    polarization/kʙ              0.000000e+00 [K]
    dU/dlambda VDW/kʙ            0.000000e+00 [K]
    dU/dlambda Real/kʙ           0.000000e+00 [K]
    dU/dlambda Ewald/kʙ          0.000000e+00 [K]


Initialization: Current cycle: 1700 out of 2000
===============================================================================

Box:      33.84180   0.00000   0.00000
           0.00000  33.84180   0.00000
           0.00000   0.00000  33.84180
Lengths:  33.84180  33.84180  33.84180
Angles:   90.00000  90.00000  90.00000
Rectangular boundary conditions

net charge:   0.00000000

component   0 (CO2) lambda:  0 occupancy:  1 (1.000000)
    net charge:   0.00000000 [e]

Amount of molecules per component :
-------------------------------------------------------------------------------
Component 0 (CO2)
    molecules:         5.100000e+01 molecules
    number density:    1.315860e-03 molec/A^3
    density:           9.613901e+01 kg/m^3

Total potential energy/kʙ       -7.297443e+03 [K]
-------------------------------------------------------------------------------
    external field VDW/kʙ        0.000000e+00 [K]
    external field Real/kʙ       0.000000e+00 [K]
    framework-molecule VDW/kʙ    0.000000e+00 [K]
    framework-molecule Real/kʙ   0.000000e+00 [K]
    molecule-molecule VDW/kʙ    -5.257434e+03 [K]
    molecule-molecule Real/kʙ   -1.490821e+03 [K]
    Van der Waals (Tail)/kʙ     -1.246282e+02 [K]
    Ewald Fourier/kʙ             2.574527e+03 [K]
    Ewald self/kʙ               -9.367059e+05 [K]
    Ewald exclusion/kʙ           9.337068e+05 [K]
    intra VDW/kʙ                 0.000000e+00 [K]
    intra Coulombic/kʙ           0.000000e+00 [K]
    polarization/kʙ              0.000000e+00 [K]
    dU/dlambda VDW/kʙ            0.000000e+00 [K]
    dU/dlambda Real/kʙ           0.000000e+00 [K]
    dU/dlambda Ewald/kʙ          0.000000e+00 [K]


Initialization: Current cycle: 1800 out of 2000
===============================================================================

Box:      34.02552   0.00000   0.00000
           0.00000  34.02552   0.00000
           0.00000   0.00000  34.02552
Lengths:  34.02552  34.02552  34.02552
Angles:   90.00000  90.00000  90.00000
Rectangular boundary conditions

net charge:   0.00000000

component   0 (CO2) lambda:  0 occupancy:  1 (1.000000)
    net charge:   0.00000000 [e]

Amount of molecules per component :
-------------------------------------------------------------------------------
Component 0 (CO2)
    molecules:         5.000000e+01 molecules
    number density:    1.269275e-03 molec/A^3
    density:           9.273539e+01 kg/m^3

Total potential energy/kʙ       -8.895204e+03 [K]
-------------------------------------------------------------------------------
    external field VDW/kʙ        0.000000e+00 [K]
    external field Real/kʙ       0.000000e+00 [K]
    framework-molecule VDW/kʙ    0.000000e+00 [K]
    framework-molecule Real/kʙ   0.000000e+00 [K]
    molecule-molecule VDW/kʙ    -6.538218e+03 [K]
    molecule-molecule Real/kʙ   -2.040285e+03 [K]
    Van der Waals (Tail)/kʙ     -1.178588e+02 [K]
    Ewald Fourier/kʙ             2.741439e+03 [K]
    Ewald self/kʙ               -9.183391e+05 [K]
    Ewald exclusion/kʙ           9.153988e+05 [K]
    intra VDW/kʙ                 0.000000e+00 [K]
    intra Coulombic/kʙ           0.000000e+00 [K]
    polarization/kʙ              0.000000e+00 [K]
    dU/dlambda VDW/kʙ            0.000000e+00 [K]
    dU/dlambda Real/kʙ           0.000000e+00 [K]
    dU/dlambda Ewald/kʙ          0.000000e+00 [K]


Initialization: Current cycle: 1900 out of 2000
===============================================================================

Box:      33.78665   0.00000   0.00000
           0.00000  33.78665   0.00000
           0.00000   0.00000  33.78665
Lengths:  33.78665  33.78665  33.78665
Angles:   90.00000  90.00000  90.00000
Rectangular boundary conditions

net charge:   0.00000000

component   0 (CO2) lambda:  0 occupancy:  1 (1.000000)
    net charge:   0.00000000 [e]

Amount of molecules per component :
-------------------------------------------------------------------------------
Component 0 (CO2)
    molecules:         3.800000e+01 molecules
    number density:    9.852542e-04 molec/A^3
    density:           7.198436e+01 kg/m^3

Total potential energy/kʙ       -6.887812e+03 [K]
-------------------------------------------------------------------------------
    external field VDW/kʙ        0.000000e+00 [K]
    external field Real/kʙ       0.000000e+00 [K]
    framework-molecule VDW/kʙ    0.000000e+00 [K]
    framework-molecule Real/kʙ   0.000000e+00 [K]
    molecule-molecule VDW/kʙ    -5.619194e+03 [K]
    molecule-molecule Real/kʙ   -1.221198e+03 [K]
    Van der Waals (Tail)/kʙ     -6.952934e+01 [K]
    Ewald Fourier/kʙ             2.256724e+03 [K]
    Ewald self/kʙ               -6.979377e+05 [K]
    Ewald exclusion/kʙ           6.957031e+05 [K]
    intra VDW/kʙ                 0.000000e+00 [K]
    intra Coulombic/kʙ           0.000000e+00 [K]
    polarization/kʙ              0.000000e+00 [K]
    dU/dlambda VDW/kʙ            0.000000e+00 [K]
    dU/dlambda Real/kʙ           0.000000e+00 [K]
    dU/dlambda Ewald/kʙ          0.000000e+00 [K]


Current cycle: 0 out of 6000
===============================================================================

Box:      33.74396   0.00000   0.00000  Average:  33.74396   0.00000   0.00000
           0.00000  33.74396   0.00000             0.00000  33.74396   0.00000
           0.00000   0.00000  33.74396             0.00000   0.00000  33.74396
Lengths:  33.74396  33.74396  33.74396  Average:  33.74396  33.74396  33.74396
Angles:   90.00000  90.00000  90.00000  Average:  90.00000  90.00000  90.00000
Rectangular boundary conditions

net charge:   0.00000000

component 0 (CO2) lambda:  0 occupancy:  1 (1.000000)
    net charge:   0.00000000 [e]

Amount of molecules per component :
-------------------------------------------------------------------------------
Component 0 (CO2)
    molecules:      4.700000e+01 molecules  (4.700000e+01 +/- 0.000000e+00)
    number density: 1.223234e-03 molec./A^3 (1.223234e-03 +/- 0.000000e+00)
    density:        8.937160e+01 kg/m^3     (8.937160e+01 +/- 0.000000e+00)

Average pressure tensor: 
-------------------------------------------------------------------------------
 4.5599e+01  0.0000e+00  0.0000e+00 +/- 0.0000e+00 0.0000e+00 0.0000e+00 [bar]
 0.0000e+00  4.5599e+01  0.0000e+00 +/- 0.0000e+00 0.0000e+00 0.0000e+00 [bar]
 0.0000e+00  0.0000e+00  4.5599e+01 +/- 0.0000e+00 0.0000e+00 0.0000e+00 [bar]
Ideal-gas pressure:   4.559919e+01 +/ 0.000000e+00 [bar]
Excess pressure:      0.000000e+00 +/ 0.000000e+00 [bar]
Pressure:             4.559919e+01 +/ 0.000000e+00 [bar]

Total potential energy/kʙ  -7.569704e+03 (-7.569704e+03 +/- 0.000000e+00) [K]
-------------------------------------------------------------------------------
ExternalField-molecule
    Van der Waals/kʙ        0.000000e+00 ( 0.000000e+00 +/- 0.000000e+00) [K]
Framework-molecule
    Van der Waals/kʙ        0.000000e+00 ( 0.000000e+00 +/- 0.000000e+00) [K]
    Van der Waals (Tail)/kʙ 0.000000e+00 ( 0.000000e+00 +/- 0.000000e+00) [K]
    Coulombic Real/kʙ       0.000000e+00 ( 0.000000e+00 +/- 0.000000e+00) [K]
    Coulombic Fourier/kʙ    0.000000e+00 ( 0.000000e+00 +/- 0.000000e+00) [K]
Molecule-molecule
    Van der Waals/kʙ       -5.069632e+03 (-5.069632e+03 +/- 0.000000e+00) [K]
    Van der Waals (Tail)/kʙ-1.067687e+02 (-1.067687e+02 +/- 0.000000e+00) [K]
    Coulombic Real/kʙ      -2.089938e+03 (-2.089938e+03 +/- 0.000000e+00) [K]
    Coulombic Fourier/kʙ   -3.033645e+02 (-3.033645e+02 +/- 0.000000e+00) [K]
    Molecule Intra/kʙ       0.000000e+00 ( 0.000000e+00 +/- 0.000000e+00) [K]

Current cycle: 100 out of 6000
===============================================================================

Box:      33.65580   0.00000   0.00000  Average:  33.73577   0.00000   0.00000
           0.00000  33.65580   0.00000             0.00000  33.73577   0.00000
           0.00000   0.00000  33.65580             0.00000   0.00000  33.73577
Lengths:  33.65580  33.65580  33.65580  Average:  33.73577  33.73577  33.73577
Angles:   90.00000  90.00000  90.00000  Average:  90.00000  90.00000  90.00000
Rectangular boundary conditions

net charge:   0.00000000

component 0 (CO2) lambda:  0 occupancy:  1 (1.000000)
    net charge:   0.00000000 [e]

Amount of molecules per component :
-------------------------------------------------------------------------------
Component 0 (CO2)
    molecules:      4.800000e+01 molecules  (4.158416e+01 +/- 0.000000e+00)
    number density: 1.259104e-03 molec./A^3 (1.083066e-03 +/- 0.000000e+00)
    density:        9.199229e+01 kg/m^3     (7.913066e+01 +/- 0.000000e+00)

Average pressure tensor: 
-------------------------------------------------------------------------------
 3.6397e+01  6.6773e-01 -6.1857e+00 +/- 0.0000e+00 0.0000e+00 0.0000e+00 [bar]
 6.6773e-01  3.0865e+01  3.6958e+00 +/- 0.0000e+00 0.0000e+00 0.0000e+00 [bar]
-6.1857e+00  3.6958e+00  3.6551e+01 +/- 0.0000e+00 0.0000e+00 0.0000e+00 [bar]
Ideal-gas pressure:   4.037406e+01 +/ 0.000000e+00 [bar]
Excess pressure:     -5.769881e+00 +/ 0.000000e+00 [bar]
Pressure:             3.460418e+01 +/ 0.000000e+00 [bar]

Total potential energy/kʙ  -7.409936e+03 (-6.263507e+03 +/- 0.000000e+00) [K]
-------------------------------------------------------------------------------
ExternalField-molecule
    Van der Waals/kʙ        0.000000e+00 ( 0.000000e+00 +/- 0.000000e+00) [K]
Framework-molecule
    Van der Waals/kʙ        0.000000e+00 ( 0.000000e+00 +/- 0.000000e+00) [K]
    Van der Waals (Tail)/kʙ 0.000000e+00 ( 0.000000e+00 +/- 0.000000e+00) [K]
    Coulombic Real/kʙ       0.000000e+00 ( 0.000000e+00 +/- 0.000000e+00) [K]
    Coulombic Fourier/kʙ    0.000000e+00 ( 0.000000e+00 +/- 0.000000e+00) [K]
Molecule-molecule
    Van der Waals/kʙ       -6.582478e+03 (-4.766508e+03 +/- 0.000000e+00) [K]
    Van der Waals (Tail)/kʙ-1.122378e+02 (-8.579271e+01 +/- 0.000000e+00) [K]
    Coulombic Real/kʙ      -6.519775e+02 (-1.249023e+03 +/- 0.000000e+00) [K]
    Coulombic Fourier/kʙ   -6.324226e+01 (-1.621836e+02 +/- 0.000000e+00) [K]
    Molecule Intra/kʙ       0.000000e+00 ( 0.000000e+00 +/- 0.000000e+00) [K]

Current cycle: 200 out of 6000
===============================================================================

Box:      33.62865   0.00000   0.00000  Average:  33.59946   0.00000   0.00000
           0.00000  33.62865   0.00000             0.00000  33.59946   0.00000
           0.00000   0.00000  33.62865             0.00000   0.00000  33.59946
Lengths:  33.62865  33.62865  33.62865  Average:  33.59946  33.59946  33.59946
Angles:   90.00000  90.00000  90.00000  Average:  90.00000  90.00000  90.00000
Rectangular boundary conditions

net charge:   0.00000000

component 0 (CO2) lambda:  0 occupancy:  1 (1.000000)
    net charge:   0.00000000 [e]

Amount of molecules per component :
-------------------------------------------------------------------------------
Component 0 (CO2)
    molecules:      3.700000e+01 molecules  (3.837811e+01 +/- 0.000000e+00)
    number density: 9.729118e-04 molec./A^3 (1.010724e-03 +/- 0.000000e+00)
    density:        7.108260e+01 kg/m^3     (7.384526e+01 +/- 0.000000e+00)

Average pressure tensor: 
-------------------------------------------------------------------------------
 3.5019e+01 -1.5952e+00 -7.1823e+00 +/- 0.0000e+00 0.0000e+00 0.0000e+00 [bar]
-1.5952e+00  3.1279e+01  2.8488e+00 +/- 0.0000e+00 0.0000e+00 0.0000e+00 [bar]
-7.1823e+00  2.8488e+00  3.1839e+01 +/- 0.0000e+00 0.0000e+00 0.0000e+00 [bar]
Ideal-gas pressure:   3.767734e+01 +/ 0.000000e+00 [bar]
Excess pressure:     -4.964905e+00 +/ 0.000000e+00 [bar]
Pressure:             3.271244e+01 +/ 0.000000e+00 [bar]

Total potential energy/kʙ  -4.461966e+03 (-5.357715e+03 +/- 0.000000e+00) [K]
-------------------------------------------------------------------------------
ExternalField-molecule
    Van der Waals/kʙ        0.000000e+00 ( 0.000000e+00 +/- 0.000000e+00) [K]
Framework-molecule
    Van der Waals/kʙ        0.000000e+00 ( 0.000000e+00 +/- 0.000000e+00) [K]
    Van der Waals (Tail)/kʙ 0.000000e+00 ( 0.000000e+00 +/- 0.000000e+00) [K]
    Coulombic Real/kʙ       0.000000e+00 ( 0.000000e+00 +/- 0.000000e+00) [K]
    Coulombic Fourier/kʙ    0.000000e+00 ( 0.000000e+00 +/- 0.000000e+00) [K]
Molecule-molecule
    Van der Waals/kʙ       -3.684773e+03 (-4.092559e+03 +/- 0.000000e+00) [K]
    Van der Waals (Tail)/kʙ-6.685154e+01 (-7.723504e+01 +/- 0.000000e+00) [K]
    Coulombic Real/kʙ      -6.037128e+02 (-1.077876e+03 +/- 0.000000e+00) [K]
    Coulombic Fourier/kʙ   -1.066288e+02 (-1.100442e+02 +/- 0.000000e+00) [K]
    Molecule Intra/kʙ       0.000000e+00 ( 0.000000e+00 +/- 0.000000e+00) [K]

Current cycle: 300 out of 6000
===============================================================================

Box:      33.47119   0.00000   0.00000  Average:  33.58358   0.00000   0.00000
           0.00000  33.47119   0.00000             0.00000  33.58358   0.00000
           0.00000   0.00000  33.47119             0.00000   0.00000  33.58358
Lengths:  33.47119  33.47119  33.47119  Average:  33.58358  33.58358  33.58358
Angles:   90.00000  90.00000  90.00000  Average:  90.00000  90.00000  90.00000
Rectangular boundary conditions

net charge:   0.00000000

component 0 (CO2) lambda:  0 occupancy:  1 (1.000000)
    net charge:   0.00000000 [e]

Amount of molecules per component :
-------------------------------------------------------------------------------
Component 0 (CO2)
    molecules:      3.600000e+01 molecules  (3.751495e+01 +/- 0.000000e+00)
    number density: 9.600396e-04 molec./A^3 (9.897163e-04 +/- 0.000000e+00)
    density:        7.014214e+01 kg/m^3     (7.231037e+01 +/- 0.000000e+00)

Average pressure tensor: 
-------------------------------------------------------------------------------
 3.1856e+01 -1.8787e+00 -4.6926e+00 +/- 0.0000e+00 0.0000e+00 0.0000e+00 [bar]
-1.8787e+00  2.8115e+01  1.0908e+00 +/- 0.0000e+00 0.0000e+00 0.0000e+00 [bar]
-4.6926e+00  1.0908e+00  3.2843e+01 +/- 0.0000e+00 0.0000e+00 0.0000e+00 [bar]
Ideal-gas pressure:   3.689421e+01 +/ 0.000000e+00 [bar]
Excess pressure:     -5.956318e+00 +/ 0.000000e+00 [bar]
Pressure:             3.093789e+01 +/ 0.000000e+00 [bar]

Total potential energy/kʙ  -4.197619e+03 (-5.488694e+03 +/- 0.000000e+00) [K]
-------------------------------------------------------------------------------
ExternalField-molecule
    Van der Waals/kʙ        0.000000e+00 ( 0.000000e+00 +/- 0.000000e+00) [K]
Framework-molecule
    Van der Waals/kʙ        0.000000e+00 ( 0.000000e+00 +/- 0.000000e+00) [K]
    Van der Waals (Tail)/kʙ 0.000000e+00 ( 0.000000e+00 +/- 0.000000e+00) [K]
    Coulombic Real/kʙ       0.000000e+00 ( 0.000000e+00 +/- 0.000000e+00) [K]
    Coulombic Fourier/kʙ    0.000000e+00 ( 0.000000e+00 +/- 0.000000e+00) [K]
Molecule-molecule
    Van der Waals/kʙ       -3.214968e+03 (-4.064425e+03 +/- 0.000000e+00) [K]
    Van der Waals (Tail)/kʙ-6.418416e+01 (-7.341195e+01 +/- 0.000000e+00) [K]
    Coulombic Real/kʙ      -8.294868e+02 (-1.235845e+03 +/- 0.000000e+00) [K]
    Coulombic Fourier/kʙ   -8.897948e+01 (-1.150118e+02 +/- 0.000000e+00) [K]
    Molecule Intra/kʙ       0.000000e+00 ( 0.000000e+00 +/- 0.000000e+00) [K]

Current cycle: 400 out of 6000
===============================================================================

Box:      33.43328   0.00000   0.00000  Average:  33.52174   0.00000   0.00000
           0.00000  33.43328   0.00000             0.00000  33.52174   0.00000
           0.00000   0.00000  33.43328             0.00000   0.00000  33.52174
Lengths:  33.43328  33.43328  33.43328  Average:  33.52174  33.52174  33.52174
Angles:   90.00000  90.00000  90.00000  Average:  90.00000  90.00000  90.00000
Rectangular boundary conditions

net charge:   0.00000000

component 0 (CO2) lambda:  0 occupancy:  1 (1.000000)
    net charge:   0.00000000 [e]

Amount of molecules per component :
-------------------------------------------------------------------------------
Component 0 (CO2)
    molecules:      3.900000e+01 molecules  (3.631671e+01 +/- 0.000000e+00)
    number density: 1.043584e-03 molec./A^3 (9.629320e-04 +/- 0.000000e+00)
    density:        7.624606e+01 kg/m^3     (7.035346e+01 +/- 0.000000e+00)

Average pressure tensor: 
-------------------------------------------------------------------------------
 2.9660e+01 -1.5992e+00 -2.7364e+00 +/- 0.0000e+00 0.0000e+00 0.0000e+00 [bar]
-1.5992e+00  2.6785e+01  1.1044e+00 +/- 0.0000e+00 0.0000e+00 0.0000e+00 [bar]
-2.7364e+00  1.1044e+00  3.0502e+01 +/- 0.0000e+00 0.0000e+00 0.0000e+00 [bar]
Ideal-gas pressure:   3.589575e+01 +/ 0.000000e+00 [bar]
Excess pressure:     -6.913380e+00 +/ 0.000000e+00 [bar]
Pressure:             2.898237e+01 +/ 0.000000e+00 [bar]

Total potential energy/kʙ  -4.976566e+03 (-5.310281e+03 +/- 0.000000e+00) [K]
-------------------------------------------------------------------------------
ExternalField-molecule
    Van der Waals/kʙ        0.000000e+00 ( 0.000000e+00 +/- 0.000000e+00) [K]
Framework-molecule
    Van der Waals/kʙ        0.000000e+00 ( 0.000000e+00 +/- 0.000000e+00) [K]
    Van der Waals (Tail)/kʙ 0.000000e+00 ( 0.000000e+00 +/- 0.000000e+00) [K]
    Coulombic Real/kʙ       0.000000e+00 ( 0.000000e+00 +/- 0.000000e+00) [K]
    Coulombic Fourier/kʙ    0.000000e+00 ( 0.000000e+00 +/- 0.000000e+00) [K]
Molecule-molecule
    Van der Waals/kʙ       -3.770876e+03 (-3.936741e+03 +/- 0.000000e+00) [K]
    Van der Waals (Tail)/kʙ-7.558374e+01 (-6.896600e+01 +/- 0.000000e+00) [K]
    Coulombic Real/kʙ      -1.067183e+03 (-1.200021e+03 +/- 0.000000e+00) [K]
    Coulombic Fourier/kʙ   -6.292268e+01 (-1.045529e+02 +/- 0.000000e+00) [K]
    Molecule Intra/kʙ       0.000000e+00 ( 0.000000e+00 +/- 0.000000e+00) [K]

Current cycle: 500 out of 6000
===============================================================================

Box:      33.77019   0.00000   0.00000  Average:  33.53007   0.00000   0.00000
           0.00000  33.77019   0.00000             0.00000  33.53007   0.00000
           0.00000   0.00000  33.77019             0.00000   0.00000  33.53007
Lengths:  33.77019  33.77019  33.77019  Average:  33.53007  33.53007  33.53007
Angles:   90.00000  90.00000  90.00000  Average:  90.00000  90.00000  90.00000
Rectangular boundary conditions

net charge:   0.00000000

component 0 (CO2) lambda:  0 occupancy:  1 (1.000000)
    net charge:   0.00000000 [e]

Amount of molecules per component :
-------------------------------------------------------------------------------
Component 0 (CO2)
    molecules:      4.400000e+01 molecules  (3.662675e+01 +/- 0.000000e+00)
    number density: 1.142490e-03 molec./A^3 (9.704904e-04 +/- 0.000000e+00)
    density:        8.347225e+01 kg/m^3     (7.090569e+01 +/- 0.000000e+00)

Average pressure tensor: 
-------------------------------------------------------------------------------
 2.8697e+01 -1.2023e+00 -3.1297e+00 +/- 0.0000e+00 0.0000e+00 0.0000e+00 [bar]
-1.2023e+00  2.5113e+01  1.1256e+00 +/- 0.0000e+00 0.0000e+00 0.0000e+00 [bar]
-3.1297e+00  1.1256e+00  2.8955e+01 +/- 0.0000e+00 0.0000e+00 0.0000e+00 [bar]
Ideal-gas pressure:   3.617751e+01 +/ 0.000000e+00 [bar]
Excess pressure:     -8.589167e+00 +/ 0.000000e+00 [bar]
Pressure:             2.758835e+01 +/ 0.000000e+00 [bar]

Total potential energy/kʙ  -6.380299e+03 (-5.389583e+03 +/- 0.000000e+00) [K]
-------------------------------------------------------------------------------
ExternalField-molecule
    Van der Waals/kʙ        0.000000e+00 ( 0.000000e+00 +/- 0.000000e+00) [K]
Framework-molecule
    Van der Waals/kʙ        0.000000e+00 ( 0.000000e+00 +/- 0.000000e+00) [K]
    Van der Waals (Tail)/kʙ 0.000000e+00 ( 0.000000e+00 +/- 0.000000e+00) [K]
    Coulombic Real/kʙ       0.000000e+00 ( 0.000000e+00 +/- 0.000000e+00) [K]
    Coulombic Fourier/kʙ    0.000000e+00 ( 0.000000e+00 +/- 0.000000e+00) [K]
Molecule-molecule
    Van der Waals/kʙ       -5.213110e+03 (-4.009752e+03 +/- 0.000000e+00) [K]
    Van der Waals (Tail)/kʙ-9.335577e+01 (-6.986400e+01 +/- 0.000000e+00) [K]
    Coulombic Real/kʙ      -8.864455e+02 (-1.200880e+03 +/- 0.000000e+00) [K]
    Coulombic Fourier/kʙ   -1.873886e+02 (-1.090865e+02 +/- 0.000000e+00) [K]
    Molecule Intra/kʙ       0.000000e+00 ( 0.000000e+00 +/- 0.000000e+00) [K]

Current cycle: 600 out of 6000
===============================================================================

Box:      33.53048   0.00000   0.00000  Average:  33.55787   0.00000   0.00000
           0.00000  33.53048   0.00000             0.00000  33.55787   0.00000
           0.00000   0.00000  33.53048             0.00000   0.00000  33.55787
Lengths:  33.53048  33.53048  33.53048  Average:  33.55787  33.55787  33.55787
Angles:   90.00000  90.00000  90.00000  Average:  90.00000  90.00000  90.00000
Rectangular boundary conditions

net charge:   0.00000000

component 0 (CO2) lambda:  0 occupancy:  1 (1.000000)
    net charge:   0.00000000 [e]

Amount of molecules per component :
-------------------------------------------------------------------------------
Component 0 (CO2)
    molecules:      3.900000e+01 molecules  (3.800666e+01 +/- 0.000000e+00)
    number density: 1.034536e-03 molec./A^3 (1.004259e-03 +/- 0.000000e+00)
    density:        7.558495e+01 kg/m^3     (7.337289e+01 +/- 0.000000e+00)

Average pressure tensor: 
-------------------------------------------------------------------------------
 2.7592e+01 -1.0860e+00 -1.9883e+00 +/- 0.0000e+00 0.0000e+00 0.0000e+00 [bar]
-1.0860e+00  2.4747e+01  1.3211e+00 +/- 0.0000e+00 0.0000e+00 0.0000e+00 [bar]
-1.9883e+00  1.3211e+00  2.9076e+01 +/- 0.0000e+00 0.0000e+00 0.0000e+00 [bar]
Ideal-gas pressure:   3.743633e+01 +/ 0.000000e+00 [bar]
Excess pressure:     -1.029819e+01 +/ 0.000000e+00 [bar]
Pressure:             2.713814e+01 +/ 0.000000e+00 [bar]

Total potential energy/kʙ  -4.884570e+03 (-5.820181e+03 +/- 0.000000e+00) [K]
-------------------------------------------------------------------------------
ExternalField-molecule
    Van der Waals/kʙ        0.000000e+00 ( 0.000000e+00 +/- 0.000000e+00) [K]
Framework-molecule
    Van der Waals/kʙ        0.000000e+00 ( 0.000000e+00 +/- 0.000000e+00) [K]
    Van der Waals (Tail)/kʙ 0.000000e+00 ( 0.000000e+00 +/- 0.000000e+00) [K]
    Coulombic Real/kʙ       0.000000e+00 ( 0.000000e+00 +/- 0.000000e+00) [K]
    Coulombic Fourier/kʙ    0.000000e+00 ( 0.000000e+00 +/- 0.000000e+00) [K]
Molecule-molecule
    Van der Waals/kʙ       -4.231948e+03 (-4.291502e+03 +/- 0.000000e+00) [K]
    Van der Waals (Tail)/kʙ-7.492837e+01 (-7.412509e+01 +/- 0.000000e+00) [K]
    Coulombic Real/kʙ      -5.707117e+02 (-1.337870e+03 +/- 0.000000e+00) [K]
    Coulombic Fourier/kʙ   -6.982633e+00 (-1.166844e+02 +/- 0.000000e+00) [K]
    Molecule Intra/kʙ       0.000000e+00 ( 0.000000e+00 +/- 0.000000e+00) [K]

Current cycle: 700 out of 6000
===============================================================================

Box:      33.65701   0.00000   0.00000  Average:  33.56049   0.00000   0.00000
           0.00000  33.65701   0.00000             0.00000  33.56049   0.00000
           0.00000   0.00000  33.65701             0.00000   0.00000  33.56049
Lengths:  33.65701  33.65701  33.65701  Average:  33.56049  33.56049  33.56049
Angles:   90.00000  90.00000  90.00000  Average:  90.00000  90.00000  90.00000
Rectangular boundary conditions

net charge:   0.00000000

component 0 (CO2) lambda:  0 occupancy:  1 (1.000000)
    net charge:   0.00000000 [e]

Amount of molecules per component :
-------------------------------------------------------------------------------
Component 0 (CO2)
    molecules:      4.200000e+01 molecules  (3.816120e+01 +/- 0.000000e+00)
    number density: 1.101597e-03 molec./A^3 (1.008299e-03 +/- 0.000000e+00)
    density:        8.048457e+01 kg/m^3     (7.366802e+01 +/- 0.000000e+00)

Average pressure tensor: 
-------------------------------------------------------------------------------
 2.7178e+01 -9.8323e-01 -1.2720e+00 +/- 0.0000e+00 0.0000e+00 0.0000e+00 [bar]
-9.8323e-01  2.4699e+01  8.4803e-01 +/- 0.0000e+00 0.0000e+00 0.0000e+00 [bar]
-1.2720e+00  8.4803e-01  2.8347e+01 +/- 0.0000e+00 0.0000e+00 0.0000e+00 [bar]
Ideal-gas pressure:   3.758691e+01 +/ 0.000000e+00 [bar]
Excess pressure:     -1.084582e+01 +/ 0.000000e+00 [bar]
Pressure:             2.674109e+01 +/ 0.000000e+00 [bar]

Total potential energy/kʙ  -6.337990e+03 (-5.780221e+03 +/- 0.000000e+00) [K]
-------------------------------------------------------------------------------
ExternalField-molecule
    Van der Waals/kʙ        0.000000e+00 ( 0.000000e+00 +/- 0.000000e+00) [K]
Framework-molecule
    Van der Waals/kʙ        0.000000e+00 ( 0.000000e+00 +/- 0.000000e+00) [K]
    Van der Waals (Tail)/kʙ 0.000000e+00 ( 0.000000e+00 +/- 0.000000e+00) [K]
    Coulombic Real/kʙ       0.000000e+00 ( 0.000000e+00 +/- 0.000000e+00) [K]
    Coulombic Fourier/kʙ    0.000000e+00 ( 0.000000e+00 +/- 0.000000e+00) [K]
Molecule-molecule
    Van der Waals/kʙ       -4.058348e+03 (-4.294647e+03 +/- 0.000000e+00) [K]
    Van der Waals (Tail)/kʙ-8.592278e+01 (-7.401222e+01 +/- 0.000000e+00) [K]
    Coulombic Real/kʙ      -1.998210e+03 (-1.301796e+03 +/- 0.000000e+00) [K]
    Coulombic Fourier/kʙ   -1.955092e+02 (-1.097652e+02 +/- 0.000000e+00) [K]
    Molecule Intra/kʙ       0.000000e+00 ( 0.000000e+00 +/- 0.000000e+00) [K]

Current cycle: 800 out of 6000
===============================================================================

Box:      33.53762   0.00000   0.00000  Average:  33.57624   0.00000   0.00000
           0.00000  33.53762   0.00000             0.00000  33.57624   0.00000
           0.00000   0.00000  33.53762             0.00000   0.00000  33.57624
Lengths:  33.53762  33.53762  33.53762  Average:  33.57624  33.57624  33.57624
Angles:   90.00000  90.00000  90.00000  Average:  90.00000  90.00000  90.00000
Rectangular boundary conditions

net charge:   0.00000000

component 0 (CO2) lambda:  0 occupancy:  1 (1.000000)
    net charge:   0.00000000 [e]

Amount of molecules per component :
-------------------------------------------------------------------------------
Component 0 (CO2)
    molecules:      4.300000e+01 molecules  (3.873034e+01 +/- 0.000000e+00)
    number density: 1.139913e-03 molec./A^3 (1.021926e-03 +/- 0.000000e+00)
    density:        8.328403e+01 kg/m^3     (7.466364e+01 +/- 0.000000e+00)

Average pressure tensor: 
-------------------------------------------------------------------------------
 2.7901e+01 -3.1295e-01 -3.3796e-01 +/- 0.0000e+00 0.0000e+00 0.0000e+00 [bar]
-3.1295e-01  2.7324e+01  7.1422e-01 +/- 0.0000e+00 0.0000e+00 0.0000e+00 [bar]
-3.3796e-01  7.1422e-01  2.9101e+01 +/- 0.0000e+00 0.0000e+00 0.0000e+00 [bar]
Ideal-gas pressure:   3.809489e+01 +/ 0.000000e+00 [bar]
Excess pressure:     -9.986437e+00 +/ 0.000000e+00 [bar]
Pressure:             2.810846e+01 +/ 0.000000e+00 [bar]

Total potential energy/kʙ  -5.719040e+03 (-5.797112e+03 +/- 0.000000e+00) [K]
-------------------------------------------------------------------------------
ExternalField-molecule
    Van der Waals/kʙ        0.000000e+00 ( 0.000000e+00 +/- 0.000000e+00) [K]
Framework-molecule
    Van der Waals/kʙ        0.000000e+00 ( 0.000000e+00 +/- 0.000000e+00) [K]
    Van der Waals (Tail)/kʙ 0.000000e+00 ( 0.000000e+00 +/- 0.000000e+00) [K]
    Coulombic Real/kʙ       0.000000e+00 ( 0.000000e+00 +/- 0.000000e+00) [K]
    Coulombic Fourier/kʙ    0.000000e+00 ( 0.000000e+00 +/- 0.000000e+00) [K]
Molecule-molecule
    Van der Waals/kʙ       -4.112045e+03 (-4.290409e+03 +/- 0.000000e+00) [K]
    Van der Waals (Tail)/kʙ-9.102832e+01 (-7.528205e+01 +/- 0.000000e+00) [K]
    Coulombic Real/kʙ      -1.275405e+03 (-1.321655e+03 +/- 0.000000e+00) [K]
    Coulombic Fourier/kʙ   -2.405624e+02 (-1.097660e+02 +/- 0.000000e+00) [K]
    Molecule Intra/kʙ       0.000000e+00 ( 0.000000e+00 +/- 0.000000e+00) [K]

Current cycle: 900 out of 6000
===============================================================================

Box:      33.50674   0.00000   0.00000  Average:  33.56472   0.00000   0.00000
           0.00000  33.50674   0.00000             0.00000  33.56472   0.00000
           0.00000   0.00000  33.50674             0.00000   0.00000  33.56472
Lengths:  33.50674  33.50674  33.50674  Average:  33.56472  33.56472  33.56472
Angles:   90.00000  90.00000  90.00000  Average:  90.00000  90.00000  90.00000
Rectangular boundary conditions

net charge:   0.00000000

component 0 (CO2) lambda:  0 occupancy:  1 (1.000000)
    net charge:   0.00000000 [e]

Amount of molecules per component :
-------------------------------------------------------------------------------
Component 0 (CO2)
    molecules:      3.200000e+01 molecules  (3.903219e+01 +/- 0.000000e+00)
    number density: 8.506550e-04 molec./A^3 (1.031198e-03 +/- 0.000000e+00)
    density:        6.215031e+01 kg/m^3     (7.534111e+01 +/- 0.000000e+00)

Average pressure tensor: 
-------------------------------------------------------------------------------
 2.8365e+01 -7.4095e-01 -3.0491e-01 +/- 0.0000e+00 0.0000e+00 0.0000e+00 [bar]
-7.4095e-01  2.7040e+01  6.9153e-01 +/- 0.0000e+00 0.0000e+00 0.0000e+00 [bar]
-3.0491e-01  6.9153e-01  2.9434e+01 +/- 0.0000e+00 0.0000e+00 0.0000e+00 [bar]
Ideal-gas pressure:   3.844056e+01 +/ 0.000000e+00 [bar]
Excess pressure:     -1.016071e+01 +/ 0.000000e+00 [bar]
Pressure:             2.827984e+01 +/ 0.000000e+00 [bar]

Total potential energy/kʙ  -3.280307e+03 (-5.780000e+03 +/- 0.000000e+00) [K]
-------------------------------------------------------------------------------
ExternalField-molecule
    Van der Waals/kʙ        0.000000e+00 ( 0.000000e+00 +/- 0.000000e+00) [K]
Framework-molecule
    Van der Waals/kʙ        0.000000e+00 ( 0.000000e+00 +/- 0.000000e+00) [K]
    Van der Waals (Tail)/kʙ 0.000000e+00 ( 0.000000e+00 +/- 0.000000e+00) [K]
    Coulombic Real/kʙ       0.000000e+00 ( 0.000000e+00 +/- 0.000000e+00) [K]
    Coulombic Fourier/kʙ    0.000000e+00 ( 0.000000e+00 +/- 0.000000e+00) [K]
Molecule-molecule
    Van der Waals/kʙ       -2.757380e+03 (-4.293971e+03 +/- 0.000000e+00) [K]
    Van der Waals (Tail)/kʙ-5.055215e+01 (-7.658387e+01 +/- 0.000000e+00) [K]
    Coulombic Real/kʙ      -3.287199e+02 (-1.300771e+03 +/- 0.000000e+00) [K]
    Coulombic Fourier/kʙ   -1.436553e+02 (-1.086737e+02 +/- 0.000000e+00) [K]
    Molecule Intra/kʙ       0.000000e+00 ( 0.000000e+00 +/- 0.000000e+00) [K]

Current cycle: 1000 out of 6000
===============================================================================

Box:      33.67528   0.00000   0.00000  Average:  33.57904   0.00000   0.00000
           0.00000  33.67528   0.00000             0.00000  33.57904   0.00000
           0.00000   0.00000  33.67528             0.00000   0.00000  33.57904
Lengths:  33.67528  33.67528  33.67528  Average:  33.57904  33.57904  33.57904
Angles:   90.00000  90.00000  90.00000  Average:  90.00000  90.00000  90.00000
Rectangular boundary conditions

net charge:   0.00000000

component 0 (CO2) lambda:  0 occupancy:  1 (1.000000)
    net charge:   0.00000000 [e]

Amount of molecules per component :
-------------------------------------------------------------------------------
Component 0 (CO2)
    molecules:      4.500000e+01 molecules  (3.941958e+01 +/- 0.000000e+00)
    number density: 1.178362e-03 molec./A^3 (1.040075e-03 +/- 0.000000e+00)
    density:        8.609317e+01 kg/m^3     (7.598964e+01 +/- 0.000000e+00)

Average pressure tensor: 
-------------------------------------------------------------------------------
 2.8312e+01 -6.3670e-01  8.5264e-03 +/- 0.0000e+00 0.0000e+00 0.0000e+00 [bar]
-6.3670e-01  2.6768e+01  3.4864e-01 +/- 0.0000e+00 0.0000e+00 0.0000e+00 [bar]
 8.5264e-03  3.4864e-01  2.9591e+01 +/- 0.0000e+00 0.0000e+00 0.0000e+00 [bar]
Ideal-gas pressure:   3.877145e+01 +/ 0.000000e+00 [bar]
Excess pressure:     -1.054761e+01 +/ 0.000000e+00 [bar]
Pressure:             2.822384e+01 +/ 0.000000e+00 [bar]

Total potential energy/kʙ  -8.307438e+03 (-5.749719e+03 +/- 0.000000e+00) [K]
-------------------------------------------------------------------------------
ExternalField-molecule
    Van der Waals/kʙ        0.000000e+00 ( 0.000000e+00 +/- 0.000000e+00) [K]
Framework-molecule
    Van der Waals/kʙ        0.000000e+00 ( 0.000000e+00 +/- 0.000000e+00) [K]
    Van der Waals (Tail)/kʙ 0.000000e+00 ( 0.000000e+00 +/- 0.000000e+00) [K]
    Coulombic Real/kʙ       0.000000e+00 ( 0.000000e+00 +/- 0.000000e+00) [K]
    Coulombic Fourier/kʙ    0.000000e+00 ( 0.000000e+00 +/- 0.000000e+00) [K]
Molecule-molecule
    Van der Waals/kʙ       -6.668226e+03 (-4.284561e+03 +/- 0.000000e+00) [K]
    Van der Waals (Tail)/kʙ-9.847536e+01 (-7.736053e+01 +/- 0.000000e+00) [K]
    Coulombic Real/kʙ      -1.271373e+03 (-1.275372e+03 +/- 0.000000e+00) [K]
    Coulombic Fourier/kʙ   -2.693639e+02 (-1.124258e+02 +/- 0.000000e+00) [K]
    Molecule Intra/kʙ       0.000000e+00 ( 0.000000e+00 +/- 0.000000e+00) [K]

Current cycle: 1100 out of 6000
===============================================================================

Box:      33.75987   0.00000   0.00000  Average:  33.59120   0.00000   0.00000
           0.00000  33.75987   0.00000             0.00000  33.59120   0.00000
           0.00000   0.00000  33.75987             0.00000   0.00000  33.59120
Lengths:  33.75987  33.75987  33.75987  Average:  33.59120  33.59120  33.59120
Angles:   90.00000  90.00000  90.00000  Average:  90.00000  90.00000  90.00000
Rectangular boundary conditions

net charge:   0.00000000

component 0 (CO2) lambda:  0 occupancy:  1 (1.000000)
    net charge:   0.00000000 [e]

Amount of molecules per component :
-------------------------------------------------------------------------------
Component 0 (CO2)
    molecules:      4.500000e+01 molecules  (3.954496e+01 +/- 0.000000e+00)
    number density: 1.169527e-03 molec./A^3 (1.042322e-03 +/- 0.000000e+00)
    density:        8.544761e+01 kg/m^3     (7.615382e+01 +/- 0.000000e+00)

Average pressure tensor: 
-------------------------------------------------------------------------------
 2.7991e+01 -7.5560e-01 -3.8780e-01 +/- 0.0000e+00 0.0000e+00 0.0000e+00 [bar]
-7.5560e-01  2.6090e+01  4.5997e-01 +/- 0.0000e+00 0.0000e+00 0.0000e+00 [bar]
-3.8780e-01  4.5997e-01  2.9249e+01 +/- 0.0000e+00 0.0000e+00 0.0000e+00 [bar]
Ideal-gas pressure:   3.885521e+01 +/ 0.000000e+00 [bar]
Excess pressure:     -1.107835e+01 +/ 0.000000e+00 [bar]
Pressure:             2.777687e+01 +/ 0.000000e+00 [bar]

Total potential energy/kʙ  -6.479609e+03 (-5.787779e+03 +/- 0.000000e+00) [K]
-------------------------------------------------------------------------------
ExternalField-molecule
    Van der Waals/kʙ        0.000000e+00 ( 0.000000e+00 +/- 0.000000e+00) [K]
Framework-molecule
    Van der Waals/kʙ        0.000000e+00 ( 0.000000e+00 +/- 0.000000e+00) [K]
    Van der Waals (Tail)/kʙ 0.000000e+00 ( 0.000000e+00 +/- 0.000000e+00) [K]
    Coulombic Real/kʙ       0.000000e+00 ( 0.000000e+00 +/- 0.000000e+00) [K]
    Coulombic Fourier/kʙ    0.000000e+00 ( 0.000000e+00 +/- 0.000000e+00) [K]
Molecule-molecule
    Van der Waals/kʙ       -5.836932e+03 (-4.336374e+03 +/- 0.000000e+00) [K]
    Van der Waals (Tail)/kʙ-9.773695e+01 (-7.773968e+01 +/- 0.000000e+00) [K]
    Coulombic Real/kʙ      -4.455234e+02 (-1.259770e+03 +/- 0.000000e+00) [K]
    Coulombic Fourier/kʙ   -9.941653e+01 (-1.138950e+02 +/- 0.000000e+00) [K]
    Molecule Intra/kʙ       0.000000e+00 ( 0.000000e+00 +/- 0.000000e+00) [K]

Current cycle: 1200 out of 6000
===============================================================================

Box:      33.87430   0.00000   0.00000  Average:  33.60394   0.00000   0.00000
           0.00000  33.87430   0.00000             0.00000  33.60394   0.00000
           0.00000   0.00000  33.87430             0.00000   0.00000  33.60394
Lengths:  33.87430  33.87430  33.87430  Average:  33.60394  33.60394  33.60394
Angles:   90.00000  90.00000  90.00000  Average:  90.00000  90.00000  90.00000
Rectangular boundary conditions

net charge:   0.00000000

component 0 (CO2) lambda:  0 occupancy:  1 (1.000000)
    net charge:   0.00000000 [e]

Amount of molecules per component :
-------------------------------------------------------------------------------
Component 0 (CO2)
    molecules:      4.000000e+01 molecules  (3.990341e+01 +/- 0.000000e+00)
    number density: 1.029080e-03 molec./A^3 (1.050546e-03 +/- 0.000000e+00)
    density:        7.518632e+01 kg/m^3     (7.675468e+01 +/- 0.000000e+00)

Average pressure tensor: 
-------------------------------------------------------------------------------
 2.8796e+01 -4.2059e-01 -1.0726e-01 +/- 0.0000e+00 0.0000e+00 0.0000e+00 [bar]
-4.2059e-01  2.6293e+01  5.7406e-01 +/- 0.0000e+00 0.0000e+00 0.0000e+00 [bar]
-1.0726e-01  5.7406e-01  2.9020e+01 +/- 0.0000e+00 0.0000e+00 0.0000e+00 [bar]
Ideal-gas pressure:   3.916179e+01 +/ 0.000000e+00 [bar]
Excess pressure:     -1.112547e+01 +/ 0.000000e+00 [bar]
Pressure:             2.803631e+01 +/ 0.000000e+00 [bar]

Total potential energy/kʙ  -6.875434e+03 (-5.803877e+03 +/- 0.000000e+00) [K]
-------------------------------------------------------------------------------
ExternalField-molecule
    Van der Waals/kʙ        0.000000e+00 ( 0.000000e+00 +/- 0.000000e+00) [K]
Framework-molecule
    Van der Waals/kʙ        0.000000e+00 ( 0.000000e+00 +/- 0.000000e+00) [K]
    Van der Waals (Tail)/kʙ 0.000000e+00 ( 0.000000e+00 +/- 0.000000e+00) [K]
    Coulombic Real/kʙ       0.000000e+00 ( 0.000000e+00 +/- 0.000000e+00) [K]
    Coulombic Fourier/kʙ    0.000000e+00 ( 0.000000e+00 +/- 0.000000e+00) [K]
Molecule-molecule
    Van der Waals/kʙ       -4.485479e+03 (-4.358453e+03 +/- 0.000000e+00) [K]
    Van der Waals (Tail)/kʙ-7.644432e+01 (-7.896675e+01 +/- 0.000000e+00) [K]
    Coulombic Real/kʙ      -2.314989e+03 (-1.255288e+03 +/- 0.000000e+00) [K]
    Coulombic Fourier/kʙ    1.477840e+00 (-1.111684e+02 +/- 0.000000e+00) [K]
    Molecule Intra/kʙ       0.000000e+00 ( 0.000000e+00 +/- 0.000000e+00) [K]

Current cycle: 1300 out of 6000
===============================================================================

Box:      33.78038   0.00000   0.00000  Average:  33.62119   0.00000   0.00000
           0.00000  33.78038   0.00000             0.00000  33.62119   0.00000
           0.00000   0.00000  33.78038             0.00000   0.00000  33.62119
Lengths:  33.78038  33.78038  33.78038  Average:  33.62119  33.62119  33.62119
Angles:   90.00000  90.00000  90.00000  Average:  90.00000  90.00000  90.00000
Rectangular boundary conditions

net charge:   0.00000000

component 0 (CO2) lambda:  0 occupancy:  1 (1.000000)
    net charge:   0.00000000 [e]

Amount of molecules per component :
-------------------------------------------------------------------------------
Component 0 (CO2)
    molecules:      4.000000e+01 molecules  (4.004996e+01 +/- 0.000000e+00)
    number density: 1.037687e-03 molec./A^3 (1.052804e-03 +/- 0.000000e+00)
    density:        7.581520e+01 kg/m^3     (7.691966e+01 +/- 0.000000e+00)

Average pressure tensor: 
-------------------------------------------------------------------------------
 2.8858e+01 -3.4727e-01 -1.4266e-01 +/- 0.0000e+00 0.0000e+00 0.0000e+00 [bar]
-3.4727e-01  2.7235e+01 -4.7176e-01 +/- 0.0000e+00 0.0000e+00 0.0000e+00 [bar]
-1.4266e-01 -4.7176e-01  2.9389e+01 +/- 0.0000e+00 0.0000e+00 0.0000e+00 [bar]
Ideal-gas pressure:   3.924596e+01 +/ 0.000000e+00 [bar]
Excess pressure:     -1.075187e+01 +/ 0.000000e+00 [bar]
Pressure:             2.849410e+01 +/ 0.000000e+00 [bar]

Total potential energy/kʙ  -5.575992e+03 (-5.811344e+03 +/- 0.000000e+00) [K]
-------------------------------------------------------------------------------
ExternalField-molecule
    Van der Waals/kʙ        0.000000e+00 ( 0.000000e+00 +/- 0.000000e+00) [K]
Framework-molecule
    Van der Waals/kʙ        0.000000e+00 ( 0.000000e+00 +/- 0.000000e+00) [K]
    Van der Waals (Tail)/kʙ 0.000000e+00 ( 0.000000e+00 +/- 0.000000e+00) [K]
    Coulombic Real/kʙ       0.000000e+00 ( 0.000000e+00 +/- 0.000000e+00) [K]
    Coulombic Fourier/kʙ    0.000000e+00 ( 0.000000e+00 +/- 0.000000e+00) [K]
Molecule-molecule
    Van der Waals/kʙ       -3.740167e+03 (-4.366927e+03 +/- 0.000000e+00) [K]
    Van der Waals (Tail)/kʙ-7.708372e+01 (-7.942370e+01 +/- 0.000000e+00) [K]
    Coulombic Real/kʙ      -1.490888e+03 (-1.249392e+03 +/- 0.000000e+00) [K]
    Coulombic Fourier/kʙ   -2.678536e+02 (-1.156017e+02 +/- 0.000000e+00) [K]
    Molecule Intra/kʙ       0.000000e+00 ( 0.000000e+00 +/- 0.000000e+00) [K]

Current cycle: 1400 out of 6000
===============================================================================

Box:      33.50598   0.00000   0.00000  Average:  33.62688   0.00000   0.00000
           0.00000  33.50598   0.00000             0.00000  33.62688   0.00000
           0.00000   0.00000  33.50598             0.00000   0.00000  33.62688
Lengths:  33.50598  33.50598  33.50598  Average:  33.62688  33.62688  33.62688
Angles:   90.00000  90.00000  90.00000  Average:  90.00000  90.00000  90.00000
Rectangular boundary conditions

net charge:   0.00000000

component 0 (CO2) lambda:  0 occupancy:  1 (1.000000)
    net charge:   0.00000000 [e]

Amount of molecules per component :
-------------------------------------------------------------------------------
Component 0 (CO2)
    molecules:      3.500000e+01 molecules  (4.031335e+01 +/- 0.000000e+00)
    number density: 9.304674e-04 molec./A^3 (1.059196e-03 +/- 0.000000e+00)
    density:        6.798154e+01 kg/m^3     (7.738670e+01 +/- 0.000000e+00)

Average pressure tensor: 
-------------------------------------------------------------------------------
 2.8917e+01  1.1541e-02 -3.5202e-01 +/- 0.0000e+00 0.0000e+00 0.0000e+00 [bar]
 1.1541e-02  2.7694e+01 -7.6830e-01 +/- 0.0000e+00 0.0000e+00 0.0000e+00 [bar]
-3.5202e-01 -7.6830e-01  2.9926e+01 +/- 0.0000e+00 0.0000e+00 0.0000e+00 [bar]
Ideal-gas pressure:   3.948426e+01 +/ 0.000000e+00 [bar]
Excess pressure:     -1.063880e+01 +/ 0.000000e+00 [bar]
Pressure:             2.884545e+01 +/ 0.000000e+00 [bar]

Total potential energy/kʙ  -5.454574e+03 (-5.917273e+03 +/- 0.000000e+00) [K]
-------------------------------------------------------------------------------
ExternalField-molecule
    Van der Waals/kʙ        0.000000e+00 ( 0.000000e+00 +/- 0.000000e+00) [K]
Framework-molecule
    Van der Waals/kʙ        0.000000e+00 ( 0.000000e+00 +/- 0.000000e+00) [K]
    Van der Waals (Tail)/kʙ 0.000000e+00 ( 0.000000e+00 +/- 0.000000e+00) [K]
    Coulombic Real/kʙ       0.000000e+00 ( 0.000000e+00 +/- 0.000000e+00) [K]
    Coulombic Fourier/kʙ    0.000000e+00 ( 0.000000e+00 +/- 0.000000e+00) [K]
Molecule-molecule
    Van der Waals/kʙ       -4.118104e+03 (-4.441038e+03 +/- 0.000000e+00) [K]
    Van der Waals (Tail)/kʙ-6.047912e+01 (-8.008331e+01 +/- 0.000000e+00) [K]
    Coulombic Real/kʙ      -1.080636e+03 (-1.276277e+03 +/- 0.000000e+00) [K]
    Coulombic Fourier/kʙ   -1.953551e+02 (-1.198753e+02 +/- 0.000000e+00) [K]
    Molecule Intra/kʙ       0.000000e+00 ( 0.000000e+00 +/- 0.000000e+00) [K]

Current cycle: 1500 out of 6000
===============================================================================

Box:      33.50256   0.00000   0.00000  Average:  33.61614   0.00000   0.00000
           0.00000  33.50256   0.00000             0.00000  33.61614   0.00000
           0.00000   0.00000  33.50256             0.00000   0.00000  33.61614
[...]
    number density: 1.065634e-03 molec./A^3 (1.093430e-03 +/- 1.512707e-04)
    density:        7.785705e+01 kg/m^3     (7.988784e+01 +/- 1.105210e+01)

Average pressure tensor: 
-------------------------------------------------------------------------------
 3.0496e+01 -4.6319e-01  1.2326e-01 +/- 4.9860e+00 7.7741e-01 1.1320e+00 [bar]
-4.6319e-01  2.9170e+01 -1.2446e-01 +/- 7.7741e-01 3.9652e+00 1.2288e+00 [bar]
 1.2326e-01 -1.2446e-01  3.0571e+01 +/- 1.1320e+00 1.2288e+00 3.1041e+00 [bar]
Ideal-gas pressure:   4.076039e+01 +/ 5.639004e+00 [bar]
Excess pressure:     -1.068136e+01 +/ 2.374525e+00 [bar]
Pressure:             3.007903e+01 +/ 3.876991e+00 [bar]

Total potential energy/kʙ  -5.094602e+03 (-6.569276e+03 +/- 2.110817e+03) [K]
-------------------------------------------------------------------------------
ExternalField-molecule
    Van der Waals/kʙ        0.000000e+00 ( 0.000000e+00 +/- 0.000000e+00) [K]
Framework-molecule
    Van der Waals/kʙ        0.000000e+00 ( 0.000000e+00 +/- 0.000000e+00) [K]
    Van der Waals (Tail)/kʙ 0.000000e+00 ( 0.000000e+00 +/- 0.000000e+00) [K]
    Coulombic Real/kʙ       0.000000e+00 ( 0.000000e+00 +/- 0.000000e+00) [K]
    Coulombic Fourier/kʙ    0.000000e+00 ( 0.000000e+00 +/- 0.000000e+00) [K]
Molecule-molecule
    Van der Waals/kʙ       -3.742615e+03 (-4.881630e+03 +/- 1.551293e+03) [K]
    Van der Waals (Tail)/kʙ-8.113872e+01 (-8.857791e+01 +/- 2.914208e+01) [K]
    Coulombic Real/kʙ      -1.143586e+03 (-1.466196e+03 +/- 5.054025e+02) [K]
    Coulombic Fourier/kʙ   -1.272631e+02 (-1.328716e+02 +/- 3.075162e+01) [K]
    Molecule Intra/kʙ       0.000000e+00 ( 0.000000e+00 +/- 0.000000e+00) [K]

Current cycle: 5800 out of 6000
===============================================================================

Box:      33.51918   0.00000   0.00000  Average:  33.63741   0.00000   0.00000
           0.00000  33.51918   0.00000             0.00000  33.63741   0.00000
           0.00000   0.00000  33.51918             0.00000   0.00000  33.63741
Lengths:  33.51918  33.51918  33.51918  Average:  33.63741  33.63741  33.63741
Angles:   90.00000  90.00000  90.00000  Average:  90.00000  90.00000  90.00000
Rectangular boundary conditions

net charge:   0.00000000

component 0 (CO2) lambda:  0 occupancy:  1 (1.000000)
    net charge:   0.00000000 [e]

Amount of molecules per component :
-------------------------------------------------------------------------------
Component 0 (CO2)
    molecules:      3.800000e+01 molecules  (4.169057e+01 +/- 6.203700e+00)
    number density: 1.009028e-03 molec./A^3 (1.091194e-03 +/- 1.364588e-04)
    density:        7.372133e+01 kg/m^3     (7.972451e+01 +/- 9.969912e+00)

Average pressure tensor: 
-------------------------------------------------------------------------------
 3.0281e+01 -4.2822e-01  1.3288e-01 +/- 4.2614e+00 6.5148e-01 1.1039e+00 [bar]
-4.2822e-01  2.9075e+01 -1.0529e-01 +/- 6.5148e-01 3.6113e+00 1.2216e+00 [bar]
 1.3288e-01 -1.0529e-01  3.0398e+01 +/- 1.1039e+00 1.2216e+00 2.8540e+00 [bar]
Ideal-gas pressure:   4.067705e+01 +/ 5.086850e+00 [bar]
Excess pressure:     -1.075906e+01 +/ 2.436957e+00 [bar]
Pressure:             2.991800e+01 +/ 3.408555e+00 [bar]

Total potential energy/kʙ  -6.218680e+03 (-6.538558e+03 +/- 1.891573e+03) [K]
-------------------------------------------------------------------------------
ExternalField-molecule
    Van der Waals/kʙ        0.000000e+00 ( 0.000000e+00 +/- 0.000000e+00) [K]
Framework-molecule
    Van der Waals/kʙ        0.000000e+00 ( 0.000000e+00 +/- 0.000000e+00) [K]
    Van der Waals (Tail)/kʙ 0.000000e+00 ( 0.000000e+00 +/- 0.000000e+00) [K]
    Coulombic Real/kʙ       0.000000e+00 ( 0.000000e+00 +/- 0.000000e+00) [K]
    Coulombic Fourier/kʙ    0.000000e+00 ( 0.000000e+00 +/- 0.000000e+00) [K]
Molecule-molecule
    Van der Waals/kʙ       -4.552557e+03 (-4.860234e+03 +/- 1.392919e+03) [K]
    Van der Waals (Tail)/kʙ-7.120708e+01 (-8.822598e+01 +/- 2.634489e+01) [K]
    Coulombic Real/kʙ      -1.451050e+03 (-1.456886e+03 +/- 4.483387e+02) [K]
    Coulombic Fourier/kʙ   -1.438656e+02 (-1.332111e+02 +/- 3.010022e+01) [K]
    Molecule Intra/kʙ       0.000000e+00 ( 0.000000e+00 +/- 0.000000e+00) [K]

Current cycle: 5900 out of 6000
===============================================================================

Box:      33.41610   0.00000   0.00000  Average:  33.63258   0.00000   0.00000
           0.00000  33.41610   0.00000             0.00000  33.63258   0.00000
           0.00000   0.00000  33.41610             0.00000   0.00000  33.63258
Lengths:  33.41610  33.41610  33.41610  Average:  33.63258  33.63258  33.63258
Angles:   90.00000  90.00000  90.00000  Average:  90.00000  90.00000  90.00000
Rectangular boundary conditions

net charge:   0.00000000

component 0 (CO2) lambda:  0 occupancy:  1 (1.000000)
    net charge:   0.00000000 [e]

Amount of molecules per component :
-------------------------------------------------------------------------------
Component 0 (CO2)
    molecules:      2.600000e+01 molecules  (4.145840e+01 +/- 5.374872e+00)
    number density: 6.967967e-04 molec./A^3 (1.085482e-03 +/- 1.174404e-04)
    density:        5.090916e+01 kg/m^3     (7.930716e+01 +/- 8.580400e+00)

Average pressure tensor: 
-------------------------------------------------------------------------------
 3.0184e+01 -3.3967e-01  8.7855e-02 +/- 3.9565e+00 4.9144e-01 9.7856e-01 [bar]
-3.3967e-01  2.8985e+01 -6.8662e-02 +/- 4.9144e-01 3.3652e+00 1.2196e+00 [bar]
 8.7855e-02 -6.8662e-02  3.0334e+01 +/- 9.7856e-01 1.2196e+00 2.7984e+00 [bar]
Ideal-gas pressure:   4.046411e+01 +/ 4.377893e+00 [bar]
Excess pressure:     -1.062975e+01 +/ 1.976398e+00 [bar]
Pressure:             2.983437e+01 +/ 3.205119e+00 [bar]

Total potential energy/kʙ  -1.744212e+03 (-6.471914e+03 +/- 1.635309e+03) [K]
-------------------------------------------------------------------------------
ExternalField-molecule
    Van der Waals/kʙ        0.000000e+00 ( 0.000000e+00 +/- 0.000000e+00) [K]
Framework-molecule
    Van der Waals/kʙ        0.000000e+00 ( 0.000000e+00 +/- 0.000000e+00) [K]
    Van der Waals (Tail)/kʙ 0.000000e+00 ( 0.000000e+00 +/- 0.000000e+00) [K]
    Coulombic Real/kʙ       0.000000e+00 ( 0.000000e+00 +/- 0.000000e+00) [K]
    Coulombic Fourier/kʙ    0.000000e+00 ( 0.000000e+00 +/- 0.000000e+00) [K]
Molecule-molecule
    Van der Waals/kʙ       -1.411877e+03 (-4.810577e+03 +/- 1.202042e+03) [K]
    Van der Waals (Tail)/kʙ-3.364462e+01 (-8.733910e+01 +/- 2.290212e+01) [K]
    Coulombic Real/kʙ      -2.004547e+02 (-1.441873e+03 +/- 3.906484e+02) [K]
    Coulombic Fourier/kʙ   -9.823539e+01 (-1.321242e+02 +/- 2.673356e+01) [K]
    Molecule Intra/kʙ       0.000000e+00 ( 0.000000e+00 +/- 0.000000e+00) [K]


Energy statistics             |  Energy [K]   | Recomputed [K]|  Drift [K]    |
===============================================================================
Total potential energy/kʙ     | -4.614523e+03 | -4.598719e+03 | -1.580387e+01 |
    external field VDW/kʙ     |  0.000000e+00 |  0.000000e+00 |  0.000000e+00 |
    external field Real/kʙ    |  0.000000e+00 |  0.000000e+00 |  0.000000e+00 |
    framework-molecule VDW/kʙ |  0.000000e+00 |  0.000000e+00 |  0.000000e+00 |
    framework-molecule Real/kʙ|  0.000000e+00 |  0.000000e+00 |  0.000000e+00 |
    molecule-molecule VDW/kʙ  | -3.414124e+03 | -3.398002e+03 | -1.612188e+01 |
    molecule-molecule Real/kʙ | -9.829285e+02 | -9.832465e+02 |  3.180029e-01 |
    Van der Waals (Tail)/kʙ   | -8.204158e+01 | -8.204158e+01 |  1.538257e-13 |
    Ewald Fourier/kʙ          |  2.216797e+03 |  2.216797e+03 | -3.555082e-12 |
    Ewald self/kʙ             | -7.346713e+05 | -7.346713e+05 |  1.400155e-10 |
    Ewald exclusion/kʙ        |  7.323191e+05 |  7.323191e+05 |  7.000777e-10 |
    intra VDW/kʙ              |  0.000000e+00 |  0.000000e+00 |  0.000000e+00 |
    intra Coulombic/kʙ        |  0.000000e+00 |  0.000000e+00 |  0.000000e+00 |
    polarization/kʙ           |  0.000000e+00 |  0.000000e+00 |  0.000000e+00 |
    dU/dlambda VDW/kʙ         |  0.000000e+00 |  0.000000e+00 |  0.000000e+00 |
    dU/dlambda Real/kʙ        |  0.000000e+00 |  0.000000e+00 |  0.000000e+00 |
    dU/dlambda Ewald/kʙ       |  0.000000e+00 |  0.000000e+00 |  0.000000e+00 |
-------------------------------------------------------------------------------


Monte-Carlo moves statistics
===============================================================================

    Gibbs volume         all:                2993
    Gibbs volume         total:              6031
    Gibbs volume         constructed:        6031
    Gibbs volume         accepted:           2716
    Gibbs volume         fraction:       0.450340
    Gibbs volume         max-change:     0.059946

Component 0 [CO2]
    Reinsertion (CBMC)   all:              149049
    Reinsertion (CBMC)   total:            149049
    Reinsertion (CBMC)   constructed:      149049
    Reinsertion (CBMC)   accepted:          95963
    Reinsertion (CBMC)   fraction:       0.643835
    Reinsertion (CBMC)   max-change:     0.000000

    Gibbs swap (CBMC)    all:              298727
    Gibbs swap (CBMC)    total:            596820
    Gibbs swap (CBMC)    constructed:      584102
    Gibbs swap (CBMC)    accepted:          77284
    Gibbs swap (CBMC)    fraction:       0.129493
    Gibbs swap (CBMC)    max-change:     0.000000

    Translation          all:              149674
    Translation          total:             49952      49715      50007
    Translation          constructed:       49862      49607      49904
    Translation          accepted:          40839      40713      40714
    Translation          fraction:       0.817565   0.818928   0.814166
    Translation          max-change:     1.500000   1.500000   1.500000

    Rotation             all:              150163
    Rotation             total:             50060      50161      49942
    Rotation             constructed:       50033      50141      49927
    Rotation             accepted:          40621      40652      40628
    Rotation             fraction:       0.811446   0.810430   0.813504
    Rotation             max-change:     1.500000   1.500000   1.500000



Production run counting of the MC moves summed over systems and components
===============================================================================

Reinsertion (CBMC)                   298495 (19.8997 [%])
Gibbs volume                           6031 (0.4021 [%])
Gibbs swap (CBMC)                    596820 (39.7880 [%])
Translation                          298956 (19.9304 [%])
Rotation                             299698 (19.9799 [%])

Production count MC-steps:          1500000 [-]
               All summed:          1500000 [-]
               difference:                0 [-]


Production run CPU timings of the MC moves
===============================================================================

Component 0 CO2

Rotation                              4.858237 [s]
    Ewald                             3.414026 [s]
    ExternalField-Molecule            0.004876 [s]
    Framework-Molecule                0.005456 [s]
    Molecule-Molecule                 1.091570 [s]
    Overhead                          0.342309 [s]

Reinsertion (CBMC)                   14.951615 [s]
    Ewald                             3.434344 [s]
    NonEwald                         11.261994 [s]
    Overhead                          0.255277 [s]

Translation                           4.839358 [s]
    Ewald                             3.395782 [s]
    ExternalField-Molecule            0.005145 [s]
    Framework-Molecule                0.008123 [s]
    Molecule-Molecule                 1.096094 [s]
    Overhead                          0.334214 [s]



Gibbs swap (CBMC)                   119.466230 [s]
    Ewald                            13.301758 [s]
    NonEwald                        104.706794 [s]
    Tail                              0.971723 [s]

Gibbs volume                         13.965085 [s]
    Ewald                             4.309693 [s]
    NonEwald                          9.159029 [s]
    Tail                              0.413264 [s]

Property sampling                     0.243382 [s]
Energy/pressure sampling:             0.547333 [s]


Production run CPU timings of the MC moves summed over systems and components
===============================================================================


Translation                          18.066263 [s]
    Ewald                             8.199836 [s]
    ExternalField-Molecule            0.010188 [s]
    Framework-Molecule                0.016263 [s]
    Molecule-Molecule                 9.180278 [s]
    Overhead                          0.659698 [s]

Rotation                             18.067451 [s]
    Ewald                             8.226761 [s]
    ExternalField-Molecule            0.009792 [s]
    Framework-Molecule                0.010952 [s]
    Molecule-Molecule                 9.168247 [s]
    Overhead                          0.651699 [s]

Reinsertion (CBMC)                   80.223127 [s]
    Ewald                             8.141792 [s]
    NonEwald                         71.726934 [s]
    Overhead                          0.354401 [s]

Gibbs volume                         28.113344 [s]
    Ewald                             8.665445 [s]
    NonEwald                         18.450150 [s]
    Tail                              0.829379 [s]
    Overhead                          0.168370 [s]

Gibbs swap (CBMC)                   214.016196 [s]
    Ewald                            25.985186 [s]
    NonEwald                        185.322728 [s]
    Tail                              1.766548 [s]
    Overhead                          0.941734 [s]

Property sampling:                    0.479378 [s]
Energy/pressure sampling:             6.539128 [s]

Production simulation time:         366.260486 [s]
                All summed:         365.504887 [s]
                  Overhead:           0.755599 [s]


Initalization simulation time:      115.567551 [s]
Equilibration simulation time:        0.000000 [s]
Production simulation time:         366.260486 [s]
Total simulation time:              481.828037 [s]


Energy averages and statistics:
===============================================================================

Framework-molecule energy:
-------------------------------------------------------------------------------



Framework-molecule energy contributions per energy type:
-------------------------------------------------------------------------------



Inter-molecular energy:
-------------------------------------------------------------------------------

    Inter-molecular energy/kʙ 0-0 [CO2-CO2]:
    ---------------------------------------------------------------------------
        Block[  0] -5.794947e+03
        Block[  1] -7.051534e+03
        Block[  2] -4.822164e+03
        Block[  3] -6.507558e+03
        Block[  4] -8.013606e+03
        -----------------------------------------------------------------------
        Average  -6.437962e+03 +/-  1.506250e+03 [K]



Inter-molecular energy contributions per energy type:
-------------------------------------------------------------------------------

    Van der Waals energy/kʙ 0-0 [CO2-CO2]:
    ---------------------------------------------------------------------------
        Block[  0] -4.357395e+03
        Block[  1] -5.172909e+03
        Block[  2] -3.566984e+03
        Block[  3] -4.882957e+03
        Block[  4] -5.947113e+03
        -----------------------------------------------------------------------
        Average  -4.785472e+03 +/-  1.106400e+03 [K]

    VDW Tail-Correction energy/kʙ 0-0 [CO2-CO2]:
    ---------------------------------------------------------------------------
        Block[  0] -7.898777e+01
        Block[  1] -9.340012e+01
        Block[  2] -6.317935e+01
        Block[  3] -8.994856e+01
        Block[  4] -1.089999e+02
        -----------------------------------------------------------------------
        Average  -8.690313e+01 +/-  2.118893e+01 [K]

    Coulomb Real energy/kʙ 0-0 [CO2-CO2]:
    ---------------------------------------------------------------------------
        Block[  0] -1.246457e+03
        Block[  1] -1.632992e+03
        Block[  2] -1.080218e+03
        Block[  3] -1.405450e+03
        Block[  4] -1.804108e+03
        -----------------------------------------------------------------------
        Average  -1.433845e+03 +/-  3.607342e+02 [K]

    Coulomb Fourier energy/kʙ 0-0 [CO2-CO2]:
    ---------------------------------------------------------------------------
        Block[  0] -1.121071e+02
        Block[  1] -1.522323e+02
        Block[  2] -1.117830e+02
        Block[  3] -1.292029e+02
        Block[  4] -1.533849e+02
        -----------------------------------------------------------------------
        Average  -1.317420e+02 +/-  2.543190e+01 [K]


Total energy/kʙ
-------------------------------------------------------------------------------
    Block[  0] -5.794947e+03
    Block[  1] -7.051534e+03
    Block[  2] -4.822164e+03
    Block[  3] -6.507558e+03
    Block[  4] -8.013606e+03
    ---------------------------------------------------------------------------
    Average  -6.437962e+03 +/-  1.506250e+03 [K]

Pressure averages and statistics:
===============================================================================

Average pressure tensor: 
-------------------------------------------------------------------------------
 3.0159e+01 -3.6253e-01  9.8230e-02 +/- 3.8332e+00 5.1077e-01 9.7248e-01 [bar]
-3.6253e-01  2.9033e+01 -8.0761e-02 +/- 5.1077e-01 3.3730e+00 1.2190e+00 [bar]
 9.8230e-02 -8.0761e-02  3.0215e+01 +/- 9.7248e-01 1.2190e+00 2.7562e+00 [bar]

    Block[  0]  3.916245e+06
    Block[  1]  4.209090e+06
    Block[  2]  3.548982e+06
    Block[  3]  4.096901e+06
    Block[  4]  4.408013e+06
    ---------------------------------------------------------------------------
    Ideal gas pressure   4.035846e+06 +/-  2.432922e-02 [Pa]
                         4.035846e+01 +/-  4.039964e+00 [bar]


    Block[  0] -1.114737e+06
    Block[  1] -9.435665e+05
    Block[  2] -8.893861e+05
    Block[  3] -1.092070e+06
    Block[  4] -1.238383e+06
    ---------------------------------------------------------------------------
    Excess pressure  -1.055629e+06 +/-  1.738222e+05 [Pa]
                     -1.055629e+01 +/-  1.738222e+00 [bar]


    Block[  0]  2.801508e+06
    Block[  1]  3.265523e+06
    Block[  2]  2.659596e+06
    Block[  3]  3.004831e+06
    Block[  4]  3.169630e+06
    ---------------------------------------------------------------------------
    Pressure average   2.980218e+06 +/-  3.119869e+05 [Pa]
                       2.980218e+01 +/-  3.119869e+00 [bar]


Enthalpy of adsorption
===============================================================================

Component 0 [CO2]
-------------------------------------------------------------------------------
    Block[  0] -5.276707e+02
    Block[  1] -6.030118e+02
    Block[  2] -5.169055e+02
    Block[  3] -5.572201e+02
    Block[  4] -5.588819e+02
    ---------------------------------------------------------------------------
    Enthalpy of adsorption: -5.527380e+02 +/-  4.162901e+01 [K]
                            -4.595721e+00 +/-  3.461229e-01 [kJ/mol]
    Warning: need to subtract the ideal-gas energy.


Densities
===============================================================================

Component 0 (CO2)
    Block[  0] 39.903333333333336
    Block[  1] 43.43833333333333
    Block[  2] 35.49666666666667
    Block[  3] 41.722500000000004
    Block[  4] 46.115833333333335
    -----------------------------------------------------------------------
    Density average   4.133533e+01 +/-  4.949007e+00 [molecules]
    Density average   1.082648e-03 +/-  1.083752e-04 [molec/A^3]
    Density average   7.910009e+01 +/-  7.918080e+00 [kg.m⁻³]

