Compiler and run-time data
===============================================================================
RASPA 3.0.4

Random seed: 741881435

Compiled as a 64-bits application
Compiler: gcc Ubuntu Clang 18.1.3 (1ubuntu1)
Compile Date = Mar 15 2025, Compile Time = 19:39:45

2025-06-03 10:59:44.558353
Simulation started on Tue, Jun 03
The start time was 10:59:00

Hostname:    c109
OS type:     Linux on x86_64
OS release:  6.8.0-58-generic
OS version:  #60-Ubuntu SMP PREEMPT_DYNAMIC Fri Mar 14 18:29:48 UTC 2025


Mutual consistent basic set of units:
===============================================================================

Unit of temperature: 1 [K]
Unit of length:      1e-10 [m]
Unit of time:        1e-12 [s]
Unit of mass:        1.6605402e-27 [kg]
Unit of charge:      1.60217733e-19 [C/particle]


Boltzmann constant (internal units):          0.8314464919307584 [-]
represents conversion from energy (internal units) to temperature (in Kelvin)

Derived units and their conversion factors:
===============================================================================

Unit of energy:                           1.6605402000000002e-23 [J]
Unit of energy:                           10.000008872307538 [J.mol⁻¹]
Unit of velocity:                         100 [m.s⁻¹]
Unit of force:                            1.6605402000000002e-13 [N]
Unit of diffusion:                        1.0000000000000002e-08 [m².s⁻¹]
Unit of acceleration:                     1.0000000000000002e-08 [m².s⁻¹]
Unit of torque:                           1.6605402000000002e-23 [N.m]
Unit of pressure:                         16605402 [Pa]
Unit of volume:                           1e-30 [m³]
Unit of density:                          1660.5402 [kg.m⁻³]
Unit of dynamic viscosity:                1.6605401999999997e-05 [N.s.m⁻²]
Unit of enthalpy:                         1.6605402000000002e-23 [J]
Unit of polarizability:                   1.5458657349975198e-35 [-]
Unit of Coulomb potential:                167101.08000665612 [K]
Unit of dielectric constant:              1.5458657349975193e-05 [s².C².kg⁻¹.m⁻³]
Unit of dipole moment:                    1.60217733e-29 [C.m]
Unit of Debye:                            4.803206799099162 [C.m]
Unit of electric potential:               0.00010364272224473431 [V]
Unit of electric field:                   1036427.222447343 [V.m⁻¹]
Unit of isothermal compressibility:       6.02213665167516e-08 [Pa⁻¹]
Unit of heat capacity:                    10.000008872307538 [J.mol⁻¹.K⁻¹]
Unit of volumetric expansion coefficient: 1 [K⁻¹]


Internal conversion factors:
===============================================================================

Energy (internal units) to Kelvin:      1.202724284692786 [-]
Kelvin to energy (internal units):      0.8314457542157567 [-]


System definitions
===============================================================================

Temperature:          280 [K]
Beta:                 0.004295440062697377 [-]
Pressure:             0 [Pa]
Helium void fraction: 1 [-]

Box:      30.00000   0.00000   0.00000
           0.00000  30.00000   0.00000
           0.00000   0.00000  30.00000
Lengths:  30.00000  30.00000  30.00000
Angles:   90.00000  90.00000  90.00000
Rectangular boundary conditions



Property measurement settings
===============================================================================




Pseudo-atoms
===============================================================================

  0 - C_co2    framework-atom: false
  1 - O_co2    framework-atom: false

  0 - C_co2    mass: 12.00000, charge:  0.70000
  1 - O_co2    mass: 15.99940, charge: -0.35000

  0 - C_co2    polarizability:  0.00000
  1 - O_co2    polarizability:  0.00000

  0 - J. J. Potoff et al., AIChE J. 2001, 47, 1676–1682.
  1 - J. J. Potoff et al., AIChE J. 2001, 47, 1676–1682.

Force field status
===============================================================================

Cutoff Framework-Molecule VDW:  12.00000 [Å]
Cutoff Molecule-Molecule VDW:   12.00000 [Å]
Cutoff Coulomb:                 12.00000 [Å]

Overlap-criteria VDW:           1.000000e+05 [K]

C_co2    - C_co2    Lennard-Jones p₀/kʙ:  27.00000 [K], p₁:  2.80000 [Å]
                                  shift:   0.00000 [K], tailcorrections: true
C_co2    - O_co2    Lennard-Jones p₀/kʙ:  46.18441 [K], p₁:  2.92500 [Å]
                                  shift:   0.00000 [K], tailcorrections: true
O_co2    - O_co2    Lennard-Jones p₀/kʙ:  79.00000 [K], p₁:  3.05000 [Å]
                                  shift:   0.00000 [K], tailcorrections: true

Ewald precision: 1e-06
Ewald alpha: 0.26505830360350674
Ewald k-vectors: 8 8 8


Component definitions
===============================================================================

Component 0 [CO2]

    Type: Adsorbate

    Critical temperature:  304.1282 [K]
    Critical pressure:     7377300 [Pa]
    Acentric factor:       0.22394 [-]

    Mol-fraction:                 1 [-]
    Swappable:                   true

    Mass:                         43.9988 [-]
    Fugacity coefficient:         -nan [-]
    Bulk fluid density:           0 [-]
    Compressibility:              1 [-]
    Excess molecules:             0 [-]

    Number Of Atoms:    3
    CBMC starting bead: 0
      0: O_co2  position  0.00000 -0.00000  1.16000, charge -0.35000
      1: C_co2  position  0.00000 -0.00000  0.00000, charge  0.70000
      2: O_co2  position  0.00000 -0.00000 -1.16000, charge -0.35000
    Diagonalized inertia-vector:      43.05758528 43.05758528 0.00000000
    Translational degrees of freedom: 3
    Rotational degrees of freedom:    2
    Shape of the molecule is: 'Linear'
    Net-charge:        0.00000000 [e]

    Move probabilities:
    Translation:                   0.199203 [-]
    Random translation:            0.000000 [-]
    Rotation:                      0.199203 [-]
    Random rotation:               0.000000 [-]
    Volume change:                 0.000000 [-]
    Reinsertion (CBMC):            0.199203 [-]
    Identity change (CBMC):        0.000000 [-]
    Swap:                          0.000000 [-]
    Swap (CBMC):                   0.000000 [-]
    Swap (CFCMC):                  0.000000 [-]
    Swap (CB/CFCMC):               0.000000 [-]
    Gibbs volume:                  0.003984 [-]
    Gibbs swap (CBMC):             0.398406 [-]
    Gibbs swap (CFCMC):            0.000000 [-]
    Widom:                         0.000000 [-]
    Widom (CFCMC):                 0.000000 [-]
    Widom (CB/CFCMC):              0.000000 [-]
    Parallel tempering:            0.000000 [-]
    Hybrid MC:                     0.000000 [-]

    number of blocking-pockets: 0

    number of bonds: 0





Number of pseudo-atoms
===============================================================================

Component   0 (CO2)
-------------------------------------------------------------------------------
    index   0 (C_co2): 210 atoms
    index   1 (O_co2): 420 atoms

Total number of pseudo-atoms:
-------------------------------------------------------------------------------
    index   0 (C_co2): 210 atoms
    index   1 (O_co2): 420 atoms




Energy status Recomputed from scratch
===============================================================================

Total potential energy/kʙ       -9.529407e+04 [K]
    external field VDW/kʙ        0.000000e+00 [K]
    external field Real/kʙ       0.000000e+00 [K]
    framework-molecule VDW/kʙ    0.000000e+00 [K]
    framework-molecule Real/kʙ   0.000000e+00 [K]
    molecule-molecule VDW/kʙ    -6.890535e+04 [K]
    molecule-molecule Real/kʙ   -2.152032e+04 [K]
    Van der Waals (Tail)/kʙ     -3.033270e+03 [K]
    Ewald Fourier/kʙ             1.051405e+04 [K]
    Ewald self/kʙ               -3.857024e+06 [K]
    Ewald exclusion/kʙ           3.844675e+06 [K]
    intra VDW/kʙ                 0.000000e+00 [K]
    intra Coulombic/kʙ           0.000000e+00 [K]
    polarization/kʙ              0.000000e+00 [K]
    dU/dlambda VDW/kʙ            0.000000e+00 [K]
    dU/dlambda Real/kʙ           0.000000e+00 [K]
    dU/dlambda Ewald/kʙ          0.000000e+00 [K]





Initialization: Current cycle: 0 out of 2000
===============================================================================

Box:      30.00000   0.00000   0.00000
           0.00000  30.00000   0.00000
           0.00000   0.00000  30.00000
Lengths:  30.00000  30.00000  30.00000
Angles:   90.00000  90.00000  90.00000
Rectangular boundary conditions

net charge:   0.00000000

component   0 (CO2) lambda:  0 occupancy:  0 (0.000000)
    net charge:   0.00000000 [e]

Amount of molecules per component :
-------------------------------------------------------------------------------
Component 0 (CO2)
    molecules:         2.180000e+02 molecules
    number density:    8.074074e-03 molec/A^3
    density:           5.899057e+02 kg/m^3

Total potential energy/kʙ       -1.577298e+05 [K]
-------------------------------------------------------------------------------
    external field VDW/kʙ        0.000000e+00 [K]
    external field Real/kʙ       0.000000e+00 [K]
    framework-molecule VDW/kʙ    0.000000e+00 [K]
    framework-molecule Real/kʙ   0.000000e+00 [K]
    molecule-molecule VDW/kʙ    -1.225478e+05 [K]
    molecule-molecule Real/kʙ   -2.897884e+04 [K]
    Van der Waals (Tail)/kʙ     -3.268778e+03 [K]
    Ewald Fourier/kʙ             9.885195e+03 [K]
    Ewald self/kʙ               -4.003958e+06 [K]
    Ewald exclusion/kʙ           3.991139e+06 [K]
    intra VDW/kʙ                 0.000000e+00 [K]
    intra Coulombic/kʙ           0.000000e+00 [K]
    polarization/kʙ              0.000000e+00 [K]
    dU/dlambda VDW/kʙ            0.000000e+00 [K]
    dU/dlambda Real/kʙ           0.000000e+00 [K]
    dU/dlambda Ewald/kʙ          0.000000e+00 [K]


Initialization: Current cycle: 100 out of 2000
===============================================================================

Box:      29.54974   0.00000   0.00000
           0.00000  29.54974   0.00000
           0.00000   0.00000  29.54974
Lengths:  29.54974  29.54974  29.54974
Angles:   90.00000  90.00000  90.00000
Rectangular boundary conditions

net charge:   0.00000000

component   0 (CO2) lambda:  0 occupancy:  0 (0.000000)
    net charge:   0.00000000 [e]

Amount of molecules per component :
-------------------------------------------------------------------------------
Component 0 (CO2)
    molecules:         2.220000e+02 molecules
    number density:    8.603837e-03 molec/A^3
    density:           6.286110e+02 kg/m^3

Total potential energy/kʙ       -2.182260e+05 [K]
-------------------------------------------------------------------------------
    external field VDW/kʙ        0.000000e+00 [K]
    external field Real/kʙ       0.000000e+00 [K]
    framework-molecule VDW/kʙ    0.000000e+00 [K]
    framework-molecule Real/kʙ   0.000000e+00 [K]
    molecule-molecule VDW/kʙ    -1.614016e+05 [K]
    molecule-molecule Real/kʙ   -4.769146e+04 [K]
    Van der Waals (Tail)/kʙ     -3.547165e+03 [K]
    Ewald Fourier/kʙ             7.469052e+03 [K]
    Ewald self/kʙ               -4.077426e+06 [K]
    Ewald exclusion/kʙ           4.064371e+06 [K]
    intra VDW/kʙ                 0.000000e+00 [K]
    intra Coulombic/kʙ           0.000000e+00 [K]
    polarization/kʙ              0.000000e+00 [K]
    dU/dlambda VDW/kʙ            0.000000e+00 [K]
    dU/dlambda Real/kʙ           0.000000e+00 [K]
    dU/dlambda Ewald/kʙ          0.000000e+00 [K]


Initialization: Current cycle: 200 out of 2000
===============================================================================

Box:      29.27313   0.00000   0.00000
           0.00000  29.27313   0.00000
           0.00000   0.00000  29.27313
Lengths:  29.27313  29.27313  29.27313
Angles:   90.00000  90.00000  90.00000
Rectangular boundary conditions

net charge:   0.00000000

component   0 (CO2) lambda:  0 occupancy:  0 (0.000000)
    net charge:   0.00000000 [e]

Amount of molecules per component :
-------------------------------------------------------------------------------
Component 0 (CO2)
    molecules:         2.170000e+02 molecules
    number density:    8.650719e-03 molec/A^3
    density:           6.320363e+02 kg/m^3

Total potential energy/kʙ       -2.050143e+05 [K]
-------------------------------------------------------------------------------
    external field VDW/kʙ        0.000000e+00 [K]
    external field Real/kʙ       0.000000e+00 [K]
    framework-molecule VDW/kʙ    0.000000e+00 [K]
    framework-molecule Real/kʙ   0.000000e+00 [K]
    molecule-molecule VDW/kʙ    -1.527495e+05 [K]
    molecule-molecule Real/kʙ   -4.367715e+04 [K]
    Van der Waals (Tail)/kʙ     -3.486167e+03 [K]
    Ewald Fourier/kʙ             7.659342e+03 [K]
    Ewald self/kʙ               -3.985592e+06 [K]
    Ewald exclusion/kʙ           3.972831e+06 [K]
    intra VDW/kʙ                 0.000000e+00 [K]
    intra Coulombic/kʙ           0.000000e+00 [K]
    polarization/kʙ              0.000000e+00 [K]
    dU/dlambda VDW/kʙ            0.000000e+00 [K]
    dU/dlambda Real/kʙ           0.000000e+00 [K]
    dU/dlambda Ewald/kʙ          0.000000e+00 [K]


Initialization: Current cycle: 300 out of 2000
===============================================================================

Box:      27.56788   0.00000   0.00000
           0.00000  27.56788   0.00000
           0.00000   0.00000  27.56788
Lengths:  27.56788  27.56788  27.56788
Angles:   90.00000  90.00000  90.00000
Rectangular boundary conditions

net charge:   0.00000000

component   0 (CO2) lambda:  0 occupancy:  0 (0.000000)
    net charge:   0.00000000 [e]

Amount of molecules per component :
-------------------------------------------------------------------------------
Component 0 (CO2)
    molecules:         2.250000e+02 molecules
    number density:    1.073922e-02 molec/A^3
    density:           7.846254e+02 kg/m^3

Total potential energy/kʙ       -2.508479e+05 [K]
-------------------------------------------------------------------------------
    external field VDW/kʙ        0.000000e+00 [K]
    external field Real/kʙ       0.000000e+00 [K]
    framework-molecule VDW/kʙ    0.000000e+00 [K]
    framework-molecule Real/kʙ   0.000000e+00 [K]
    molecule-molecule VDW/kʙ    -1.865455e+05 [K]
    molecule-molecule Real/kʙ   -5.383683e+04 [K]
    Van der Waals (Tail)/kʙ     -4.487364e+03 [K]
    Ewald Fourier/kʙ             7.253035e+03 [K]
    Ewald self/kʙ               -4.132526e+06 [K]
    Ewald exclusion/kʙ           4.119295e+06 [K]
    intra VDW/kʙ                 0.000000e+00 [K]
    intra Coulombic/kʙ           0.000000e+00 [K]
    polarization/kʙ              0.000000e+00 [K]
    dU/dlambda VDW/kʙ            0.000000e+00 [K]
    dU/dlambda Real/kʙ           0.000000e+00 [K]
    dU/dlambda Ewald/kʙ          0.000000e+00 [K]


Initialization: Current cycle: 400 out of 2000
===============================================================================

Box:      26.75476   0.00000   0.00000
           0.00000  26.75476   0.00000
           0.00000   0.00000  26.75476
Lengths:  26.75476  26.75476  26.75476
Angles:   90.00000  90.00000  90.00000
Rectangular boundary conditions

net charge:   0.00000000

component   0 (CO2) lambda:  0 occupancy:  0 (0.000000)
    net charge:   0.00000000 [e]

Amount of molecules per component :
-------------------------------------------------------------------------------
Component 0 (CO2)
    molecules:         2.100000e+02 molecules
    number density:    1.096519e-02 molec/A^3
    density:           8.011358e+02 kg/m^3

Total potential energy/kʙ       -2.319007e+05 [K]
-------------------------------------------------------------------------------
    external field VDW/kʙ        0.000000e+00 [K]
    external field Real/kʙ       0.000000e+00 [K]
    framework-molecule VDW/kʙ    0.000000e+00 [K]
    framework-molecule Real/kʙ   0.000000e+00 [K]
    molecule-molecule VDW/kʙ    -1.735058e+05 [K]
    molecule-molecule Real/kʙ   -4.827192e+04 [K]
    Van der Waals (Tail)/kʙ     -4.276336e+03 [K]
    Ewald Fourier/kʙ             6.502542e+03 [K]
    Ewald self/kʙ               -3.857024e+06 [K]
    Ewald exclusion/kʙ           3.844675e+06 [K]
    intra VDW/kʙ                 0.000000e+00 [K]
    intra Coulombic/kʙ           0.000000e+00 [K]
    polarization/kʙ              0.000000e+00 [K]
    dU/dlambda VDW/kʙ            0.000000e+00 [K]
    dU/dlambda Real/kʙ           0.000000e+00 [K]
    dU/dlambda Ewald/kʙ          0.000000e+00 [K]


Initialization: Current cycle: 500 out of 2000
===============================================================================

Box:      25.83741   0.00000   0.00000
           0.00000  25.83741   0.00000
           0.00000   0.00000  25.83741
Lengths:  25.83741  25.83741  25.83741
Angles:   90.00000  90.00000  90.00000
Rectangular boundary conditions

net charge:   0.00000000

component   0 (CO2) lambda:  0 occupancy:  0 (0.000000)
    net charge:   0.00000000 [e]

Amount of molecules per component :
-------------------------------------------------------------------------------
Component 0 (CO2)
    molecules:         2.100000e+02 molecules
    number density:    1.217509e-02 molec/A^3
    density:           8.895332e+02 kg/m^3

Total potential energy/kʙ       -2.609115e+05 [K]
-------------------------------------------------------------------------------
    external field VDW/kʙ        0.000000e+00 [K]
    external field Real/kʙ       0.000000e+00 [K]
    framework-molecule VDW/kʙ    0.000000e+00 [K]
    framework-molecule Real/kʙ   0.000000e+00 [K]
    molecule-molecule VDW/kʙ    -1.932510e+05 [K]
    molecule-molecule Real/kʙ   -5.689088e+04 [K]
    Van der Waals (Tail)/kʙ     -4.748187e+03 [K]
    Ewald Fourier/kʙ             6.327685e+03 [K]
    Ewald self/kʙ               -3.857024e+06 [K]
    Ewald exclusion/kʙ           3.844675e+06 [K]
    intra VDW/kʙ                 0.000000e+00 [K]
    intra Coulombic/kʙ           0.000000e+00 [K]
    polarization/kʙ              0.000000e+00 [K]
    dU/dlambda VDW/kʙ            0.000000e+00 [K]
    dU/dlambda Real/kʙ           0.000000e+00 [K]
    dU/dlambda Ewald/kʙ          0.000000e+00 [K]


Initialization: Current cycle: 600 out of 2000
===============================================================================

Box:      25.19749   0.00000   0.00000
           0.00000  25.19749   0.00000
           0.00000   0.00000  25.19749
Lengths:  25.19749  25.19749  25.19749
Angles:   90.00000  90.00000  90.00000
Rectangular boundary conditions

net charge:   0.00000000

component   0 (CO2) lambda:  0 occupancy:  0 (0.000000)
    net charge:   0.00000000 [e]

Amount of molecules per component :
-------------------------------------------------------------------------------
Component 0 (CO2)
    molecules:         2.120000e+02 molecules
    number density:    1.325148e-02 molec/A^3
    density:           9.681756e+02 kg/m^3

Total potential energy/kʙ       -2.773664e+05 [K]
-------------------------------------------------------------------------------
    external field VDW/kʙ        0.000000e+00 [K]
    external field Real/kʙ       0.000000e+00 [K]
    framework-molecule VDW/kʙ    0.000000e+00 [K]
    framework-molecule Real/kʙ   0.000000e+00 [K]
    molecule-molecule VDW/kʙ    -2.039006e+05 [K]
    molecule-molecule Real/kʙ   -6.104375e+04 [K]
    Van der Waals (Tail)/kʙ     -5.217186e+03 [K]
    Ewald Fourier/kʙ             5.261983e+03 [K]
    Ewald self/kʙ               -3.893758e+06 [K]
    Ewald exclusion/kʙ           3.881291e+06 [K]
    intra VDW/kʙ                 0.000000e+00 [K]
    intra Coulombic/kʙ           0.000000e+00 [K]
    polarization/kʙ              0.000000e+00 [K]
    dU/dlambda VDW/kʙ            0.000000e+00 [K]
    dU/dlambda Real/kʙ           0.000000e+00 [K]
    dU/dlambda Ewald/kʙ          0.000000e+00 [K]


Initialization: Current cycle: 700 out of 2000
===============================================================================

Box:      25.16304   0.00000   0.00000
           0.00000  25.16304   0.00000
           0.00000   0.00000  25.16304
Lengths:  25.16304  25.16304  25.16304
Angles:   90.00000  90.00000  90.00000
Rectangular boundary conditions

net charge:   0.00000000

component   0 (CO2) lambda:  0 occupancy:  0 (0.000000)
    net charge:   0.00000000 [e]

Amount of molecules per component :
-------------------------------------------------------------------------------
Component 0 (CO2)
    molecules:         1.960000e+02 molecules
    number density:    1.230174e-02 molec/A^3
    density:           8.987863e+02 kg/m^3

Total potential energy/kʙ       -2.410291e+05 [K]
-------------------------------------------------------------------------------
    external field VDW/kʙ        0.000000e+00 [K]
    external field Real/kʙ       0.000000e+00 [K]
    framework-molecule VDW/kʙ    0.000000e+00 [K]
    framework-molecule Real/kʙ   0.000000e+00 [K]
    molecule-molecule VDW/kʙ    -1.824639e+05 [K]
    molecule-molecule Real/kʙ   -4.836380e+04 [K]
    Van der Waals (Tail)/kʙ     -4.477740e+03 [K]
    Ewald Fourier/kʙ             5.802189e+03 [K]
    Ewald self/kʙ               -3.599889e+06 [K]
    Ewald exclusion/kʙ           3.588363e+06 [K]
    intra VDW/kʙ                 0.000000e+00 [K]
    intra Coulombic/kʙ           0.000000e+00 [K]
    polarization/kʙ              0.000000e+00 [K]
    dU/dlambda VDW/kʙ            0.000000e+00 [K]
    dU/dlambda Real/kʙ           0.000000e+00 [K]
    dU/dlambda Ewald/kʙ          0.000000e+00 [K]


Initialization: Current cycle: 800 out of 2000
===============================================================================

Box:      25.84589   0.00000   0.00000
           0.00000  25.84589   0.00000
           0.00000   0.00000  25.84589
Lengths:  25.84589  25.84589  25.84589
Angles:   90.00000  90.00000  90.00000
Rectangular boundary conditions

net charge:   0.00000000

component   0 (CO2) lambda:  0 occupancy:  0 (0.000000)
    net charge:   0.00000000 [e]

Amount of molecules per component :
-------------------------------------------------------------------------------
Component 0 (CO2)
    molecules:         1.970000e+02 molecules
    number density:    1.141016e-02 molec/A^3
    density:           8.336457e+02 kg/m^3

Total potential energy/kʙ       -2.329522e+05 [K]
-------------------------------------------------------------------------------
    external field VDW/kʙ        0.000000e+00 [K]
    external field Real/kʙ       0.000000e+00 [K]
    framework-molecule VDW/kʙ    0.000000e+00 [K]
    framework-molecule Real/kʙ   0.000000e+00 [K]
    molecule-molecule VDW/kʙ    -1.741639e+05 [K]
    molecule-molecule Real/kʙ   -4.940247e+04 [K]
    Van der Waals (Tail)/kʙ     -4.174400e+03 [K]
    Ewald Fourier/kʙ             6.373212e+03 [K]
    Ewald self/kʙ               -3.618256e+06 [K]
    Ewald exclusion/kʙ           3.606671e+06 [K]
    intra VDW/kʙ                 0.000000e+00 [K]
    intra Coulombic/kʙ           0.000000e+00 [K]
    polarization/kʙ              0.000000e+00 [K]
    dU/dlambda VDW/kʙ            0.000000e+00 [K]
    dU/dlambda Real/kʙ           0.000000e+00 [K]
    dU/dlambda Ewald/kʙ          0.000000e+00 [K]


Initialization: Current cycle: 900 out of 2000
===============================================================================

Box:      26.05313   0.00000   0.00000
           0.00000  26.05313   0.00000
           0.00000   0.00000  26.05313
Lengths:  26.05313  26.05313  26.05313
Angles:   90.00000  90.00000  90.00000
Rectangular boundary conditions

net charge:   0.00000000

component   0 (CO2) lambda:  0 occupancy:  0 (0.000000)
    net charge:   0.00000000 [e]

Amount of molecules per component :
-------------------------------------------------------------------------------
Component 0 (CO2)
    molecules:         1.990000e+02 molecules
    number density:    1.125313e-02 molec/A^3
    density:           8.221731e+02 kg/m^3

Total potential energy/kʙ       -2.393335e+05 [K]
-------------------------------------------------------------------------------
    external field VDW/kʙ        0.000000e+00 [K]
    external field Real/kʙ       0.000000e+00 [K]
    framework-molecule VDW/kʙ    0.000000e+00 [K]
    framework-molecule Real/kʙ   0.000000e+00 [K]
    molecule-molecule VDW/kʙ    -1.736371e+05 [K]
    molecule-molecule Real/kʙ   -5.563429e+04 [K]
    Van der Waals (Tail)/kʙ     -4.158749e+03 [K]
    Ewald Fourier/kʙ             5.798983e+03 [K]
    Ewald self/kʙ               -3.654990e+06 [K]
    Ewald exclusion/kʙ           3.643287e+06 [K]
    intra VDW/kʙ                 0.000000e+00 [K]
    intra Coulombic/kʙ           0.000000e+00 [K]
    polarization/kʙ              0.000000e+00 [K]
    dU/dlambda VDW/kʙ            0.000000e+00 [K]
    dU/dlambda Real/kʙ           0.000000e+00 [K]
    dU/dlambda Ewald/kʙ          0.000000e+00 [K]


Initialization: Current cycle: 1000 out of 2000
===============================================================================

Box:      25.44535   0.00000   0.00000
           0.00000  25.44535   0.00000
           0.00000   0.00000  25.44535
Lengths:  25.44535  25.44535  25.44535
Angles:   90.00000  90.00000  90.00000
Rectangular boundary conditions

net charge:   0.00000000

component   0 (CO2) lambda:  0 occupancy:  0 (0.000000)
    net charge:   0.00000000 [e]

Amount of molecules per component :
-------------------------------------------------------------------------------
Component 0 (CO2)
    molecules:         1.900000e+02 molecules
    number density:    1.153263e-02 molec/A^3
    density:           8.425937e+02 kg/m^3

Total potential energy/kʙ       -2.308633e+05 [K]
-------------------------------------------------------------------------------
    external field VDW/kʙ        0.000000e+00 [K]
    external field Real/kʙ       0.000000e+00 [K]
    framework-molecule VDW/kʙ    0.000000e+00 [K]
    framework-molecule Real/kʙ   0.000000e+00 [K]
    molecule-molecule VDW/kʙ    -1.712688e+05 [K]
    molecule-molecule Real/kʙ   -5.073507e+04 [K]
    Van der Waals (Tail)/kʙ     -4.069286e+03 [K]
    Ewald Fourier/kʙ             6.382908e+03 [K]
    Ewald self/kʙ               -3.489689e+06 [K]
    Ewald exclusion/kʙ           3.478516e+06 [K]
    intra VDW/kʙ                 0.000000e+00 [K]
    intra Coulombic/kʙ           0.000000e+00 [K]
    polarization/kʙ              0.000000e+00 [K]
    dU/dlambda VDW/kʙ            0.000000e+00 [K]
    dU/dlambda Real/kʙ           0.000000e+00 [K]
    dU/dlambda Ewald/kʙ          0.000000e+00 [K]


Initialization: Current cycle: 1100 out of 2000
===============================================================================

Box:      24.79818   0.00000   0.00000
           0.00000  24.79818   0.00000
           0.00000   0.00000  24.79818
Lengths:  24.79818  24.79818  24.79818
Angles:   90.00000  90.00000  90.00000
Rectangular boundary conditions

net charge:   0.00000000

component   0 (CO2) lambda:  0 occupancy:  0 (0.000000)
    net charge:   0.00000000 [e]

Amount of molecules per component :
-------------------------------------------------------------------------------
Component 0 (CO2)
    molecules:         1.900000e+02 molecules
    number density:    1.245931e-02 molec/A^3
    density:           9.102986e+02 kg/m^3

Total potential energy/kʙ       -2.387456e+05 [K]
-------------------------------------------------------------------------------
    external field VDW/kʙ        0.000000e+00 [K]
    external field Real/kʙ       0.000000e+00 [K]
    framework-molecule VDW/kʙ    0.000000e+00 [K]
    framework-molecule Real/kʙ   0.000000e+00 [K]
    molecule-molecule VDW/kʙ    -1.808135e+05 [K]
    molecule-molecule Real/kʙ   -4.860586e+04 [K]
    Van der Waals (Tail)/kʙ     -4.396265e+03 [K]
    Ewald Fourier/kʙ             6.243060e+03 [K]
    Ewald self/kʙ               -3.489689e+06 [K]
    Ewald exclusion/kʙ           3.478516e+06 [K]
    intra VDW/kʙ                 0.000000e+00 [K]
    intra Coulombic/kʙ           0.000000e+00 [K]
    polarization/kʙ              0.000000e+00 [K]
    dU/dlambda VDW/kʙ            0.000000e+00 [K]
    dU/dlambda Real/kʙ           0.000000e+00 [K]
    dU/dlambda Ewald/kʙ          0.000000e+00 [K]


Initialization: Current cycle: 1200 out of 2000
===============================================================================

Box:      26.01885   0.00000   0.00000
           0.00000  26.01885   0.00000
           0.00000   0.00000  26.01885
Lengths:  26.01885  26.01885  26.01885
Angles:   90.00000  90.00000  90.00000
Rectangular boundary conditions

net charge:   0.00000000

component   0 (CO2) lambda:  0 occupancy:  0 (0.000000)
    net charge:   0.00000000 [e]

Amount of molecules per component :
-------------------------------------------------------------------------------
Component 0 (CO2)
    molecules:         2.200000e+02 molecules
    number density:    1.248988e-02 molec/A^3
    density:           9.125321e+02 kg/m^3

Total potential energy/kʙ       -2.843014e+05 [K]
-------------------------------------------------------------------------------
    external field VDW/kʙ        0.000000e+00 [K]
    external field Real/kʙ       0.000000e+00 [K]
    framework-molecule VDW/kʙ    0.000000e+00 [K]
    framework-molecule Real/kʙ   0.000000e+00 [K]
    molecule-molecule VDW/kʙ    -2.067069e+05 [K]
    molecule-molecule Real/kʙ   -6.506832e+04 [K]
    Van der Waals (Tail)/kʙ     -5.102902e+03 [K]
    Ewald Fourier/kʙ             5.513884e+03 [K]
    Ewald self/kʙ               -4.040692e+06 [K]
    Ewald exclusion/kʙ           4.027755e+06 [K]
    intra VDW/kʙ                 0.000000e+00 [K]
    intra Coulombic/kʙ           0.000000e+00 [K]
    polarization/kʙ              0.000000e+00 [K]
    dU/dlambda VDW/kʙ            0.000000e+00 [K]
    dU/dlambda Real/kʙ           0.000000e+00 [K]
    dU/dlambda Ewald/kʙ          0.000000e+00 [K]


Initialization: Current cycle: 1300 out of 2000
===============================================================================

Box:      26.11498   0.00000   0.00000
           0.00000  26.11498   0.00000
           0.00000   0.00000  26.11498
Lengths:  26.11498  26.11498  26.11498
Angles:   90.00000  90.00000  90.00000
Rectangular boundary conditions

net charge:   0.00000000

component   0 (CO2) lambda:  0 occupancy:  0 (0.000000)
    net charge:   0.00000000 [e]

Amount of molecules per component :
-------------------------------------------------------------------------------
Component 0 (CO2)
    molecules:         2.020000e+02 molecules
    number density:    1.134181e-02 molec/A^3
    density:           8.286522e+02 kg/m^3

Total potential energy/kʙ       -2.367162e+05 [K]
-------------------------------------------------------------------------------
    external field VDW/kʙ        0.000000e+00 [K]
    external field Real/kʙ       0.000000e+00 [K]
    framework-molecule VDW/kʙ    0.000000e+00 [K]
    framework-molecule Real/kʙ   0.000000e+00 [K]
    molecule-molecule VDW/kʙ    -1.743903e+05 [K]
    molecule-molecule Real/kʙ   -5.261749e+04 [K]
    Van der Waals (Tail)/kʙ     -4.254711e+03 [K]
    Ewald Fourier/kʙ             6.425078e+03 [K]
    Ewald self/kʙ               -3.710090e+06 [K]
    Ewald exclusion/kʙ           3.698211e+06 [K]
    intra VDW/kʙ                 0.000000e+00 [K]
    intra Coulombic/kʙ           0.000000e+00 [K]
    polarization/kʙ              0.000000e+00 [K]
    dU/dlambda VDW/kʙ            0.000000e+00 [K]
    dU/dlambda Real/kʙ           0.000000e+00 [K]
    dU/dlambda Ewald/kʙ          0.000000e+00 [K]


Initialization: Current cycle: 1400 out of 2000
===============================================================================

Box:      25.81326   0.00000   0.00000
           0.00000  25.81326   0.00000
           0.00000   0.00000  25.81326
Lengths:  25.81326  25.81326  25.81326
Angles:   90.00000  90.00000  90.00000
Rectangular boundary conditions

net charge:   0.00000000

component   0 (CO2) lambda:  0 occupancy:  0 (0.000000)
    net charge:   0.00000000 [e]

Amount of molecules per component :
-------------------------------------------------------------------------------
Component 0 (CO2)
    molecules:         1.940000e+02 molecules
    number density:    1.127907e-02 molec/A^3
    density:           8.240679e+02 kg/m^3

Total potential energy/kʙ       -2.206772e+05 [K]
-------------------------------------------------------------------------------
    external field VDW/kʙ        0.000000e+00 [K]
    external field Real/kʙ       0.000000e+00 [K]
    framework-molecule VDW/kʙ    0.000000e+00 [K]
    framework-molecule Real/kʙ   0.000000e+00 [K]
    molecule-molecule VDW/kʙ    -1.646251e+05 [K]
    molecule-molecule Real/kʙ   -4.754898e+04 [K]
    Van der Waals (Tail)/kʙ     -4.063602e+03 [K]
    Ewald Fourier/kʙ             6.968862e+03 [K]
    Ewald self/kʙ               -3.563156e+06 [K]
    Ewald exclusion/kʙ           3.551747e+06 [K]
    intra VDW/kʙ                 0.000000e+00 [K]
    intra Coulombic/kʙ           0.000000e+00 [K]
    polarization/kʙ              0.000000e+00 [K]
    dU/dlambda VDW/kʙ            0.000000e+00 [K]
    dU/dlambda Real/kʙ           0.000000e+00 [K]
    dU/dlambda Ewald/kʙ          0.000000e+00 [K]


Initialization: Current cycle: 1500 out of 2000
===============================================================================

Box:      25.70215   0.00000   0.00000
           0.00000  25.70215   0.00000
           0.00000   0.00000  25.70215
Lengths:  25.70215  25.70215  25.70215
Angles:   90.00000  90.00000  90.00000
Rectangular boundary conditions

net charge:   0.00000000

component   0 (CO2) lambda:  0 occupancy:  0 (0.000000)
    net charge:   0.00000000 [e]

Amount of molecules per component :
-------------------------------------------------------------------------------
Component 0 (CO2)
    molecules:         1.870000e+02 molecules
    number density:    1.101370e-02 molec/A^3
    density:           8.046799e+02 kg/m^3

Total potential energy/kʙ       -2.106229e+05 [K]
-------------------------------------------------------------------------------
    external field VDW/kʙ        0.000000e+00 [K]
    external field Real/kʙ       0.000000e+00 [K]
    framework-molecule VDW/kʙ    0.000000e+00 [K]
    framework-molecule Real/kʙ   0.000000e+00 [K]
    molecule-molecule VDW/kʙ    -1.604762e+05 [K]
    molecule-molecule Real/kʙ   -4.188962e+04 [K]
    Van der Waals (Tail)/kʙ     -3.824821e+03 [K]
    Ewald Fourier/kʙ             6.564435e+03 [K]
    Ewald self/kʙ               -3.434588e+06 [K]
    Ewald exclusion/kʙ           3.423592e+06 [K]
    intra VDW/kʙ                 0.000000e+00 [K]
    intra Coulombic/kʙ           0.000000e+00 [K]
    polarization/kʙ              0.000000e+00 [K]
    dU/dlambda VDW/kʙ            0.000000e+00 [K]
    dU/dlambda Real/kʙ           0.000000e+00 [K]
    dU/dlambda Ewald/kʙ          0.000000e+00 [K]


Initialization: Current cycle: 1600 out of 2000
===============================================================================

Box:      25.73038   0.00000   0.00000
           0.00000  25.73038   0.00000
           0.00000   0.00000  25.73038
Lengths:  25.73038  25.73038  25.73038
Angles:   90.00000  90.00000  90.00000
Rectangular boundary conditions

net charge:   0.00000000

component   0 (CO2) lambda:  0 occupancy:  0 (0.000000)
    net charge:   0.00000000 [e]

Amount of molecules per component :
-------------------------------------------------------------------------------
Component 0 (CO2)
    molecules:         2.080000e+02 molecules
    number density:    1.221025e-02 molec/A^3
    density:           8.921020e+02 kg/m^3

Total potential energy/kʙ       -2.592667e+05 [K]
-------------------------------------------------------------------------------
    external field VDW/kʙ        0.000000e+00 [K]
    external field Real/kʙ       0.000000e+00 [K]
    framework-molecule VDW/kʙ    0.000000e+00 [K]
    framework-molecule Real/kʙ   0.000000e+00 [K]
    molecule-molecule VDW/kʙ    -1.901150e+05 [K]
    molecule-molecule Real/kʙ   -5.842172e+04 [K]
    Van der Waals (Tail)/kʙ     -4.716548e+03 [K]
    Ewald Fourier/kʙ             6.218102e+03 [K]
    Ewald self/kʙ               -3.820291e+06 [K]
    Ewald exclusion/kʙ           3.808059e+06 [K]
    intra VDW/kʙ                 0.000000e+00 [K]
    intra Coulombic/kʙ           0.000000e+00 [K]
    polarization/kʙ              0.000000e+00 [K]
    dU/dlambda VDW/kʙ            0.000000e+00 [K]
    dU/dlambda Real/kʙ           0.000000e+00 [K]
    dU/dlambda Ewald/kʙ          0.000000e+00 [K]


Initialization: Current cycle: 1700 out of 2000
===============================================================================

Box:      25.77590   0.00000   0.00000
           0.00000  25.77590   0.00000
           0.00000   0.00000  25.77590
Lengths:  25.77590  25.77590  25.77590
Angles:   90.00000  90.00000  90.00000
Rectangular boundary conditions

net charge:   0.00000000

component   0 (CO2) lambda:  0 occupancy:  0 (0.000000)
    net charge:   0.00000000 [e]

Amount of molecules per component :
-------------------------------------------------------------------------------
Component 0 (CO2)
    molecules:         1.960000e+02 molecules
    number density:    1.144497e-02 molec/A^3
    density:           8.361890e+02 kg/m^3

Total potential energy/kʙ       -2.281281e+05 [K]
-------------------------------------------------------------------------------
    external field VDW/kʙ        0.000000e+00 [K]
    external field Real/kʙ       0.000000e+00 [K]
    framework-molecule VDW/kʙ    0.000000e+00 [K]
    framework-molecule Real/kʙ   0.000000e+00 [K]
    molecule-molecule VDW/kʙ    -1.696668e+05 [K]
    molecule-molecule Real/kʙ   -4.897304e+04 [K]
    Van der Waals (Tail)/kʙ     -4.165881e+03 [K]
    Ewald Fourier/kʙ             6.203564e+03 [K]
    Ewald self/kʙ               -3.599889e+06 [K]
    Ewald exclusion/kʙ           3.588363e+06 [K]
    intra VDW/kʙ                 0.000000e+00 [K]
    intra Coulombic/kʙ           0.000000e+00 [K]
    polarization/kʙ              0.000000e+00 [K]
    dU/dlambda VDW/kʙ            0.000000e+00 [K]
    dU/dlambda Real/kʙ           0.000000e+00 [K]
    dU/dlambda Ewald/kʙ          0.000000e+00 [K]


Initialization: Current cycle: 1800 out of 2000
===============================================================================

Box:      25.76848   0.00000   0.00000
           0.00000  25.76848   0.00000
           0.00000   0.00000  25.76848
Lengths:  25.76848  25.76848  25.76848
Angles:   90.00000  90.00000  90.00000
Rectangular boundary conditions

net charge:   0.00000000

component   0 (CO2) lambda:  0 occupancy:  0 (0.000000)
    net charge:   0.00000000 [e]

Amount of molecules per component :
-------------------------------------------------------------------------------
Component 0 (CO2)
    molecules:         2.000000e+02 molecules
    number density:    1.168862e-02 molec/A^3
    density:           8.539909e+02 kg/m^3

Total potential energy/kʙ       -2.391093e+05 [K]
-------------------------------------------------------------------------------
    external field VDW/kʙ        0.000000e+00 [K]
    external field Real/kʙ       0.000000e+00 [K]
    framework-molecule VDW/kʙ    0.000000e+00 [K]
    framework-molecule Real/kʙ   0.000000e+00 [K]
    molecule-molecule VDW/kʙ    -1.818675e+05 [K]
    molecule-molecule Real/kʙ   -4.756672e+04 [K]
    Van der Waals (Tail)/kʙ     -4.341398e+03 [K]
    Ewald Fourier/kʙ             6.427392e+03 [K]
    Ewald self/kʙ               -3.673356e+06 [K]
    Ewald exclusion/kʙ           3.661595e+06 [K]
    intra VDW/kʙ                 0.000000e+00 [K]
    intra Coulombic/kʙ           0.000000e+00 [K]
    polarization/kʙ              0.000000e+00 [K]
    dU/dlambda VDW/kʙ            0.000000e+00 [K]
    dU/dlambda Real/kʙ           0.000000e+00 [K]
    dU/dlambda Ewald/kʙ          0.000000e+00 [K]


Initialization: Current cycle: 1900 out of 2000
===============================================================================

Box:      25.94565   0.00000   0.00000
           0.00000  25.94565   0.00000
           0.00000   0.00000  25.94565
Lengths:  25.94565  25.94565  25.94565
Angles:   90.00000  90.00000  90.00000
Rectangular boundary conditions

net charge:   0.00000000

component   0 (CO2) lambda:  0 occupancy:  0 (0.000000)
    net charge:   0.00000000 [e]

Amount of molecules per component :
-------------------------------------------------------------------------------
Component 0 (CO2)
    molecules:         1.860000e+02 molecules
    number density:    1.064925e-02 molec/A^3
    density:           7.780525e+02 kg/m^3

Total potential energy/kʙ       -2.067889e+05 [K]
-------------------------------------------------------------------------------
    external field VDW/kʙ        0.000000e+00 [K]
    external field Real/kʙ       0.000000e+00 [K]
    framework-molecule VDW/kʙ    0.000000e+00 [K]
    framework-molecule Real/kʙ   0.000000e+00 [K]
    molecule-molecule VDW/kʙ    -1.527655e+05 [K]
    molecule-molecule Real/kʙ   -4.452513e+04 [K]
    Van der Waals (Tail)/kʙ     -3.678478e+03 [K]
    Ewald Fourier/kʙ             5.118081e+03 [K]
    Ewald self/kʙ               -3.416221e+06 [K]
    Ewald exclusion/kʙ           3.405284e+06 [K]
    intra VDW/kʙ                 0.000000e+00 [K]
    intra Coulombic/kʙ           0.000000e+00 [K]
    polarization/kʙ              0.000000e+00 [K]
    dU/dlambda VDW/kʙ            0.000000e+00 [K]
    dU/dlambda Real/kʙ           0.000000e+00 [K]
    dU/dlambda Ewald/kʙ          0.000000e+00 [K]


Current cycle: 0 out of 6000
===============================================================================

Box:      25.75114   0.00000   0.00000  Average:  25.75114   0.00000   0.00000
           0.00000  25.75114   0.00000             0.00000  25.75114   0.00000
           0.00000   0.00000  25.75114             0.00000   0.00000  25.75114
Lengths:  25.75114  25.75114  25.75114  Average:  25.75114  25.75114  25.75114
Angles:   90.00000  90.00000  90.00000  Average:  90.00000  90.00000  90.00000
Rectangular boundary conditions

net charge:   0.00000000

component 0 (CO2) lambda:  0 occupancy:  0 (0.000000)
    net charge:   0.00000000 [e]

Amount of molecules per component :
-------------------------------------------------------------------------------
Component 0 (CO2)
    molecules:      2.000000e+02 molecules  (2.000000e+02 +/- 0.000000e+00)
    number density: 1.171226e-02 molec./A^3 (1.171226e-02 +/- 0.000000e+00)
    density:        8.557176e+02 kg/m^3     (8.557176e+02 +/- 0.000000e+00)

Average pressure tensor: 
-------------------------------------------------------------------------------
 4.5277e+02  0.0000e+00  0.0000e+00 +/- 0.0000e+00 0.0000e+00 0.0000e+00 [bar]
 0.0000e+00  4.5277e+02  0.0000e+00 +/- 0.0000e+00 0.0000e+00 0.0000e+00 [bar]
 0.0000e+00  0.0000e+00  4.5277e+02 +/- 0.0000e+00 0.0000e+00 0.0000e+00 [bar]
Ideal-gas pressure:   4.527749e+02 +/ 0.000000e+00 [bar]
Excess pressure:      0.000000e+00 +/ 0.000000e+00 [bar]
Pressure:             4.527749e+02 +/ 0.000000e+00 [bar]

Total potential energy/kʙ  -2.390310e+05 (-2.390310e+05 +/- 0.000000e+00) [K]
-------------------------------------------------------------------------------
ExternalField-molecule
    Van der Waals/kʙ        0.000000e+00 ( 0.000000e+00 +/- 0.000000e+00) [K]
Framework-molecule
    Van der Waals/kʙ        0.000000e+00 ( 0.000000e+00 +/- 0.000000e+00) [K]
    Van der Waals (Tail)/kʙ 0.000000e+00 ( 0.000000e+00 +/- 0.000000e+00) [K]
    Coulombic Real/kʙ       0.000000e+00 ( 0.000000e+00 +/- 0.000000e+00) [K]
    Coulombic Fourier/kʙ    0.000000e+00 ( 0.000000e+00 +/- 0.000000e+00) [K]
Molecule-molecule
    Van der Waals/kʙ       -1.769959e+05 (-1.769959e+05 +/- 0.000000e+00) [K]
    Van der Waals (Tail)/kʙ-4.350176e+03 (-4.350176e+03 +/- 0.000000e+00) [K]
    Coulombic Real/kʙ      -5.283373e+04 (-5.283373e+04 +/- 0.000000e+00) [K]
    Coulombic Fourier/kʙ   -4.851153e+03 (-4.851153e+03 +/- 0.000000e+00) [K]
    Molecule Intra/kʙ       0.000000e+00 ( 0.000000e+00 +/- 0.000000e+00) [K]

Current cycle: 100 out of 6000
===============================================================================

Box:      25.68188   0.00000   0.00000  Average:  25.54960   0.00000   0.00000
           0.00000  25.68188   0.00000             0.00000  25.54960   0.00000
           0.00000   0.00000  25.68188             0.00000   0.00000  25.54960
Lengths:  25.68188  25.68188  25.68188  Average:  25.54960  25.54960  25.54960
Angles:   90.00000  90.00000  90.00000  Average:  90.00000  90.00000  90.00000
Rectangular boundary conditions

net charge:   0.00000000

component 0 (CO2) lambda:  0 occupancy:  0 (0.000000)
    net charge:   0.00000000 [e]

Amount of molecules per component :
-------------------------------------------------------------------------------
Component 0 (CO2)
    molecules:      2.020000e+02 molecules  (2.039703e+02 +/- 0.000000e+00)
    number density: 1.192534e-02 molec./A^3 (1.223425e-02 +/- 0.000000e+00)
    density:        8.712858e+02 kg/m^3     (8.938553e+02 +/- 0.000000e+00)

Average pressure tensor: 
-------------------------------------------------------------------------------
 1.2884e+02  4.7005e+01 -2.1372e+01 +/- 0.0000e+00 0.0000e+00 0.0000e+00 [bar]
 4.7005e+01  1.2324e+02 -1.6580e+02 +/- 0.0000e+00 0.0000e+00 0.0000e+00 [bar]
-2.1372e+01 -1.6580e+02 -4.4537e+01 +/- 0.0000e+00 0.0000e+00 0.0000e+00 [bar]
Ideal-gas pressure:   4.729542e+02 +/ 0.000000e+00 [bar]
Excess pressure:     -4.037730e+02 +/ 0.000000e+00 [bar]
Pressure:             6.918127e+01 +/ 0.000000e+00 [bar]

Total potential energy/kʙ  -2.459980e+05 (-2.541586e+05 +/- 0.000000e+00) [K]
-------------------------------------------------------------------------------
ExternalField-molecule
    Van der Waals/kʙ        0.000000e+00 ( 0.000000e+00 +/- 0.000000e+00) [K]
Framework-molecule
    Van der Waals/kʙ        0.000000e+00 ( 0.000000e+00 +/- 0.000000e+00) [K]
    Van der Waals (Tail)/kʙ 0.000000e+00 ( 0.000000e+00 +/- 0.000000e+00) [K]
    Coulombic Real/kʙ       0.000000e+00 ( 0.000000e+00 +/- 0.000000e+00) [K]
    Coulombic Fourier/kʙ    0.000000e+00 ( 0.000000e+00 +/- 0.000000e+00) [K]
Molecule-molecule
    Van der Waals/kʙ       -1.821725e+05 (-1.893212e+05 +/- 0.000000e+00) [K]
    Van der Waals (Tail)/kʙ-4.473613e+03 (-4.640356e+03 +/- 0.000000e+00) [K]
    Coulombic Real/kʙ      -5.352454e+04 (-5.440372e+04 +/- 0.000000e+00) [K]
    Coulombic Fourier/kʙ   -5.827351e+03 (-5.793279e+03 +/- 0.000000e+00) [K]
    Molecule Intra/kʙ       0.000000e+00 ( 0.000000e+00 +/- 0.000000e+00) [K]

Current cycle: 200 out of 6000
===============================================================================

Box:      25.26427   0.00000   0.00000  Average:  25.46123   0.00000   0.00000
           0.00000  25.26427   0.00000             0.00000  25.46123   0.00000
           0.00000   0.00000  25.26427             0.00000   0.00000  25.46123
Lengths:  25.26427  25.26427  25.26427  Average:  25.46123  25.46123  25.46123
Angles:   90.00000  90.00000  90.00000  Average:  90.00000  90.00000  90.00000
Rectangular boundary conditions

net charge:   0.00000000

component 0 (CO2) lambda:  0 occupancy:  0 (0.000000)
    net charge:   0.00000000 [e]

Amount of molecules per component :
-------------------------------------------------------------------------------
Component 0 (CO2)
    molecules:      2.060000e+02 molecules  (2.015771e+02 +/- 0.000000e+00)
    number density: 1.277459e-02 molec./A^3 (1.221081e-02 +/- 0.000000e+00)
    density:        9.333335e+02 kg/m^3     (8.921424e+02 +/- 0.000000e+00)

Average pressure tensor: 
-------------------------------------------------------------------------------
 1.4451e+02  4.6497e+01  3.1315e+01 +/- 0.0000e+00 0.0000e+00 0.0000e+00 [bar]
 4.6497e+01  1.2593e+02 -7.5287e+01 +/- 0.0000e+00 0.0000e+00 0.0000e+00 [bar]
 3.1315e+01 -7.5287e+01  4.5690e+01 +/- 0.0000e+00 0.0000e+00 0.0000e+00 [bar]
Ideal-gas pressure:   4.720479e+02 +/ 0.000000e+00 [bar]
Excess pressure:     -3.666705e+02 +/ 0.000000e+00 [bar]
Pressure:             1.053774e+02 +/ 0.000000e+00 [bar]

Total potential energy/kʙ  -2.641631e+05 (-2.511660e+05 +/- 0.000000e+00) [K]
-------------------------------------------------------------------------------
ExternalField-molecule
    Van der Waals/kʙ        0.000000e+00 ( 0.000000e+00 +/- 0.000000e+00) [K]
Framework-molecule
    Van der Waals/kʙ        0.000000e+00 ( 0.000000e+00 +/- 0.000000e+00) [K]
    Van der Waals (Tail)/kʙ 0.000000e+00 ( 0.000000e+00 +/- 0.000000e+00) [K]
    Coulombic Real/kʙ       0.000000e+00 ( 0.000000e+00 +/- 0.000000e+00) [K]
    Coulombic Fourier/kʙ    0.000000e+00 ( 0.000000e+00 +/- 0.000000e+00) [K]
Molecule-molecule
    Van der Waals/kʙ       -1.958019e+05 (-1.867208e+05 +/- 0.000000e+00) [K]
    Van der Waals (Tail)/kʙ-4.887091e+03 (-4.584385e+03 +/- 0.000000e+00) [K]
    Coulombic Real/kʙ      -5.712235e+04 (-5.402717e+04 +/- 0.000000e+00) [K]
    Coulombic Fourier/kʙ   -6.351819e+03 (-5.833659e+03 +/- 0.000000e+00) [K]
    Molecule Intra/kʙ       0.000000e+00 ( 0.000000e+00 +/- 0.000000e+00) [K]

Current cycle: 300 out of 6000
===============================================================================

Box:      25.21504   0.00000   0.00000  Average:  25.45646   0.00000   0.00000
           0.00000  25.21504   0.00000             0.00000  25.45646   0.00000
           0.00000   0.00000  25.21504             0.00000   0.00000  25.45646
Lengths:  25.21504  25.21504  25.21504  Average:  25.45646  25.45646  25.45646
Angles:   90.00000  90.00000  90.00000  Average:  90.00000  90.00000  90.00000
Rectangular boundary conditions

net charge:   0.00000000

component 0 (CO2) lambda:  0 occupancy:  0 (0.000000)
    net charge:   0.00000000 [e]

Amount of molecules per component :
-------------------------------------------------------------------------------
Component 0 (CO2)
    molecules:      1.990000e+02 molecules  (2.009934e+02 +/- 0.000000e+00)
    number density: 1.241292e-02 molec./A^3 (1.218181e-02 +/- 0.000000e+00)
    density:        9.069094e+02 kg/m^3     (8.900236e+02 +/- 0.000000e+00)

Average pressure tensor: 
-------------------------------------------------------------------------------
 9.2789e+01 -5.9660e+00  1.5834e+01 +/- 0.0000e+00 0.0000e+00 0.0000e+00 [bar]
-5.9660e+00  8.9936e+01 -7.7566e+00 +/- 0.0000e+00 0.0000e+00 0.0000e+00 [bar]
 1.5834e+01 -7.7566e+00  1.0110e+01 +/- 0.0000e+00 0.0000e+00 0.0000e+00 [bar]
Ideal-gas pressure:   4.709268e+02 +/ 0.000000e+00 [bar]
Excess pressure:     -4.066487e+02 +/ 0.000000e+00 [bar]
Pressure:             6.427811e+01 +/ 0.000000e+00 [bar]

Total potential energy/kʙ  -2.521588e+05 (-2.500707e+05 +/- 0.000000e+00) [K]
-------------------------------------------------------------------------------
ExternalField-molecule
    Van der Waals/kʙ        0.000000e+00 ( 0.000000e+00 +/- 0.000000e+00) [K]
Framework-molecule
    Van der Waals/kʙ        0.000000e+00 ( 0.000000e+00 +/- 0.000000e+00) [K]
    Van der Waals (Tail)/kʙ 0.000000e+00 ( 0.000000e+00 +/- 0.000000e+00) [K]
    Coulombic Real/kʙ       0.000000e+00 ( 0.000000e+00 +/- 0.000000e+00) [K]
    Coulombic Fourier/kʙ    0.000000e+00 ( 0.000000e+00 +/- 0.000000e+00) [K]
Molecule-molecule
    Van der Waals/kʙ       -1.896716e+05 (-1.860492e+05 +/- 0.000000e+00) [K]
    Van der Waals (Tail)/kʙ-4.587365e+03 (-4.551175e+03 +/- 0.000000e+00) [K]
    Coulombic Real/kʙ      -5.195588e+04 (-5.371063e+04 +/- 0.000000e+00) [K]
    Coulombic Fourier/kʙ   -5.943977e+03 (-5.759726e+03 +/- 0.000000e+00) [K]
    Molecule Intra/kʙ       0.000000e+00 ( 0.000000e+00 +/- 0.000000e+00) [K]

Current cycle: 400 out of 6000
===============================================================================

Box:      24.52261   0.00000   0.00000  Average:  25.35117   0.00000   0.00000
           0.00000  24.52261   0.00000             0.00000  25.35117   0.00000
           0.00000   0.00000  24.52261             0.00000   0.00000  25.35117
Lengths:  24.52261  24.52261  24.52261  Average:  25.35117  25.35117  25.35117
Angles:   90.00000  90.00000  90.00000  Average:  90.00000  90.00000  90.00000
Rectangular boundary conditions

net charge:   0.00000000

component 0 (CO2) lambda:  0 occupancy:  0 (0.000000)
    net charge:   0.00000000 [e]

Amount of molecules per component :
-------------------------------------------------------------------------------
Component 0 (CO2)
    molecules:      1.790000e+02 molecules  (1.992693e+02 +/- 0.000000e+00)
    number density: 1.213816e-02 molec./A^3 (1.222643e-02 +/- 0.000000e+00)
    density:        8.868350e+02 kg/m^3     (8.932837e+02 +/- 0.000000e+00)

Average pressure tensor: 
-------------------------------------------------------------------------------
 8.9944e+01  1.0271e+01 -7.5850e+00 +/- 0.0000e+00 0.0000e+00 0.0000e+00 [bar]
 1.0271e+01  5.5567e+01 -2.7626e+01 +/- 0.0000e+00 0.0000e+00 0.0000e+00 [bar]
-7.5850e+00 -2.7626e+01  2.4683e+01 +/- 0.0000e+00 0.0000e+00 0.0000e+00 [bar]
Ideal-gas pressure:   4.726518e+02 +/ 0.000000e+00 [bar]
Excess pressure:     -4.159204e+02 +/ 0.000000e+00 [bar]
Pressure:             5.673139e+01 +/ 0.000000e+00 [bar]

Total potential energy/kʙ  -2.212643e+05 (-2.469123e+05 +/- 0.000000e+00) [K]
-------------------------------------------------------------------------------
ExternalField-molecule
    Van der Waals/kʙ        0.000000e+00 ( 0.000000e+00 +/- 0.000000e+00) [K]
Framework-molecule
    Van der Waals/kʙ        0.000000e+00 ( 0.000000e+00 +/- 0.000000e+00) [K]
    Van der Waals (Tail)/kʙ 0.000000e+00 ( 0.000000e+00 +/- 0.000000e+00) [K]
    Coulombic Real/kʙ       0.000000e+00 ( 0.000000e+00 +/- 0.000000e+00) [K]
    Coulombic Fourier/kʙ    0.000000e+00 ( 0.000000e+00 +/- 0.000000e+00) [K]
Molecule-molecule
    Van der Waals/kʙ       -1.660907e+05 (-1.841875e+05 +/- 0.000000e+00) [K]
    Van der Waals (Tail)/kʙ-4.034988e+03 (-4.504680e+03 +/- 0.000000e+00) [K]
    Coulombic Real/kʙ      -4.644114e+04 (-5.258955e+04 +/- 0.000000e+00) [K]
    Coulombic Fourier/kʙ   -4.697470e+03 (-5.630642e+03 +/- 0.000000e+00) [K]
    Molecule Intra/kʙ       0.000000e+00 ( 0.000000e+00 +/- 0.000000e+00) [K]

Current cycle: 500 out of 6000
===============================================================================

Box:      24.45669   0.00000   0.00000  Average:  25.20617   0.00000   0.00000
           0.00000  24.45669   0.00000             0.00000  25.20617   0.00000
           0.00000   0.00000  24.45669             0.00000   0.00000  25.20617
Lengths:  24.45669  24.45669  24.45669  Average:  25.20617  25.20617  25.20617
Angles:   90.00000  90.00000  90.00000  Average:  90.00000  90.00000  90.00000
Rectangular boundary conditions

net charge:   0.00000000

component 0 (CO2) lambda:  0 occupancy:  0 (0.000000)
    net charge:   0.00000000 [e]

Amount of molecules per component :
-------------------------------------------------------------------------------
Component 0 (CO2)
    molecules:      1.850000e+02 molecules  (1.965489e+02 +/- 0.000000e+00)
    number density: 1.264675e-02 molec./A^3 (1.226796e-02 +/- 0.000000e+00)
    density:        9.239930e+02 kg/m^3     (8.963184e+02 +/- 0.000000e+00)

Average pressure tensor: 
-------------------------------------------------------------------------------
 4.9939e+01  2.9296e+01  7.4900e+00 +/- 0.0000e+00 0.0000e+00 0.0000e+00 [bar]
 2.9296e+01  6.1382e+00 -1.7976e+01 +/- 0.0000e+00 0.0000e+00 0.0000e+00 [bar]
 7.4900e+00 -1.7976e+01  1.9972e+00 +/- 0.0000e+00 0.0000e+00 0.0000e+00 [bar]
Ideal-gas pressure:   4.742575e+02 +/ 0.000000e+00 [bar]
Excess pressure:     -4.548992e+02 +/ 0.000000e+00 [bar]
Pressure:             1.935828e+01 +/ 0.000000e+00 [bar]

Total potential energy/kʙ  -2.330442e+05 (-2.444430e+05 +/- 0.000000e+00) [K]
-------------------------------------------------------------------------------
ExternalField-molecule
    Van der Waals/kʙ        0.000000e+00 ( 0.000000e+00 +/- 0.000000e+00) [K]
Framework-molecule
    Van der Waals/kʙ        0.000000e+00 ( 0.000000e+00 +/- 0.000000e+00) [K]
    Van der Waals (Tail)/kʙ 0.000000e+00 ( 0.000000e+00 +/- 0.000000e+00) [K]
    Coulombic Real/kʙ       0.000000e+00 ( 0.000000e+00 +/- 0.000000e+00) [K]
    Coulombic Fourier/kʙ    0.000000e+00 ( 0.000000e+00 +/- 0.000000e+00) [K]
Molecule-molecule
    Van der Waals/kʙ       -1.726091e+05 (-1.823565e+05 +/- 0.000000e+00) [K]
    Van der Waals (Tail)/kʙ-4.344970e+03 (-4.457001e+03 +/- 0.000000e+00) [K]
    Coulombic Real/kʙ      -5.020706e+04 (-5.206610e+04 +/- 0.000000e+00) [K]
    Coulombic Fourier/kʙ   -5.883075e+03 (-5.563409e+03 +/- 0.000000e+00) [K]
    Molecule Intra/kʙ       0.000000e+00 ( 0.000000e+00 +/- 0.000000e+00) [K]

Current cycle: 600 out of 6000
===============================================================================

Box:      24.90466   0.00000   0.00000  Average:  25.10782   0.00000   0.00000
           0.00000  24.90466   0.00000             0.00000  25.10782   0.00000
           0.00000   0.00000  24.90466             0.00000   0.00000  25.10782
Lengths:  24.90466  24.90466  24.90466  Average:  25.10782  25.10782  25.10782
Angles:   90.00000  90.00000  90.00000  Average:  90.00000  90.00000  90.00000
Rectangular boundary conditions

net charge:   0.00000000

component 0 (CO2) lambda:  0 occupancy:  0 (0.000000)
    net charge:   0.00000000 [e]

Amount of molecules per component :
-------------------------------------------------------------------------------
Component 0 (CO2)
    molecules:      1.950000e+02 molecules  (1.941714e+02 +/- 0.000000e+00)
    number density: 1.262388e-02 molec./A^3 (1.225912e-02 +/- 0.000000e+00)
    density:        9.223225e+02 kg/m^3     (8.956725e+02 +/- 0.000000e+00)

Average pressure tensor: 
-------------------------------------------------------------------------------
 6.2261e+01  1.6126e+01 -1.1479e+01 +/- 0.0000e+00 0.0000e+00 0.0000e+00 [bar]
 1.6126e+01 -7.9513e+00 -2.3356e+01 +/- 0.0000e+00 0.0000e+00 0.0000e+00 [bar]
-1.1479e+01 -2.3356e+01  2.5770e+01 +/- 0.0000e+00 0.0000e+00 0.0000e+00 [bar]
Ideal-gas pressure:   4.739157e+02 +/ 0.000000e+00 [bar]
Excess pressure:     -4.472227e+02 +/ 0.000000e+00 [bar]
Pressure:             2.669304e+01 +/ 0.000000e+00 [bar]

Total potential energy/kʙ  -2.515619e+05 (-2.408643e+05 +/- 0.000000e+00) [K]
-------------------------------------------------------------------------------
ExternalField-molecule
    Van der Waals/kʙ        0.000000e+00 ( 0.000000e+00 +/- 0.000000e+00) [K]
Framework-molecule
    Van der Waals/kʙ        0.000000e+00 ( 0.000000e+00 +/- 0.000000e+00) [K]
    Van der Waals (Tail)/kʙ 0.000000e+00 ( 0.000000e+00 +/- 0.000000e+00) [K]
    Coulombic Real/kʙ       0.000000e+00 ( 0.000000e+00 +/- 0.000000e+00) [K]
    Coulombic Fourier/kʙ    0.000000e+00 ( 0.000000e+00 +/- 0.000000e+00) [K]
Molecule-molecule
    Van der Waals/kʙ       -1.819052e+05 (-1.798036e+05 +/- 0.000000e+00) [K]
    Van der Waals (Tail)/kʙ-4.571553e+03 (-4.397968e+03 +/- 0.000000e+00) [K]
    Coulombic Real/kʙ      -5.904815e+04 (-5.115284e+04 +/- 0.000000e+00) [K]
    Coulombic Fourier/kʙ   -6.037054e+03 (-5.509944e+03 +/- 0.000000e+00) [K]
    Molecule Intra/kʙ       0.000000e+00 ( 0.000000e+00 +/- 0.000000e+00) [K]

Current cycle: 700 out of 6000
===============================================================================

Box:      24.86227   0.00000   0.00000  Average:  25.08275   0.00000   0.00000
           0.00000  24.86227   0.00000             0.00000  25.08275   0.00000
           0.00000   0.00000  24.86227             0.00000   0.00000  25.08275
Lengths:  24.86227  24.86227  24.86227  Average:  25.08275  25.08275  25.08275
Angles:   90.00000  90.00000  90.00000  Average:  90.00000  90.00000  90.00000
Rectangular boundary conditions

net charge:   0.00000000

component 0 (CO2) lambda:  0 occupancy:  0 (0.000000)
    net charge:   0.00000000 [e]

Amount of molecules per component :
-------------------------------------------------------------------------------
Component 0 (CO2)
    molecules:      2.010000e+02 molecules  (1.943039e+02 +/- 0.000000e+00)
    number density: 1.307897e-02 molec./A^3 (1.230624e-02 +/- 0.000000e+00)
    density:        9.555718e+02 kg/m^3     (8.991148e+02 +/- 0.000000e+00)

Average pressure tensor: 
-------------------------------------------------------------------------------
 7.3848e+01  2.8800e+00 -1.4784e+01 +/- 0.0000e+00 0.0000e+00 0.0000e+00 [bar]
 2.8800e+00  3.4962e+00 -4.0489e+01 +/- 0.0000e+00 0.0000e+00 0.0000e+00 [bar]
-1.4784e+01 -4.0489e+01  3.0502e+01 +/- 0.0000e+00 0.0000e+00 0.0000e+00 [bar]
Ideal-gas pressure:   4.757371e+02 +/ 0.000000e+00 [bar]
Excess pressure:     -4.397884e+02 +/ 0.000000e+00 [bar]
Pressure:             3.594873e+01 +/ 0.000000e+00 [bar]

Total potential energy/kʙ  -2.671255e+05 (-2.423686e+05 +/- 0.000000e+00) [K]
-------------------------------------------------------------------------------
ExternalField-molecule
    Van der Waals/kʙ        0.000000e+00 ( 0.000000e+00 +/- 0.000000e+00) [K]
Framework-molecule
    Van der Waals/kʙ        0.000000e+00 ( 0.000000e+00 +/- 0.000000e+00) [K]
    Van der Waals (Tail)/kʙ 0.000000e+00 ( 0.000000e+00 +/- 0.000000e+00) [K]
    Coulombic Real/kʙ       0.000000e+00 ( 0.000000e+00 +/- 0.000000e+00) [K]
    Coulombic Fourier/kʙ    0.000000e+00 ( 0.000000e+00 +/- 0.000000e+00) [K]
Molecule-molecule
    Van der Waals/kʙ       -1.950012e+05 (-1.809525e+05 +/- 0.000000e+00) [K]
    Van der Waals (Tail)/kʙ-4.882090e+03 (-4.428536e+03 +/- 0.000000e+00) [K]
    Coulombic Real/kʙ      -6.038809e+04 (-5.146119e+04 +/- 0.000000e+00) [K]
    Coulombic Fourier/kʙ   -6.854158e+03 (-5.526392e+03 +/- 0.000000e+00) [K]
    Molecule Intra/kʙ       0.000000e+00 ( 0.000000e+00 +/- 0.000000e+00) [K]

Current cycle: 800 out of 6000
===============================================================================

Box:      24.64149   0.00000   0.00000  Average:  25.05051   0.00000   0.00000
           0.00000  24.64149   0.00000             0.00000  25.05051   0.00000
           0.00000   0.00000  24.64149             0.00000   0.00000  25.05051
Lengths:  24.64149  24.64149  24.64149  Average:  25.05051  25.05051  25.05051
Angles:   90.00000  90.00000  90.00000  Average:  90.00000  90.00000  90.00000
Rectangular boundary conditions

net charge:   0.00000000

component 0 (CO2) lambda:  0 occupancy:  0 (0.000000)
    net charge:   0.00000000 [e]

Amount of molecules per component :
-------------------------------------------------------------------------------
Component 0 (CO2)
    molecules:      1.560000e+02 molecules  (1.932422e+02 +/- 0.000000e+00)
    number density: 1.042614e-02 molec./A^3 (1.228564e-02 +/- 0.000000e+00)
    density:        7.617518e+02 kg/m^3     (8.976100e+02 +/- 0.000000e+00)

Average pressure tensor: 
-------------------------------------------------------------------------------
 9.3853e+01  8.2810e+00 -1.6274e+01 +/- 0.0000e+00 0.0000e+00 0.0000e+00 [bar]
 8.2810e+00  6.3859e+00 -2.8696e+01 +/- 0.0000e+00 0.0000e+00 0.0000e+00 [bar]
-1.6274e+01 -2.8696e+01  2.4477e+01 +/- 0.0000e+00 0.0000e+00 0.0000e+00 [bar]
Ideal-gas pressure:   4.749409e+02 +/ 0.000000e+00 [bar]
Excess pressure:     -4.333691e+02 +/ 0.000000e+00 [bar]
Pressure:             4.157179e+01 +/ 0.000000e+00 [bar]

Total potential energy/kʙ  -1.632840e+05 (-2.404827e+05 +/- 0.000000e+00) [K]
-------------------------------------------------------------------------------
ExternalField-molecule
    Van der Waals/kʙ        0.000000e+00 ( 0.000000e+00 +/- 0.000000e+00) [K]
Framework-molecule
    Van der Waals/kʙ        0.000000e+00 ( 0.000000e+00 +/- 0.000000e+00) [K]
    Van der Waals (Tail)/kʙ 0.000000e+00 ( 0.000000e+00 +/- 0.000000e+00) [K]
    Coulombic Real/kʙ       0.000000e+00 ( 0.000000e+00 +/- 0.000000e+00) [K]
    Coulombic Fourier/kʙ    0.000000e+00 ( 0.000000e+00 +/- 0.000000e+00) [K]
Molecule-molecule
    Van der Waals/kʙ       -1.207398e+05 (-1.794696e+05 +/- 0.000000e+00) [K]
    Van der Waals (Tail)/kʙ-3.020539e+03 (-4.396550e+03 +/- 0.000000e+00) [K]
    Coulombic Real/kʙ      -3.636646e+04 (-5.112303e+04 +/- 0.000000e+00) [K]
    Coulombic Fourier/kʙ   -3.157205e+03 (-5.493554e+03 +/- 0.000000e+00) [K]
    Molecule Intra/kʙ       0.000000e+00 ( 0.000000e+00 +/- 0.000000e+00) [K]

Current cycle: 900 out of 6000
===============================================================================

Box:      24.84857   0.00000   0.00000  Average:  25.02899   0.00000   0.00000
           0.00000  24.84857   0.00000             0.00000  25.02899   0.00000
           0.00000   0.00000  24.84857             0.00000   0.00000  25.02899
Lengths:  24.84857  24.84857  24.84857  Average:  25.02899  25.02899  25.02899
Angles:   90.00000  90.00000  90.00000  Average:  90.00000  90.00000  90.00000
Rectangular boundary conditions

net charge:   0.00000000

component 0 (CO2) lambda:  0 occupancy:  0 (0.000000)
    net charge:   0.00000000 [e]

Amount of molecules per component :
-------------------------------------------------------------------------------
Component 0 (CO2)
    molecules:      1.800000e+02 molecules  (1.923740e+02 +/- 0.000000e+00)
    number density: 1.173190e-02 molec./A^3 (1.226202e-02 +/- 0.000000e+00)
    density:        8.571524e+02 kg/m^3     (8.958841e+02 +/- 0.000000e+00)

Average pressure tensor: 
-------------------------------------------------------------------------------
 1.0009e+02 -1.0439e+00 -9.3425e+00 +/- 0.0000e+00 0.0000e+00 0.0000e+00 [bar]
-1.0439e+00  3.7452e+01 -2.6317e+01 +/- 0.0000e+00 0.0000e+00 0.0000e+00 [bar]
-9.3425e+00 -2.6317e+01  5.1109e+01 +/- 0.0000e+00 0.0000e+00 0.0000e+00 [bar]
Ideal-gas pressure:   4.740277e+02 +/ 0.000000e+00 [bar]
Excess pressure:     -4.111450e+02 +/ 0.000000e+00 [bar]
Pressure:             6.288267e+01 +/ 0.000000e+00 [bar]

Total potential energy/kʙ  -2.119365e+05 (-2.390408e+05 +/- 0.000000e+00) [K]
-------------------------------------------------------------------------------
ExternalField-molecule
    Van der Waals/kʙ        0.000000e+00 ( 0.000000e+00 +/- 0.000000e+00) [K]
Framework-molecule
    Van der Waals/kʙ        0.000000e+00 ( 0.000000e+00 +/- 0.000000e+00) [K]
    Van der Waals (Tail)/kʙ 0.000000e+00 ( 0.000000e+00 +/- 0.000000e+00) [K]
    Coulombic Real/kʙ       0.000000e+00 ( 0.000000e+00 +/- 0.000000e+00) [K]
    Coulombic Fourier/kʙ    0.000000e+00 ( 0.000000e+00 +/- 0.000000e+00) [K]
Molecule-molecule
    Van der Waals/kʙ       -1.528543e+05 (-1.780867e+05 +/- 0.000000e+00) [K]
    Van der Waals (Tail)/kʙ-3.921723e+03 (-4.378036e+03 +/- 0.000000e+00) [K]
    Coulombic Real/kʙ      -5.001126e+04 (-5.111859e+04 +/- 0.000000e+00) [K]
    Coulombic Fourier/kʙ   -5.149303e+03 (-5.457520e+03 +/- 0.000000e+00) [K]
    Molecule Intra/kʙ       0.000000e+00 ( 0.000000e+00 +/- 0.000000e+00) [K]

Current cycle: 1000 out of 6000
===============================================================================

Box:      25.33829   0.00000   0.00000  Average:  25.02874   0.00000   0.00000
           0.00000  25.33829   0.00000             0.00000  25.02874   0.00000
           0.00000   0.00000  25.33829             0.00000   0.00000  25.02874
Lengths:  25.33829  25.33829  25.33829  Average:  25.02874  25.02874  25.02874
Angles:   90.00000  90.00000  90.00000  Average:  90.00000  90.00000  90.00000
Rectangular boundary conditions

net charge:   0.00000000

component 0 (CO2) lambda:  0 occupancy:  0 (0.000000)
    net charge:   0.00000000 [e]

Amount of molecules per component :
-------------------------------------------------------------------------------
Component 0 (CO2)
    molecules:      1.920000e+02 molecules  (1.922228e+02 +/- 0.000000e+00)
    number density: 1.180238e-02 molec./A^3 (1.225364e-02 +/- 0.000000e+00)
    density:        8.623018e+02 kg/m^3     (8.952718e+02 +/- 0.000000e+00)

Average pressure tensor: 
-------------------------------------------------------------------------------
 8.3479e+01 -1.5765e+00  4.1542e+00 +/- 0.0000e+00 0.0000e+00 0.0000e+00 [bar]
-1.5765e+00  3.8725e+01 -2.8971e+01 +/- 0.0000e+00 0.0000e+00 0.0000e+00 [bar]
 4.1542e+00 -2.8971e+01  6.7090e+01 +/- 0.0000e+00 0.0000e+00 0.0000e+00 [bar]
Ideal-gas pressure:   4.737037e+02 +/ 0.000000e+00 [bar]
Excess pressure:     -4.106057e+02 +/ 0.000000e+00 [bar]
Pressure:             6.309801e+01 +/ 0.000000e+00 [bar]

Total potential energy/kʙ  -2.346235e+05 (-2.388082e+05 +/- 0.000000e+00) [K]
-------------------------------------------------------------------------------
ExternalField-molecule
    Van der Waals/kʙ        0.000000e+00 ( 0.000000e+00 +/- 0.000000e+00) [K]
Framework-molecule
    Van der Waals/kʙ        0.000000e+00 ( 0.000000e+00 +/- 0.000000e+00) [K]
    Van der Waals (Tail)/kʙ 0.000000e+00 ( 0.000000e+00 +/- 0.000000e+00) [K]
    Coulombic Real/kʙ       0.000000e+00 ( 0.000000e+00 +/- 0.000000e+00) [K]
    Coulombic Fourier/kʙ    0.000000e+00 ( 0.000000e+00 +/- 0.000000e+00) [K]
Molecule-molecule
    Van der Waals/kʙ       -1.716632e+05 (-1.779833e+05 +/- 0.000000e+00) [K]
    Van der Waals (Tail)/kʙ-4.208302e+03 (-4.375586e+03 +/- 0.000000e+00) [K]
    Coulombic Real/kʙ      -5.318929e+04 (-5.100492e+04 +/- 0.000000e+00) [K]
    Coulombic Fourier/kʙ   -5.562736e+03 (-5.444354e+03 +/- 0.000000e+00) [K]
    Molecule Intra/kʙ       0.000000e+00 ( 0.000000e+00 +/- 0.000000e+00) [K]

Current cycle: 1100 out of 6000
===============================================================================

Box:      24.84531   0.00000   0.00000  Average:  25.02315   0.00000   0.00000
           0.00000  24.84531   0.00000             0.00000  25.02315   0.00000
           0.00000   0.00000  24.84531             0.00000   0.00000  25.02315
Lengths:  24.84531  24.84531  24.84531  Average:  25.02315  25.02315  25.02315
Angles:   90.00000  90.00000  90.00000  Average:  90.00000  90.00000  90.00000
Rectangular boundary conditions

net charge:   0.00000000

component 0 (CO2) lambda:  0 occupancy:  0 (0.000000)
    net charge:   0.00000000 [e]

Amount of molecules per component :
-------------------------------------------------------------------------------
Component 0 (CO2)
    molecules:      1.740000e+02 molecules  (1.915758e+02 +/- 0.000000e+00)
    number density: 1.134531e-02 molec./A^3 (1.222105e-02 +/- 0.000000e+00)
    density:        8.289075e+02 kg/m^3     (8.928912e+02 +/- 0.000000e+00)

Average pressure tensor: 
-------------------------------------------------------------------------------
 8.1622e+01  8.8791e-01  5.4648e-02 +/- 0.0000e+00 0.0000e+00 0.0000e+00 [bar]
 8.8791e-01  3.8186e+01 -3.6381e+01 +/- 0.0000e+00 0.0000e+00 0.0000e+00 [bar]
 5.4648e-02 -3.6381e+01  6.3201e+01 +/- 0.0000e+00 0.0000e+00 0.0000e+00 [bar]
Ideal-gas pressure:   4.724441e+02 +/ 0.000000e+00 [bar]
Excess pressure:     -4.114410e+02 +/ 0.000000e+00 [bar]
Pressure:             6.100307e+01 +/ 0.000000e+00 [bar]

Total potential energy/kʙ  -2.010992e+05 (-2.377561e+05 +/- 0.000000e+00) [K]
-------------------------------------------------------------------------------
ExternalField-molecule
    Van der Waals/kʙ        0.000000e+00 ( 0.000000e+00 +/- 0.000000e+00) [K]
Framework-molecule
    Van der Waals/kʙ        0.000000e+00 ( 0.000000e+00 +/- 0.000000e+00) [K]
    Van der Waals (Tail)/kʙ 0.000000e+00 ( 0.000000e+00 +/- 0.000000e+00) [K]
    Coulombic Real/kʙ       0.000000e+00 ( 0.000000e+00 +/- 0.000000e+00) [K]
    Coulombic Fourier/kʙ    0.000000e+00 ( 0.000000e+00 +/- 0.000000e+00) [K]
Molecule-molecule
    Van der Waals/kʙ       -1.490290e+05 (-1.770436e+05 +/- 0.000000e+00) [K]
    Van der Waals (Tail)/kʙ-3.666078e+03 (-4.356233e+03 +/- 0.000000e+00) [K]
    Coulombic Real/kʙ      -4.417937e+04 (-5.090902e+04 +/- 0.000000e+00) [K]
    Coulombic Fourier/kʙ   -4.224769e+03 (-5.447215e+03 +/- 0.000000e+00) [K]
    Molecule Intra/kʙ       0.000000e+00 ( 0.000000e+00 +/- 0.000000e+00) [K]

Current cycle: 1200 out of 6000
===============================================================================

Box:      24.66725   0.00000   0.00000  Average:  25.00507   0.00000   0.00000
           0.00000  24.66725   0.00000             0.00000  25.00507   0.00000
           0.00000   0.00000  24.66725             0.00000   0.00000  25.00507
Lengths:  24.66725  24.66725  24.66725  Average:  25.00507  25.00507  25.00507
Angles:   90.00000  90.00000  90.00000  Average:  90.00000  90.00000  90.00000
Rectangular boundary conditions

net charge:   0.00000000

component 0 (CO2) lambda:  0 occupancy:  0 (0.000000)
    net charge:   0.00000000 [e]

Amount of molecules per component :
-------------------------------------------------------------------------------
Component 0 (CO2)
    molecules:      1.810000e+02 molecules  (1.909392e+02 +/- 0.000000e+00)
    number density: 1.205914e-02 molec./A^3 (1.220665e-02 +/- 0.000000e+00)
    density:        8.810614e+02 kg/m^3     (8.918391e+02 +/- 0.000000e+00)

Average pressure tensor: 
-------------------------------------------------------------------------------
 8.1240e+01 -2.4599e+00 -2.8242e+00 +/- 0.0000e+00 0.0000e+00 0.0000e+00 [bar]
-2.4599e+00  4.4722e+01 -3.7861e+01 +/- 0.0000e+00 0.0000e+00 0.0000e+00 [bar]
-2.8242e+00 -3.7861e+01  6.1440e+01 +/- 0.0000e+00 0.0000e+00 0.0000e+00 [bar]
Ideal-gas pressure:   4.718874e+02 +/ 0.000000e+00 [bar]
Excess pressure:     -4.094198e+02 +/ 0.000000e+00 [bar]
Pressure:             6.246756e+01 +/ 0.000000e+00 [bar]

Total potential energy/kʙ  -2.303669e+05 (-2.363476e+05 +/- 0.000000e+00) [K]
-------------------------------------------------------------------------------
ExternalField-molecule
    Van der Waals/kʙ        0.000000e+00 ( 0.000000e+00 +/- 0.000000e+00) [K]
Framework-molecule
    Van der Waals/kʙ        0.000000e+00 ( 0.000000e+00 +/- 0.000000e+00) [K]
    Van der Waals (Tail)/kʙ 0.000000e+00 ( 0.000000e+00 +/- 0.000000e+00) [K]
    Coulombic Real/kʙ       0.000000e+00 ( 0.000000e+00 +/- 0.000000e+00) [K]
    Coulombic Fourier/kʙ    0.000000e+00 ( 0.000000e+00 +/- 0.000000e+00) [K]
Molecule-molecule
    Van der Waals/kʙ       -1.666585e+05 (-1.759349e+05 +/- 0.000000e+00) [K]
    Van der Waals (Tail)/kʙ-4.053509e+03 (-4.329171e+03 +/- 0.000000e+00) [K]
    Coulombic Real/kʙ      -5.455554e+04 (-5.067324e+04 +/- 0.000000e+00) [K]
    Coulombic Fourier/kʙ   -5.099355e+03 (-5.410309e+03 +/- 0.000000e+00) [K]
    Molecule Intra/kʙ       0.000000e+00 ( 0.000000e+00 +/- 0.000000e+00) [K]

Current cycle: 1300 out of 6000
===============================================================================

Box:      24.71559   0.00000   0.00000  Average:  24.96315   0.00000   0.00000
           0.00000  24.71559   0.00000             0.00000  24.96315   0.00000
           0.00000   0.00000  24.71559             0.00000   0.00000  24.96315
Lengths:  24.71559  24.71559  24.71559  Average:  24.96315  24.96315  24.96315
Angles:   90.00000  90.00000  90.00000  Average:  90.00000  90.00000  90.00000
Rectangular boundary conditions

net charge:   0.00000000

component 0 (CO2) lambda:  0 occupancy:  0 (0.000000)
    net charge:   0.00000000 [e]

Amount of molecules per component :
-------------------------------------------------------------------------------
Component 0 (CO2)
    molecules:      1.890000e+02 molecules  (1.898762e+02 +/- 0.000000e+00)
    number density: 1.251841e-02 molec./A^3 (1.219874e-02 +/- 0.000000e+00)
    density:        9.146162e+02 kg/m^3     (8.912609e+02 +/- 0.000000e+00)

Average pressure tensor: 
-------------------------------------------------------------------------------
 8.3820e+01  1.5022e+00  1.9470e+00 +/- 0.0000e+00 0.0000e+00 0.0000e+00 [bar]
 1.5022e+00  4.6969e+01 -3.8708e+01 +/- 0.0000e+00 0.0000e+00 0.0000e+00 [bar]
 1.9470e+00 -3.8708e+01  7.5017e+01 +/- 0.0000e+00 0.0000e+00 0.0000e+00 [bar]
Ideal-gas pressure:   4.715815e+02 +/ 0.000000e+00 [bar]
Excess pressure:     -4.029796e+02 +/ 0.000000e+00 [bar]
Pressure:             6.860192e+01 +/ 0.000000e+00 [bar]

Total potential energy/kʙ  -2.348413e+05 (-2.346310e+05 +/- 0.000000e+00) [K]
-------------------------------------------------------------------------------
ExternalField-molecule
    Van der Waals/kʙ        0.000000e+00 ( 0.000000e+00 +/- 0.000000e+00) [K]
Framework-molecule
    Van der Waals/kʙ        0.000000e+00 ( 0.000000e+00 +/- 0.000000e+00) [K]
    Van der Waals (Tail)/kʙ 0.000000e+00 ( 0.000000e+00 +/- 0.000000e+00) [K]
    Coulombic Real/kʙ       0.000000e+00 ( 0.000000e+00 +/- 0.000000e+00) [K]
    Coulombic Fourier/kʙ    0.000000e+00 ( 0.000000e+00 +/- 0.000000e+00) [K]
Molecule-molecule
    Van der Waals/kʙ       -1.764408e+05 (-1.746685e+05 +/- 0.000000e+00) [K]
    Van der Waals (Tail)/kʙ-4.393869e+03 (-4.301103e+03 +/- 0.000000e+00) [K]
    Coulombic Real/kʙ      -4.893237e+04 (-5.028299e+04 +/- 0.000000e+00) [K]
    Coulombic Fourier/kʙ   -5.074323e+03 (-5.378430e+03 +/- 0.000000e+00) [K]
    Molecule Intra/kʙ       0.000000e+00 ( 0.000000e+00 +/- 0.000000e+00) [K]

Current cycle: 1400 out of 6000
===============================================================================

Box:      25.16483   0.00000   0.00000  Average:  24.96640   0.00000   0.00000
           0.00000  25.16483   0.00000             0.00000  24.96640   0.00000
           0.00000   0.00000  25.16483             0.00000   0.00000  24.96640
Lengths:  25.16483  25.16483  25.16483  Average:  24.96640  24.96640  24.96640
Angles:   90.00000  90.00000  90.00000  Average:  90.00000  90.00000  90.00000
Rectangular boundary conditions

net charge:   0.00000000

component 0 (CO2) lambda:  0 occupancy:  0 (0.000000)
    net charge:   0.00000000 [e]

Amount of molecules per component :
-------------------------------------------------------------------------------
Component 0 (CO2)
    molecules:      1.910000e+02 molecules  (1.904561e+02 +/- 0.000000e+00)
    number density: 1.198537e-02 molec./A^3 (1.223146e-02 +/- 0.000000e+00)
    density:        8.756715e+02 kg/m^3     (8.936511e+02 +/- 0.000000e+00)

Average pressure tensor: 
-------------------------------------------------------------------------------
 7.9664e+01  3.9160e+00  5.1159e+00 +/- 0.0000e+00 0.0000e+00 0.0000e+00 [bar]
 3.9160e+00  5.1594e+01 -3.1871e+01 +/- 0.0000e+00 0.0000e+00 0.0000e+00 [bar]
 5.1159e+00 -3.1871e+01  8.6652e+01 +/- 0.0000e+00 0.0000e+00 0.0000e+00 [bar]
Ideal-gas pressure:   4.728462e+02 +/ 0.000000e+00 [bar]
Excess pressure:     -4.002099e+02 +/ 0.000000e+00 [bar]
Pressure:             7.263632e+01 +/ 0.000000e+00 [bar]

Total potential energy/kʙ  -2.328967e+05 (-2.361859e+05 +/- 0.000000e+00) [K]
-------------------------------------------------------------------------------
ExternalField-molecule
    Van der Waals/kʙ        0.000000e+00 ( 0.000000e+00 +/- 0.000000e+00) [K]
Framework-molecule
    Van der Waals/kʙ        0.000000e+00 ( 0.000000e+00 +/- 0.000000e+00) [K]
    Van der Waals (Tail)/kʙ 0.000000e+00 ( 0.000000e+00 +/- 0.000000e+00) [K]
    Coulombic Real/kʙ       0.000000e+00 ( 0.000000e+00 +/- 0.000000e+00) [K]
    Coulombic Fourier/kʙ    0.000000e+00 ( 0.000000e+00 +/- 0.000000e+00) [K]
Molecule-molecule
    Van der Waals/kʙ       -1.743684e+05 (-1.757742e+05 +/- 0.000000e+00) [K]
    Van der Waals (Tail)/kʙ-4.251292e+03 (-4.328660e+03 +/- 0.000000e+00) [K]
    Coulombic Real/kʙ      -4.942922e+04 (-5.067340e+04 +/- 0.000000e+00) [K]
    Coulombic Fourier/kʙ   -4.847773e+03 (-5.409704e+03 +/- 0.000000e+00) [K]
    Molecule Intra/kʙ       0.000000e+00 ( 0.000000e+00 +/- 0.000000e+00) [K]

Current cycle: 1500 out of 6000
===============================================================================

Box:      24.47942   0.00000   0.00000  Average:  24.95404   0.00000   0.00000
           0.00000  24.47942   0.00000             0.00000  24.95404   0.00000
           0.00000   0.00000  24.47942             0.00000   0.00000  24.95404
[...]
    number density: 1.184730e-02 molec./A^3 (1.222658e-02 +/- 2.549295e-04)
    density:        8.655842e+02 kg/m^3     (8.932950e+02 +/- 1.862559e+01)

Average pressure tensor: 
-------------------------------------------------------------------------------
 2.5129e+01 -9.2722e+00 -3.8610e+00 +/- 6.5621e+01 2.1756e+01 8.0923e+00 [bar]
-9.2722e+00  3.2431e+01 -1.8806e+01 +/- 2.1756e+01 5.7592e+01 3.5891e+01 [bar]
-3.8610e+00 -1.8806e+01  6.3570e+01 +/- 8.0923e+00 3.5891e+01 3.0837e+01 [bar]
Ideal-gas pressure:   4.726578e+02 +/ 9.855118e+00 [bar]
Excess pressure:     -4.322811e+02 +/ 2.844623e+01 [bar]
Pressure:             4.037663e+01 +/ 3.444111e+01 [bar]

Total potential energy/kʙ  -2.165431e+05 (-2.387019e+05 +/- 2.556411e+03) [K]
-------------------------------------------------------------------------------
ExternalField-molecule
    Van der Waals/kʙ        0.000000e+00 ( 0.000000e+00 +/- 0.000000e+00) [K]
Framework-molecule
    Van der Waals/kʙ        0.000000e+00 ( 0.000000e+00 +/- 0.000000e+00) [K]
    Van der Waals (Tail)/kʙ 0.000000e+00 ( 0.000000e+00 +/- 0.000000e+00) [K]
    Coulombic Real/kʙ       0.000000e+00 ( 0.000000e+00 +/- 0.000000e+00) [K]
    Coulombic Fourier/kʙ    0.000000e+00 ( 0.000000e+00 +/- 0.000000e+00) [K]
Molecule-molecule
    Van der Waals/kʙ       -1.643275e+05 (-1.773214e+05 +/- 1.965691e+03) [K]
    Van der Waals (Tail)/kʙ-4.026306e+03 (-4.359409e+03 +/- 4.452270e+01) [K]
    Coulombic Real/kʙ      -4.289484e+04 (-5.147872e+04 +/- 6.953155e+02) [K]
    Coulombic Fourier/kʙ   -5.294457e+03 (-5.542330e+03 +/- 1.264838e+02) [K]
    Molecule Intra/kʙ       0.000000e+00 ( 0.000000e+00 +/- 0.000000e+00) [K]

Current cycle: 5800 out of 6000
===============================================================================

Box:      24.85484   0.00000   0.00000  Average:  25.06614   0.00000   0.00000
           0.00000  24.85484   0.00000             0.00000  25.06614   0.00000
           0.00000   0.00000  24.85484             0.00000   0.00000  25.06614
Lengths:  24.85484  24.85484  24.85484  Average:  25.06614  25.06614  25.06614
Angles:   90.00000  90.00000  90.00000  Average:  90.00000  90.00000  90.00000
Rectangular boundary conditions

net charge:   0.00000000

component 0 (CO2) lambda:  0 occupancy:  0 (0.000000)
    net charge:   0.00000000 [e]

Amount of molecules per component :
-------------------------------------------------------------------------------
Component 0 (CO2)
    molecules:      1.970000e+02 molecules  (1.925165e+02 +/- 6.216992e+00)
    number density: 1.283020e-02 molec./A^3 (1.222494e-02 +/- 2.322445e-04)
    density:        9.373965e+02 kg/m^3     (8.931754e+02 +/- 1.696818e+01)

Average pressure tensor: 
-------------------------------------------------------------------------------
 2.3807e+01 -8.8281e+00 -2.9040e+00 +/- 6.3861e+01 2.1958e+01 7.3536e+00 [bar]
-8.8281e+00  3.2655e+01 -1.9224e+01 +/- 2.1958e+01 5.5918e+01 3.2787e+01 [bar]
-2.9040e+00 -1.9224e+01  5.9398e+01 +/- 7.3536e+00 3.2787e+01 3.4199e+01 [bar]
Ideal-gas pressure:   4.725945e+02 +/ 8.978157e+00 [bar]
Excess pressure:     -4.339747e+02 +/ 2.676971e+01 [bar]
Pressure:             3.861973e+01 +/ 3.091068e+01 [bar]

Total potential energy/kʙ  -2.652222e+05 (-2.386843e+05 +/- 2.510231e+03) [K]
-------------------------------------------------------------------------------
ExternalField-molecule
    Van der Waals/kʙ        0.000000e+00 ( 0.000000e+00 +/- 0.000000e+00) [K]
Framework-molecule
    Van der Waals/kʙ        0.000000e+00 ( 0.000000e+00 +/- 0.000000e+00) [K]
    Van der Waals (Tail)/kʙ 0.000000e+00 ( 0.000000e+00 +/- 0.000000e+00) [K]
    Coulombic Real/kʙ       0.000000e+00 ( 0.000000e+00 +/- 0.000000e+00) [K]
    Coulombic Fourier/kʙ    0.000000e+00 ( 0.000000e+00 +/- 0.000000e+00) [K]
Molecule-molecule
    Van der Waals/kʙ       -1.936524e+05 (-1.773411e+05 +/- 1.846434e+03) [K]
    Van der Waals (Tail)/kʙ-4.693923e+03 (-4.358773e+03 +/- 4.390126e+01) [K]
    Coulombic Real/kʙ      -6.114399e+04 (-5.144291e+04 +/- 7.188753e+02) [K]
    Coulombic Fourier/kʙ   -5.731850e+03 (-5.541434e+03 +/- 1.254055e+02) [K]
    Molecule Intra/kʙ       0.000000e+00 ( 0.000000e+00 +/- 0.000000e+00) [K]

Current cycle: 5900 out of 6000
===============================================================================

Box:      25.30130   0.00000   0.00000  Average:  25.06706   0.00000   0.00000
           0.00000  25.30130   0.00000             0.00000  25.06706   0.00000
           0.00000   0.00000  25.30130             0.00000   0.00000  25.06706
Lengths:  25.30130  25.30130  25.30130  Average:  25.06706  25.06706  25.06706
Angles:   90.00000  90.00000  90.00000  Average:  90.00000  90.00000  90.00000
Rectangular boundary conditions

net charge:   0.00000000

component 0 (CO2) lambda:  0 occupancy:  0 (0.000000)
    net charge:   0.00000000 [e]

Amount of molecules per component :
-------------------------------------------------------------------------------
Component 0 (CO2)
    molecules:      1.970000e+02 molecules  (1.925533e+02 +/- 5.749903e+00)
    number density: 1.216292e-02 molec./A^3 (1.222604e-02 +/- 2.212678e-04)
    density:        8.886436e+02 kg/m^3     (8.932557e+02 +/- 1.616621e+01)

Average pressure tensor: 
-------------------------------------------------------------------------------
 2.4466e+01 -5.9726e+00 -3.9403e+00 +/- 6.4053e+01 2.4920e+01 7.9738e+00 [bar]
-5.9726e+00  3.3755e+01 -2.0454e+01 +/- 2.4920e+01 5.6271e+01 2.8656e+01 [bar]
-3.9403e+00 -2.0454e+01  5.9584e+01 +/- 7.9738e+00 2.8656e+01 3.3496e+01 [bar]
Ideal-gas pressure:   4.726369e+02 +/ 8.553817e+00 [bar]
Excess pressure:     -4.333683e+02 +/ 2.703736e+01 [bar]
Pressure:             3.926861e+01 +/ 3.131675e+01 [bar]

Total potential energy/kʙ  -2.377631e+05 (-2.387279e+05 +/- 2.376463e+03) [K]
-------------------------------------------------------------------------------
ExternalField-molecule
    Van der Waals/kʙ        0.000000e+00 ( 0.000000e+00 +/- 0.000000e+00) [K]
Framework-molecule
    Van der Waals/kʙ        0.000000e+00 ( 0.000000e+00 +/- 0.000000e+00) [K]
    Van der Waals (Tail)/kʙ 0.000000e+00 ( 0.000000e+00 +/- 0.000000e+00) [K]
    Coulombic Real/kʙ       0.000000e+00 ( 0.000000e+00 +/- 0.000000e+00) [K]
    Coulombic Fourier/kʙ    0.000000e+00 ( 0.000000e+00 +/- 0.000000e+00) [K]
Molecule-molecule
    Van der Waals/kʙ       -1.796232e+05 (-1.773710e+05 +/- 1.738727e+03) [K]
    Van der Waals (Tail)/kʙ-4.449797e+03 (-4.358973e+03 +/- 4.168476e+01) [K]
    Coulombic Real/kʙ      -4.835170e+04 (-5.145997e+04 +/- 7.022858e+02) [K]
    Coulombic Fourier/kʙ   -5.338438e+03 (-5.537867e+03 +/- 1.283602e+02) [K]
    Molecule Intra/kʙ       0.000000e+00 ( 0.000000e+00 +/- 0.000000e+00) [K]


Energy statistics             |  Energy [K]   | Recomputed [K]|  Drift [K]    |
===============================================================================
Total potential energy/kʙ     | -2.453480e+05 | -2.453480e+05 | -4.657157e-09 |
    external field VDW/kʙ     |  0.000000e+00 |  0.000000e+00 |  0.000000e+00 |
    external field Real/kʙ    |  0.000000e+00 |  0.000000e+00 |  0.000000e+00 |
    framework-molecule VDW/kʙ |  0.000000e+00 |  0.000000e+00 |  0.000000e+00 |
    framework-molecule Real/kʙ|  0.000000e+00 |  0.000000e+00 |  0.000000e+00 |
    molecule-molecule VDW/kʙ  | -1.802375e+05 | -1.802375e+05 | -1.715190e-09 |
    molecule-molecule Real/kʙ | -5.543806e+04 | -5.543806e+04 | -7.525835e-10 |
    Van der Waals (Tail)/kʙ   | -4.412745e+03 | -4.412745e+03 |  3.117533e-11 |
    Ewald Fourier/kʙ          |  6.207341e+03 |  6.207341e+03 |  1.968968e-11 |
    Ewald self/kʙ             | -3.581523e+06 | -3.581523e+06 | -1.120124e-09 |
    Ewald exclusion/kʙ        |  3.570055e+06 |  3.570055e+06 | -1.120124e-09 |
    intra VDW/kʙ              |  0.000000e+00 |  0.000000e+00 |  0.000000e+00 |
    intra Coulombic/kʙ        |  0.000000e+00 |  0.000000e+00 |  0.000000e+00 |
    polarization/kʙ           |  0.000000e+00 |  0.000000e+00 |  0.000000e+00 |
    dU/dlambda VDW/kʙ         |  0.000000e+00 |  0.000000e+00 |  0.000000e+00 |
    dU/dlambda Real/kʙ        |  0.000000e+00 |  0.000000e+00 |  0.000000e+00 |
    dU/dlambda Ewald/kʙ       |  0.000000e+00 |  0.000000e+00 |  0.000000e+00 |
-------------------------------------------------------------------------------


Monte-Carlo moves statistics
===============================================================================

    Gibbs volume         all:                3002
    Gibbs volume         total:              5999
    Gibbs volume         constructed:        5999
    Gibbs volume         accepted:           4195
    Gibbs volume         fraction:       0.699283
    Gibbs volume         max-change:     0.035797

Component 0 [CO2]
    Reinsertion (CBMC)   all:              149153
    Reinsertion (CBMC)   total:            149153
    Reinsertion (CBMC)   constructed:      146090
    Reinsertion (CBMC)   accepted:          13444
    Reinsertion (CBMC)   fraction:       0.090136
    Reinsertion (CBMC)   max-change:     0.000000

    Gibbs swap (CBMC)    all:              298512
    Gibbs swap (CBMC)    total:            596798
    Gibbs swap (CBMC)    constructed:      590405
    Gibbs swap (CBMC)    accepted:         108297
    Gibbs swap (CBMC)    fraction:       0.181463
    Gibbs swap (CBMC)    max-change:     0.000000

    Translation          all:              149572
    Translation          total:             50084      49743      49745
    Translation          constructed:       50084      49743      49745
    Translation          accepted:          25596      29706      26723
    Translation          fraction:       0.511061   0.597190   0.537200
    Translation          max-change:     0.840700   0.731926   0.812235

    Rotation             all:              148948
    Rotation             total:             49798      49736      49414
    Rotation             constructed:       49798      49683      49410
    Rotation             accepted:          27373      21203      23889
    Rotation             fraction:       0.549681   0.426311   0.483446
    Rotation             max-change:     0.812753   0.982845   0.900618



Production run counting of the MC moves summed over systems and components
===============================================================================

Reinsertion (CBMC)                   299275 (19.9517 [%])
Gibbs volume                           5999 (0.3999 [%])
Gibbs swap (CBMC)                    596798 (39.7865 [%])
Translation                          299587 (19.9725 [%])
Rotation                             298341 (19.8894 [%])

Production count MC-steps:          1500000 [-]
               All summed:          1500000 [-]
               difference:                0 [-]


Production run CPU timings of the MC moves
===============================================================================

Component 0 CO2

Rotation                             19.985179 [s]
    Ewald                             5.269017 [s]
    ExternalField-Molecule            0.007724 [s]
    Framework-Molecule                0.008237 [s]
    Molecule-Molecule                14.278839 [s]
    Overhead                          0.421362 [s]

Reinsertion (CBMC)                  115.534778 [s]
    Ewald                             5.328369 [s]
    NonEwald                        110.027667 [s]
    Overhead                          0.178742 [s]

Translation                          20.128481 [s]
    Ewald                             5.299209 [s]
    ExternalField-Molecule            0.007919 [s]
    Framework-Molecule                0.012509 [s]
    Molecule-Molecule                14.357499 [s]
    Overhead                          0.451345 [s]



Gibbs swap (CBMC)                   172.770112 [s]
    Ewald                            16.678322 [s]
    NonEwald                        153.933245 [s]
    Tail                              1.312391 [s]

Gibbs volume                         20.944461 [s]
    Ewald                             4.869568 [s]
    NonEwald                         15.390394 [s]
    Tail                              0.514993 [s]

Property sampling                     0.332405 [s]
Energy/pressure sampling:             7.765462 [s]


Production run CPU timings of the MC moves summed over systems and components
===============================================================================


Translation                          28.227321 [s]
    Ewald                            10.517038 [s]
    ExternalField-Molecule            0.015925 [s]
    Framework-Molecule                0.024925 [s]
    Molecule-Molecule                16.706597 [s]
    Overhead                          0.962836 [s]

Rotation                             28.065326 [s]
    Ewald                            10.489144 [s]
    ExternalField-Molecule            0.015510 [s]
    Framework-Molecule                0.016385 [s]
    Molecule-Molecule                16.605789 [s]
    Overhead                          0.938498 [s]

Reinsertion (CBMC)                  144.457910 [s]
    Ewald                            10.658760 [s]
    NonEwald                        133.221219 [s]
    Overhead                          0.577931 [s]

Gibbs volume                         41.890831 [s]
    Ewald                             9.749433 [s]
    NonEwald                         30.775884 [s]
    Tail                              1.029942 [s]
    Overhead                          0.335572 [s]

Gibbs swap (CBMC)                   353.683026 [s]
    Ewald                            33.635033 [s]
    NonEwald                        315.340142 [s]
    Tail                              2.954756 [s]
    Overhead                          1.753095 [s]

Property sampling:                    0.666057 [s]
Energy/pressure sampling:             9.012093 [s]

Production simulation time:         607.027552 [s]
                All summed:         606.002564 [s]
                  Overhead:           1.024988 [s]


Initalization simulation time:      191.559965 [s]
Equilibration simulation time:        0.000000 [s]
Production simulation time:         607.027552 [s]
Total simulation time:              798.587517 [s]


Energy averages and statistics:
===============================================================================

Framework-molecule energy:
-------------------------------------------------------------------------------



Framework-molecule energy contributions per energy type:
-------------------------------------------------------------------------------



Inter-molecular energy:
-------------------------------------------------------------------------------

    Inter-molecular energy/kʙ 0-0 [CO2-CO2]:
    ---------------------------------------------------------------------------
        Block[  0] -2.363975e+05
        Block[  1] -2.394460e+05
        Block[  2] -2.405437e+05
        Block[  3] -2.401948e+05
        Block[  4] -2.378622e+05
        -----------------------------------------------------------------------
        Average  -2.388888e+05 +/-  2.151656e+03 [K]



Inter-molecular energy contributions per energy type:
-------------------------------------------------------------------------------

    Van der Waals energy/kʙ 0-0 [CO2-CO2]:
    ---------------------------------------------------------------------------
        Block[  0] -1.760122e+05
        Block[  1] -1.773431e+05
        Block[  2] -1.789923e+05
        Block[  3] -1.784858e+05
        Block[  4] -1.766074e+05
        -----------------------------------------------------------------------
        Average  -1.774882e+05 +/-  1.549708e+03 [K]

    VDW Tail-Correction energy/kʙ 0-0 [CO2-CO2]:
    ---------------------------------------------------------------------------
        Block[  0] -4.331468e+03
        Block[  1] -4.365611e+03
        Block[  2] -4.391602e+03
        Block[  3] -4.387056e+03
        Block[  4] -4.332646e+03
        -----------------------------------------------------------------------
        Average  -4.361677e+03 +/-  3.571489e+01 [K]

    Coulomb Real energy/kʙ 0-0 [CO2-CO2]:
    ---------------------------------------------------------------------------
        Block[  0] -5.064089e+04
        Block[  1] -5.215987e+04
        Block[  2] -5.150401e+04
        Block[  3] -5.173004e+04
        Block[  4] -5.145104e+04
        -----------------------------------------------------------------------
        Average  -5.149717e+04 +/-  6.880878e+02 [K]

    Coulomb Fourier energy/kʙ 0-0 [CO2-CO2]:
    ---------------------------------------------------------------------------
        Block[  0] -5.412901e+03
        Block[  1] -5.577438e+03
        Block[  2] -5.655806e+03
        Block[  3] -5.591866e+03
        Block[  4] -5.471104e+03
        -----------------------------------------------------------------------
        Average  -5.541823e+03 +/-  1.216176e+02 [K]


Total energy/kʙ
-------------------------------------------------------------------------------
    Block[  0] -2.363975e+05
    Block[  1] -2.394460e+05
    Block[  2] -2.405437e+05
    Block[  3] -2.401948e+05
    Block[  4] -2.378622e+05
    ---------------------------------------------------------------------------
    Average  -2.388888e+05 +/-  2.151656e+03 [K]

Pressure averages and statistics:
===============================================================================

Average pressure tensor: 
-------------------------------------------------------------------------------
 2.4605e+01 -6.4669e+00 -2.8392e+00 +/- 6.3876e+01 2.3874e+01 7.3558e+00 [bar]
-6.4669e+00  3.3529e+01 -2.0475e+01 +/- 2.3874e+01 5.4360e+01 2.7711e+01 [bar]
-2.8392e+00 -2.0475e+01  5.9336e+01 +/- 7.3558e+00 2.7711e+01 3.3418e+01 [bar]

    Block[  0]  4.718922e+07
    Block[  1]  4.724009e+07
    Block[  2]  4.642930e+07
    Block[  3]  4.719453e+07
    Block[  4]  4.828933e+07
    ---------------------------------------------------------------------------
    Ideal gas pressure   4.726849e+07 +/-  4.957678e-02 [Pa]
                         4.726849e+02 +/-  8.232423e+00 [bar]


    Block[  0] -4.091910e+07
    Block[  1] -4.200887e+07
    Block[  2] -4.503688e+07
    Block[  3] -4.613104e+07
    Block[  4] -4.266845e+07
    ---------------------------------------------------------------------------
    Excess pressure  -4.335287e+07 +/-  2.688000e+06 [Pa]
                     -4.335287e+02 +/-  2.688000e+01 [bar]


    Block[  0]  6.270113e+06
    Block[  1]  5.231214e+06
    Block[  2]  1.392412e+06
    Block[  3]  1.063498e+06
    Block[  4]  5.620877e+06
    ---------------------------------------------------------------------------
    Pressure average   3.915623e+06 +/-  3.083954e+06 [Pa]
                       3.915623e+01 +/-  3.083954e+01 [bar]


Enthalpy of adsorption
===============================================================================

Component 0 [CO2]
-------------------------------------------------------------------------------
    Block[  0] -2.135504e+03
    Block[  1] -1.863192e+03
    Block[  2] -1.698491e+03
    Block[  3] -1.700062e+03
    Block[  4] -2.183013e+03
    ---------------------------------------------------------------------------
    Enthalpy of adsorption: -1.916052e+03 +/-  2.886282e+02 [K]
                            -1.593095e+01 +/-  2.399789e+00 [kJ/mol]
    Warning: need to subtract the ideal-gas energy.


Densities
===============================================================================

Component 0 (CO2)
    Block[  0] 190.94750000000002
    Block[  1] 193.79666666666668
    Block[  2] 197.43833333333333
    Block[  3] 194.71833333333333
    Block[  4] 186.07500000000002
    -----------------------------------------------------------------------
    Density average   1.925952e+02 +/-  5.362607e+00 [molecules]
    Density average   1.222728e-02 +/-  2.129541e-04 [molec/A^3]
    Density average   8.933463e+02 +/-  1.555879e+01 [kg.m⁻³]

