Compiler and run-time data
===============================================================================
RASPA 3.0.4

Random seed: 741881435

Compiled as a 64-bits application
Compiler: gcc Ubuntu Clang 18.1.3 (1ubuntu1)
Compile Date = Mar 15 2025, Compile Time = 19:39:45

2025-06-03 10:59:44.557259
Simulation started on Tue, Jun 03
The start time was 10:59:00

Hostname:    c109
OS type:     Linux on x86_64
OS release:  6.8.0-58-generic
OS version:  #60-Ubuntu SMP PREEMPT_DYNAMIC Fri Mar 14 18:29:48 UTC 2025


Mutual consistent basic set of units:
===============================================================================

Unit of temperature: 1 [K]
Unit of length:      1e-10 [m]
Unit of time:        1e-12 [s]
Unit of mass:        1.6605402e-27 [kg]
Unit of charge:      1.60217733e-19 [C/particle]


Boltzmann constant (internal units):          0.8314464919307584 [-]
represents conversion from energy (internal units) to temperature (in Kelvin)

Derived units and their conversion factors:
===============================================================================

Unit of energy:                           1.6605402000000002e-23 [J]
Unit of energy:                           10.000008872307538 [J.mol⁻¹]
Unit of velocity:                         100 [m.s⁻¹]
Unit of force:                            1.6605402000000002e-13 [N]
Unit of diffusion:                        1.0000000000000002e-08 [m².s⁻¹]
Unit of acceleration:                     1.0000000000000002e-08 [m².s⁻¹]
Unit of torque:                           1.6605402000000002e-23 [N.m]
Unit of pressure:                         16605402 [Pa]
Unit of volume:                           1e-30 [m³]
Unit of density:                          1660.5402 [kg.m⁻³]
Unit of dynamic viscosity:                1.6605401999999997e-05 [N.s.m⁻²]
Unit of enthalpy:                         1.6605402000000002e-23 [J]
Unit of polarizability:                   1.5458657349975198e-35 [-]
Unit of Coulomb potential:                167101.08000665612 [K]
Unit of dielectric constant:              1.5458657349975193e-05 [s².C².kg⁻¹.m⁻³]
Unit of dipole moment:                    1.60217733e-29 [C.m]
Unit of Debye:                            4.803206799099162 [C.m]
Unit of electric potential:               0.00010364272224473431 [V]
Unit of electric field:                   1036427.222447343 [V.m⁻¹]
Unit of isothermal compressibility:       6.02213665167516e-08 [Pa⁻¹]
Unit of heat capacity:                    10.000008872307538 [J.mol⁻¹.K⁻¹]
Unit of volumetric expansion coefficient: 1 [K⁻¹]


Internal conversion factors:
===============================================================================

Energy (internal units) to Kelvin:      1.202724284692786 [-]
Kelvin to energy (internal units):      0.8314457542157567 [-]


System definitions
===============================================================================

Temperature:          280 [K]
Beta:                 0.004295440062697377 [-]
Pressure:             0 [Pa]
Helium void fraction: 1 [-]

Box:      30.00000   0.00000   0.00000
           0.00000  30.00000   0.00000
           0.00000   0.00000  30.00000
Lengths:  30.00000  30.00000  30.00000
Angles:   90.00000  90.00000  90.00000
Rectangular boundary conditions



Property measurement settings
===============================================================================




Pseudo-atoms
===============================================================================

  0 - C_co2    framework-atom: false
  1 - O_co2    framework-atom: false

  0 - C_co2    mass: 12.00000, charge:  0.70000
  1 - O_co2    mass: 15.99940, charge: -0.35000

  0 - C_co2    polarizability:  0.00000
  1 - O_co2    polarizability:  0.00000

  0 - J. J. Potoff et al., AIChE J. 2001, 47, 1676–1682.
  1 - J. J. Potoff et al., AIChE J. 2001, 47, 1676–1682.

Force field status
===============================================================================

Cutoff Framework-Molecule VDW:  12.00000 [Å]
Cutoff Molecule-Molecule VDW:   12.00000 [Å]
Cutoff Coulomb:                 12.00000 [Å]

Overlap-criteria VDW:           1.000000e+05 [K]

C_co2    - C_co2    Lennard-Jones p₀/kʙ:  27.00000 [K], p₁:  2.80000 [Å]
                                  shift:   0.00000 [K], tailcorrections: true
C_co2    - O_co2    Lennard-Jones p₀/kʙ:  46.18441 [K], p₁:  2.92500 [Å]
                                  shift:   0.00000 [K], tailcorrections: true
O_co2    - O_co2    Lennard-Jones p₀/kʙ:  79.00000 [K], p₁:  3.05000 [Å]
                                  shift:   0.00000 [K], tailcorrections: true

Ewald precision: 1e-06
Ewald alpha: 0.26505830360350674
Ewald k-vectors: 8 8 8


Component definitions
===============================================================================

Component 0 [CO2]

    Type: Adsorbate

    Critical temperature:  304.1282 [K]
    Critical pressure:     7377300 [Pa]
    Acentric factor:       0.22394 [-]

    Mol-fraction:                 1 [-]
    Swappable:                   true

    Mass:                         43.9988 [-]
    Fugacity coefficient:         -nan [-]
    Bulk fluid density:           0 [-]
    Compressibility:              1 [-]
    Excess molecules:             0 [-]

    Number Of Atoms:    3
    CBMC starting bead: 0
      0: O_co2  position  0.00000 -0.00000  1.16000, charge -0.35000
      1: C_co2  position  0.00000 -0.00000  0.00000, charge  0.70000
      2: O_co2  position  0.00000 -0.00000 -1.16000, charge -0.35000
    Diagonalized inertia-vector:      43.05758528 43.05758528 0.00000000
    Translational degrees of freedom: 3
    Rotational degrees of freedom:    2
    Shape of the molecule is: 'Linear'
    Net-charge:        0.00000000 [e]

    Move probabilities:
    Translation:                   0.199203 [-]
    Random translation:            0.000000 [-]
    Rotation:                      0.199203 [-]
    Random rotation:               0.000000 [-]
    Volume change:                 0.000000 [-]
    Reinsertion (CBMC):            0.199203 [-]
    Identity change (CBMC):        0.000000 [-]
    Swap:                          0.000000 [-]
    Swap (CBMC):                   0.000000 [-]
    Swap (CFCMC):                  0.000000 [-]
    Swap (CB/CFCMC):               0.000000 [-]
    Gibbs volume:                  0.003984 [-]
    Gibbs swap (CBMC):             0.398406 [-]
    Gibbs swap (CFCMC):            0.000000 [-]
    Widom:                         0.000000 [-]
    Widom (CFCMC):                 0.000000 [-]
    Widom (CB/CFCMC):              0.000000 [-]
    Parallel tempering:            0.000000 [-]
    Hybrid MC:                     0.000000 [-]

    number of blocking-pockets: 0

    number of bonds: 0





Number of pseudo-atoms
===============================================================================

Component   0 (CO2)
-------------------------------------------------------------------------------
    index   0 (C_co2): 40 atoms
    index   1 (O_co2): 80 atoms

Total number of pseudo-atoms:
-------------------------------------------------------------------------------
    index   0 (C_co2): 40 atoms
    index   1 (O_co2): 80 atoms




Energy status Recomputed from scratch
===============================================================================

Total potential energy/kʙ       -5.411899e+03 [K]
    external field VDW/kʙ        0.000000e+00 [K]
    external field Real/kʙ       0.000000e+00 [K]
    framework-molecule VDW/kʙ    0.000000e+00 [K]
    framework-molecule Real/kʙ   0.000000e+00 [K]
    molecule-molecule VDW/kʙ    -5.173937e+03 [K]
    molecule-molecule Real/kʙ   -1.653036e+02 [K]
    Van der Waals (Tail)/kʙ     -1.100506e+02 [K]
    Ewald Fourier/kʙ             2.389618e+03 [K]
    Ewald self/kʙ               -7.346713e+05 [K]
    Ewald exclusion/kʙ           7.323191e+05 [K]
    intra VDW/kʙ                 0.000000e+00 [K]
    intra Coulombic/kʙ           0.000000e+00 [K]
    polarization/kʙ              0.000000e+00 [K]
    dU/dlambda VDW/kʙ            0.000000e+00 [K]
    dU/dlambda Real/kʙ           0.000000e+00 [K]
    dU/dlambda Ewald/kʙ          0.000000e+00 [K]





Initialization: Current cycle: 0 out of 2000
===============================================================================

Box:      30.00000   0.00000   0.00000
           0.00000  30.00000   0.00000
           0.00000   0.00000  30.00000
Lengths:  30.00000  30.00000  30.00000
Angles:   90.00000  90.00000  90.00000
Rectangular boundary conditions

net charge:   0.00000000

component   0 (CO2) lambda:  0 occupancy:  1 (1.000000)
    net charge:   0.00000000 [e]

Amount of molecules per component :
-------------------------------------------------------------------------------
Component 0 (CO2)
    molecules:         3.200000e+01 molecules
    number density:    1.185185e-03 molec/A^3
    density:           8.659166e+01 kg/m^3

Total potential energy/kʙ       -4.369589e+03 [K]
-------------------------------------------------------------------------------
    external field VDW/kʙ        0.000000e+00 [K]
    external field Real/kʙ       0.000000e+00 [K]
    framework-molecule VDW/kʙ    0.000000e+00 [K]
    framework-molecule Real/kʙ   0.000000e+00 [K]
    molecule-molecule VDW/kʙ    -3.586430e+03 [K]
    molecule-molecule Real/kʙ   -6.082828e+02 [K]
    Van der Waals (Tail)/kʙ     -7.043239e+01 [K]
    Ewald Fourier/kʙ             1.777337e+03 [K]
    Ewald self/kʙ               -5.877370e+05 [K]
    Ewald exclusion/kʙ           5.858552e+05 [K]
    intra VDW/kʙ                 0.000000e+00 [K]
    intra Coulombic/kʙ           0.000000e+00 [K]
    polarization/kʙ              0.000000e+00 [K]
    dU/dlambda VDW/kʙ            0.000000e+00 [K]
    dU/dlambda Real/kʙ           0.000000e+00 [K]
    dU/dlambda Ewald/kʙ          0.000000e+00 [K]


Initialization: Current cycle: 100 out of 2000
===============================================================================

Box:      30.43714   0.00000   0.00000
           0.00000  30.43714   0.00000
           0.00000   0.00000  30.43714
Lengths:  30.43714  30.43714  30.43714
Angles:   90.00000  90.00000  90.00000
Rectangular boundary conditions

net charge:   0.00000000

component   0 (CO2) lambda:  0 occupancy:  1 (1.000000)
    net charge:   0.00000000 [e]

Amount of molecules per component :
-------------------------------------------------------------------------------
Component 0 (CO2)
    molecules:         2.800000e+01 molecules
    number density:    9.929938e-04 molec/A^3
    density:           7.254983e+01 kg/m^3

Total potential energy/kʙ       -4.918321e+03 [K]
-------------------------------------------------------------------------------
    external field VDW/kʙ        0.000000e+00 [K]
    external field Real/kʙ       0.000000e+00 [K]
    framework-molecule VDW/kʙ    0.000000e+00 [K]
    framework-molecule Real/kʙ   0.000000e+00 [K]
    molecule-molecule VDW/kʙ    -3.301703e+03 [K]
    molecule-molecule Real/kʙ   -1.516173e+03 [K]
    Van der Waals (Tail)/kʙ     -5.163460e+01 [K]
    Ewald Fourier/kʙ             1.597746e+03 [K]
    Ewald self/kʙ               -5.142699e+05 [K]
    Ewald exclusion/kʙ           5.126233e+05 [K]
    intra VDW/kʙ                 0.000000e+00 [K]
    intra Coulombic/kʙ           0.000000e+00 [K]
    polarization/kʙ              0.000000e+00 [K]
    dU/dlambda VDW/kʙ            0.000000e+00 [K]
    dU/dlambda Real/kʙ           0.000000e+00 [K]
    dU/dlambda Ewald/kʙ          0.000000e+00 [K]


Initialization: Current cycle: 200 out of 2000
===============================================================================

Box:      30.69326   0.00000   0.00000
           0.00000  30.69326   0.00000
           0.00000   0.00000  30.69326
Lengths:  30.69326  30.69326  30.69326
Angles:   90.00000  90.00000  90.00000
Rectangular boundary conditions

net charge:   0.00000000

component   0 (CO2) lambda:  0 occupancy:  1 (1.000000)
    net charge:   0.00000000 [e]

Amount of molecules per component :
-------------------------------------------------------------------------------
Component 0 (CO2)
    molecules:         3.300000e+01 molecules
    number density:    1.141261e-03 molec/A^3
    density:           8.338250e+01 kg/m^3

Total potential energy/kʙ       -3.467247e+03 [K]
-------------------------------------------------------------------------------
    external field VDW/kʙ        0.000000e+00 [K]
    external field Real/kʙ       0.000000e+00 [K]
    framework-molecule VDW/kʙ    0.000000e+00 [K]
    framework-molecule Real/kʙ   0.000000e+00 [K]
    molecule-molecule VDW/kʙ    -2.903028e+03 [K]
    molecule-molecule Real/kʙ   -3.666021e+02 [K]
    Van der Waals (Tail)/kʙ     -6.994154e+01 [K]
    Ewald Fourier/kʙ             1.812911e+03 [K]
    Ewald self/kʙ               -6.061038e+05 [K]
    Ewald exclusion/kʙ           6.041632e+05 [K]
    intra VDW/kʙ                 0.000000e+00 [K]
    intra Coulombic/kʙ           0.000000e+00 [K]
    polarization/kʙ              0.000000e+00 [K]
    dU/dlambda VDW/kʙ            0.000000e+00 [K]
    dU/dlambda Real/kʙ           0.000000e+00 [K]
    dU/dlambda Ewald/kʙ          0.000000e+00 [K]


Initialization: Current cycle: 300 out of 2000
===============================================================================

Box:      32.09113   0.00000   0.00000
           0.00000  32.09113   0.00000
           0.00000   0.00000  32.09113
Lengths:  32.09113  32.09113  32.09113
Angles:   90.00000  90.00000  90.00000
Rectangular boundary conditions

net charge:   0.00000000

component   0 (CO2) lambda:  0 occupancy:  1 (1.000000)
    net charge:   0.00000000 [e]

Amount of molecules per component :
-------------------------------------------------------------------------------
Component 0 (CO2)
    molecules:         2.500000e+01 molecules
    number density:    7.564583e-04 molec/A^3
    density:           5.526814e+01 kg/m^3

Total potential energy/kʙ       -1.588653e+03 [K]
-------------------------------------------------------------------------------
    external field VDW/kʙ        0.000000e+00 [K]
    external field Real/kʙ       0.000000e+00 [K]
    framework-molecule VDW/kʙ    0.000000e+00 [K]
    framework-molecule Real/kʙ   0.000000e+00 [K]
    molecule-molecule VDW/kʙ    -1.424465e+03 [K]
    molecule-molecule Real/kʙ   -1.066825e+02 [K]
    Van der Waals (Tail)/kʙ     -3.512054e+01 [K]
    Ewald Fourier/kʙ             1.447756e+03 [K]
    Ewald self/kʙ               -4.591696e+05 [K]
    Ewald exclusion/kʙ           4.576994e+05 [K]
    intra VDW/kʙ                 0.000000e+00 [K]
    intra Coulombic/kʙ           0.000000e+00 [K]
    polarization/kʙ              0.000000e+00 [K]
    dU/dlambda VDW/kʙ            0.000000e+00 [K]
    dU/dlambda Real/kʙ           0.000000e+00 [K]
    dU/dlambda Ewald/kʙ          0.000000e+00 [K]


Initialization: Current cycle: 400 out of 2000
===============================================================================

Box:      32.66340   0.00000   0.00000
           0.00000  32.66340   0.00000
           0.00000   0.00000  32.66340
Lengths:  32.66340  32.66340  32.66340
Angles:   90.00000  90.00000  90.00000
Rectangular boundary conditions

net charge:   0.00000000

component   0 (CO2) lambda:  0 occupancy:  1 (1.000000)
    net charge:   0.00000000 [e]

Amount of molecules per component :
-------------------------------------------------------------------------------
Component 0 (CO2)
    molecules:         4.000000e+01 molecules
    number density:    1.147826e-03 molec/A^3
    density:           8.386212e+01 kg/m^3

Total potential energy/kʙ       -7.191387e+03 [K]
-------------------------------------------------------------------------------
    external field VDW/kʙ        0.000000e+00 [K]
    external field Real/kʙ       0.000000e+00 [K]
    framework-molecule VDW/kʙ    0.000000e+00 [K]
    framework-molecule Real/kʙ   0.000000e+00 [K]
    molecule-molecule VDW/kʙ    -5.366722e+03 [K]
    molecule-molecule Real/kʙ   -1.571157e+03 [K]
    Van der Waals (Tail)/kʙ     -8.526528e+01 [K]
    Ewald Fourier/kʙ             2.183983e+03 [K]
    Ewald self/kʙ               -7.346713e+05 [K]
    Ewald exclusion/kʙ           7.323191e+05 [K]
    intra VDW/kʙ                 0.000000e+00 [K]
    intra Coulombic/kʙ           0.000000e+00 [K]
    polarization/kʙ              0.000000e+00 [K]
    dU/dlambda VDW/kʙ            0.000000e+00 [K]
    dU/dlambda Real/kʙ           0.000000e+00 [K]
    dU/dlambda Ewald/kʙ          0.000000e+00 [K]


Initialization: Current cycle: 500 out of 2000
===============================================================================

Box:      33.24750   0.00000   0.00000
           0.00000  33.24750   0.00000
           0.00000   0.00000  33.24750
Lengths:  33.24750  33.24750  33.24750
Angles:   90.00000  90.00000  90.00000
Rectangular boundary conditions

net charge:   0.00000000

component   0 (CO2) lambda:  0 occupancy:  1 (1.000000)
    net charge:   0.00000000 [e]

Amount of molecules per component :
-------------------------------------------------------------------------------
Component 0 (CO2)
    molecules:         4.000000e+01 molecules
    number density:    1.088386e-03 molec/A^3
    density:           7.951933e+01 kg/m^3

Total potential energy/kʙ       -7.298449e+03 [K]
-------------------------------------------------------------------------------
    external field VDW/kʙ        0.000000e+00 [K]
    external field Real/kʙ       0.000000e+00 [K]
    framework-molecule VDW/kʙ    0.000000e+00 [K]
    framework-molecule Real/kʙ   0.000000e+00 [K]
    molecule-molecule VDW/kʙ    -4.826144e+03 [K]
    molecule-molecule Real/kʙ   -2.547684e+03 [K]
    Van der Waals (Tail)/kʙ     -8.084982e+01 [K]
    Ewald Fourier/kʙ             2.508453e+03 [K]
    Ewald self/kʙ               -7.346713e+05 [K]
    Ewald exclusion/kʙ           7.323191e+05 [K]
    intra VDW/kʙ                 0.000000e+00 [K]
    intra Coulombic/kʙ           0.000000e+00 [K]
    polarization/kʙ              0.000000e+00 [K]
    dU/dlambda VDW/kʙ            0.000000e+00 [K]
    dU/dlambda Real/kʙ           0.000000e+00 [K]
    dU/dlambda Ewald/kʙ          0.000000e+00 [K]


Initialization: Current cycle: 600 out of 2000
===============================================================================

Box:      33.62028   0.00000   0.00000
           0.00000  33.62028   0.00000
           0.00000   0.00000  33.62028
Lengths:  33.62028  33.62028  33.62028
Angles:   90.00000  90.00000  90.00000
Rectangular boundary conditions

net charge:   0.00000000

component   0 (CO2) lambda:  0 occupancy:  1 (1.000000)
    net charge:   0.00000000 [e]

Amount of molecules per component :
-------------------------------------------------------------------------------
Component 0 (CO2)
    molecules:         3.800000e+01 molecules
    number density:    9.999531e-04 molec/A^3
    density:           7.305828e+01 kg/m^3

Total potential energy/kʙ       -7.528863e+03 [K]
-------------------------------------------------------------------------------
    external field VDW/kʙ        0.000000e+00 [K]
    external field Real/kʙ       0.000000e+00 [K]
    framework-molecule VDW/kʙ    0.000000e+00 [K]
    framework-molecule Real/kʙ   0.000000e+00 [K]
    molecule-molecule VDW/kʙ    -5.892455e+03 [K]
    molecule-molecule Real/kʙ   -1.335466e+03 [K]
    Van der Waals (Tail)/kʙ     -7.056664e+01 [K]
    Ewald Fourier/kʙ             2.004239e+03 [K]
    Ewald self/kʙ               -6.979377e+05 [K]
    Ewald exclusion/kʙ           6.957031e+05 [K]
    intra VDW/kʙ                 0.000000e+00 [K]
    intra Coulombic/kʙ           0.000000e+00 [K]
    polarization/kʙ              0.000000e+00 [K]
    dU/dlambda VDW/kʙ            0.000000e+00 [K]
    dU/dlambda Real/kʙ           0.000000e+00 [K]
    dU/dlambda Ewald/kʙ          0.000000e+00 [K]


Initialization: Current cycle: 700 out of 2000
===============================================================================

Box:      33.63959   0.00000   0.00000
           0.00000  33.63959   0.00000
           0.00000   0.00000  33.63959
Lengths:  33.63959  33.63959  33.63959
Angles:   90.00000  90.00000  90.00000
Rectangular boundary conditions

net charge:   0.00000000

component   0 (CO2) lambda:  0 occupancy:  1 (1.000000)
    net charge:   0.00000000 [e]

Amount of molecules per component :
-------------------------------------------------------------------------------
Component 0 (CO2)
    molecules:         5.400000e+01 molecules
    number density:    1.418540e-03 molec/A^3
    density:           1.036410e+02 kg/m^3

Total potential energy/kʙ       -1.089239e+04 [K]
-------------------------------------------------------------------------------
    external field VDW/kʙ        0.000000e+00 [K]
    external field Real/kʙ       0.000000e+00 [K]
    framework-molecule VDW/kʙ    0.000000e+00 [K]
    framework-molecule Real/kʙ   0.000000e+00 [K]
    molecule-molecule VDW/kʙ    -7.652223e+03 [K]
    molecule-molecule Real/kʙ   -2.800298e+03 [K]
    Van der Waals (Tail)/kʙ     -1.422564e+02 [K]
    Ewald Fourier/kʙ             2.877894e+03 [K]
    Ewald self/kʙ               -9.918062e+05 [K]
    Ewald exclusion/kʙ           9.886307e+05 [K]
    intra VDW/kʙ                 0.000000e+00 [K]
    intra Coulombic/kʙ           0.000000e+00 [K]
    polarization/kʙ              0.000000e+00 [K]
    dU/dlambda VDW/kʙ            0.000000e+00 [K]
    dU/dlambda Real/kʙ           0.000000e+00 [K]
    dU/dlambda Ewald/kʙ          0.000000e+00 [K]


Initialization: Current cycle: 800 out of 2000
===============================================================================

Box:      33.24238   0.00000   0.00000
           0.00000  33.24238   0.00000
           0.00000   0.00000  33.24238
Lengths:  33.24238  33.24238  33.24238
Angles:   90.00000  90.00000  90.00000
Rectangular boundary conditions

net charge:   0.00000000

component   0 (CO2) lambda:  0 occupancy:  1 (1.000000)
    net charge:   0.00000000 [e]

Amount of molecules per component :
-------------------------------------------------------------------------------
Component 0 (CO2)
    molecules:         5.300000e+01 molecules
    number density:    1.442778e-03 molec/A^3
    density:           1.054118e+02 kg/m^3

Total potential energy/kʙ       -8.355483e+03 [K]
-------------------------------------------------------------------------------
    external field VDW/kʙ        0.000000e+00 [K]
    external field Real/kʙ       0.000000e+00 [K]
    framework-molecule VDW/kʙ    0.000000e+00 [K]
    framework-molecule Real/kʙ   0.000000e+00 [K]
    molecule-molecule VDW/kʙ    -7.228280e+03 [K]
    molecule-molecule Real/kʙ   -9.832793e+02 [K]
    Van der Waals (Tail)/kʙ     -1.420076e+02 [K]
    Ewald Fourier/kʙ             3.114783e+03 [K]
    Ewald self/kʙ               -9.734395e+05 [K]
    Ewald exclusion/kʙ           9.703228e+05 [K]
    intra VDW/kʙ                 0.000000e+00 [K]
    intra Coulombic/kʙ           0.000000e+00 [K]
    polarization/kʙ              0.000000e+00 [K]
    dU/dlambda VDW/kʙ            0.000000e+00 [K]
    dU/dlambda Real/kʙ           0.000000e+00 [K]
    dU/dlambda Ewald/kʙ          0.000000e+00 [K]


Initialization: Current cycle: 900 out of 2000
===============================================================================

Box:      33.11561   0.00000   0.00000
           0.00000  33.11561   0.00000
           0.00000   0.00000  33.11561
Lengths:  33.11561  33.11561  33.11561
Angles:   90.00000  90.00000  90.00000
Rectangular boundary conditions

net charge:   0.00000000

component   0 (CO2) lambda:  0 occupancy:  1 (1.000000)
    net charge:   0.00000000 [e]

Amount of molecules per component :
-------------------------------------------------------------------------------
Component 0 (CO2)
    molecules:         5.100000e+01 molecules
    number density:    1.404338e-03 molec/A^3
    density:           1.026034e+02 kg/m^3

Total potential energy/kʙ       -9.043915e+03 [K]
-------------------------------------------------------------------------------
    external field VDW/kʙ        0.000000e+00 [K]
    external field Real/kʙ       0.000000e+00 [K]
    framework-molecule VDW/kʙ    0.000000e+00 [K]
    framework-molecule Real/kʙ   0.000000e+00 [K]
    molecule-molecule VDW/kʙ    -7.388435e+03 [K]
    molecule-molecule Real/kʙ   -1.359011e+03 [K]
    Van der Waals (Tail)/kʙ     -1.330081e+02 [K]
    Ewald Fourier/kʙ             2.835626e+03 [K]
    Ewald self/kʙ               -9.367059e+05 [K]
    Ewald exclusion/kʙ           9.337068e+05 [K]
    intra VDW/kʙ                 0.000000e+00 [K]
    intra Coulombic/kʙ           0.000000e+00 [K]
    polarization/kʙ              0.000000e+00 [K]
    dU/dlambda VDW/kʙ            0.000000e+00 [K]
    dU/dlambda Real/kʙ           0.000000e+00 [K]
    dU/dlambda Ewald/kʙ          0.000000e+00 [K]


Initialization: Current cycle: 1000 out of 2000
===============================================================================

Box:      33.47909   0.00000   0.00000
           0.00000  33.47909   0.00000
           0.00000   0.00000  33.47909
Lengths:  33.47909  33.47909  33.47909
Angles:   90.00000  90.00000  90.00000
Rectangular boundary conditions

net charge:   0.00000000

component   0 (CO2) lambda:  0 occupancy:  1 (1.000000)
    net charge:   0.00000000 [e]

Amount of molecules per component :
-------------------------------------------------------------------------------
Component 0 (CO2)
    molecules:         6.000000e+01 molecules
    number density:    1.598934e-03 molec/A^3
    density:           1.168208e+02 kg/m^3

Total potential energy/kʙ       -1.307125e+04 [K]
-------------------------------------------------------------------------------
    external field VDW/kʙ        0.000000e+00 [K]
    external field Real/kʙ       0.000000e+00 [K]
    framework-molecule VDW/kʙ    0.000000e+00 [K]
    framework-molecule Real/kʙ   0.000000e+00 [K]
    molecule-molecule VDW/kʙ    -9.370097e+03 [K]
    molecule-molecule Real/kʙ   -3.335681e+03 [K]
    Van der Waals (Tail)/kʙ     -1.781632e+02 [K]
    Ewald Fourier/kʙ             3.341026e+03 [K]
    Ewald self/kʙ               -1.102007e+06 [K]
    Ewald exclusion/kʙ           1.098479e+06 [K]
    intra VDW/kʙ                 0.000000e+00 [K]
    intra Coulombic/kʙ           0.000000e+00 [K]
    polarization/kʙ              0.000000e+00 [K]
    dU/dlambda VDW/kʙ            0.000000e+00 [K]
    dU/dlambda Real/kʙ           0.000000e+00 [K]
    dU/dlambda Ewald/kʙ          0.000000e+00 [K]


Initialization: Current cycle: 1100 out of 2000
===============================================================================

Box:      33.83960   0.00000   0.00000
           0.00000  33.83960   0.00000
           0.00000   0.00000  33.83960
Lengths:  33.83960  33.83960  33.83960
Angles:   90.00000  90.00000  90.00000
Rectangular boundary conditions

net charge:   0.00000000

component   0 (CO2) lambda:  0 occupancy:  1 (1.000000)
    net charge:   0.00000000 [e]

Amount of molecules per component :
-------------------------------------------------------------------------------
Component 0 (CO2)
    molecules:         6.000000e+01 molecules
    number density:    1.548373e-03 molec/A^3
    density:           1.131268e+02 kg/m^3

Total potential energy/kʙ       -1.005084e+04 [K]
-------------------------------------------------------------------------------
    external field VDW/kʙ        0.000000e+00 [K]
    external field Real/kʙ       0.000000e+00 [K]
    framework-molecule VDW/kʙ    0.000000e+00 [K]
    framework-molecule Real/kʙ   0.000000e+00 [K]
    molecule-molecule VDW/kʙ    -6.711325e+03 [K]
    molecule-molecule Real/kʙ   -2.890030e+03 [K]
    Van der Waals (Tail)/kʙ     -1.725293e+02 [K]
    Ewald Fourier/kʙ             3.251380e+03 [K]
    Ewald self/kʙ               -1.102007e+06 [K]
    Ewald exclusion/kʙ           1.098479e+06 [K]
    intra VDW/kʙ                 0.000000e+00 [K]
    intra Coulombic/kʙ           0.000000e+00 [K]
    polarization/kʙ              0.000000e+00 [K]
    dU/dlambda VDW/kʙ            0.000000e+00 [K]
    dU/dlambda Real/kʙ           0.000000e+00 [K]
    dU/dlambda Ewald/kʙ          0.000000e+00 [K]


Initialization: Current cycle: 1200 out of 2000
===============================================================================

Box:      33.13679   0.00000   0.00000
           0.00000  33.13679   0.00000
           0.00000   0.00000  33.13679
Lengths:  33.13679  33.13679  33.13679
Angles:   90.00000  90.00000  90.00000
Rectangular boundary conditions

net charge:   0.00000000

component   0 (CO2) lambda:  0 occupancy:  1 (1.000000)
    net charge:   0.00000000 [e]

Amount of molecules per component :
-------------------------------------------------------------------------------
Component 0 (CO2)
    molecules:         3.000000e+01 molecules
    number density:    8.244988e-04 molec/A^3
    density:           6.023929e+01 kg/m^3

Total potential energy/kʙ       -1.488644e+03 [K]
-------------------------------------------------------------------------------
    external field VDW/kʙ        0.000000e+00 [K]
    external field Real/kʙ       0.000000e+00 [K]
    framework-molecule VDW/kʙ    0.000000e+00 [K]
    framework-molecule Real/kʙ   0.000000e+00 [K]
    molecule-molecule VDW/kʙ    -9.623831e+02 [K]
    molecule-molecule Real/kʙ   -4.046393e+02 [K]
    Van der Waals (Tail)/kʙ     -4.593540e+01 [K]
    Ewald Fourier/kʙ             1.688483e+03 [K]
    Ewald self/kʙ               -5.510035e+05 [K]
    Ewald exclusion/kʙ           5.492393e+05 [K]
    intra VDW/kʙ                 0.000000e+00 [K]
    intra Coulombic/kʙ           0.000000e+00 [K]
    polarization/kʙ              0.000000e+00 [K]
    dU/dlambda VDW/kʙ            0.000000e+00 [K]
    dU/dlambda Real/kʙ           0.000000e+00 [K]
    dU/dlambda Ewald/kʙ          0.000000e+00 [K]


Initialization: Current cycle: 1300 out of 2000
===============================================================================

Box:      33.07720   0.00000   0.00000
           0.00000  33.07720   0.00000
           0.00000   0.00000  33.07720
Lengths:  33.07720  33.07720  33.07720
Angles:   90.00000  90.00000  90.00000
Rectangular boundary conditions

net charge:   0.00000000

component   0 (CO2) lambda:  0 occupancy:  1 (1.000000)
    net charge:   0.00000000 [e]

Amount of molecules per component :
-------------------------------------------------------------------------------
Component 0 (CO2)
    molecules:         4.800000e+01 molecules
    number density:    1.326341e-03 molec/A^3
    density:           9.690473e+01 kg/m^3

Total potential energy/kʙ       -3.861899e+03 [K]
-------------------------------------------------------------------------------
    external field VDW/kʙ        0.000000e+00 [K]
    external field Real/kʙ       0.000000e+00 [K]
    framework-molecule VDW/kʙ    0.000000e+00 [K]
    framework-molecule Real/kʙ   0.000000e+00 [K]
    molecule-molecule VDW/kʙ    -3.801309e+03 [K]
    molecule-molecule Real/kʙ    2.260225e+02 [K]
    Van der Waals (Tail)/kʙ     -1.182313e+02 [K]
    Ewald Fourier/kʙ             2.654289e+03 [K]
    Ewald self/kʙ               -8.816055e+05 [K]
    Ewald exclusion/kʙ           8.787829e+05 [K]
    intra VDW/kʙ                 0.000000e+00 [K]
    intra Coulombic/kʙ           0.000000e+00 [K]
    polarization/kʙ              0.000000e+00 [K]
    dU/dlambda VDW/kʙ            0.000000e+00 [K]
    dU/dlambda Real/kʙ           0.000000e+00 [K]
    dU/dlambda Ewald/kʙ          0.000000e+00 [K]


Initialization: Current cycle: 1400 out of 2000
===============================================================================

Box:      33.26207   0.00000   0.00000
           0.00000  33.26207   0.00000
           0.00000   0.00000  33.26207
Lengths:  33.26207  33.26207  33.26207
Angles:   90.00000  90.00000  90.00000
Rectangular boundary conditions

net charge:   0.00000000

component   0 (CO2) lambda:  0 occupancy:  1 (1.000000)
    net charge:   0.00000000 [e]

Amount of molecules per component :
-------------------------------------------------------------------------------
Component 0 (CO2)
    molecules:         5.600000e+01 molecules
    number density:    1.521739e-03 molec/A^3
    density:           1.111809e+02 kg/m^3

Total potential energy/kʙ       -1.243840e+04 [K]
-------------------------------------------------------------------------------
    external field VDW/kʙ        0.000000e+00 [K]
    external field Real/kʙ       0.000000e+00 [K]
    framework-molecule VDW/kʙ    0.000000e+00 [K]
    framework-molecule Real/kʙ   0.000000e+00 [K]
    molecule-molecule VDW/kʙ    -7.829166e+03 [K]
    molecule-molecule Real/kʙ   -4.079520e+03 [K]
    Van der Waals (Tail)/kʙ     -1.582576e+02 [K]
    Ewald Fourier/kʙ             2.921656e+03 [K]
    Ewald self/kʙ               -1.028540e+06 [K]
    Ewald exclusion/kʙ           1.025247e+06 [K]
    intra VDW/kʙ                 0.000000e+00 [K]
    intra Coulombic/kʙ           0.000000e+00 [K]
    polarization/kʙ              0.000000e+00 [K]
    dU/dlambda VDW/kʙ            0.000000e+00 [K]
    dU/dlambda Real/kʙ           0.000000e+00 [K]
    dU/dlambda Ewald/kʙ          0.000000e+00 [K]


Initialization: Current cycle: 1500 out of 2000
===============================================================================

Box:      33.32857   0.00000   0.00000
           0.00000  33.32857   0.00000
           0.00000   0.00000  33.32857
Lengths:  33.32857  33.32857  33.32857
Angles:   90.00000  90.00000  90.00000
Rectangular boundary conditions

net charge:   0.00000000

component   0 (CO2) lambda:  0 occupancy:  1 (1.000000)
    net charge:   0.00000000 [e]

Amount of molecules per component :
-------------------------------------------------------------------------------
Component 0 (CO2)
    molecules:         6.300000e+01 molecules
    number density:    1.701730e-03 molec/A^3
    density:           1.243313e+02 kg/m^3

Total potential energy/kʙ       -1.739857e+04 [K]
-------------------------------------------------------------------------------
    external field VDW/kʙ        0.000000e+00 [K]
    external field Real/kʙ       0.000000e+00 [K]
    framework-molecule VDW/kʙ    0.000000e+00 [K]
    framework-molecule Real/kʙ   0.000000e+00 [K]
    molecule-molecule VDW/kʙ    -1.274900e+04 [K]
    molecule-molecule Real/kʙ   -4.125685e+03 [K]
    Van der Waals (Tail)/kʙ     -1.990982e+02 [K]
    Ewald Fourier/kʙ             3.379976e+03 [K]
    Ewald self/kʙ               -1.157107e+06 [K]
    Ewald exclusion/kʙ           1.153403e+06 [K]
    intra VDW/kʙ                 0.000000e+00 [K]
    intra Coulombic/kʙ           0.000000e+00 [K]
    polarization/kʙ              0.000000e+00 [K]
    dU/dlambda VDW/kʙ            0.000000e+00 [K]
    dU/dlambda Real/kʙ           0.000000e+00 [K]
    dU/dlambda Ewald/kʙ          0.000000e+00 [K]


Initialization: Current cycle: 1600 out of 2000
===============================================================================

Box:      33.31175   0.00000   0.00000
           0.00000  33.31175   0.00000
           0.00000   0.00000  33.31175
Lengths:  33.31175  33.31175  33.31175
Angles:   90.00000  90.00000  90.00000
Rectangular boundary conditions

net charge:   0.00000000

component   0 (CO2) lambda:  0 occupancy:  1 (1.000000)
    net charge:   0.00000000 [e]

Amount of molecules per component :
-------------------------------------------------------------------------------
Component 0 (CO2)
    molecules:         4.200000e+01 molecules
    number density:    1.136206e-03 molec/A^3
    density:           8.301314e+01 kg/m^3

Total potential energy/kʙ       -4.108729e+03 [K]
-------------------------------------------------------------------------------
    external field VDW/kʙ        0.000000e+00 [K]
    external field Real/kʙ       0.000000e+00 [K]
    framework-molecule VDW/kʙ    0.000000e+00 [K]
    framework-molecule Real/kʙ   0.000000e+00 [K]
    molecule-molecule VDW/kʙ    -3.257189e+03 [K]
    molecule-molecule Real/kʙ   -7.939570e+02 [K]
    Van der Waals (Tail)/kʙ     -8.862219e+01 [K]
    Ewald Fourier/kʙ             2.500876e+03 [K]
    Ewald self/kʙ               -7.714048e+05 [K]
    Ewald exclusion/kʙ           7.689350e+05 [K]
    intra VDW/kʙ                 0.000000e+00 [K]
    intra Coulombic/kʙ           0.000000e+00 [K]
    polarization/kʙ              0.000000e+00 [K]
    dU/dlambda VDW/kʙ            0.000000e+00 [K]
    dU/dlambda Real/kʙ           0.000000e+00 [K]
    dU/dlambda Ewald/kʙ          0.000000e+00 [K]


Initialization: Current cycle: 1700 out of 2000
===============================================================================

Box:      33.28452   0.00000   0.00000
           0.00000  33.28452   0.00000
           0.00000   0.00000  33.28452
Lengths:  33.28452  33.28452  33.28452
Angles:   90.00000  90.00000  90.00000
Rectangular boundary conditions

net charge:   0.00000000

component   0 (CO2) lambda:  0 occupancy:  1 (1.000000)
    net charge:   0.00000000 [e]

Amount of molecules per component :
-------------------------------------------------------------------------------
Component 0 (CO2)
    molecules:         5.400000e+01 molecules
    number density:    1.464424e-03 molec/A^3
    density:           1.069933e+02 kg/m^3

Total potential energy/kʙ       -1.042341e+04 [K]
-------------------------------------------------------------------------------
    external field VDW/kʙ        0.000000e+00 [K]
    external field Real/kʙ       0.000000e+00 [K]
    framework-molecule VDW/kʙ    0.000000e+00 [K]
    framework-molecule Real/kʙ   0.000000e+00 [K]
    molecule-molecule VDW/kʙ    -7.586589e+03 [K]
    molecule-molecule Real/kʙ   -2.354444e+03 [K]
    Van der Waals (Tail)/kʙ     -1.468577e+02 [K]
    Ewald Fourier/kʙ             2.839989e+03 [K]
    Ewald self/kʙ               -9.918062e+05 [K]
    Ewald exclusion/kʙ           9.886307e+05 [K]
    intra VDW/kʙ                 0.000000e+00 [K]
    intra Coulombic/kʙ           0.000000e+00 [K]
    polarization/kʙ              0.000000e+00 [K]
    dU/dlambda VDW/kʙ            0.000000e+00 [K]
    dU/dlambda Real/kʙ           0.000000e+00 [K]
    dU/dlambda Ewald/kʙ          0.000000e+00 [K]


Initialization: Current cycle: 1800 out of 2000
===============================================================================

Box:      33.28897   0.00000   0.00000
           0.00000  33.28897   0.00000
           0.00000   0.00000  33.28897
Lengths:  33.28897  33.28897  33.28897
Angles:   90.00000  90.00000  90.00000
Rectangular boundary conditions

net charge:   0.00000000

component   0 (CO2) lambda:  0 occupancy:  1 (1.000000)
    net charge:   0.00000000 [e]

Amount of molecules per component :
-------------------------------------------------------------------------------
Component 0 (CO2)
    molecules:         5.000000e+01 molecules
    number density:    1.355405e-03 molec/A^3
    density:           9.902820e+01 kg/m^3

Total potential energy/kʙ       -8.950933e+03 [K]
-------------------------------------------------------------------------------
    external field VDW/kʙ        0.000000e+00 [K]
    external field Real/kʙ       0.000000e+00 [K]
    framework-molecule VDW/kʙ    0.000000e+00 [K]
    framework-molecule Real/kʙ   0.000000e+00 [K]
    molecule-molecule VDW/kʙ    -6.776274e+03 [K]
    molecule-molecule Real/kʙ   -1.611382e+03 [K]
    Van der Waals (Tail)/kʙ     -1.258564e+02 [K]
    Ewald Fourier/kʙ             2.502861e+03 [K]
    Ewald self/kʙ               -9.183391e+05 [K]
    Ewald exclusion/kʙ           9.153988e+05 [K]
    intra VDW/kʙ                 0.000000e+00 [K]
    intra Coulombic/kʙ           0.000000e+00 [K]
    polarization/kʙ              0.000000e+00 [K]
    dU/dlambda VDW/kʙ            0.000000e+00 [K]
    dU/dlambda Real/kʙ           0.000000e+00 [K]
    dU/dlambda Ewald/kʙ          0.000000e+00 [K]


Initialization: Current cycle: 1900 out of 2000
===============================================================================

Box:      33.18173   0.00000   0.00000
           0.00000  33.18173   0.00000
           0.00000   0.00000  33.18173
Lengths:  33.18173  33.18173  33.18173
Angles:   90.00000  90.00000  90.00000
Rectangular boundary conditions

net charge:   0.00000000

component   0 (CO2) lambda:  0 occupancy:  1 (1.000000)
    net charge:   0.00000000 [e]

Amount of molecules per component :
-------------------------------------------------------------------------------
Component 0 (CO2)
    molecules:         6.400000e+01 molecules
    number density:    1.751794e-03 molec/A^3
    density:           1.279890e+02 kg/m^3

Total potential energy/kʙ       -1.546342e+04 [K]
-------------------------------------------------------------------------------
    external field VDW/kʙ        0.000000e+00 [K]
    external field Real/kʙ       0.000000e+00 [K]
    framework-molecule VDW/kʙ    0.000000e+00 [K]
    framework-molecule Real/kʙ   0.000000e+00 [K]
    molecule-molecule VDW/kʙ    -1.274284e+04 [K]
    molecule-molecule Real/kʙ   -2.704285e+03 [K]
    Van der Waals (Tail)/kʙ     -2.082088e+02 [K]
    Ewald Fourier/kʙ             3.955479e+03 [K]
    Ewald self/kʙ               -1.175474e+06 [K]
    Ewald exclusion/kʙ           1.171710e+06 [K]
    intra VDW/kʙ                 0.000000e+00 [K]
    intra Coulombic/kʙ           0.000000e+00 [K]
    polarization/kʙ              0.000000e+00 [K]
    dU/dlambda VDW/kʙ            0.000000e+00 [K]
    dU/dlambda Real/kʙ           0.000000e+00 [K]
    dU/dlambda Ewald/kʙ          0.000000e+00 [K]


Current cycle: 0 out of 6000
===============================================================================

Box:      33.29935   0.00000   0.00000  Average:  33.29935   0.00000   0.00000
           0.00000  33.29935   0.00000             0.00000  33.29935   0.00000
           0.00000   0.00000  33.29935             0.00000   0.00000  33.29935
Lengths:  33.29935  33.29935  33.29935  Average:  33.29935  33.29935  33.29935
Angles:   90.00000  90.00000  90.00000  Average:  90.00000  90.00000  90.00000
Rectangular boundary conditions

net charge:   0.00000000

component 0 (CO2) lambda:  0 occupancy:  1 (1.000000)
    net charge:   0.00000000 [e]

Amount of molecules per component :
-------------------------------------------------------------------------------
Component 0 (CO2)
    molecules:      5.000000e+01 molecules  (5.000000e+01 +/- 0.000000e+00)
    number density: 1.354137e-03 molec./A^3 (1.354137e-03 +/- 0.000000e+00)
    density:        9.893560e+01 kg/m^3     (9.893560e+01 +/- 0.000000e+00)

Average pressure tensor: 
-------------------------------------------------------------------------------
 5.2349e+01  0.0000e+00  0.0000e+00 +/- 0.0000e+00 0.0000e+00 0.0000e+00 [bar]
 0.0000e+00  5.2349e+01  0.0000e+00 +/- 0.0000e+00 0.0000e+00 0.0000e+00 [bar]
 0.0000e+00  0.0000e+00  5.2349e+01 +/- 0.0000e+00 0.0000e+00 0.0000e+00 [bar]
Ideal-gas pressure:   5.234853e+01 +/ 0.000000e+00 [bar]
Excess pressure:      0.000000e+00 +/ 0.000000e+00 [bar]
Pressure:             5.234853e+01 +/ 0.000000e+00 [bar]

Total potential energy/kʙ  -1.060390e+04 (-1.060390e+04 +/- 0.000000e+00) [K]
-------------------------------------------------------------------------------
ExternalField-molecule
    Van der Waals/kʙ        0.000000e+00 ( 0.000000e+00 +/- 0.000000e+00) [K]
Framework-molecule
    Van der Waals/kʙ        0.000000e+00 ( 0.000000e+00 +/- 0.000000e+00) [K]
    Van der Waals (Tail)/kʙ 0.000000e+00 ( 0.000000e+00 +/- 0.000000e+00) [K]
    Coulombic Real/kʙ       0.000000e+00 ( 0.000000e+00 +/- 0.000000e+00) [K]
    Coulombic Fourier/kʙ    0.000000e+00 ( 0.000000e+00 +/- 0.000000e+00) [K]
Molecule-molecule
    Van der Waals/kʙ       -7.923742e+03 (-7.923742e+03 +/- 0.000000e+00) [K]
    Van der Waals (Tail)/kʙ-1.257387e+02 (-1.257387e+02 +/- 0.000000e+00) [K]
    Coulombic Real/kʙ      -2.236213e+03 (-2.236213e+03 +/- 0.000000e+00) [K]
    Coulombic Fourier/kʙ   -3.182064e+02 (-3.182064e+02 +/- 0.000000e+00) [K]
    Molecule Intra/kʙ       0.000000e+00 ( 0.000000e+00 +/- 0.000000e+00) [K]

Current cycle: 100 out of 6000
===============================================================================

Box:      33.34061   0.00000   0.00000  Average:  33.41740   0.00000   0.00000
           0.00000  33.34061   0.00000             0.00000  33.41740   0.00000
           0.00000   0.00000  33.34061             0.00000   0.00000  33.41740
Lengths:  33.34061  33.34061  33.34061  Average:  33.41740  33.41740  33.41740
Angles:   90.00000  90.00000  90.00000  Average:  90.00000  90.00000  90.00000
Rectangular boundary conditions

net charge:   0.00000000

component 0 (CO2) lambda:  0 occupancy:  1 (1.000000)
    net charge:   0.00000000 [e]

Amount of molecules per component :
-------------------------------------------------------------------------------
Component 0 (CO2)
    molecules:      4.800000e+01 molecules  (4.602970e+01 +/- 0.000000e+00)
    number density: 1.295152e-03 molec./A^3 (1.233674e-03 +/- 0.000000e+00)
    density:        9.462604e+01 kg/m^3     (9.013433e+01 +/- 0.000000e+00)

Average pressure tensor: 
-------------------------------------------------------------------------------
 3.1671e+01 -2.1937e-04 -1.2693e+00 +/- 0.0000e+00 0.0000e+00 0.0000e+00 [bar]
-2.1937e-04  3.6779e+01 -1.4140e+00 +/- 0.0000e+00 0.0000e+00 0.0000e+00 [bar]
-1.2693e+00 -1.4140e+00  3.4186e+01 +/- 0.0000e+00 0.0000e+00 0.0000e+00 [bar]
Ideal-gas pressure:   4.769163e+01 +/ 0.000000e+00 [bar]
Excess pressure:     -1.347958e+01 +/ 0.000000e+00 [bar]
Pressure:             3.421204e+01 +/ 0.000000e+00 [bar]

Total potential energy/kʙ  -7.139960e+03 (-7.248769e+03 +/- 0.000000e+00) [K]
-------------------------------------------------------------------------------
ExternalField-molecule
    Van der Waals/kʙ        0.000000e+00 ( 0.000000e+00 +/- 0.000000e+00) [K]
Framework-molecule
    Van der Waals/kʙ        0.000000e+00 ( 0.000000e+00 +/- 0.000000e+00) [K]
    Van der Waals (Tail)/kʙ 0.000000e+00 ( 0.000000e+00 +/- 0.000000e+00) [K]
    Coulombic Real/kʙ       0.000000e+00 ( 0.000000e+00 +/- 0.000000e+00) [K]
    Coulombic Fourier/kʙ    0.000000e+00 ( 0.000000e+00 +/- 0.000000e+00) [K]
Molecule-molecule
    Van der Waals/kʙ       -4.780590e+03 (-5.165547e+03 +/- 0.000000e+00) [K]
    Van der Waals (Tail)/kʙ-1.154511e+02 (-1.067225e+02 +/- 0.000000e+00) [K]
    Coulombic Real/kʙ      -1.996414e+03 (-1.769412e+03 +/- 0.000000e+00) [K]
    Coulombic Fourier/kʙ   -2.475054e+02 (-2.070886e+02 +/- 0.000000e+00) [K]
    Molecule Intra/kʙ       0.000000e+00 ( 0.000000e+00 +/- 0.000000e+00) [K]

Current cycle: 200 out of 6000
===============================================================================

Box:      33.58262   0.00000   0.00000  Average:  33.46862   0.00000   0.00000
           0.00000  33.58262   0.00000             0.00000  33.46862   0.00000
           0.00000   0.00000  33.58262             0.00000   0.00000  33.46862
Lengths:  33.58262  33.58262  33.58262  Average:  33.46862  33.46862  33.46862
Angles:   90.00000  90.00000  90.00000  Average:  90.00000  90.00000  90.00000
Rectangular boundary conditions

net charge:   0.00000000

component 0 (CO2) lambda:  0 occupancy:  1 (1.000000)
    net charge:   0.00000000 [e]

Amount of molecules per component :
-------------------------------------------------------------------------------
Component 0 (CO2)
    molecules:      4.400000e+01 molecules  (4.842289e+01 +/- 0.000000e+00)
    number density: 1.161740e-03 molec./A^3 (1.290555e-03 +/- 0.000000e+00)
    density:        8.487868e+01 kg/m^3     (9.429014e+01 +/- 0.000000e+00)

Average pressure tensor: 
-------------------------------------------------------------------------------
 3.5267e+01 -1.7436e+00 -2.6150e-01 +/- 0.0000e+00 0.0000e+00 0.0000e+00 [bar]
-1.7436e+00  3.9112e+01  1.4767e+00 +/- 0.0000e+00 0.0000e+00 0.0000e+00 [bar]
-2.6150e-01  1.4767e+00  4.1747e+01 +/- 0.0000e+00 0.0000e+00 0.0000e+00 [bar]
Ideal-gas pressure:   4.989053e+01 +/ 0.000000e+00 [bar]
Excess pressure:     -1.118169e+01 +/ 0.000000e+00 [bar]
Pressure:             3.870885e+01 +/ 0.000000e+00 [bar]

Total potential energy/kʙ  -8.303233e+03 (-8.255741e+03 +/- 0.000000e+00) [K]
-------------------------------------------------------------------------------
ExternalField-molecule
    Van der Waals/kʙ        0.000000e+00 ( 0.000000e+00 +/- 0.000000e+00) [K]
Framework-molecule
    Van der Waals/kʙ        0.000000e+00 ( 0.000000e+00 +/- 0.000000e+00) [K]
    Van der Waals (Tail)/kʙ 0.000000e+00 ( 0.000000e+00 +/- 0.000000e+00) [K]
    Coulombic Real/kʙ       0.000000e+00 ( 0.000000e+00 +/- 0.000000e+00) [K]
    Coulombic Fourier/kʙ    0.000000e+00 ( 0.000000e+00 +/- 0.000000e+00) [K]
Molecule-molecule
    Van der Waals/kʙ       -6.148994e+03 (-5.974687e+03 +/- 0.000000e+00) [K]
    Van der Waals (Tail)/kʙ-9.492873e+01 (-1.183051e+02 +/- 0.000000e+00) [K]
    Coulombic Real/kʙ      -1.936770e+03 (-1.951600e+03 +/- 0.000000e+00) [K]
    Coulombic Fourier/kʙ   -1.225409e+02 (-2.111492e+02 +/- 0.000000e+00) [K]
    Molecule Intra/kʙ       0.000000e+00 ( 0.000000e+00 +/- 0.000000e+00) [K]

Current cycle: 300 out of 6000
===============================================================================

Box:      33.61041   0.00000   0.00000  Average:  33.47159   0.00000   0.00000
           0.00000  33.61041   0.00000             0.00000  33.47159   0.00000
           0.00000   0.00000  33.61041             0.00000   0.00000  33.47159
Lengths:  33.61041  33.61041  33.61041  Average:  33.47159  33.47159  33.47159
Angles:   90.00000  90.00000  90.00000  Average:  90.00000  90.00000  90.00000
Rectangular boundary conditions

net charge:   0.00000000

component 0 (CO2) lambda:  0 occupancy:  1 (1.000000)
    net charge:   0.00000000 [e]

Amount of molecules per component :
-------------------------------------------------------------------------------
Component 0 (CO2)
    molecules:      5.100000e+01 molecules  (4.900664e+01 +/- 0.000000e+00)
    number density: 1.343225e-03 molec./A^3 (1.305805e-03 +/- 0.000000e+00)
    density:        9.813832e+01 kg/m^3     (9.540434e+01 +/- 0.000000e+00)

Average pressure tensor: 
-------------------------------------------------------------------------------
 3.5977e+01 -8.8740e-01 -2.2642e+00 +/- 0.0000e+00 0.0000e+00 0.0000e+00 [bar]
-8.8740e-01  3.6895e+01 -2.7562e+00 +/- 0.0000e+00 0.0000e+00 0.0000e+00 [bar]
-2.2642e+00 -2.7562e+00  3.9484e+01 +/- 0.0000e+00 0.0000e+00 0.0000e+00 [bar]
Ideal-gas pressure:   5.048008e+01 +/ 0.000000e+00 [bar]
Excess pressure:     -1.302807e+01 +/ 0.000000e+00 [bar]
Pressure:             3.745201e+01 +/ 0.000000e+00 [bar]

Total potential energy/kʙ  -8.651032e+03 (-8.841388e+03 +/- 0.000000e+00) [K]
-------------------------------------------------------------------------------
ExternalField-molecule
    Van der Waals/kʙ        0.000000e+00 ( 0.000000e+00 +/- 0.000000e+00) [K]
Framework-molecule
    Van der Waals/kʙ        0.000000e+00 ( 0.000000e+00 +/- 0.000000e+00) [K]
    Van der Waals (Tail)/kʙ 0.000000e+00 ( 0.000000e+00 +/- 0.000000e+00) [K]
    Coulombic Real/kʙ       0.000000e+00 ( 0.000000e+00 +/- 0.000000e+00) [K]
    Coulombic Fourier/kʙ    0.000000e+00 ( 0.000000e+00 +/- 0.000000e+00) [K]
Molecule-molecule
    Van der Waals/kʙ       -7.500959e+03 (-6.454836e+03 +/- 0.000000e+00) [K]
    Van der Waals (Tail)/kʙ-1.272199e+02 (-1.211076e+02 +/- 0.000000e+00) [K]
    Coulombic Real/kʙ      -8.726095e+02 (-2.069097e+03 +/- 0.000000e+00) [K]
    Coulombic Fourier/kʙ   -1.502441e+02 (-1.963467e+02 +/- 0.000000e+00) [K]
    Molecule Intra/kʙ       0.000000e+00 ( 0.000000e+00 +/- 0.000000e+00) [K]

Current cycle: 400 out of 6000
===============================================================================

Box:      33.98532   0.00000   0.00000  Average:  33.53078   0.00000   0.00000
           0.00000  33.98532   0.00000             0.00000  33.53078   0.00000
           0.00000   0.00000  33.98532             0.00000   0.00000  33.53078
Lengths:  33.98532  33.98532  33.98532  Average:  33.53078  33.53078  33.53078
Angles:   90.00000  90.00000  90.00000  Average:  90.00000  90.00000  90.00000
Rectangular boundary conditions

net charge:   0.00000000

component 0 (CO2) lambda:  0 occupancy:  1 (1.000000)
    net charge:   0.00000000 [e]

Amount of molecules per component :
-------------------------------------------------------------------------------
Component 0 (CO2)
    molecules:      7.100000e+01 molecules  (5.073067e+01 +/- 0.000000e+00)
    number density: 1.808773e-03 molec./A^3 (1.343532e-03 +/- 0.000000e+00)
    density:        1.321521e+02 kg/m^3     (9.816073e+01 +/- 0.000000e+00)

Average pressure tensor: 
-------------------------------------------------------------------------------
 3.7680e+01 -8.1836e-01 -5.8117e-01 +/- 0.0000e+00 0.0000e+00 0.0000e+00 [bar]
-8.1836e-01  3.8166e+01 -8.2309e-01 +/- 0.0000e+00 0.0000e+00 0.0000e+00 [bar]
-5.8117e-01 -8.2309e-01  4.2241e+01 +/- 0.0000e+00 0.0000e+00 0.0000e+00 [bar]
Ideal-gas pressure:   5.193853e+01 +/ 0.000000e+00 [bar]
Excess pressure:     -1.257583e+01 +/ 0.000000e+00 [bar]
Pressure:             3.936270e+01 +/ 0.000000e+00 [bar]

Total potential energy/kʙ  -1.530324e+04 (-9.484172e+03 +/- 0.000000e+00) [K]
-------------------------------------------------------------------------------
ExternalField-molecule
    Van der Waals/kʙ        0.000000e+00 ( 0.000000e+00 +/- 0.000000e+00) [K]
Framework-molecule
    Van der Waals/kʙ        0.000000e+00 ( 0.000000e+00 +/- 0.000000e+00) [K]
    Van der Waals (Tail)/kʙ 0.000000e+00 ( 0.000000e+00 +/- 0.000000e+00) [K]
    Coulombic Real/kʙ       0.000000e+00 ( 0.000000e+00 +/- 0.000000e+00) [K]
    Coulombic Fourier/kʙ    0.000000e+00 ( 0.000000e+00 +/- 0.000000e+00) [K]
Molecule-molecule
    Van der Waals/kʙ       -1.140866e+04 (-6.924869e+03 +/- 0.000000e+00) [K]
    Van der Waals (Tail)/kʙ-2.384947e+02 (-1.331614e+02 +/- 0.000000e+00) [K]
    Coulombic Real/kʙ      -3.148913e+03 (-2.215737e+03 +/- 0.000000e+00) [K]
    Coulombic Fourier/kʙ   -5.071731e+02 (-2.104047e+02 +/- 0.000000e+00) [K]
    Molecule Intra/kʙ       0.000000e+00 ( 0.000000e+00 +/- 0.000000e+00) [K]

Current cycle: 500 out of 6000
===============================================================================

Box:      34.01952   0.00000   0.00000  Average:  33.61074   0.00000   0.00000
           0.00000  34.01952   0.00000             0.00000  33.61074   0.00000
           0.00000   0.00000  34.01952             0.00000   0.00000  33.61074
Lengths:  34.01952  34.01952  34.01952  Average:  33.61074  33.61074  33.61074
Angles:   90.00000  90.00000  90.00000  Average:  90.00000  90.00000  90.00000
Rectangular boundary conditions

net charge:   0.00000000

component 0 (CO2) lambda:  0 occupancy:  1 (1.000000)
    net charge:   0.00000000 [e]

Amount of molecules per component :
-------------------------------------------------------------------------------
Component 0 (CO2)
    molecules:      6.500000e+01 molecules  (5.345110e+01 +/- 0.000000e+00)
    number density: 1.650931e-03 molec./A^3 (1.404207e-03 +/- 0.000000e+00)
    density:        1.206198e+02 kg/m^3     (1.025938e+02 +/- 0.000000e+00)

Average pressure tensor: 
-------------------------------------------------------------------------------
 3.9459e+01 -1.9970e+00 -1.9469e+00 +/- 0.0000e+00 0.0000e+00 0.0000e+00 [bar]
-1.9970e+00  4.2678e+01  4.1461e-01 +/- 0.0000e+00 0.0000e+00 0.0000e+00 [bar]
-1.9469e+00  4.1461e-01  4.2603e+01 +/- 0.0000e+00 0.0000e+00 0.0000e+00 [bar]
Ideal-gas pressure:   5.428412e+01 +/ 0.000000e+00 [bar]
Excess pressure:     -1.270412e+01 +/ 0.000000e+00 [bar]
Pressure:             4.158001e+01 +/ 0.000000e+00 [bar]

Total potential energy/kʙ  -1.323765e+04 (-1.047100e+04 +/- 0.000000e+00) [K]
-------------------------------------------------------------------------------
ExternalField-molecule
    Van der Waals/kʙ        0.000000e+00 ( 0.000000e+00 +/- 0.000000e+00) [K]
Framework-molecule
    Van der Waals/kʙ        0.000000e+00 ( 0.000000e+00 +/- 0.000000e+00) [K]
    Van der Waals (Tail)/kʙ 0.000000e+00 ( 0.000000e+00 +/- 0.000000e+00) [K]
    Coulombic Real/kʙ       0.000000e+00 ( 0.000000e+00 +/- 0.000000e+00) [K]
    Coulombic Fourier/kʙ    0.000000e+00 ( 0.000000e+00 +/- 0.000000e+00) [K]
Molecule-molecule
    Van der Waals/kʙ       -9.358894e+03 (-7.618002e+03 +/- 0.000000e+00) [K]
    Van der Waals (Tail)/kʙ-1.992867e+02 (-1.464936e+02 +/- 0.000000e+00) [K]
    Coulombic Real/kʙ      -3.259876e+03 (-2.483747e+03 +/- 0.000000e+00) [K]
    Coulombic Fourier/kʙ   -4.195927e+02 (-2.227591e+02 +/- 0.000000e+00) [K]
    Molecule Intra/kʙ       0.000000e+00 ( 0.000000e+00 +/- 0.000000e+00) [K]

Current cycle: 600 out of 6000
===============================================================================

Box:      33.78208   0.00000   0.00000  Average:  33.66485   0.00000   0.00000
           0.00000  33.78208   0.00000             0.00000  33.66485   0.00000
           0.00000   0.00000  33.78208             0.00000   0.00000  33.66485
Lengths:  33.78208  33.78208  33.78208  Average:  33.66485  33.66485  33.66485
Angles:   90.00000  90.00000  90.00000  Average:  90.00000  90.00000  90.00000
Rectangular boundary conditions

net charge:   0.00000000

component 0 (CO2) lambda:  0 occupancy:  1 (1.000000)
    net charge:   0.00000000 [e]

Amount of molecules per component :
-------------------------------------------------------------------------------
Component 0 (CO2)
    molecules:      5.500000e+01 molecules  (5.582862e+01 +/- 0.000000e+00)
    number density: 1.426604e-03 molec./A^3 (1.458734e-03 +/- 0.000000e+00)
    density:        1.042301e+02 kg/m^3     (1.065776e+02 +/- 0.000000e+00)

Average pressure tensor: 
-------------------------------------------------------------------------------
 3.9885e+01 -2.4776e+00 -1.4204e+00 +/- 0.0000e+00 0.0000e+00 0.0000e+00 [bar]
-2.4776e+00  4.3461e+01  1.1584e+00 +/- 0.0000e+00 0.0000e+00 0.0000e+00 [bar]
-1.4204e+00  1.1584e+00  4.3207e+01 +/- 0.0000e+00 0.0000e+00 0.0000e+00 [bar]
Ideal-gas pressure:   5.639206e+01 +/ 0.000000e+00 [bar]
Excess pressure:     -1.420800e+01 +/ 0.000000e+00 [bar]
Pressure:             4.218406e+01 +/ 0.000000e+00 [bar]

Total potential energy/kʙ  -1.056975e+04 (-1.119434e+04 +/- 0.000000e+00) [K]
-------------------------------------------------------------------------------
ExternalField-molecule
    Van der Waals/kʙ        0.000000e+00 ( 0.000000e+00 +/- 0.000000e+00) [K]
Framework-molecule
    Van der Waals/kʙ        0.000000e+00 ( 0.000000e+00 +/- 0.000000e+00) [K]
    Van der Waals (Tail)/kʙ 0.000000e+00 ( 0.000000e+00 +/- 0.000000e+00) [K]
    Coulombic Real/kʙ       0.000000e+00 ( 0.000000e+00 +/- 0.000000e+00) [K]
    Coulombic Fourier/kʙ    0.000000e+00 ( 0.000000e+00 +/- 0.000000e+00) [K]
Molecule-molecule
    Van der Waals/kʙ       -6.689304e+03 (-8.177694e+03 +/- 0.000000e+00) [K]
    Van der Waals (Tail)/kʙ-1.457144e+02 (-1.596446e+02 +/- 0.000000e+00) [K]
    Coulombic Real/kʙ      -3.637421e+03 (-2.617603e+03 +/- 0.000000e+00) [K]
    Coulombic Fourier/kʙ   -9.730680e+01 (-2.393987e+02 +/- 0.000000e+00) [K]
    Molecule Intra/kʙ       0.000000e+00 ( 0.000000e+00 +/- 0.000000e+00) [K]

Current cycle: 700 out of 6000
===============================================================================

Box:      33.80506   0.00000   0.00000  Average:  33.67935   0.00000   0.00000
           0.00000  33.80506   0.00000             0.00000  33.67935   0.00000
           0.00000   0.00000  33.80506             0.00000   0.00000  33.67935
Lengths:  33.80506  33.80506  33.80506  Average:  33.67935  33.67935  33.67935
Angles:   90.00000  90.00000  90.00000  Average:  90.00000  90.00000  90.00000
Rectangular boundary conditions

net charge:   0.00000000

component 0 (CO2) lambda:  0 occupancy:  1 (1.000000)
    net charge:   0.00000000 [e]

Amount of molecules per component :
-------------------------------------------------------------------------------
Component 0 (CO2)
    molecules:      4.900000e+01 molecules  (5.569615e+01 +/- 0.000000e+00)
    number density: 1.268385e-03 molec./A^3 (1.454027e-03 +/- 0.000000e+00)
    density:        9.267035e+01 kg/m^3     (1.062337e+02 +/- 0.000000e+00)

Average pressure tensor: 
-------------------------------------------------------------------------------
 4.1770e+01 -1.5893e+00 -1.3200e+00 +/- 0.0000e+00 0.0000e+00 0.0000e+00 [bar]
-1.5893e+00  4.4557e+01  1.3237e+00 +/- 0.0000e+00 0.0000e+00 0.0000e+00 [bar]
-1.3200e+00  1.3237e+00  4.3301e+01 +/- 0.0000e+00 0.0000e+00 0.0000e+00 [bar]
Ideal-gas pressure:   5.621008e+01 +/ 0.000000e+00 [bar]
Excess pressure:     -1.300086e+01 +/ 0.000000e+00 [bar]
Pressure:             4.320922e+01 +/ 0.000000e+00 [bar]

Total potential energy/kʙ  -6.315219e+03 (-1.097572e+04 +/- 0.000000e+00) [K]
-------------------------------------------------------------------------------
ExternalField-molecule
    Van der Waals/kʙ        0.000000e+00 ( 0.000000e+00 +/- 0.000000e+00) [K]
Framework-molecule
    Van der Waals/kʙ        0.000000e+00 ( 0.000000e+00 +/- 0.000000e+00) [K]
    Van der Waals (Tail)/kʙ 0.000000e+00 ( 0.000000e+00 +/- 0.000000e+00) [K]
    Coulombic Real/kʙ       0.000000e+00 ( 0.000000e+00 +/- 0.000000e+00) [K]
    Coulombic Fourier/kʙ    0.000000e+00 ( 0.000000e+00 +/- 0.000000e+00) [K]
Molecule-molecule
    Van der Waals/kʙ       -5.509434e+03 (-8.098958e+03 +/- 0.000000e+00) [K]
    Van der Waals (Tail)/kʙ-1.154206e+02 (-1.569834e+02 +/- 0.000000e+00) [K]
    Coulombic Real/kʙ      -5.327573e+02 (-2.485646e+03 +/- 0.000000e+00) [K]
    Coulombic Fourier/kʙ   -1.576071e+02 (-2.341353e+02 +/- 0.000000e+00) [K]
    Molecule Intra/kʙ       0.000000e+00 ( 0.000000e+00 +/- 0.000000e+00) [K]

Current cycle: 800 out of 6000
===============================================================================

Box:      33.92301   0.00000   0.00000  Average:  33.69754   0.00000   0.00000
           0.00000  33.92301   0.00000             0.00000  33.69754   0.00000
           0.00000   0.00000  33.92301             0.00000   0.00000  33.69754
Lengths:  33.92301  33.92301  33.92301  Average:  33.69754  33.69754  33.69754
Angles:   90.00000  90.00000  90.00000  Average:  90.00000  90.00000  90.00000
Rectangular boundary conditions

net charge:   0.00000000

component 0 (CO2) lambda:  0 occupancy:  1 (1.000000)
    net charge:   0.00000000 [e]

Amount of molecules per component :
-------------------------------------------------------------------------------
Component 0 (CO2)
    molecules:      9.400000e+01 molecules  (5.675780e+01 +/- 0.000000e+00)
    number density: 2.407934e-03 molec./A^3 (1.479496e-03 +/- 0.000000e+00)
    density:        1.759278e+02 kg/m^3     (1.080945e+02 +/- 0.000000e+00)

Average pressure tensor: 
-------------------------------------------------------------------------------
 4.0958e+01 -6.7449e-01 -1.4780e+00 +/- 0.0000e+00 0.0000e+00 0.0000e+00 [bar]
-6.7449e-01  4.5438e+01  1.8984e+00 +/- 0.0000e+00 0.0000e+00 0.0000e+00 [bar]
-1.4780e+00  1.8984e+00  4.3547e+01 +/- 0.0000e+00 0.0000e+00 0.0000e+00 [bar]
Ideal-gas pressure:   5.719468e+01 +/ 0.000000e+00 [bar]
Excess pressure:     -1.388020e+01 +/ 0.000000e+00 [bar]
Pressure:             4.331449e+01 +/ 0.000000e+00 [bar]

Total potential energy/kʙ  -3.793606e+04 (-1.150989e+04 +/- 0.000000e+00) [K]
-------------------------------------------------------------------------------
ExternalField-molecule
    Van der Waals/kʙ        0.000000e+00 ( 0.000000e+00 +/- 0.000000e+00) [K]
Framework-molecule
    Van der Waals/kʙ        0.000000e+00 ( 0.000000e+00 +/- 0.000000e+00) [K]
    Van der Waals (Tail)/kʙ 0.000000e+00 ( 0.000000e+00 +/- 0.000000e+00) [K]
    Coulombic Real/kʙ       0.000000e+00 ( 0.000000e+00 +/- 0.000000e+00) [K]
    Coulombic Fourier/kʙ    0.000000e+00 ( 0.000000e+00 +/- 0.000000e+00) [K]
Molecule-molecule
    Van der Waals/kʙ       -2.990286e+04 (-8.537613e+03 +/- 0.000000e+00) [K]
    Van der Waals (Tail)/kʙ-4.203477e+02 (-1.638811e+02 +/- 0.000000e+00) [K]
    Coulombic Real/kʙ      -6.847899e+03 (-2.557766e+03 +/- 0.000000e+00) [K]
    Coulombic Fourier/kʙ   -7.649557e+02 (-2.506262e+02 +/- 0.000000e+00) [K]
    Molecule Intra/kʙ       0.000000e+00 ( 0.000000e+00 +/- 0.000000e+00) [K]

Current cycle: 900 out of 6000
===============================================================================

Box:      33.81247   0.00000   0.00000  Average:  33.70977   0.00000   0.00000
           0.00000  33.81247   0.00000             0.00000  33.70977   0.00000
           0.00000   0.00000  33.81247             0.00000   0.00000  33.70977
Lengths:  33.81247  33.81247  33.81247  Average:  33.70977  33.70977  33.70977
Angles:   90.00000  90.00000  90.00000  Average:  90.00000  90.00000  90.00000
Rectangular boundary conditions

net charge:   0.00000000

component 0 (CO2) lambda:  0 occupancy:  1 (1.000000)
    net charge:   0.00000000 [e]

Amount of molecules per component :
-------------------------------------------------------------------------------
Component 0 (CO2)
    molecules:      7.000000e+01 molecules  (5.762597e+01 +/- 0.000000e+00)
    number density: 1.810788e-03 molec./A^3 (1.500750e-03 +/- 0.000000e+00)
    density:        1.322992e+02 kg/m^3     (1.096474e+02 +/- 0.000000e+00)

Average pressure tensor: 
-------------------------------------------------------------------------------
 3.9461e+01 -1.5471e+00 -1.8565e+00 +/- 0.0000e+00 0.0000e+00 0.0000e+00 [bar]
-1.5471e+00  4.3479e+01  1.2613e+00 +/- 0.0000e+00 0.0000e+00 0.0000e+00 [bar]
-1.8565e+00  1.2613e+00  4.2792e+01 +/- 0.0000e+00 0.0000e+00 0.0000e+00 [bar]
Ideal-gas pressure:   5.801631e+01 +/ 0.000000e+00 [bar]
Excess pressure:     -1.610530e+01 +/ 0.000000e+00 [bar]
Pressure:             4.191101e+01 +/ 0.000000e+00 [bar]

Total potential energy/kʙ  -1.540114e+04 (-1.189574e+04 +/- 0.000000e+00) [K]
-------------------------------------------------------------------------------
ExternalField-molecule
    Van der Waals/kʙ        0.000000e+00 ( 0.000000e+00 +/- 0.000000e+00) [K]
Framework-molecule
    Van der Waals/kʙ        0.000000e+00 ( 0.000000e+00 +/- 0.000000e+00) [K]
    Van der Waals (Tail)/kʙ 0.000000e+00 ( 0.000000e+00 +/- 0.000000e+00) [K]
    Coulombic Real/kʙ       0.000000e+00 ( 0.000000e+00 +/- 0.000000e+00) [K]
    Coulombic Fourier/kʙ    0.000000e+00 ( 0.000000e+00 +/- 0.000000e+00) [K]
Molecule-molecule
    Van der Waals/kʙ       -1.149418e+04 (-8.824632e+03 +/- 0.000000e+00) [K]
    Van der Waals (Tail)/kʙ-2.353975e+02 (-1.672515e+02 +/- 0.000000e+00) [K]
    Coulombic Real/kʙ      -3.505758e+03 (-2.644851e+03 +/- 0.000000e+00) [K]
    Coulombic Fourier/kʙ   -1.658033e+02 (-2.590086e+02 +/- 0.000000e+00) [K]
    Molecule Intra/kʙ       0.000000e+00 ( 0.000000e+00 +/- 0.000000e+00) [K]

Current cycle: 1000 out of 6000
===============================================================================

Box:      33.54056   0.00000   0.00000  Average:  33.71017   0.00000   0.00000
           0.00000  33.54056   0.00000             0.00000  33.71017   0.00000
           0.00000   0.00000  33.54056             0.00000   0.00000  33.71017
Lengths:  33.54056  33.54056  33.54056  Average:  33.71017  33.71017  33.71017
Angles:   90.00000  90.00000  90.00000  Average:  90.00000  90.00000  90.00000
Rectangular boundary conditions

net charge:   0.00000000

component 0 (CO2) lambda:  0 occupancy:  1 (1.000000)
    net charge:   0.00000000 [e]

Amount of molecules per component :
-------------------------------------------------------------------------------
Component 0 (CO2)
    molecules:      5.800000e+01 molecules  (5.777722e+01 +/- 0.000000e+00)
    number density: 1.537153e-03 molec./A^3 (1.504943e-03 +/- 0.000000e+00)
    density:        1.123070e+02 kg/m^3     (1.099537e+02 +/- 0.000000e+00)

Average pressure tensor: 
-------------------------------------------------------------------------------
 4.0065e+01 -2.1666e+00 -1.9127e+00 +/- 0.0000e+00 0.0000e+00 0.0000e+00 [bar]
-2.1666e+00  4.2500e+01  8.5899e-01 +/- 0.0000e+00 0.0000e+00 0.0000e+00 [bar]
-1.9127e+00  8.5899e-01  4.2032e+01 +/- 0.0000e+00 0.0000e+00 0.0000e+00 [bar]
Ideal-gas pressure:   5.817841e+01 +/ 0.000000e+00 [bar]
Excess pressure:     -1.664610e+01 +/ 0.000000e+00 [bar]
Pressure:             4.153230e+01 +/ 0.000000e+00 [bar]

Total potential energy/kʙ  -1.097683e+04 (-1.190948e+04 +/- 0.000000e+00) [K]
-------------------------------------------------------------------------------
ExternalField-molecule
    Van der Waals/kʙ        0.000000e+00 ( 0.000000e+00 +/- 0.000000e+00) [K]
Framework-molecule
    Van der Waals/kʙ        0.000000e+00 ( 0.000000e+00 +/- 0.000000e+00) [K]
    Van der Waals (Tail)/kʙ 0.000000e+00 ( 0.000000e+00 +/- 0.000000e+00) [K]
    Coulombic Real/kʙ       0.000000e+00 ( 0.000000e+00 +/- 0.000000e+00) [K]
    Coulombic Fourier/kʙ    0.000000e+00 ( 0.000000e+00 +/- 0.000000e+00) [K]
Molecule-molecule
    Van der Waals/kʙ       -9.592203e+03 (-8.869129e+03 +/- 0.000000e+00) [K]
    Van der Waals (Tail)/kʙ-1.655699e+02 (-1.673071e+02 +/- 0.000000e+00) [K]
    Coulombic Real/kʙ      -1.045593e+03 (-2.620676e+03 +/- 0.000000e+00) [K]
    Coulombic Fourier/kʙ   -1.734605e+02 (-2.523674e+02 +/- 0.000000e+00) [K]
    Molecule Intra/kʙ       0.000000e+00 ( 0.000000e+00 +/- 0.000000e+00) [K]

Current cycle: 1100 out of 6000
===============================================================================

Box:      33.81423   0.00000   0.00000  Average:  33.71354   0.00000   0.00000
           0.00000  33.81423   0.00000             0.00000  33.71354   0.00000
           0.00000   0.00000  33.81423             0.00000   0.00000  33.71354
Lengths:  33.81423  33.81423  33.81423  Average:  33.71354  33.71354  33.71354
Angles:   90.00000  90.00000  90.00000  Average:  90.00000  90.00000  90.00000
Rectangular boundary conditions

net charge:   0.00000000

component 0 (CO2) lambda:  0 occupancy:  1 (1.000000)
    net charge:   0.00000000 [e]

Amount of molecules per component :
-------------------------------------------------------------------------------
Component 0 (CO2)
    molecules:      7.600000e+01 molecules  (5.842416e+01 +/- 0.000000e+00)
    number density: 1.965690e-03 molec./A^3 (1.521618e-03 +/- 0.000000e+00)
    density:        1.436167e+02 kg/m^3     (1.111720e+02 +/- 0.000000e+00)

Average pressure tensor: 
-------------------------------------------------------------------------------
 4.0236e+01 -2.1617e+00 -1.8897e+00 +/- 0.0000e+00 0.0000e+00 0.0000e+00 [bar]
-2.1617e+00  4.3171e+01  1.1507e+00 +/- 0.0000e+00 0.0000e+00 0.0000e+00 [bar]
-1.8897e+00  1.1507e+00  4.2224e+01 +/- 0.0000e+00 0.0000e+00 0.0000e+00 [bar]
Ideal-gas pressure:   5.882303e+01 +/ 0.000000e+00 [bar]
Excess pressure:     -1.694588e+01 +/ 0.000000e+00 [bar]
Pressure:             4.187715e+01 +/ 0.000000e+00 [bar]

Total potential energy/kʙ  -1.767771e+04 (-1.211718e+04 +/- 0.000000e+00) [K]
-------------------------------------------------------------------------------
ExternalField-molecule
    Van der Waals/kʙ        0.000000e+00 ( 0.000000e+00 +/- 0.000000e+00) [K]
Framework-molecule
    Van der Waals/kʙ        0.000000e+00 ( 0.000000e+00 +/- 0.000000e+00) [K]
    Van der Waals (Tail)/kʙ 0.000000e+00 ( 0.000000e+00 +/- 0.000000e+00) [K]
    Coulombic Real/kʙ       0.000000e+00 ( 0.000000e+00 +/- 0.000000e+00) [K]
    Coulombic Fourier/kʙ    0.000000e+00 ( 0.000000e+00 +/- 0.000000e+00) [K]
Molecule-molecule
    Van der Waals/kʙ       -1.612001e+04 (-9.072798e+03 +/- 0.000000e+00) [K]
    Van der Waals (Tail)/kʙ-2.774373e+02 (-1.699878e+02 +/- 0.000000e+00) [K]
    Coulombic Real/kʙ      -1.133274e+03 (-2.618352e+03 +/- 0.000000e+00) [K]
    Coulombic Fourier/kʙ   -1.469947e+02 (-2.560468e+02 +/- 0.000000e+00) [K]
    Molecule Intra/kʙ       0.000000e+00 ( 0.000000e+00 +/- 0.000000e+00) [K]

Current cycle: 1200 out of 6000
===============================================================================

Box:      33.90940   0.00000   0.00000  Average:  33.72366   0.00000   0.00000
           0.00000  33.90940   0.00000             0.00000  33.72366   0.00000
           0.00000   0.00000  33.90940             0.00000   0.00000  33.72366
Lengths:  33.90940  33.90940  33.90940  Average:  33.72366  33.72366  33.72366
Angles:   90.00000  90.00000  90.00000  Average:  90.00000  90.00000  90.00000
Rectangular boundary conditions

net charge:   0.00000000

component 0 (CO2) lambda:  0 occupancy:  1 (1.000000)
    net charge:   0.00000000 [e]

Amount of molecules per component :
-------------------------------------------------------------------------------
Component 0 (CO2)
    molecules:      6.900000e+01 molecules  (5.906078e+01 +/- 0.000000e+00)
    number density: 1.769656e-03 molec./A^3 (1.536907e-03 +/- 0.000000e+00)
    density:        1.292941e+02 kg/m^3     (1.122891e+02 +/- 0.000000e+00)

Average pressure tensor: 
-------------------------------------------------------------------------------
 4.0216e+01 -1.2394e+00 -1.7655e+00 +/- 0.0000e+00 0.0000e+00 0.0000e+00 [bar]
-1.2394e+00  4.3570e+01  8.6568e-01 +/- 0.0000e+00 0.0000e+00 0.0000e+00 [bar]
-1.7655e+00  8.6568e-01  4.2265e+01 +/- 0.0000e+00 0.0000e+00 0.0000e+00 [bar]
Ideal-gas pressure:   5.941408e+01 +/ 0.000000e+00 [bar]
Excess pressure:     -1.739715e+01 +/ 0.000000e+00 [bar]
Pressure:             4.201693e+01 +/ 0.000000e+00 [bar]

Total potential energy/kʙ  -1.345795e+04 (-1.232254e+04 +/- 0.000000e+00) [K]
-------------------------------------------------------------------------------
ExternalField-molecule
    Van der Waals/kʙ        0.000000e+00 ( 0.000000e+00 +/- 0.000000e+00) [K]
Framework-molecule
    Van der Waals/kʙ        0.000000e+00 ( 0.000000e+00 +/- 0.000000e+00) [K]
    Van der Waals (Tail)/kʙ 0.000000e+00 ( 0.000000e+00 +/- 0.000000e+00) [K]
    Coulombic Real/kʙ       0.000000e+00 ( 0.000000e+00 +/- 0.000000e+00) [K]
    Coulombic Fourier/kʙ    0.000000e+00 ( 0.000000e+00 +/- 0.000000e+00) [K]
Molecule-molecule
    Van der Waals/kʙ       -1.082197e+04 (-9.250516e+03 +/- 0.000000e+00) [K]
    Van der Waals (Tail)/kʙ-2.267640e+02 (-1.746066e+02 +/- 0.000000e+00) [K]
    Coulombic Real/kʙ      -2.191223e+03 (-2.636373e+03 +/- 0.000000e+00) [K]
    Coulombic Fourier/kʙ   -2.180005e+02 (-2.610470e+02 +/- 0.000000e+00) [K]
    Molecule Intra/kʙ       0.000000e+00 ( 0.000000e+00 +/- 0.000000e+00) [K]

Current cycle: 1300 out of 6000
===============================================================================

Box:      33.88375   0.00000   0.00000  Average:  33.74616   0.00000   0.00000
           0.00000  33.88375   0.00000             0.00000  33.74616   0.00000
           0.00000   0.00000  33.88375             0.00000   0.00000  33.74616
Lengths:  33.88375  33.88375  33.88375  Average:  33.74616  33.74616  33.74616
Angles:   90.00000  90.00000  90.00000  Average:  90.00000  90.00000  90.00000
Rectangular boundary conditions

net charge:   0.00000000

component 0 (CO2) lambda:  0 occupancy:  1 (1.000000)
    net charge:   0.00000000 [e]

Amount of molecules per component :
-------------------------------------------------------------------------------
Component 0 (CO2)
    molecules:      6.100000e+01 molecules  (6.012375e+01 +/- 0.000000e+00)
    number density: 1.568033e-03 molec./A^3 (1.561068e-03 +/- 0.000000e+00)
    density:        1.145632e+02 kg/m^3     (1.140543e+02 +/- 0.000000e+00)

Average pressure tensor: 
-------------------------------------------------------------------------------
 3.9668e+01 -1.5899e+00 -2.3459e+00 +/- 0.0000e+00 0.0000e+00 0.0000e+00 [bar]
-1.5899e+00  4.4224e+01  1.2478e-01 +/- 0.0000e+00 0.0000e+00 0.0000e+00 [bar]
-2.3459e+00  1.2478e-01  4.3102e+01 +/- 0.0000e+00 0.0000e+00 0.0000e+00 [bar]
Ideal-gas pressure:   6.034809e+01 +/ 0.000000e+00 [bar]
Excess pressure:     -1.801682e+01 +/ 0.000000e+00 [bar]
Pressure:             4.233127e+01 +/ 0.000000e+00 [bar]

Total potential energy/kʙ  -1.096036e+04 (-1.273391e+04 +/- 0.000000e+00) [K]
-------------------------------------------------------------------------------
ExternalField-molecule
    Van der Waals/kʙ        0.000000e+00 ( 0.000000e+00 +/- 0.000000e+00) [K]
Framework-molecule
    Van der Waals/kʙ        0.000000e+00 ( 0.000000e+00 +/- 0.000000e+00) [K]
    Van der Waals (Tail)/kʙ 0.000000e+00 ( 0.000000e+00 +/- 0.000000e+00) [K]
    Coulombic Real/kʙ       0.000000e+00 ( 0.000000e+00 +/- 0.000000e+00) [K]
    Coulombic Fourier/kʙ    0.000000e+00 ( 0.000000e+00 +/- 0.000000e+00) [K]
Molecule-molecule
    Van der Waals/kʙ       -8.541621e+03 (-9.610147e+03 +/- 0.000000e+00) [K]
    Van der Waals (Tail)/kʙ-1.776321e+02 (-1.807667e+02 +/- 0.000000e+00) [K]
    Coulombic Real/kʙ      -2.254973e+03 (-2.684726e+03 +/- 0.000000e+00) [K]
    Coulombic Fourier/kʙ    1.386205e+01 (-2.582663e+02 +/- 0.000000e+00) [K]
    Molecule Intra/kʙ       0.000000e+00 ( 0.000000e+00 +/- 0.000000e+00) [K]

Current cycle: 1400 out of 6000
===============================================================================

Box:      33.63859   0.00000   0.00000  Average:  33.74463   0.00000   0.00000
           0.00000  33.63859   0.00000             0.00000  33.74463   0.00000
           0.00000   0.00000  33.63859             0.00000   0.00000  33.74463
Lengths:  33.63859  33.63859  33.63859  Average:  33.74463  33.74463  33.74463
Angles:   90.00000  90.00000  90.00000  Average:  90.00000  90.00000  90.00000
Rectangular boundary conditions

net charge:   0.00000000

component 0 (CO2) lambda:  0 occupancy:  1 (1.000000)
    net charge:   0.00000000 [e]

Amount of molecules per component :
-------------------------------------------------------------------------------
Component 0 (CO2)
    molecules:      5.900000e+01 molecules  (5.954390e+01 +/- 0.000000e+00)
    number density: 1.550025e-03 molec./A^3 (1.546361e-03 +/- 0.000000e+00)
    density:        1.132475e+02 kg/m^3     (1.129798e+02 +/- 0.000000e+00)

Average pressure tensor: 
-------------------------------------------------------------------------------
 3.9040e+01 -1.6344e+00 -2.2576e+00 +/- 0.0000e+00 0.0000e+00 0.0000e+00 [bar]
-1.6344e+00  4.2845e+01  2.3292e-02 +/- 0.0000e+00 0.0000e+00 0.0000e+00 [bar]
-2.2576e+00  2.3292e-02  4.1970e+01 +/- 0.0000e+00 0.0000e+00 0.0000e+00 [bar]
Ideal-gas pressure:   5.977953e+01 +/ 0.000000e+00 [bar]
Excess pressure:     -1.849459e+01 +/ 0.000000e+00 [bar]
Pressure:             4.128494e+01 +/ 0.000000e+00 [bar]

Total potential energy/kʙ  -1.354668e+04 (-1.248316e+04 +/- 0.000000e+00) [K]
-------------------------------------------------------------------------------
ExternalField-molecule
    Van der Waals/kʙ        0.000000e+00 ( 0.000000e+00 +/- 0.000000e+00) [K]
Framework-molecule
    Van der Waals/kʙ        0.000000e+00 ( 0.000000e+00 +/- 0.000000e+00) [K]
    Van der Waals (Tail)/kʙ 0.000000e+00 ( 0.000000e+00 +/- 0.000000e+00) [K]
    Coulombic Real/kʙ       0.000000e+00 ( 0.000000e+00 +/- 0.000000e+00) [K]
    Coulombic Fourier/kʙ    0.000000e+00 ( 0.000000e+00 +/- 0.000000e+00) [K]
Molecule-molecule
    Van der Waals/kʙ       -9.614188e+03 (-9.436048e+03 +/- 0.000000e+00) [K]
    Van der Waals (Tail)/kʙ-1.698349e+02 (-1.771312e+02 +/- 0.000000e+00) [K]
    Coulombic Real/kʙ      -3.530767e+03 (-2.619161e+03 +/- 0.000000e+00) [K]
    Coulombic Fourier/kʙ   -2.318955e+02 (-2.508218e+02 +/- 0.000000e+00) [K]
    Molecule Intra/kʙ       0.000000e+00 ( 0.000000e+00 +/- 0.000000e+00) [K]

Current cycle: 1500 out of 6000
===============================================================================

Box:      34.00776   0.00000   0.00000  Average:  33.75146   0.00000   0.00000
           0.00000  34.00776   0.00000             0.00000  33.75146   0.00000
           0.00000   0.00000  34.00776             0.00000   0.00000  33.75146
[...]
    number density: 1.737847e-03 molec./A^3 (1.497912e-03 +/- 1.356638e-04)
    density:        1.269701e+02 kg/m^3     (1.094400e+02 +/- 9.911827e+00)

Average pressure tensor: 
-------------------------------------------------------------------------------
 4.0739e+01 -1.3653e+00 -2.7228e-01 +/- 3.9654e+00 1.8758e+00 1.6457e+00 [bar]
-1.3653e+00  4.0656e+01 -3.1086e-01 +/- 1.8758e+00 3.3543e+00 1.2822e+00 [bar]
-2.7228e-01 -3.1086e-01  4.0428e+01 +/- 1.6457e+00 1.2822e+00 2.4445e+00 [bar]
Ideal-gas pressure:   5.790660e+01 +/ 5.244518e+00 [bar]
Excess pressure:     -1.729914e+01 +/ 2.765719e+00 [bar]
Pressure:             4.060746e+01 +/ 3.046621e+00 [bar]

Total potential energy/kʙ  -1.405076e+04 (-1.183327e+04 +/- 2.363160e+03) [K]
-------------------------------------------------------------------------------
ExternalField-molecule
    Van der Waals/kʙ        0.000000e+00 ( 0.000000e+00 +/- 0.000000e+00) [K]
Framework-molecule
    Van der Waals/kʙ        0.000000e+00 ( 0.000000e+00 +/- 0.000000e+00) [K]
    Van der Waals (Tail)/kʙ 0.000000e+00 ( 0.000000e+00 +/- 0.000000e+00) [K]
    Coulombic Real/kʙ       0.000000e+00 ( 0.000000e+00 +/- 0.000000e+00) [K]
    Coulombic Fourier/kʙ    0.000000e+00 ( 0.000000e+00 +/- 0.000000e+00) [K]
Molecule-molecule
    Van der Waals/kʙ       -1.197972e+04 (-8.889683e+03 +/- 1.784213e+03) [K]
    Van der Waals (Tail)/kʙ-2.162333e+02 (-1.667447e+02 +/- 3.177516e+01) [K]
    Coulombic Real/kʙ      -1.730949e+03 (-2.525835e+03 +/- 5.240681e+02) [K]
    Coulombic Fourier/kʙ   -1.238536e+02 (-2.510042e+02 +/- 4.572917e+01) [K]
    Molecule Intra/kʙ       0.000000e+00 ( 0.000000e+00 +/- 0.000000e+00) [K]

Current cycle: 5800 out of 6000
===============================================================================

Box:      33.80908   0.00000   0.00000  Average:  33.68519   0.00000   0.00000
           0.00000  33.80908   0.00000             0.00000  33.68519   0.00000
           0.00000   0.00000  33.80908             0.00000   0.00000  33.68519
Lengths:  33.80908  33.80908  33.80908  Average:  33.68519  33.68519  33.68519
Angles:   90.00000  90.00000  90.00000  Average:  90.00000  90.00000  90.00000
Rectangular boundary conditions

net charge:   0.00000000

component 0 (CO2) lambda:  0 occupancy:  1 (1.000000)
    net charge:   0.00000000 [e]

Amount of molecules per component :
-------------------------------------------------------------------------------
Component 0 (CO2)
    molecules:      5.300000e+01 molecules  (5.748354e+01 +/- 6.216992e+00)
    number density: 1.371437e-03 molec./A^3 (1.499476e-03 +/- 1.308306e-04)
    density:        1.001995e+02 kg/m^3     (1.095543e+02 +/- 9.558709e+00)

Average pressure tensor: 
-------------------------------------------------------------------------------
 4.1106e+01 -1.4084e+00 -4.0152e-01 +/- 4.7545e+00 1.8989e+00 1.5134e+00 [bar]
-1.4084e+00  4.0532e+01 -3.5689e-01 +/- 1.8989e+00 3.0665e+00 1.3103e+00 [bar]
-4.0152e-01 -3.5689e-01  4.0306e+01 +/- 1.5134e+00 1.3103e+00 2.2065e+00 [bar]
Ideal-gas pressure:   5.796705e+01 +/ 5.057677e+00 [bar]
Excess pressure:     -1.731898e+01 +/ 2.636771e+00 [bar]
Pressure:             4.064807e+01 +/ 3.000481e+00 [bar]

Total potential energy/kʙ  -1.089186e+04 (-1.185192e+04 +/- 2.251593e+03) [K]
-------------------------------------------------------------------------------
ExternalField-molecule
    Van der Waals/kʙ        0.000000e+00 ( 0.000000e+00 +/- 0.000000e+00) [K]
Framework-molecule
    Van der Waals/kʙ        0.000000e+00 ( 0.000000e+00 +/- 0.000000e+00) [K]
    Van der Waals (Tail)/kʙ 0.000000e+00 ( 0.000000e+00 +/- 0.000000e+00) [K]
    Coulombic Real/kʙ       0.000000e+00 ( 0.000000e+00 +/- 0.000000e+00) [K]
    Coulombic Fourier/kʙ    0.000000e+00 ( 0.000000e+00 +/- 0.000000e+00) [K]
Molecule-molecule
    Van der Waals/kʙ       -7.136249e+03 (-8.903102e+03 +/- 1.701643e+03) [K]
    Van der Waals (Tail)/kʙ-1.349857e+02 (-1.669216e+02 +/- 3.012973e+01) [K]
    Coulombic Real/kʙ      -3.440560e+03 (-2.529918e+03 +/- 4.983838e+02) [K]
    Coulombic Fourier/kʙ   -1.800629e+02 (-2.519791e+02 +/- 4.523224e+01) [K]
    Molecule Intra/kʙ       0.000000e+00 ( 0.000000e+00 +/- 0.000000e+00) [K]

Current cycle: 5900 out of 6000
===============================================================================

Box:      33.56162   0.00000   0.00000  Average:  33.68479   0.00000   0.00000
           0.00000  33.56162   0.00000             0.00000  33.68479   0.00000
           0.00000   0.00000  33.56162             0.00000   0.00000  33.68479
Lengths:  33.56162  33.56162  33.56162  Average:  33.68479  33.68479  33.68479
Angles:   90.00000  90.00000  90.00000  Average:  90.00000  90.00000  90.00000
Rectangular boundary conditions

net charge:   0.00000000

component 0 (CO2) lambda:  0 occupancy:  1 (1.000000)
    net charge:   0.00000000 [e]

Amount of molecules per component :
-------------------------------------------------------------------------------
Component 0 (CO2)
    molecules:      5.300000e+01 molecules  (5.744670e+01 +/- 5.749903e+00)
    number density: 1.401997e-03 molec./A^3 (1.498644e-03 +/- 1.209653e-04)
    density:        1.024323e+02 kg/m^3     (1.094935e+02 +/- 8.837935e+00)

Average pressure tensor: 
-------------------------------------------------------------------------------
 4.1194e+01 -1.3509e+00 -3.1454e-01 +/- 4.6900e+00 1.8604e+00 1.5645e+00 [bar]
-1.3509e+00  4.0860e+01 -2.9020e-01 +/- 1.8604e+00 3.5392e+00 1.2695e+00 [bar]
-3.1454e-01 -2.9020e-01  4.0553e+01 +/- 1.5645e+00 1.2695e+00 2.5370e+00 [bar]
Ideal-gas pressure:   5.793488e+01 +/ 4.676304e+00 [bar]
Excess pressure:     -1.706580e+01 +/ 1.888968e+00 [bar]
Pressure:             4.086908e+01 +/ 3.373028e+00 [bar]

Total potential energy/kʙ  -1.029318e+04 (-1.184155e+04 +/- 2.089031e+03) [K]
-------------------------------------------------------------------------------
ExternalField-molecule
    Van der Waals/kʙ        0.000000e+00 ( 0.000000e+00 +/- 0.000000e+00) [K]
Framework-molecule
    Van der Waals/kʙ        0.000000e+00 ( 0.000000e+00 +/- 0.000000e+00) [K]
    Van der Waals (Tail)/kʙ 0.000000e+00 ( 0.000000e+00 +/- 0.000000e+00) [K]
    Coulombic Real/kʙ       0.000000e+00 ( 0.000000e+00 +/- 0.000000e+00) [K]
    Coulombic Fourier/kʙ    0.000000e+00 ( 0.000000e+00 +/- 0.000000e+00) [K]
Molecule-molecule
    Van der Waals/kʙ       -7.857875e+03 (-8.898555e+03 +/- 1.591469e+03) [K]
    Van der Waals (Tail)/kʙ-1.379936e+02 (-1.667682e+02 +/- 2.800009e+01) [K]
    Coulombic Real/kʙ      -2.069781e+03 (-2.525480e+03 +/- 4.558320e+02) [K]
    Coulombic Fourier/kʙ   -2.275336e+02 (-2.507451e+02 +/- 3.896798e+01) [K]
    Molecule Intra/kʙ       0.000000e+00 ( 0.000000e+00 +/- 0.000000e+00) [K]


Energy statistics             |  Energy [K]   | Recomputed [K]|  Drift [K]    |
===============================================================================
Total potential energy/kʙ     | -1.003672e+04 | -1.003672e+04 |  1.387678e-10 |
    external field VDW/kʙ     |  0.000000e+00 |  0.000000e+00 |  0.000000e+00 |
    external field Real/kʙ    |  0.000000e+00 |  0.000000e+00 |  0.000000e+00 |
    framework-molecule VDW/kʙ |  0.000000e+00 |  0.000000e+00 |  0.000000e+00 |
    framework-molecule Real/kʙ|  0.000000e+00 |  0.000000e+00 |  0.000000e+00 |
    molecule-molecule VDW/kʙ  | -7.258327e+03 | -7.258327e+03 | -1.203259e-11 |
    molecule-molecule Real/kʙ | -2.417704e+03 | -2.417704e+03 |  5.742825e-12 |
    Van der Waals (Tail)/kʙ   | -1.478462e+02 | -1.478462e+02 | -4.272935e-13 |
    Ewald Fourier/kʙ          |  3.021470e+03 |  3.021470e+03 |  5.469357e-12 |
    Ewald self/kʙ             | -1.010173e+06 | -1.010173e+06 |  0.000000e+00 |
    Ewald exclusion/kʙ        |  1.006939e+06 |  1.006939e+06 |  1.400155e-10 |
    intra VDW/kʙ              |  0.000000e+00 |  0.000000e+00 |  0.000000e+00 |
    intra Coulombic/kʙ        |  0.000000e+00 |  0.000000e+00 |  0.000000e+00 |
    polarization/kʙ           |  0.000000e+00 |  0.000000e+00 |  0.000000e+00 |
    dU/dlambda VDW/kʙ         |  0.000000e+00 |  0.000000e+00 |  0.000000e+00 |
    dU/dlambda Real/kʙ        |  0.000000e+00 |  0.000000e+00 |  0.000000e+00 |
    dU/dlambda Ewald/kʙ       |  0.000000e+00 |  0.000000e+00 |  0.000000e+00 |
-------------------------------------------------------------------------------


Monte-Carlo moves statistics
===============================================================================

    Gibbs volume         all:                2997
    Gibbs volume         total:              5999
    Gibbs volume         constructed:        5999
    Gibbs volume         accepted:           4195
    Gibbs volume         fraction:       0.699283
    Gibbs volume         max-change:     0.035797

Component 0 [CO2]
    Reinsertion (CBMC)   all:              150122
    Reinsertion (CBMC)   total:            150122
    Reinsertion (CBMC)   constructed:      150122
    Reinsertion (CBMC)   accepted:          89377
    Reinsertion (CBMC)   fraction:       0.595362
    Reinsertion (CBMC)   max-change:     0.000000

    Gibbs swap (CBMC)    all:              298286
    Gibbs swap (CBMC)    total:            596798
    Gibbs swap (CBMC)    constructed:      590405
    Gibbs swap (CBMC)    accepted:         108297
    Gibbs swap (CBMC)    fraction:       0.181463
    Gibbs swap (CBMC)    max-change:     0.000000

    Translation          all:              150015
    Translation          total:             50059      49948      50008
    Translation          constructed:       49917      49787      49871
    Translation          accepted:          38960      38713      38695
    Translation          fraction:       0.778282   0.775066   0.773776
    Translation          max-change:     1.500000   1.500000   1.500000

    Rotation             all:              149393
    Rotation             total:             49834      49811      49748
    Rotation             constructed:       49800      49769      49715
    Rotation             accepted:          38539      38692      38433
    Rotation             fraction:       0.773348   0.776776   0.772554
    Rotation             max-change:     1.500000   1.500000   1.500000



Production run counting of the MC moves summed over systems and components
===============================================================================

Reinsertion (CBMC)                   299275 (19.9517 [%])
Gibbs volume                           5999 (0.3999 [%])
Gibbs swap (CBMC)                    596798 (39.7865 [%])
Translation                          299587 (19.9725 [%])
Rotation                             298341 (19.8894 [%])

Production count MC-steps:          1500000 [-]
               All summed:          1500000 [-]
               difference:                0 [-]


Production run CPU timings of the MC moves
===============================================================================

Component 0 CO2

Rotation                              8.080147 [s]
    Ewald                             5.220127 [s]
    ExternalField-Molecule            0.007786 [s]
    Framework-Molecule                0.008148 [s]
    Molecule-Molecule                 2.326950 [s]
    Overhead                          0.517136 [s]

Reinsertion (CBMC)                   28.923132 [s]
    Ewald                             5.330391 [s]
    NonEwald                         23.193552 [s]
    Overhead                          0.399189 [s]

Translation                           8.098840 [s]
    Ewald                             5.217829 [s]
    ExternalField-Molecule            0.008006 [s]
    Framework-Molecule                0.012416 [s]
    Molecule-Molecule                 2.349098 [s]
    Overhead                          0.511491 [s]



Gibbs swap (CBMC)                   180.912914 [s]
    Ewald                            16.956711 [s]
    NonEwald                        161.406897 [s]
    Tail                              1.642365 [s]

Gibbs volume                         20.946370 [s]
    Ewald                             4.879865 [s]
    NonEwald                         15.385490 [s]
    Tail                              0.514949 [s]

Property sampling                     0.333652 [s]
Energy/pressure sampling:             1.246631 [s]


Production run CPU timings of the MC moves summed over systems and components
===============================================================================


Translation                          28.227321 [s]
    Ewald                            10.517038 [s]
    ExternalField-Molecule            0.015925 [s]
    Framework-Molecule                0.024925 [s]
    Molecule-Molecule                16.706597 [s]
    Overhead                          0.962836 [s]

Rotation                             28.065326 [s]
    Ewald                            10.489144 [s]
    ExternalField-Molecule            0.015510 [s]
    Framework-Molecule                0.016385 [s]
    Molecule-Molecule                16.605789 [s]
    Overhead                          0.938498 [s]

Reinsertion (CBMC)                  144.457910 [s]
    Ewald                            10.658760 [s]
    NonEwald                        133.221219 [s]
    Overhead                          0.577931 [s]

Gibbs volume                         41.890831 [s]
    Ewald                             9.749433 [s]
    NonEwald                         30.775884 [s]
    Tail                              1.029942 [s]
    Overhead                          0.335572 [s]

Gibbs swap (CBMC)                   353.683026 [s]
    Ewald                            33.635033 [s]
    NonEwald                        315.340142 [s]
    Tail                              2.954756 [s]
    Overhead                          1.753095 [s]

Property sampling:                    0.666057 [s]
Energy/pressure sampling:             9.012093 [s]

Production simulation time:         607.027552 [s]
                All summed:         606.002564 [s]
                  Overhead:           1.024988 [s]


Initalization simulation time:      191.559965 [s]
Equilibration simulation time:        0.000000 [s]
Production simulation time:         607.027552 [s]
Total simulation time:              798.587517 [s]


Energy averages and statistics:
===============================================================================

Framework-molecule energy:
-------------------------------------------------------------------------------



Framework-molecule energy contributions per energy type:
-------------------------------------------------------------------------------



Inter-molecular energy:
-------------------------------------------------------------------------------

    Inter-molecular energy/kʙ 0-0 [CO2-CO2]:
    ---------------------------------------------------------------------------
        Block[  0] -1.231308e+04
        Block[  1] -1.138633e+04
        Block[  2] -1.003135e+04
        Block[  3] -1.116091e+04
        Block[  4] -1.415816e+04
        -----------------------------------------------------------------------
        Average  -1.180997e+04 +/-  1.916381e+03 [K]



Inter-molecular energy contributions per energy type:
-------------------------------------------------------------------------------

    Van der Waals energy/kʙ 0-0 [CO2-CO2]:
    ---------------------------------------------------------------------------
        Block[  0] -9.237420e+03
        Block[  1] -8.734348e+03
        Block[  2] -7.442637e+03
        Block[  3] -8.331939e+03
        Block[  4] -1.061169e+04
        -----------------------------------------------------------------------
        Average  -8.871607e+03 +/-  1.457565e+03 [K]

    VDW Tail-Correction energy/kʙ 0-0 [CO2-CO2]:
    ---------------------------------------------------------------------------
        Block[  0] -1.741720e+02
        Block[  1] -1.617392e+02
        Block[  2] -1.414686e+02
        Block[  3] -1.573153e+02
        Block[  4] -1.971671e+02
        -----------------------------------------------------------------------
        Average  -1.663724e+02 +/-  2.583949e+01 [K]

    Coulomb Real energy/kʙ 0-0 [CO2-CO2]:
    ---------------------------------------------------------------------------
        Block[  0] -2.640083e+03
        Block[  1] -2.257644e+03
        Block[  2] -2.211236e+03
        Block[  3] -2.446220e+03
        Block[  4] -3.055077e+03
        -----------------------------------------------------------------------
        Average  -2.522052e+03 +/-  4.256959e+02 [K]

    Coulomb Fourier energy/kʙ 0-0 [CO2-CO2]:
    ---------------------------------------------------------------------------
        Block[  0] -2.614057e+02
        Block[  1] -2.325999e+02
        Block[  2] -2.360115e+02
        Block[  3] -2.254330e+02
        Block[  4] -2.942275e+02
        -----------------------------------------------------------------------
        Average  -2.499355e+02 +/-  3.504870e+01 [K]


Total energy/kʙ
-------------------------------------------------------------------------------
    Block[  0] -1.231308e+04
    Block[  1] -1.138633e+04
    Block[  2] -1.003135e+04
    Block[  3] -1.116091e+04
    Block[  4] -1.415816e+04
    ---------------------------------------------------------------------------
    Average  -1.180997e+04 +/-  1.916381e+03 [K]

Pressure averages and statistics:
===============================================================================

Average pressure tensor: 
-------------------------------------------------------------------------------
 4.1112e+01 -1.1687e+00 -3.6702e-01 +/- 4.2278e+00 1.8639e+00 1.5239e+00 [bar]
-1.1687e+00  4.0794e+01 -3.3773e-01 +/- 1.8639e+00 3.3387e+00 1.2872e+00 [bar]
-3.6702e-01 -3.3773e-01  4.0382e+01 +/- 1.5239e+00 1.2872e+00 2.2437e+00 [bar]

    Block[  0]  5.940658e+06
    Block[  1]  5.688677e+06
    Block[  2]  5.404404e+06
    Block[  3]  5.600358e+06
    Block[  4]  6.314392e+06
    ---------------------------------------------------------------------------
    Ideal gas pressure   5.789698e+06 +/-  2.623623e-02 [Pa]
                         5.789698e+01 +/-  4.356632e+00 [bar]


    Block[  0] -1.739125e+06
    Block[  1] -1.769802e+06
    Block[  2] -1.636453e+06
    Block[  3] -1.498741e+06
    Block[  4] -1.923122e+06
    ---------------------------------------------------------------------------
    Excess pressure  -1.713448e+06 +/-  1.961215e+05 [Pa]
                     -1.713448e+01 +/-  1.961215e+00 [bar]


    Block[  0]  4.201533e+06
    Block[  1]  3.918876e+06
    Block[  2]  3.767952e+06
    Block[  3]  4.101618e+06
    Block[  4]  4.391270e+06
    ---------------------------------------------------------------------------
    Pressure average   4.076250e+06 +/-  3.011618e+05 [Pa]
                       4.076250e+01 +/-  3.011618e+00 [bar]


Enthalpy of adsorption
===============================================================================

Component 0 [CO2]
-------------------------------------------------------------------------------
    Block[  0] -6.923445e+02
    Block[  1] -6.512004e+02
    Block[  2] -6.184420e+02
    Block[  3] -6.570152e+02
    Block[  4] -7.273991e+02
    ---------------------------------------------------------------------------
    Enthalpy of adsorption: -6.692802e+02 +/-  5.182876e+01 [K]
                            -5.564707e+00 +/-  4.309284e-01 [kJ/mol]
    Warning: need to subtract the ideal-gas energy.


Densities
===============================================================================

Component 0 (CO2)
    Block[  0] 59.0525
    Block[  1] 56.20333333333334
    Block[  2] 52.56166666666667
    Block[  3] 55.28166666666667
    Block[  4] 63.925000000000004
    -----------------------------------------------------------------------
    Density average   5.740483e+01 +/-  5.362607e+00 [molecules]
    Density average   1.497663e-03 +/-  1.126962e-04 [molec/A^3]
    Density average   1.094218e+02 +/-  8.233775e+00 [kg.m⁻³]

