Compiler and run-time data
===============================================================================
RASPA 3.0.4

Random seed: 3181916230

Compiled as a 64-bits application
Compiler: gcc Clang 18.1.8
Compile Date = Mar 15 2025, Compile Time = 19:38:51

2025-06-03 15:40:38.464781
Simulation started on Tue, Jun 03
The start time was 15:40:00

Hostname:    1NNMVV3
OS type:     Linux on x86_64
OS release:  5.15.167.4-microsoft-standard-WSL2
OS version:  #1 SMP Tue Nov 5 00:21:55 UTC 2024


Mutual consistent basic set of units:
===============================================================================

Unit of temperature: 1 [K]
Unit of length:      1e-10 [m]
Unit of time:        1e-12 [s]
Unit of mass:        1.6605402e-27 [kg]
Unit of charge:      1.60217733e-19 [C/particle]


Boltzmann constant (internal units):          0.8314464919307584 [-]
represents conversion from energy (internal units) to temperature (in Kelvin)

Derived units and their conversion factors:
===============================================================================

Unit of energy:                           1.6605402000000002e-23 [J]
Unit of energy:                           10.000008872307538 [J.mol⁻¹]
Unit of velocity:                         100 [m.s⁻¹]
Unit of force:                            1.6605402000000002e-13 [N]
Unit of diffusion:                        1.0000000000000002e-08 [m².s⁻¹]
Unit of acceleration:                     1.0000000000000002e-08 [m².s⁻¹]
Unit of torque:                           1.6605402000000002e-23 [N.m]
Unit of pressure:                         16605402 [Pa]
Unit of volume:                           1e-30 [m³]
Unit of density:                          1660.5402 [kg.m⁻³]
Unit of dynamic viscosity:                1.6605401999999997e-05 [N.s.m⁻²]
Unit of enthalpy:                         1.6605402000000002e-23 [J]
Unit of polarizability:                   1.5458657349975198e-35 [-]
Unit of Coulomb potential:                167101.08000665612 [K]
Unit of dielectric constant:              1.5458657349975193e-05 [s².C².kg⁻¹.m⁻³]
Unit of dipole moment:                    1.60217733e-29 [C.m]
Unit of Debye:                            4.803206799099162 [C.m]
Unit of electric potential:               0.00010364272224473431 [V]
Unit of electric field:                   1036427.222447343 [V.m⁻¹]
Unit of isothermal compressibility:       6.02213665167516e-08 [Pa⁻¹]
Unit of heat capacity:                    10.000008872307538 [J.mol⁻¹.K⁻¹]
Unit of volumetric expansion coefficient: 1 [K⁻¹]


Internal conversion factors:
===============================================================================

Energy (internal units) to Kelvin:      1.202724284692786 [-]
Kelvin to energy (internal units):      0.8314457542157567 [-]


System definitions
===============================================================================

Temperature:          280 [K]
Beta:                 0.004295440062697377 [-]
Pressure:             0 [Pa]
Helium void fraction: 1 [-]

Box:      30.00000   0.00000   0.00000
           0.00000  30.00000   0.00000
           0.00000   0.00000  30.00000
Lengths:  30.00000  30.00000  30.00000
Angles:   90.00000  90.00000  90.00000
Rectangular boundary conditions



Property measurement settings
===============================================================================




Pseudo-atoms
===============================================================================

  0 - C_co2    framework-atom: false
  1 - O_co2    framework-atom: false

  0 - C_co2    mass: 12.00000, charge:  0.70000
  1 - O_co2    mass: 15.99940, charge: -0.35000

  0 - C_co2    polarizability:  0.00000
  1 - O_co2    polarizability:  0.00000

  0 - J. J. Potoff et al., AIChE J. 2001, 47, 1676–1682.
  1 - J. J. Potoff et al., AIChE J. 2001, 47, 1676–1682.

Force field status
===============================================================================

Cutoff Framework-Molecule VDW:  12.00000 [Å]
Cutoff Molecule-Molecule VDW:   12.00000 [Å]
Cutoff Coulomb:                 12.00000 [Å]

Overlap-criteria VDW:           1.000000e+05 [K]

C_co2    - C_co2    Lennard-Jones p₀/kʙ:  27.00000 [K], p₁:  2.80000 [Å]
                                  shift:   0.00000 [K], tailcorrections: true
C_co2    - O_co2    Lennard-Jones p₀/kʙ:  46.18441 [K], p₁:  2.92500 [Å]
                                  shift:   0.00000 [K], tailcorrections: true
O_co2    - O_co2    Lennard-Jones p₀/kʙ:  79.00000 [K], p₁:  3.05000 [Å]
                                  shift:   0.00000 [K], tailcorrections: true

Ewald precision: 1e-06
Ewald alpha: 0.26505830360350674
Ewald k-vectors: 8 8 8


Component definitions
===============================================================================

Component 0 [CO2]

    Type: Adsorbate

    Critical temperature:  304.1282 [K]
    Critical pressure:     7377300 [Pa]
    Acentric factor:       0.22394 [-]

    Mol-fraction:                 1 [-]
    Swappable:                   true

    Mass:                         43.9988 [-]
    Fugacity coefficient:         -nan [-]
    Bulk fluid density:           0 [-]
    Compressibility:              1 [-]
    Excess molecules:             0 [-]

    Number Of Atoms:    3
    CBMC starting bead: 0
      0: O_co2  position  0.00000 -0.00000  1.16000, charge -0.35000
      1: C_co2  position  0.00000 -0.00000  0.00000, charge  0.70000
      2: O_co2  position  0.00000 -0.00000 -1.16000, charge -0.35000
    Diagonalized inertia-vector:      43.05758528 43.05758528 0.00000000
    Translational degrees of freedom: 3
    Rotational degrees of freedom:    2
    Shape of the molecule is: 'Linear'
    Net-charge:        0.00000000 [e]

    Move probabilities:
    Translation:                   0.199203 [-]
    Random translation:            0.000000 [-]
    Rotation:                      0.199203 [-]
    Random rotation:               0.000000 [-]
    Volume change:                 0.000000 [-]
    Reinsertion (CBMC):            0.199203 [-]
    Identity change (CBMC):        0.000000 [-]
    Swap:                          0.000000 [-]
    Swap (CBMC):                   0.000000 [-]
    Swap (CFCMC):                  0.000000 [-]
    Swap (CB/CFCMC):               0.000000 [-]
    Gibbs volume:                  0.003984 [-]
    Gibbs swap (CBMC):             0.398406 [-]
    Gibbs swap (CFCMC):            0.000000 [-]
    Widom:                         0.000000 [-]
    Widom (CFCMC):                 0.000000 [-]
    Widom (CB/CFCMC):              0.000000 [-]
    Parallel tempering:            0.000000 [-]
    Hybrid MC:                     0.000000 [-]

    number of blocking-pockets: 0

    number of bonds: 0





Number of pseudo-atoms
===============================================================================

Component   0 (CO2)
-------------------------------------------------------------------------------
    index   0 (C_co2): 210 atoms
    index   1 (O_co2): 420 atoms

Total number of pseudo-atoms:
-------------------------------------------------------------------------------
    index   0 (C_co2): 210 atoms
    index   1 (O_co2): 420 atoms




Energy status Recomputed from scratch
===============================================================================

Total potential energy/kʙ       -9.529407e+04 [K]
    external field VDW/kʙ        0.000000e+00 [K]
    external field Real/kʙ       0.000000e+00 [K]
    framework-molecule VDW/kʙ    0.000000e+00 [K]
    framework-molecule Real/kʙ   0.000000e+00 [K]
    molecule-molecule VDW/kʙ    -6.890535e+04 [K]
    molecule-molecule Real/kʙ   -2.152032e+04 [K]
    Van der Waals (Tail)/kʙ     -3.033270e+03 [K]
    Ewald Fourier/kʙ             1.051405e+04 [K]
    Ewald self/kʙ               -3.857024e+06 [K]
    Ewald exclusion/kʙ           3.844675e+06 [K]
    intra VDW/kʙ                 0.000000e+00 [K]
    intra Coulombic/kʙ           0.000000e+00 [K]
    polarization/kʙ              0.000000e+00 [K]
    dU/dlambda VDW/kʙ            0.000000e+00 [K]
    dU/dlambda Real/kʙ           0.000000e+00 [K]
    dU/dlambda Ewald/kʙ          0.000000e+00 [K]





Initialization: Current cycle: 0 out of 2000
===============================================================================

Box:      30.00000   0.00000   0.00000
           0.00000  30.00000   0.00000
           0.00000   0.00000  30.00000
Lengths:  30.00000  30.00000  30.00000
Angles:   90.00000  90.00000  90.00000
Rectangular boundary conditions

net charge:   0.00000000

component   0 (CO2) lambda:  0 occupancy:  0 (0.000000)
    net charge:   0.00000000 [e]

Amount of molecules per component :
-------------------------------------------------------------------------------
Component 0 (CO2)
    molecules:         2.120000e+02 molecules
    number density:    7.851852e-03 molec/A^3
    density:           5.736697e+02 kg/m^3

Total potential energy/kʙ       -1.351772e+05 [K]
-------------------------------------------------------------------------------
    external field VDW/kʙ        0.000000e+00 [K]
    external field Real/kʙ       0.000000e+00 [K]
    framework-molecule VDW/kʙ    0.000000e+00 [K]
    framework-molecule Real/kʙ   0.000000e+00 [K]
    molecule-molecule VDW/kʙ    -1.053491e+05 [K]
    molecule-molecule Real/kʙ   -2.461205e+04 [K]
    Van der Waals (Tail)/kʙ     -3.091321e+03 [K]
    Ewald Fourier/kʙ             1.034203e+04 [K]
    Ewald self/kʙ               -3.893758e+06 [K]
    Ewald exclusion/kʙ           3.881291e+06 [K]
    intra VDW/kʙ                 0.000000e+00 [K]
    intra Coulombic/kʙ           0.000000e+00 [K]
    polarization/kʙ              0.000000e+00 [K]
    dU/dlambda VDW/kʙ            0.000000e+00 [K]
    dU/dlambda Real/kʙ           0.000000e+00 [K]
    dU/dlambda Ewald/kʙ          0.000000e+00 [K]


Initialization: Current cycle: 100 out of 2000
===============================================================================

Box:      29.52253   0.00000   0.00000
           0.00000  29.52253   0.00000
           0.00000   0.00000  29.52253
Lengths:  29.52253  29.52253  29.52253
Angles:   90.00000  90.00000  90.00000
Rectangular boundary conditions

net charge:   0.00000000

component   0 (CO2) lambda:  0 occupancy:  0 (0.000000)
    net charge:   0.00000000 [e]

Amount of molecules per component :
-------------------------------------------------------------------------------
Component 0 (CO2)
    molecules:         2.240000e+02 molecules
    number density:    8.705375e-03 molec/A^3
    density:           6.360296e+02 kg/m^3

Total potential energy/kʙ       -2.155076e+05 [K]
-------------------------------------------------------------------------------
    external field VDW/kʙ        0.000000e+00 [K]
    external field Real/kʙ       0.000000e+00 [K]
    framework-molecule VDW/kʙ    0.000000e+00 [K]
    framework-molecule Real/kʙ   0.000000e+00 [K]
    molecule-molecule VDW/kʙ    -1.568465e+05 [K]
    molecule-molecule Real/kʙ   -5.010791e+04 [K]
    Van der Waals (Tail)/kʙ     -3.621360e+03 [K]
    Ewald Fourier/kʙ             8.240603e+03 [K]
    Ewald self/kʙ               -4.114159e+06 [K]
    Ewald exclusion/kʙ           4.100987e+06 [K]
    intra VDW/kʙ                 0.000000e+00 [K]
    intra Coulombic/kʙ           0.000000e+00 [K]
    polarization/kʙ              0.000000e+00 [K]
    dU/dlambda VDW/kʙ            0.000000e+00 [K]
    dU/dlambda Real/kʙ           0.000000e+00 [K]
    dU/dlambda Ewald/kʙ          0.000000e+00 [K]


Initialization: Current cycle: 200 out of 2000
===============================================================================

Box:      28.39661   0.00000   0.00000
           0.00000  28.39661   0.00000
           0.00000   0.00000  28.39661
Lengths:  28.39661  28.39661  28.39661
Angles:   90.00000  90.00000  90.00000
Rectangular boundary conditions

net charge:   0.00000000

component   0 (CO2) lambda:  0 occupancy:  0 (0.000000)
    net charge:   0.00000000 [e]

Amount of molecules per component :
-------------------------------------------------------------------------------
Component 0 (CO2)
    molecules:         2.080000e+02 molecules
    number density:    9.083720e-03 molec/A^3
    density:           6.636721e+02 kg/m^3

Total potential energy/kʙ       -1.971438e+05 [K]
-------------------------------------------------------------------------------
    external field VDW/kʙ        0.000000e+00 [K]
    external field Real/kʙ       0.000000e+00 [K]
    framework-molecule VDW/kʙ    0.000000e+00 [K]
    framework-molecule Real/kʙ   0.000000e+00 [K]
    molecule-molecule VDW/kʙ    -1.454451e+05 [K]
    molecule-molecule Real/kʙ   -4.377964e+04 [K]
    Van der Waals (Tail)/kʙ     -3.508838e+03 [K]
    Ewald Fourier/kʙ             7.821336e+03 [K]
    Ewald self/kʙ               -3.820291e+06 [K]
    Ewald exclusion/kʙ           3.808059e+06 [K]
    intra VDW/kʙ                 0.000000e+00 [K]
    intra Coulombic/kʙ           0.000000e+00 [K]
    polarization/kʙ              0.000000e+00 [K]
    dU/dlambda VDW/kʙ            0.000000e+00 [K]
    dU/dlambda Real/kʙ           0.000000e+00 [K]
    dU/dlambda Ewald/kʙ          0.000000e+00 [K]


Initialization: Current cycle: 300 out of 2000
===============================================================================

Box:      28.55183   0.00000   0.00000
           0.00000  28.55183   0.00000
           0.00000   0.00000  28.55183
Lengths:  28.55183  28.55183  28.55183
Angles:   90.00000  90.00000  90.00000
Rectangular boundary conditions

net charge:   0.00000000

component   0 (CO2) lambda:  0 occupancy:  0 (0.000000)
    net charge:   0.00000000 [e]

Amount of molecules per component :
-------------------------------------------------------------------------------
Component 0 (CO2)
    molecules:         2.130000e+02 molecules
    number density:    9.151195e-03 molec/A^3
    density:           6.686020e+02 kg/m^3

Total potential energy/kʙ       -2.096302e+05 [K]
-------------------------------------------------------------------------------
    external field VDW/kʙ        0.000000e+00 [K]
    external field Real/kʙ       0.000000e+00 [K]
    framework-molecule VDW/kʙ    0.000000e+00 [K]
    framework-molecule Real/kʙ   0.000000e+00 [K]
    molecule-molecule VDW/kʙ    -1.527949e+05 [K]
    molecule-molecule Real/kʙ   -4.815382e+04 [K]
    Van der Waals (Tail)/kʙ     -3.619875e+03 [K]
    Ewald Fourier/kʙ             7.463947e+03 [K]
    Ewald self/kʙ               -3.912125e+06 [K]
    Ewald exclusion/kʙ           3.899599e+06 [K]
    intra VDW/kʙ                 0.000000e+00 [K]
    intra Coulombic/kʙ           0.000000e+00 [K]
    polarization/kʙ              0.000000e+00 [K]
    dU/dlambda VDW/kʙ            0.000000e+00 [K]
    dU/dlambda Real/kʙ           0.000000e+00 [K]
    dU/dlambda Ewald/kʙ          0.000000e+00 [K]


Initialization: Current cycle: 400 out of 2000
===============================================================================

Box:      27.56366   0.00000   0.00000
           0.00000  27.56366   0.00000
           0.00000   0.00000  27.56366
Lengths:  27.56366  27.56366  27.56366
Angles:   90.00000  90.00000  90.00000
Rectangular boundary conditions

net charge:   0.00000000

component   0 (CO2) lambda:  0 occupancy:  0 (0.000000)
    net charge:   0.00000000 [e]

Amount of molecules per component :
-------------------------------------------------------------------------------
Component 0 (CO2)
    molecules:         2.300000e+02 molecules
    number density:    1.098290e-02 molec/A^3
    density:           8.024296e+02 kg/m^3

Total potential energy/kʙ       -2.559614e+05 [K]
-------------------------------------------------------------------------------
    external field VDW/kʙ        0.000000e+00 [K]
    external field Real/kʙ       0.000000e+00 [K]
    framework-molecule VDW/kʙ    0.000000e+00 [K]
    framework-molecule Real/kʙ   0.000000e+00 [K]
    molecule-molecule VDW/kʙ    -1.890821e+05 [K]
    molecule-molecule Real/kʙ   -5.625236e+04 [K]
    Van der Waals (Tail)/kʙ     -4.691170e+03 [K]
    Ewald Fourier/kʙ             7.589578e+03 [K]
    Ewald self/kʙ               -4.224360e+06 [K]
    Ewald exclusion/kʙ           4.210835e+06 [K]
    intra VDW/kʙ                 0.000000e+00 [K]
    intra Coulombic/kʙ           0.000000e+00 [K]
    polarization/kʙ              0.000000e+00 [K]
    dU/dlambda VDW/kʙ            0.000000e+00 [K]
    dU/dlambda Real/kʙ           0.000000e+00 [K]
    dU/dlambda Ewald/kʙ          0.000000e+00 [K]


Initialization: Current cycle: 500 out of 2000
===============================================================================

Box:      27.51568   0.00000   0.00000
           0.00000  27.51568   0.00000
           0.00000   0.00000  27.51568
Lengths:  27.51568  27.51568  27.51568
Angles:   90.00000  90.00000  90.00000
Rectangular boundary conditions

net charge:   0.00000000

component   0 (CO2) lambda:  0 occupancy:  0 (0.000000)
    net charge:   0.00000000 [e]

Amount of molecules per component :
-------------------------------------------------------------------------------
Component 0 (CO2)
    molecules:         2.230000e+02 molecules
    number density:    1.070444e-02 molec/A^3
    density:           7.820848e+02 kg/m^3

Total potential energy/kʙ       -2.412724e+05 [K]
-------------------------------------------------------------------------------
    external field VDW/kʙ        0.000000e+00 [K]
    external field Real/kʙ       0.000000e+00 [K]
    framework-molecule VDW/kʙ    0.000000e+00 [K]
    framework-molecule Real/kʙ   0.000000e+00 [K]
    molecule-molecule VDW/kʙ    -1.845841e+05 [K]
    molecule-molecule Real/kʙ   -4.679047e+04 [K]
    Van der Waals (Tail)/kʙ     -4.433075e+03 [K]
    Ewald Fourier/kʙ             7.648859e+03 [K]
    Ewald self/kʙ               -4.095792e+06 [K]
    Ewald exclusion/kʙ           4.082679e+06 [K]
    intra VDW/kʙ                 0.000000e+00 [K]
    intra Coulombic/kʙ           0.000000e+00 [K]
    polarization/kʙ              0.000000e+00 [K]
    dU/dlambda VDW/kʙ            0.000000e+00 [K]
    dU/dlambda Real/kʙ           0.000000e+00 [K]
    dU/dlambda Ewald/kʙ          0.000000e+00 [K]


Initialization: Current cycle: 600 out of 2000
===============================================================================

Box:      27.47023   0.00000   0.00000
           0.00000  27.47023   0.00000
           0.00000   0.00000  27.47023
Lengths:  27.47023  27.47023  27.47023
Angles:   90.00000  90.00000  90.00000
Rectangular boundary conditions

net charge:   0.00000000

component   0 (CO2) lambda:  0 occupancy:  0 (0.000000)
    net charge:   0.00000000 [e]

Amount of molecules per component :
-------------------------------------------------------------------------------
Component 0 (CO2)
    molecules:         2.000000e+02 molecules
    number density:    9.648129e-03 molec/A^3
    density:           7.049088e+02 kg/m^3

Total potential energy/kʙ       -1.990871e+05 [K]
-------------------------------------------------------------------------------
    external field VDW/kʙ        0.000000e+00 [K]
    external field Real/kʙ       0.000000e+00 [K]
    framework-molecule VDW/kʙ    0.000000e+00 [K]
    framework-molecule Real/kʙ   0.000000e+00 [K]
    molecule-molecule VDW/kʙ    -1.502045e+05 [K]
    molecule-molecule Real/kʙ   -4.123802e+04 [K]
    Van der Waals (Tail)/kʙ     -3.583516e+03 [K]
    Ewald Fourier/kʙ             7.700075e+03 [K]
    Ewald self/kʙ               -3.673356e+06 [K]
    Ewald exclusion/kʙ           3.661595e+06 [K]
    intra VDW/kʙ                 0.000000e+00 [K]
    intra Coulombic/kʙ           0.000000e+00 [K]
    polarization/kʙ              0.000000e+00 [K]
    dU/dlambda VDW/kʙ            0.000000e+00 [K]
    dU/dlambda Real/kʙ           0.000000e+00 [K]
    dU/dlambda Ewald/kʙ          0.000000e+00 [K]


Initialization: Current cycle: 700 out of 2000
===============================================================================

Box:      26.71617   0.00000   0.00000
           0.00000  26.71617   0.00000
           0.00000   0.00000  26.71617
Lengths:  26.71617  26.71617  26.71617
Angles:   90.00000  90.00000  90.00000
Rectangular boundary conditions

net charge:   0.00000000

component   0 (CO2) lambda:  0 occupancy:  0 (0.000000)
    net charge:   0.00000000 [e]

Amount of molecules per component :
-------------------------------------------------------------------------------
Component 0 (CO2)
    molecules:         1.990000e+02 molecules
    number density:    1.043591e-02 molec/A^3
    density:           7.624657e+02 kg/m^3

Total potential energy/kʙ       -2.155262e+05 [K]
-------------------------------------------------------------------------------
    external field VDW/kʙ        0.000000e+00 [K]
    external field Real/kʙ       0.000000e+00 [K]
    framework-molecule VDW/kʙ    0.000000e+00 [K]
    framework-molecule Real/kʙ   0.000000e+00 [K]
    molecule-molecule VDW/kʙ    -1.605137e+05 [K]
    molecule-molecule Real/kʙ   -4.518586e+04 [K]
    Van der Waals (Tail)/kʙ     -3.856735e+03 [K]
    Ewald Fourier/kʙ             5.732423e+03 [K]
    Ewald self/kʙ               -3.654990e+06 [K]
    Ewald exclusion/kʙ           3.643287e+06 [K]
    intra VDW/kʙ                 0.000000e+00 [K]
    intra Coulombic/kʙ           0.000000e+00 [K]
    polarization/kʙ              0.000000e+00 [K]
    dU/dlambda VDW/kʙ            0.000000e+00 [K]
    dU/dlambda Real/kʙ           0.000000e+00 [K]
    dU/dlambda Ewald/kʙ          0.000000e+00 [K]


Initialization: Current cycle: 800 out of 2000
===============================================================================

Box:      26.10359   0.00000   0.00000
           0.00000  26.10359   0.00000
           0.00000   0.00000  26.10359
Lengths:  26.10359  26.10359  26.10359
Angles:   90.00000  90.00000  90.00000
Rectangular boundary conditions

net charge:   0.00000000

component   0 (CO2) lambda:  0 occupancy:  0 (0.000000)
    net charge:   0.00000000 [e]

Amount of molecules per component :
-------------------------------------------------------------------------------
Component 0 (CO2)
    molecules:         2.040000e+02 molecules
    number density:    1.146910e-02 molec/A^3
    density:           8.379521e+02 kg/m^3

Total potential energy/kʙ       -2.349096e+05 [K]
-------------------------------------------------------------------------------
    external field VDW/kʙ        0.000000e+00 [K]
    external field Real/kʙ       0.000000e+00 [K]
    framework-molecule VDW/kʙ    0.000000e+00 [K]
    framework-molecule Real/kʙ   0.000000e+00 [K]
    molecule-molecule VDW/kʙ    -1.720960e+05 [K]
    molecule-molecule Real/kʙ   -5.187613e+04 [K]
    Van der Waals (Tail)/kʙ     -4.345060e+03 [K]
    Ewald Fourier/kʙ             5.403995e+03 [K]
    Ewald self/kʙ               -3.746824e+06 [K]
    Ewald exclusion/kʙ           3.734827e+06 [K]
    intra VDW/kʙ                 0.000000e+00 [K]
    intra Coulombic/kʙ           0.000000e+00 [K]
    polarization/kʙ              0.000000e+00 [K]
    dU/dlambda VDW/kʙ            0.000000e+00 [K]
    dU/dlambda Real/kʙ           0.000000e+00 [K]
    dU/dlambda Ewald/kʙ          0.000000e+00 [K]


Initialization: Current cycle: 900 out of 2000
===============================================================================

Box:      26.14311   0.00000   0.00000
           0.00000  26.14311   0.00000
           0.00000   0.00000  26.14311
Lengths:  26.14311  26.14311  26.14311
Angles:   90.00000  90.00000  90.00000
Rectangular boundary conditions

net charge:   0.00000000

component   0 (CO2) lambda:  0 occupancy:  0 (0.000000)
    net charge:   0.00000000 [e]

Amount of molecules per component :
-------------------------------------------------------------------------------
Component 0 (CO2)
    molecules:         2.130000e+02 molecules
    number density:    1.192087e-02 molec/A^3
    density:           8.709591e+02 kg/m^3

Total potential energy/kʙ       -2.639476e+05 [K]
-------------------------------------------------------------------------------
    external field VDW/kʙ        0.000000e+00 [K]
    external field Real/kʙ       0.000000e+00 [K]
    framework-molecule VDW/kʙ    0.000000e+00 [K]
    framework-molecule Real/kʙ   0.000000e+00 [K]
    molecule-molecule VDW/kʙ    -1.948269e+05 [K]
    molecule-molecule Real/kʙ   -5.850989e+04 [K]
    Van der Waals (Tail)/kʙ     -4.715456e+03 [K]
    Ewald Fourier/kʙ             6.630339e+03 [K]
    Ewald self/kʙ               -3.912125e+06 [K]
    Ewald exclusion/kʙ           3.899599e+06 [K]
    intra VDW/kʙ                 0.000000e+00 [K]
    intra Coulombic/kʙ           0.000000e+00 [K]
    polarization/kʙ              0.000000e+00 [K]
    dU/dlambda VDW/kʙ            0.000000e+00 [K]
    dU/dlambda Real/kʙ           0.000000e+00 [K]
    dU/dlambda Ewald/kʙ          0.000000e+00 [K]


Initialization: Current cycle: 1000 out of 2000
===============================================================================

Box:      25.94651   0.00000   0.00000
           0.00000  25.94651   0.00000
           0.00000   0.00000  25.94651
Lengths:  25.94651  25.94651  25.94651
Angles:   90.00000  90.00000  90.00000
Rectangular boundary conditions

net charge:   0.00000000

component   0 (CO2) lambda:  0 occupancy:  0 (0.000000)
    net charge:   0.00000000 [e]

Amount of molecules per component :
-------------------------------------------------------------------------------
Component 0 (CO2)
    molecules:         2.040000e+02 molecules
    number density:    1.167866e-02 molec/A^3
    density:           8.532631e+02 kg/m^3

Total potential energy/kʙ       -2.512403e+05 [K]
-------------------------------------------------------------------------------
    external field VDW/kʙ        0.000000e+00 [K]
    external field Real/kʙ       0.000000e+00 [K]
    framework-molecule VDW/kʙ    0.000000e+00 [K]
    framework-molecule Real/kʙ   0.000000e+00 [K]
    molecule-molecule VDW/kʙ    -1.853748e+05 [K]
    molecule-molecule Real/kʙ   -5.582823e+04 [K]
    Van der Waals (Tail)/kʙ     -4.424452e+03 [K]
    Ewald Fourier/kʙ             6.383530e+03 [K]
    Ewald self/kʙ               -3.746824e+06 [K]
    Ewald exclusion/kʙ           3.734827e+06 [K]
    intra VDW/kʙ                 0.000000e+00 [K]
    intra Coulombic/kʙ           0.000000e+00 [K]
    polarization/kʙ              0.000000e+00 [K]
    dU/dlambda VDW/kʙ            0.000000e+00 [K]
    dU/dlambda Real/kʙ           0.000000e+00 [K]
    dU/dlambda Ewald/kʙ          0.000000e+00 [K]


Initialization: Current cycle: 1100 out of 2000
===============================================================================

Box:      26.31820   0.00000   0.00000
           0.00000  26.31820   0.00000
           0.00000   0.00000  26.31820
Lengths:  26.31820  26.31820  26.31820
Angles:   90.00000  90.00000  90.00000
Rectangular boundary conditions

net charge:   0.00000000

component   0 (CO2) lambda:  0 occupancy:  0 (0.000000)
    net charge:   0.00000000 [e]

Amount of molecules per component :
-------------------------------------------------------------------------------
Component 0 (CO2)
    molecules:         1.970000e+02 molecules
    number density:    1.080682e-02 molec/A^3
    density:           7.895645e+02 kg/m^3

Total potential energy/kʙ       -2.087328e+05 [K]
-------------------------------------------------------------------------------
    external field VDW/kʙ        0.000000e+00 [K]
    external field Real/kʙ       0.000000e+00 [K]
    framework-molecule VDW/kʙ    0.000000e+00 [K]
    framework-molecule Real/kʙ   0.000000e+00 [K]
    molecule-molecule VDW/kʙ    -1.565560e+05 [K]
    molecule-molecule Real/kʙ   -4.367749e+04 [K]
    Van der Waals (Tail)/kʙ     -3.953668e+03 [K]
    Ewald Fourier/kʙ             7.039145e+03 [K]
    Ewald self/kʙ               -3.618256e+06 [K]
    Ewald exclusion/kʙ           3.606671e+06 [K]
    intra VDW/kʙ                 0.000000e+00 [K]
    intra Coulombic/kʙ           0.000000e+00 [K]
    polarization/kʙ              0.000000e+00 [K]
    dU/dlambda VDW/kʙ            0.000000e+00 [K]
    dU/dlambda Real/kʙ           0.000000e+00 [K]
    dU/dlambda Ewald/kʙ          0.000000e+00 [K]


Initialization: Current cycle: 1200 out of 2000
===============================================================================

Box:      25.58840   0.00000   0.00000
           0.00000  25.58840   0.00000
           0.00000   0.00000  25.58840
Lengths:  25.58840  25.58840  25.58840
Angles:   90.00000  90.00000  90.00000
Rectangular boundary conditions

net charge:   0.00000000

component   0 (CO2) lambda:  0 occupancy:  0 (0.000000)
    net charge:   0.00000000 [e]

Amount of molecules per component :
-------------------------------------------------------------------------------
Component 0 (CO2)
    molecules:         1.900000e+02 molecules
    number density:    1.134029e-02 molec/A^3
    density:           8.285409e+02 kg/m^3

Total potential energy/kʙ       -2.114967e+05 [K]
-------------------------------------------------------------------------------
    external field VDW/kʙ        0.000000e+00 [K]
    external field Real/kʙ       0.000000e+00 [K]
    framework-molecule VDW/kʙ    0.000000e+00 [K]
    framework-molecule Real/kʙ   0.000000e+00 [K]
    molecule-molecule VDW/kʙ    -1.598479e+05 [K]
    molecule-molecule Real/kʙ   -4.270582e+04 [K]
    Van der Waals (Tail)/kʙ     -4.001418e+03 [K]
    Ewald Fourier/kʙ             6.231465e+03 [K]
    Ewald self/kʙ               -3.489689e+06 [K]
    Ewald exclusion/kʙ           3.478516e+06 [K]
    intra VDW/kʙ                 0.000000e+00 [K]
    intra Coulombic/kʙ           0.000000e+00 [K]
    polarization/kʙ              0.000000e+00 [K]
    dU/dlambda VDW/kʙ            0.000000e+00 [K]
    dU/dlambda Real/kʙ           0.000000e+00 [K]
    dU/dlambda Ewald/kʙ          0.000000e+00 [K]


Initialization: Current cycle: 1300 out of 2000
===============================================================================

Box:      25.63474   0.00000   0.00000
           0.00000  25.63474   0.00000
           0.00000   0.00000  25.63474
Lengths:  25.63474  25.63474  25.63474
Angles:   90.00000  90.00000  90.00000
Rectangular boundary conditions

net charge:   0.00000000

component   0 (CO2) lambda:  0 occupancy:  0 (0.000000)
    net charge:   0.00000000 [e]

Amount of molecules per component :
-------------------------------------------------------------------------------
Component 0 (CO2)
    molecules:         2.080000e+02 molecules
    number density:    1.234743e-02 molec/A^3
    density:           9.021245e+02 kg/m^3

Total potential energy/kʙ       -2.602666e+05 [K]
-------------------------------------------------------------------------------
    external field VDW/kʙ        0.000000e+00 [K]
    external field Real/kʙ       0.000000e+00 [K]
    framework-molecule VDW/kʙ    0.000000e+00 [K]
    framework-molecule Real/kʙ   0.000000e+00 [K]
    molecule-molecule VDW/kʙ    -1.928314e+05 [K]
    molecule-molecule Real/kʙ   -5.663502e+04 [K]
    Van der Waals (Tail)/kʙ     -4.769536e+03 [K]
    Ewald Fourier/kʙ             6.200869e+03 [K]
    Ewald self/kʙ               -3.820291e+06 [K]
    Ewald exclusion/kʙ           3.808059e+06 [K]
    intra VDW/kʙ                 0.000000e+00 [K]
    intra Coulombic/kʙ           0.000000e+00 [K]
    polarization/kʙ              0.000000e+00 [K]
    dU/dlambda VDW/kʙ            0.000000e+00 [K]
    dU/dlambda Real/kʙ           0.000000e+00 [K]
    dU/dlambda Ewald/kʙ          0.000000e+00 [K]


Initialization: Current cycle: 1400 out of 2000
===============================================================================

Box:      24.94888   0.00000   0.00000
           0.00000  24.94888   0.00000
           0.00000   0.00000  24.94888
Lengths:  24.94888  24.94888  24.94888
Angles:   90.00000  90.00000  90.00000
Rectangular boundary conditions

net charge:   0.00000000

component   0 (CO2) lambda:  0 occupancy:  0 (0.000000)
    net charge:   0.00000000 [e]

Amount of molecules per component :
-------------------------------------------------------------------------------
Component 0 (CO2)
    molecules:         1.970000e+02 molecules
    number density:    1.268567e-02 molec/A^3
    density:           9.268365e+02 kg/m^3

Total potential energy/kʙ       -2.485662e+05 [K]
-------------------------------------------------------------------------------
    external field VDW/kʙ        0.000000e+00 [K]
    external field Real/kʙ       0.000000e+00 [K]
    framework-molecule VDW/kʙ    0.000000e+00 [K]
    framework-molecule Real/kʙ   0.000000e+00 [K]
    molecule-molecule VDW/kʙ    -1.848899e+05 [K]
    molecule-molecule Real/kʙ   -5.310893e+04 [K]
    Van der Waals (Tail)/kʙ     -4.641044e+03 [K]
    Ewald Fourier/kʙ             5.658339e+03 [K]
    Ewald self/kʙ               -3.618256e+06 [K]
    Ewald exclusion/kʙ           3.606671e+06 [K]
    intra VDW/kʙ                 0.000000e+00 [K]
    intra Coulombic/kʙ           0.000000e+00 [K]
    polarization/kʙ              0.000000e+00 [K]
    dU/dlambda VDW/kʙ            0.000000e+00 [K]
    dU/dlambda Real/kʙ           0.000000e+00 [K]
    dU/dlambda Ewald/kʙ          0.000000e+00 [K]


Initialization: Current cycle: 1500 out of 2000
===============================================================================

Box:      25.08531   0.00000   0.00000
           0.00000  25.08531   0.00000
           0.00000   0.00000  25.08531
Lengths:  25.08531  25.08531  25.08531
Angles:   90.00000  90.00000  90.00000
Rectangular boundary conditions

net charge:   0.00000000

component   0 (CO2) lambda:  0 occupancy:  0 (0.000000)
    net charge:   0.00000000 [e]

Amount of molecules per component :
-------------------------------------------------------------------------------
Component 0 (CO2)
    molecules:         1.940000e+02 molecules
    number density:    1.228975e-02 molec/A^3
    density:           8.979104e+02 kg/m^3

Total potential energy/kʙ       -2.426092e+05 [K]
-------------------------------------------------------------------------------
    external field VDW/kʙ        0.000000e+00 [K]
    external field Real/kʙ       0.000000e+00 [K]
    framework-molecule VDW/kʙ    0.000000e+00 [K]
    framework-molecule Real/kʙ   0.000000e+00 [K]
    molecule-molecule VDW/kʙ    -1.789866e+05 [K]
    molecule-molecule Real/kʙ   -5.424669e+04 [K]
    Van der Waals (Tail)/kʙ     -4.427730e+03 [K]
    Ewald Fourier/kʙ             6.460148e+03 [K]
    Ewald self/kʙ               -3.563156e+06 [K]
    Ewald exclusion/kʙ           3.551747e+06 [K]
    intra VDW/kʙ                 0.000000e+00 [K]
    intra Coulombic/kʙ           0.000000e+00 [K]
    polarization/kʙ              0.000000e+00 [K]
    dU/dlambda VDW/kʙ            0.000000e+00 [K]
    dU/dlambda Real/kʙ           0.000000e+00 [K]
    dU/dlambda Ewald/kʙ          0.000000e+00 [K]


Initialization: Current cycle: 1600 out of 2000
===============================================================================

Box:      24.78075   0.00000   0.00000
           0.00000  24.78075   0.00000
           0.00000   0.00000  24.78075
Lengths:  24.78075  24.78075  24.78075
Angles:   90.00000  90.00000  90.00000
Rectangular boundary conditions

net charge:   0.00000000

component   0 (CO2) lambda:  0 occupancy:  0 (0.000000)
    net charge:   0.00000000 [e]

Amount of molecules per component :
-------------------------------------------------------------------------------
Component 0 (CO2)
    molecules:         1.870000e+02 molecules
    number density:    1.228849e-02 molec/A^3
    density:           8.978181e+02 kg/m^3

Total potential energy/kʙ       -2.297715e+05 [K]
-------------------------------------------------------------------------------
    external field VDW/kʙ        0.000000e+00 [K]
    external field Real/kʙ       0.000000e+00 [K]
    framework-molecule VDW/kʙ    0.000000e+00 [K]
    framework-molecule Real/kʙ   0.000000e+00 [K]
    molecule-molecule VDW/kʙ    -1.680283e+05 [K]
    molecule-molecule Real/kʙ   -5.209376e+04 [K]
    Van der Waals (Tail)/kʙ     -4.267528e+03 [K]
    Ewald Fourier/kʙ             5.614710e+03 [K]
    Ewald self/kʙ               -3.434588e+06 [K]
    Ewald exclusion/kʙ           3.423592e+06 [K]
    intra VDW/kʙ                 0.000000e+00 [K]
    intra Coulombic/kʙ           0.000000e+00 [K]
    polarization/kʙ              0.000000e+00 [K]
    dU/dlambda VDW/kʙ            0.000000e+00 [K]
    dU/dlambda Real/kʙ           0.000000e+00 [K]
    dU/dlambda Ewald/kʙ          0.000000e+00 [K]


Initialization: Current cycle: 1700 out of 2000
===============================================================================

Box:      25.36664   0.00000   0.00000
           0.00000  25.36664   0.00000
           0.00000   0.00000  25.36664
Lengths:  25.36664  25.36664  25.36664
Angles:   90.00000  90.00000  90.00000
Rectangular boundary conditions

net charge:   0.00000000

component   0 (CO2) lambda:  0 occupancy:  0 (0.000000)
    net charge:   0.00000000 [e]

Amount of molecules per component :
-------------------------------------------------------------------------------
Component 0 (CO2)
    molecules:         1.830000e+02 molecules
    number density:    1.121146e-02 molec/A^3
    density:           8.191288e+02 kg/m^3

Total potential energy/kʙ       -2.080281e+05 [K]
-------------------------------------------------------------------------------
    external field VDW/kʙ        0.000000e+00 [K]
    external field Real/kʙ       0.000000e+00 [K]
    framework-molecule VDW/kʙ    0.000000e+00 [K]
    framework-molecule Real/kʙ   0.000000e+00 [K]
    molecule-molecule VDW/kʙ    -1.566505e+05 [K]
    molecule-molecule Real/kʙ   -4.277428e+04 [K]
    Van der Waals (Tail)/kʙ     -3.810217e+03 [K]
    Ewald Fourier/kʙ             5.968339e+03 [K]
    Ewald self/kʙ               -3.361121e+06 [K]
    Ewald exclusion/kʙ           3.350360e+06 [K]
    intra VDW/kʙ                 0.000000e+00 [K]
    intra Coulombic/kʙ           0.000000e+00 [K]
    polarization/kʙ              0.000000e+00 [K]
    dU/dlambda VDW/kʙ            0.000000e+00 [K]
    dU/dlambda Real/kʙ           0.000000e+00 [K]
    dU/dlambda Ewald/kʙ          0.000000e+00 [K]


Initialization: Current cycle: 1800 out of 2000
===============================================================================

Box:      25.43040   0.00000   0.00000
           0.00000  25.43040   0.00000
           0.00000   0.00000  25.43040
Lengths:  25.43040  25.43040  25.43040
Angles:   90.00000  90.00000  90.00000
Rectangular boundary conditions

net charge:   0.00000000

component   0 (CO2) lambda:  0 occupancy:  0 (0.000000)
    net charge:   0.00000000 [e]

Amount of molecules per component :
-------------------------------------------------------------------------------
Component 0 (CO2)
    molecules:         2.020000e+02 molecules
    number density:    1.228264e-02 molec/A^3
    density:           8.973910e+02 kg/m^3

Total potential energy/kʙ       -2.468378e+05 [K]
-------------------------------------------------------------------------------
    external field VDW/kʙ        0.000000e+00 [K]
    external field Real/kʙ       0.000000e+00 [K]
    framework-molecule VDW/kʙ    0.000000e+00 [K]
    framework-molecule Real/kʙ   0.000000e+00 [K]
    molecule-molecule VDW/kʙ    -1.854685e+05 [K]
    molecule-molecule Real/kʙ   -5.100814e+04 [K]
    Van der Waals (Tail)/kʙ     -4.607650e+03 [K]
    Ewald Fourier/kʙ             6.125231e+03 [K]
    Ewald self/kʙ               -3.710090e+06 [K]
    Ewald exclusion/kʙ           3.698211e+06 [K]
    intra VDW/kʙ                 0.000000e+00 [K]
    intra Coulombic/kʙ           0.000000e+00 [K]
    polarization/kʙ              0.000000e+00 [K]
    dU/dlambda VDW/kʙ            0.000000e+00 [K]
    dU/dlambda Real/kʙ           0.000000e+00 [K]
    dU/dlambda Ewald/kʙ          0.000000e+00 [K]


Initialization: Current cycle: 1900 out of 2000
===============================================================================

Box:      25.30006   0.00000   0.00000
           0.00000  25.30006   0.00000
           0.00000   0.00000  25.30006
Lengths:  25.30006  25.30006  25.30006
Angles:   90.00000  90.00000  90.00000
Rectangular boundary conditions

net charge:   0.00000000

component   0 (CO2) lambda:  0 occupancy:  0 (0.000000)
    net charge:   0.00000000 [e]

Amount of molecules per component :
-------------------------------------------------------------------------------
Component 0 (CO2)
    molecules:         1.820000e+02 molecules
    number density:    1.123846e-02 molec/A^3
    density:           8.211013e+02 kg/m^3

Total potential energy/kʙ       -2.090147e+05 [K]
-------------------------------------------------------------------------------
    external field VDW/kʙ        0.000000e+00 [K]
    external field Real/kʙ       0.000000e+00 [K]
    framework-molecule VDW/kʙ    0.000000e+00 [K]
    framework-molecule Real/kʙ   0.000000e+00 [K]
    molecule-molecule VDW/kʙ    -1.582672e+05 [K]
    molecule-molecule Real/kʙ   -4.332800e+04 [K]
    Van der Waals (Tail)/kʙ     -3.798521e+03 [K]
    Ewald Fourier/kʙ             7.081561e+03 [K]
    Ewald self/kʙ               -3.342754e+06 [K]
    Ewald exclusion/kʙ           3.332052e+06 [K]
    intra VDW/kʙ                 0.000000e+00 [K]
    intra Coulombic/kʙ           0.000000e+00 [K]
    polarization/kʙ              0.000000e+00 [K]
    dU/dlambda VDW/kʙ            0.000000e+00 [K]
    dU/dlambda Real/kʙ           0.000000e+00 [K]
    dU/dlambda Ewald/kʙ          0.000000e+00 [K]


Current cycle: 0 out of 6000
===============================================================================

Box:      24.91462   0.00000   0.00000  Average:  24.91462   0.00000   0.00000
           0.00000  24.91462   0.00000             0.00000  24.91462   0.00000
           0.00000   0.00000  24.91462             0.00000   0.00000  24.91462
Lengths:  24.91462  24.91462  24.91462  Average:  24.91462  24.91462  24.91462
Angles:   90.00000  90.00000  90.00000  Average:  90.00000  90.00000  90.00000
Rectangular boundary conditions

net charge:   0.00000000

component 0 (CO2) lambda:  0 occupancy:  0 (0.000000)
    net charge:   0.00000000 [e]

Amount of molecules per component :
-------------------------------------------------------------------------------
Component 0 (CO2)
    molecules:      1.870000e+02 molecules  (1.870000e+02 +/- 0.000000e+00)
    number density: 1.209147e-02 molec./A^3 (1.209147e-02 +/- 0.000000e+00)
    density:        8.834234e+02 kg/m^3     (8.834234e+02 +/- 0.000000e+00)

Average pressure tensor: 
-------------------------------------------------------------------------------
 4.6743e+02  0.0000e+00  0.0000e+00 +/- 0.0000e+00 0.0000e+00 0.0000e+00 [bar]
 0.0000e+00  4.6743e+02  0.0000e+00 +/- 0.0000e+00 0.0000e+00 0.0000e+00 [bar]
 0.0000e+00  0.0000e+00  4.6743e+02 +/- 0.0000e+00 0.0000e+00 0.0000e+00 [bar]
Ideal-gas pressure:   4.674345e+02 +/ 0.000000e+00 [bar]
Excess pressure:      0.000000e+00 +/ 0.000000e+00 [bar]
Pressure:             4.674345e+02 +/ 0.000000e+00 [bar]

Total potential energy/kʙ  -2.292999e+05 (-2.292999e+05 +/- 0.000000e+00) [K]
-------------------------------------------------------------------------------
ExternalField-molecule
    Van der Waals/kʙ        0.000000e+00 ( 0.000000e+00 +/- 0.000000e+00) [K]
Framework-molecule
    Van der Waals/kʙ        0.000000e+00 ( 0.000000e+00 +/- 0.000000e+00) [K]
    Van der Waals (Tail)/kʙ 0.000000e+00 ( 0.000000e+00 +/- 0.000000e+00) [K]
    Coulombic Real/kʙ       0.000000e+00 ( 0.000000e+00 +/- 0.000000e+00) [K]
    Coulombic Fourier/kʙ    0.000000e+00 ( 0.000000e+00 +/- 0.000000e+00) [K]
Molecule-molecule
    Van der Waals/kʙ       -1.727038e+05 (-1.727038e+05 +/- 0.000000e+00) [K]
    Van der Waals (Tail)/kʙ-4.199106e+03 (-4.199106e+03 +/- 0.000000e+00) [K]
    Coulombic Real/kʙ      -4.662123e+04 (-4.662123e+04 +/- 0.000000e+00) [K]
    Coulombic Fourier/kʙ   -5.775782e+03 (-5.775782e+03 +/- 0.000000e+00) [K]
    Molecule Intra/kʙ       0.000000e+00 ( 0.000000e+00 +/- 0.000000e+00) [K]

Current cycle: 100 out of 6000
===============================================================================

Box:      24.67142   0.00000   0.00000  Average:  24.83779   0.00000   0.00000
           0.00000  24.67142   0.00000             0.00000  24.83779   0.00000
           0.00000   0.00000  24.67142             0.00000   0.00000  24.83779
Lengths:  24.67142  24.67142  24.67142  Average:  24.83779  24.83779  24.83779
Angles:   90.00000  90.00000  90.00000  Average:  90.00000  90.00000  90.00000
Rectangular boundary conditions

net charge:   0.00000000

component 0 (CO2) lambda:  0 occupancy:  0 (0.000000)
    net charge:   0.00000000 [e]

Amount of molecules per component :
-------------------------------------------------------------------------------
Component 0 (CO2)
    molecules:      1.960000e+02 molecules  (1.873267e+02 +/- 0.000000e+00)
    number density: 1.305189e-02 molec./A^3 (1.222932e-02 +/- 0.000000e+00)
    density:        9.535936e+02 kg/m^3     (8.934949e+02 +/- 0.000000e+00)

Average pressure tensor: 
-------------------------------------------------------------------------------
-5.6475e+01 -2.0736e+01  1.0237e+02 +/- 0.0000e+00 0.0000e+00 0.0000e+00 [bar]
-2.0736e+01  5.5558e+00  9.6984e+01 +/- 0.0000e+00 0.0000e+00 0.0000e+00 [bar]
 1.0237e+02  9.6984e+01 -1.6882e+01 +/- 0.0000e+00 0.0000e+00 0.0000e+00 [bar]
Ideal-gas pressure:   4.727635e+02 +/ 0.000000e+00 [bar]
Excess pressure:     -4.953640e+02 +/ 0.000000e+00 [bar]
Pressure:            -2.260049e+01 +/ 0.000000e+00 [bar]

Total potential energy/kʙ  -2.572685e+05 (-2.337477e+05 +/- 0.000000e+00) [K]
-------------------------------------------------------------------------------
ExternalField-molecule
    Van der Waals/kʙ        0.000000e+00 ( 0.000000e+00 +/- 0.000000e+00) [K]
Framework-molecule
    Van der Waals/kʙ        0.000000e+00 ( 0.000000e+00 +/- 0.000000e+00) [K]
    Van der Waals (Tail)/kʙ 0.000000e+00 ( 0.000000e+00 +/- 0.000000e+00) [K]
    Coulombic Real/kʙ       0.000000e+00 ( 0.000000e+00 +/- 0.000000e+00) [K]
    Coulombic Fourier/kʙ    0.000000e+00 ( 0.000000e+00 +/- 0.000000e+00) [K]
Molecule-molecule
    Van der Waals/kʙ       -1.987545e+05 (-1.741518e+05 +/- 0.000000e+00) [K]
    Van der Waals (Tail)/kʙ-4.750789e+03 (-4.273859e+03 +/- 0.000000e+00) [K]
    Coulombic Real/kʙ      -4.812227e+04 (-4.985072e+04 +/- 0.000000e+00) [K]
    Coulombic Fourier/kʙ   -5.640961e+03 (-5.471304e+03 +/- 0.000000e+00) [K]
    Molecule Intra/kʙ       0.000000e+00 ( 0.000000e+00 +/- 0.000000e+00) [K]

Current cycle: 200 out of 6000
===============================================================================

Box:      23.85781   0.00000   0.00000  Average:  24.54473   0.00000   0.00000
           0.00000  23.85781   0.00000             0.00000  24.54473   0.00000
           0.00000   0.00000  23.85781             0.00000   0.00000  24.54473
Lengths:  23.85781  23.85781  23.85781  Average:  24.54473  24.54473  24.54473
Angles:   90.00000  90.00000  90.00000  Average:  90.00000  90.00000  90.00000
Rectangular boundary conditions

net charge:   0.00000000

component 0 (CO2) lambda:  0 occupancy:  0 (0.000000)
    net charge:   0.00000000 [e]

Amount of molecules per component :
-------------------------------------------------------------------------------
Component 0 (CO2)
    molecules:      1.780000e+02 molecules  (1.846468e+02 +/- 0.000000e+00)
    number density: 1.310776e-02 molec./A^3 (1.249466e-02 +/- 0.000000e+00)
    density:        9.576753e+02 kg/m^3     (9.128814e+02 +/- 0.000000e+00)

Average pressure tensor: 
-------------------------------------------------------------------------------
 2.2716e+01  1.6488e+01  9.4703e+01 +/- 0.0000e+00 0.0000e+00 0.0000e+00 [bar]
 1.6488e+01 -2.1061e-01  4.5527e+01 +/- 0.0000e+00 0.0000e+00 0.0000e+00 [bar]
 9.4703e+01  4.5527e+01 -8.6039e+01 +/- 0.0000e+00 0.0000e+00 0.0000e+00 [bar]
Ideal-gas pressure:   4.830212e+02 +/ 0.000000e+00 [bar]
Excess pressure:     -5.041990e+02 +/ 0.000000e+00 [bar]
Pressure:            -2.117771e+01 +/ 0.000000e+00 [bar]

Total potential energy/kʙ  -2.409338e+05 (-2.345607e+05 +/- 0.000000e+00) [K]
-------------------------------------------------------------------------------
ExternalField-molecule
    Van der Waals/kʙ        0.000000e+00 ( 0.000000e+00 +/- 0.000000e+00) [K]
Framework-molecule
    Van der Waals/kʙ        0.000000e+00 ( 0.000000e+00 +/- 0.000000e+00) [K]
    Van der Waals (Tail)/kʙ 0.000000e+00 ( 0.000000e+00 +/- 0.000000e+00) [K]
    Coulombic Real/kʙ       0.000000e+00 ( 0.000000e+00 +/- 0.000000e+00) [K]
    Coulombic Fourier/kʙ    0.000000e+00 ( 0.000000e+00 +/- 0.000000e+00) [K]
Molecule-molecule
    Van der Waals/kʙ       -1.738148e+05 (-1.734011e+05 +/- 0.000000e+00) [K]
    Van der Waals (Tail)/kʙ-4.332960e+03 (-4.255667e+03 +/- 0.000000e+00) [K]
    Coulombic Real/kʙ      -5.692386e+04 (-5.149310e+04 +/- 0.000000e+00) [K]
    Coulombic Fourier/kʙ   -5.862176e+03 (-5.410871e+03 +/- 0.000000e+00) [K]
    Molecule Intra/kʙ       0.000000e+00 ( 0.000000e+00 +/- 0.000000e+00) [K]

Current cycle: 300 out of 6000
===============================================================================

Box:      23.58887   0.00000   0.00000  Average:  24.26719   0.00000   0.00000
           0.00000  23.58887   0.00000             0.00000  24.26719   0.00000
           0.00000   0.00000  23.58887             0.00000   0.00000  24.26719
Lengths:  23.58887  23.58887  23.58887  Average:  24.26719  24.26719  24.26719
Angles:   90.00000  90.00000  90.00000  Average:  90.00000  90.00000  90.00000
Rectangular boundary conditions

net charge:   0.00000000

component 0 (CO2) lambda:  0 occupancy:  0 (0.000000)
    net charge:   0.00000000 [e]

Amount of molecules per component :
-------------------------------------------------------------------------------
Component 0 (CO2)
    molecules:      1.680000e+02 molecules  (1.781130e+02 +/- 0.000000e+00)
    number density: 1.279934e-02 molec./A^3 (1.245643e-02 +/- 0.000000e+00)
    density:        9.351419e+02 kg/m^3     (9.100882e+02 +/- 0.000000e+00)

Average pressure tensor: 
-------------------------------------------------------------------------------
 2.3558e+01  1.5965e+01  7.1070e+01 +/- 0.0000e+00 0.0000e+00 0.0000e+00 [bar]
 1.5965e+01  1.4198e+01  4.4045e+01 +/- 0.0000e+00 0.0000e+00 0.0000e+00 [bar]
 7.1070e+01  4.4045e+01 -3.7411e+01 +/- 0.0000e+00 0.0000e+00 0.0000e+00 [bar]
Ideal-gas pressure:   4.815433e+02 +/ 0.000000e+00 [bar]
Excess pressure:     -4.814284e+02 +/ 0.000000e+00 [bar]
Pressure:             1.148793e-01 +/ 0.000000e+00 [bar]

Total potential energy/kʙ  -2.111885e+05 (-2.251290e+05 +/- 0.000000e+00) [K]
-------------------------------------------------------------------------------
ExternalField-molecule
    Van der Waals/kʙ        0.000000e+00 ( 0.000000e+00 +/- 0.000000e+00) [K]
Framework-molecule
    Van der Waals/kʙ        0.000000e+00 ( 0.000000e+00 +/- 0.000000e+00) [K]
    Van der Waals (Tail)/kʙ 0.000000e+00 ( 0.000000e+00 +/- 0.000000e+00) [K]
    Coulombic Real/kʙ       0.000000e+00 ( 0.000000e+00 +/- 0.000000e+00) [K]
    Coulombic Fourier/kʙ    0.000000e+00 ( 0.000000e+00 +/- 0.000000e+00) [K]
Molecule-molecule
    Van der Waals/kʙ       -1.596953e+05 (-1.672225e+05 +/- 0.000000e+00) [K]
    Van der Waals (Tail)/kʙ-3.993312e+03 (-4.107895e+03 +/- 0.000000e+00) [K]
    Coulombic Real/kʙ      -4.298599e+04 (-4.863687e+04 +/- 0.000000e+00) [K]
    Coulombic Fourier/kʙ   -4.513921e+03 (-5.161777e+03 +/- 0.000000e+00) [K]
    Molecule Intra/kʙ       0.000000e+00 ( 0.000000e+00 +/- 0.000000e+00) [K]

Current cycle: 400 out of 6000
===============================================================================

Box:      23.75601   0.00000   0.00000  Average:  24.10262   0.00000   0.00000
           0.00000  23.75601   0.00000             0.00000  24.10262   0.00000
           0.00000   0.00000  23.75601             0.00000   0.00000  24.10262
Lengths:  23.75601  23.75601  23.75601  Average:  24.10262  24.10262  24.10262
Angles:   90.00000  90.00000  90.00000  Average:  90.00000  90.00000  90.00000
Rectangular boundary conditions

net charge:   0.00000000

component 0 (CO2) lambda:  0 occupancy:  0 (0.000000)
    net charge:   0.00000000 [e]

Amount of molecules per component :
-------------------------------------------------------------------------------
Component 0 (CO2)
    molecules:      1.660000e+02 molecules  (1.740723e+02 +/- 0.000000e+00)
    number density: 1.238191e-02 molec./A^3 (1.241731e-02 +/- 0.000000e+00)
    density:        9.046433e+02 kg/m^3     (9.072297e+02 +/- 0.000000e+00)

Average pressure tensor: 
-------------------------------------------------------------------------------
-1.4760e+01  3.8687e+01  5.5790e+01 +/- 0.0000e+00 0.0000e+00 0.0000e+00 [bar]
 3.8687e+01  8.6861e+00  4.1135e+01 +/- 0.0000e+00 0.0000e+00 0.0000e+00 [bar]
 5.5790e+01  4.1135e+01 -6.2041e+01 +/- 0.0000e+00 0.0000e+00 0.0000e+00 [bar]
Ideal-gas pressure:   4.800309e+02 +/ 0.000000e+00 [bar]
Excess pressure:     -5.027357e+02 +/ 0.000000e+00 [bar]
Pressure:            -2.270481e+01 +/ 0.000000e+00 [bar]

Total potential energy/kʙ  -2.092064e+05 (-2.198447e+05 +/- 0.000000e+00) [K]
-------------------------------------------------------------------------------
ExternalField-molecule
    Van der Waals/kʙ        0.000000e+00 ( 0.000000e+00 +/- 0.000000e+00) [K]
Framework-molecule
    Van der Waals/kʙ        0.000000e+00 ( 0.000000e+00 +/- 0.000000e+00) [K]
    Van der Waals (Tail)/kʙ 0.000000e+00 ( 0.000000e+00 +/- 0.000000e+00) [K]
    Coulombic Real/kʙ       0.000000e+00 ( 0.000000e+00 +/- 0.000000e+00) [K]
    Coulombic Fourier/kʙ    0.000000e+00 ( 0.000000e+00 +/- 0.000000e+00) [K]
Molecule-molecule
    Van der Waals/kʙ       -1.556500e+05 (-1.636862e+05 +/- 0.000000e+00) [K]
    Van der Waals (Tail)/kʙ-3.817085e+03 (-4.012008e+03 +/- 0.000000e+00) [K]
    Coulombic Real/kʙ      -4.523603e+04 (-4.710513e+04 +/- 0.000000e+00) [K]
    Coulombic Fourier/kʙ   -4.503238e+03 (-5.041449e+03 +/- 0.000000e+00) [K]
    Molecule Intra/kʙ       0.000000e+00 ( 0.000000e+00 +/- 0.000000e+00) [K]

Current cycle: 500 out of 6000
===============================================================================

Box:      23.92467   0.00000   0.00000  Average:  24.06142   0.00000   0.00000
           0.00000  23.92467   0.00000             0.00000  24.06142   0.00000
           0.00000   0.00000  23.92467             0.00000   0.00000  24.06142
Lengths:  23.92467  23.92467  23.92467  Average:  24.06142  24.06142  24.06142
Angles:   90.00000  90.00000  90.00000  Average:  90.00000  90.00000  90.00000
Rectangular boundary conditions

net charge:   0.00000000

component 0 (CO2) lambda:  0 occupancy:  0 (0.000000)
    net charge:   0.00000000 [e]

Amount of molecules per component :
-------------------------------------------------------------------------------
Component 0 (CO2)
    molecules:      1.730000e+02 molecules  (1.738862e+02 +/- 0.000000e+00)
    number density: 1.263305e-02 molec./A^3 (1.247147e-02 +/- 0.000000e+00)
    density:        9.229925e+02 kg/m^3     (9.111866e+02 +/- 0.000000e+00)

Average pressure tensor: 
-------------------------------------------------------------------------------
 3.1269e+01  3.5239e+01  4.6779e+01 +/- 0.0000e+00 0.0000e+00 0.0000e+00 [bar]
 3.5239e+01  7.9798e+01  1.7837e+01 +/- 0.0000e+00 0.0000e+00 0.0000e+00 [bar]
 4.6779e+01  1.7837e+01 -9.4882e-02 +/- 0.0000e+00 0.0000e+00 0.0000e+00 [bar]
Ideal-gas pressure:   4.821245e+02 +/ 0.000000e+00 [bar]
Excess pressure:     -4.451338e+02 +/ 0.000000e+00 [bar]
Pressure:             3.699077e+01 +/ 0.000000e+00 [bar]

Total potential energy/kʙ  -2.260488e+05 (-2.199716e+05 +/- 0.000000e+00) [K]
-------------------------------------------------------------------------------
ExternalField-molecule
    Van der Waals/kʙ        0.000000e+00 ( 0.000000e+00 +/- 0.000000e+00) [K]
Framework-molecule
    Van der Waals/kʙ        0.000000e+00 ( 0.000000e+00 +/- 0.000000e+00) [K]
    Van der Waals (Tail)/kʙ 0.000000e+00 ( 0.000000e+00 +/- 0.000000e+00) [K]
    Coulombic Real/kʙ       0.000000e+00 ( 0.000000e+00 +/- 0.000000e+00) [K]
    Coulombic Fourier/kʙ    0.000000e+00 ( 0.000000e+00 +/- 0.000000e+00) [K]
Molecule-molecule
    Van der Waals/kʙ       -1.697114e+05 (-1.635531e+05 +/- 0.000000e+00) [K]
    Van der Waals (Tail)/kʙ-4.058734e+03 (-4.020288e+03 +/- 0.000000e+00) [K]
    Coulombic Real/kʙ      -4.692525e+04 (-4.731479e+04 +/- 0.000000e+00) [K]
    Coulombic Fourier/kʙ   -5.353417e+03 (-5.083357e+03 +/- 0.000000e+00) [K]
    Molecule Intra/kʙ       0.000000e+00 ( 0.000000e+00 +/- 0.000000e+00) [K]

Current cycle: 600 out of 6000
===============================================================================

Box:      24.41793   0.00000   0.00000  Average:  24.00461   0.00000   0.00000
           0.00000  24.41793   0.00000             0.00000  24.00461   0.00000
           0.00000   0.00000  24.41793             0.00000   0.00000  24.00461
Lengths:  24.41793  24.41793  24.41793  Average:  24.00461  24.00461  24.00461
Angles:   90.00000  90.00000  90.00000  Average:  90.00000  90.00000  90.00000
Rectangular boundary conditions

net charge:   0.00000000

component 0 (CO2) lambda:  0 occupancy:  0 (0.000000)
    net charge:   0.00000000 [e]

Amount of molecules per component :
-------------------------------------------------------------------------------
Component 0 (CO2)
    molecules:      1.750000e+02 molecules  (1.727205e+02 +/- 0.000000e+00)
    number density: 1.202019e-02 molec./A^3 (1.247968e-02 +/- 0.000000e+00)
    density:        8.782155e+02 kg/m^3     (9.117871e+02 +/- 0.000000e+00)

Average pressure tensor: 
-------------------------------------------------------------------------------
 2.3004e+01  3.8421e+01  4.7233e+01 +/- 0.0000e+00 0.0000e+00 0.0000e+00 [bar]
 3.8421e+01  7.0631e+01  2.5560e+01 +/- 0.0000e+00 0.0000e+00 0.0000e+00 [bar]
 4.7233e+01  2.5560e+01  1.6321e+01 +/- 0.0000e+00 0.0000e+00 0.0000e+00 [bar]
Ideal-gas pressure:   4.824422e+02 +/ 0.000000e+00 [bar]
Excess pressure:     -4.457904e+02 +/ 0.000000e+00 [bar]
Pressure:             3.665181e+01 +/ 0.000000e+00 [bar]

Total potential energy/kʙ  -2.082523e+05 (-2.188464e+05 +/- 0.000000e+00) [K]
-------------------------------------------------------------------------------
ExternalField-molecule
    Van der Waals/kʙ        0.000000e+00 ( 0.000000e+00 +/- 0.000000e+00) [K]
Framework-molecule
    Van der Waals/kʙ        0.000000e+00 ( 0.000000e+00 +/- 0.000000e+00) [K]
    Van der Waals (Tail)/kʙ 0.000000e+00 ( 0.000000e+00 +/- 0.000000e+00) [K]
    Coulombic Real/kʙ       0.000000e+00 ( 0.000000e+00 +/- 0.000000e+00) [K]
    Coulombic Fourier/kʙ    0.000000e+00 ( 0.000000e+00 +/- 0.000000e+00) [K]
Molecule-molecule
    Van der Waals/kʙ       -1.590891e+05 (-1.627609e+05 +/- 0.000000e+00) [K]
    Van der Waals (Tail)/kʙ-3.906479e+03 (-4.001601e+03 +/- 0.000000e+00) [K]
    Coulombic Real/kʙ      -4.018014e+04 (-4.703351e+04 +/- 0.000000e+00) [K]
    Coulombic Fourier/kʙ   -5.076547e+03 (-5.050343e+03 +/- 0.000000e+00) [K]
    Molecule Intra/kʙ       0.000000e+00 ( 0.000000e+00 +/- 0.000000e+00) [K]

Current cycle: 700 out of 6000
===============================================================================

Box:      24.46928   0.00000   0.00000  Average:  24.07728   0.00000   0.00000
           0.00000  24.46928   0.00000             0.00000  24.07728   0.00000
           0.00000   0.00000  24.46928             0.00000   0.00000  24.07728
Lengths:  24.46928  24.46928  24.46928  Average:  24.07728  24.07728  24.07728
Angles:   90.00000  90.00000  90.00000  Average:  90.00000  90.00000  90.00000
Rectangular boundary conditions

net charge:   0.00000000

component 0 (CO2) lambda:  0 occupancy:  0 (0.000000)
    net charge:   0.00000000 [e]

Amount of molecules per component :
-------------------------------------------------------------------------------
Component 0 (CO2)
    molecules:      1.790000e+02 molecules  (1.735007e+02 +/- 0.000000e+00)
    number density: 1.221770e-02 molec./A^3 (1.242493e-02 +/- 0.000000e+00)
    density:        8.926461e+02 kg/m^3     (9.077868e+02 +/- 0.000000e+00)

Average pressure tensor: 
-------------------------------------------------------------------------------
 1.0397e+01  6.6362e+00  1.7992e+01 +/- 0.0000e+00 0.0000e+00 0.0000e+00 [bar]
 6.6362e+00  4.6134e+01  2.5616e+01 +/- 0.0000e+00 0.0000e+00 0.0000e+00 [bar]
 1.7992e+01  2.5616e+01  4.8907e+01 +/- 0.0000e+00 0.0000e+00 0.0000e+00 [bar]
Ideal-gas pressure:   4.803256e+02 +/ 0.000000e+00 [bar]
Excess pressure:     -4.451794e+02 +/ 0.000000e+00 [bar]
Pressure:             3.514625e+01 +/ 0.000000e+00 [bar]

Total potential energy/kʙ  -2.253365e+05 (-2.182800e+05 +/- 0.000000e+00) [K]
-------------------------------------------------------------------------------
ExternalField-molecule
    Van der Waals/kʙ        0.000000e+00 ( 0.000000e+00 +/- 0.000000e+00) [K]
Framework-molecule
    Van der Waals/kʙ        0.000000e+00 ( 0.000000e+00 +/- 0.000000e+00) [K]
    Van der Waals (Tail)/kʙ 0.000000e+00 ( 0.000000e+00 +/- 0.000000e+00) [K]
    Coulombic Real/kʙ       0.000000e+00 ( 0.000000e+00 +/- 0.000000e+00) [K]
    Coulombic Fourier/kʙ    0.000000e+00 ( 0.000000e+00 +/- 0.000000e+00) [K]
Molecule-molecule
    Van der Waals/kʙ       -1.644380e+05 (-1.626434e+05 +/- 0.000000e+00) [K]
    Van der Waals (Tail)/kʙ-4.061428e+03 (-4.000670e+03 +/- 0.000000e+00) [K]
    Coulombic Real/kʙ      -5.152276e+04 (-4.657458e+04 +/- 0.000000e+00) [K]
    Coulombic Fourier/kʙ   -5.314217e+03 (-5.061328e+03 +/- 0.000000e+00) [K]
    Molecule Intra/kʙ       0.000000e+00 ( 0.000000e+00 +/- 0.000000e+00) [K]

Current cycle: 800 out of 6000
===============================================================================

Box:      24.36700   0.00000   0.00000  Average:  24.10966   0.00000   0.00000
           0.00000  24.36700   0.00000             0.00000  24.10966   0.00000
           0.00000   0.00000  24.36700             0.00000   0.00000  24.10966
Lengths:  24.36700  24.36700  24.36700  Average:  24.10966  24.10966  24.10966
Angles:   90.00000  90.00000  90.00000  Average:  90.00000  90.00000  90.00000
Rectangular boundary conditions

net charge:   0.00000000

component 0 (CO2) lambda:  0 occupancy:  0 (0.000000)
    net charge:   0.00000000 [e]

Amount of molecules per component :
-------------------------------------------------------------------------------
Component 0 (CO2)
    molecules:      1.880000e+02 molecules  (1.745181e+02 +/- 0.000000e+00)
    number density: 1.299427e-02 molec./A^3 (1.244720e-02 +/- 0.000000e+00)
    density:        9.493834e+02 kg/m^3     (9.094135e+02 +/- 0.000000e+00)

Average pressure tensor: 
-------------------------------------------------------------------------------
 1.5648e+01  1.8745e+01  2.9680e+01 +/- 0.0000e+00 0.0000e+00 0.0000e+00 [bar]
 1.8745e+01  3.5566e+01  3.4700e+01 +/- 0.0000e+00 0.0000e+00 0.0000e+00 [bar]
 2.9680e+01  3.4700e+01  6.8550e+01 +/- 0.0000e+00 0.0000e+00 0.0000e+00 [bar]
Ideal-gas pressure:   4.811863e+02 +/ 0.000000e+00 [bar]
Excess pressure:     -4.412653e+02 +/ 0.000000e+00 [bar]
Pressure:             3.992106e+01 +/ 0.000000e+00 [bar]

Total potential energy/kʙ  -2.527994e+05 (-2.204256e+05 +/- 0.000000e+00) [K]
-------------------------------------------------------------------------------
ExternalField-molecule
    Van der Waals/kʙ        0.000000e+00 ( 0.000000e+00 +/- 0.000000e+00) [K]
Framework-molecule
    Van der Waals/kʙ        0.000000e+00 ( 0.000000e+00 +/- 0.000000e+00) [K]
    Van der Waals (Tail)/kʙ 0.000000e+00 ( 0.000000e+00 +/- 0.000000e+00) [K]
    Coulombic Real/kʙ       0.000000e+00 ( 0.000000e+00 +/- 0.000000e+00) [K]
    Coulombic Fourier/kʙ    0.000000e+00 ( 0.000000e+00 +/- 0.000000e+00) [K]
Molecule-molecule
    Van der Waals/kʙ       -1.915743e+05 (-1.642902e+05 +/- 0.000000e+00) [K]
    Van der Waals (Tail)/kʙ-4.536761e+03 (-4.036017e+03 +/- 0.000000e+00) [K]
    Coulombic Real/kʙ      -5.102472e+04 (-4.699982e+04 +/- 0.000000e+00) [K]
    Coulombic Fourier/kʙ   -5.663605e+03 (-5.099574e+03 +/- 0.000000e+00) [K]
    Molecule Intra/kʙ       0.000000e+00 ( 0.000000e+00 +/- 0.000000e+00) [K]

Current cycle: 900 out of 6000
===============================================================================

Box:      23.70592   0.00000   0.00000  Average:  24.10270   0.00000   0.00000
           0.00000  23.70592   0.00000             0.00000  24.10270   0.00000
           0.00000   0.00000  23.70592             0.00000   0.00000  24.10270
Lengths:  23.70592  23.70592  23.70592  Average:  24.10270  24.10270  24.10270
Angles:   90.00000  90.00000  90.00000  Average:  90.00000  90.00000  90.00000
Rectangular boundary conditions

net charge:   0.00000000

component 0 (CO2) lambda:  0 occupancy:  0 (0.000000)
    net charge:   0.00000000 [e]

Amount of molecules per component :
-------------------------------------------------------------------------------
Component 0 (CO2)
    molecules:      1.730000e+02 molecules  (1.752730e+02 +/- 0.000000e+00)
    number density: 1.298601e-02 molec./A^3 (1.251291e-02 +/- 0.000000e+00)
    density:        9.487802e+02 kg/m^3     (9.142149e+02 +/- 0.000000e+00)

Average pressure tensor: 
-------------------------------------------------------------------------------
-3.2220e+00  1.9139e+01  3.9535e+01 +/- 0.0000e+00 0.0000e+00 0.0000e+00 [bar]
 1.9139e+01  4.2245e+01  3.7979e+01 +/- 0.0000e+00 0.0000e+00 0.0000e+00 [bar]
 3.9535e+01  3.7979e+01  6.2109e+01 +/- 0.0000e+00 0.0000e+00 0.0000e+00 [bar]
Ideal-gas pressure:   4.837268e+02 +/ 0.000000e+00 [bar]
Excess pressure:     -4.500162e+02 +/ 0.000000e+00 [bar]
Pressure:             3.371066e+01 +/ 0.000000e+00 [bar]

Total potential energy/kʙ  -2.242106e+05 (-2.219569e+05 +/- 0.000000e+00) [K]
-------------------------------------------------------------------------------
ExternalField-molecule
    Van der Waals/kʙ        0.000000e+00 ( 0.000000e+00 +/- 0.000000e+00) [K]
Framework-molecule
    Van der Waals/kʙ        0.000000e+00 ( 0.000000e+00 +/- 0.000000e+00) [K]
    Van der Waals (Tail)/kʙ 0.000000e+00 ( 0.000000e+00 +/- 0.000000e+00) [K]
    Coulombic Real/kʙ       0.000000e+00 ( 0.000000e+00 +/- 0.000000e+00) [K]
    Coulombic Fourier/kʙ    0.000000e+00 ( 0.000000e+00 +/- 0.000000e+00) [K]
Molecule-molecule
    Van der Waals/kʙ       -1.699997e+05 (-1.655592e+05 +/- 0.000000e+00) [K]
    Van der Waals (Tail)/kʙ-4.172132e+03 (-4.064034e+03 +/- 0.000000e+00) [K]
    Coulombic Real/kʙ      -4.527555e+04 (-4.721729e+04 +/- 0.000000e+00) [K]
    Coulombic Fourier/kʙ   -4.763183e+03 (-5.116345e+03 +/- 0.000000e+00) [K]
    Molecule Intra/kʙ       0.000000e+00 ( 0.000000e+00 +/- 0.000000e+00) [K]

Current cycle: 1000 out of 6000
===============================================================================

Box:      24.92227   0.00000   0.00000  Average:  24.10600   0.00000   0.00000
           0.00000  24.92227   0.00000             0.00000  24.10600   0.00000
           0.00000   0.00000  24.92227             0.00000   0.00000  24.10600
Lengths:  24.92227  24.92227  24.92227  Average:  24.10600  24.10600  24.10600
Angles:   90.00000  90.00000  90.00000  Average:  90.00000  90.00000  90.00000
Rectangular boundary conditions

net charge:   0.00000000

component 0 (CO2) lambda:  0 occupancy:  0 (0.000000)
    net charge:   0.00000000 [e]

Amount of molecules per component :
-------------------------------------------------------------------------------
Component 0 (CO2)
    molecules:      1.850000e+02 molecules  (1.749411e+02 +/- 0.000000e+00)
    number density: 1.195113e-02 molec./A^3 (1.248475e-02 +/- 0.000000e+00)
    density:        8.731699e+02 kg/m^3     (9.121569e+02 +/- 0.000000e+00)

Average pressure tensor: 
-------------------------------------------------------------------------------
 1.4269e+01  3.5450e+01  4.3157e+01 +/- 0.0000e+00 0.0000e+00 0.0000e+00 [bar]
 3.5450e+01  2.5435e+01  2.4890e+01 +/- 0.0000e+00 0.0000e+00 0.0000e+00 [bar]
 4.3157e+01  2.4890e+01  5.7226e+01 +/- 0.0000e+00 0.0000e+00 0.0000e+00 [bar]
Ideal-gas pressure:   4.826379e+02 +/ 0.000000e+00 [bar]
Excess pressure:     -4.503279e+02 +/ 0.000000e+00 [bar]
Pressure:             3.230996e+01 +/ 0.000000e+00 [bar]

Total potential energy/kʙ  -2.282928e+05 (-2.208888e+05 +/- 0.000000e+00) [K]
-------------------------------------------------------------------------------
ExternalField-molecule
    Van der Waals/kʙ        0.000000e+00 ( 0.000000e+00 +/- 0.000000e+00) [K]
Framework-molecule
    Van der Waals/kʙ        0.000000e+00 ( 0.000000e+00 +/- 0.000000e+00) [K]
    Van der Waals (Tail)/kʙ 0.000000e+00 ( 0.000000e+00 +/- 0.000000e+00) [K]
    Coulombic Real/kʙ       0.000000e+00 ( 0.000000e+00 +/- 0.000000e+00) [K]
    Coulombic Fourier/kʙ    0.000000e+00 ( 0.000000e+00 +/- 0.000000e+00) [K]
Molecule-molecule
    Van der Waals/kʙ       -1.700913e+05 (-1.647147e+05 +/- 0.000000e+00) [K]
    Van der Waals (Tail)/kʙ-4.105980e+03 (-4.045767e+03 +/- 0.000000e+00) [K]
    Coulombic Real/kʙ      -4.831084e+04 (-4.701482e+04 +/- 0.000000e+00) [K]
    Coulombic Fourier/kʙ   -5.784601e+03 (-5.113576e+03 +/- 0.000000e+00) [K]
    Molecule Intra/kʙ       0.000000e+00 ( 0.000000e+00 +/- 0.000000e+00) [K]

Current cycle: 1100 out of 6000
===============================================================================

Box:      24.82665   0.00000   0.00000  Average:  24.15743   0.00000   0.00000
           0.00000  24.82665   0.00000             0.00000  24.15743   0.00000
           0.00000   0.00000  24.82665             0.00000   0.00000  24.15743
Lengths:  24.82665  24.82665  24.82665  Average:  24.15743  24.15743  24.15743
Angles:   90.00000  90.00000  90.00000  Average:  90.00000  90.00000  90.00000
Rectangular boundary conditions

net charge:   0.00000000

component 0 (CO2) lambda:  0 occupancy:  0 (0.000000)
    net charge:   0.00000000 [e]

Amount of molecules per component :
-------------------------------------------------------------------------------
Component 0 (CO2)
    molecules:      1.800000e+02 molecules  (1.754759e+02 +/- 0.000000e+00)
    number density: 1.176301e-02 molec./A^3 (1.244438e-02 +/- 0.000000e+00)
    density:        8.594254e+02 kg/m^3     (9.092078e+02 +/- 0.000000e+00)

Average pressure tensor: 
-------------------------------------------------------------------------------
 5.3194e+00  4.1105e+01  4.6779e+01 +/- 0.0000e+00 0.0000e+00 0.0000e+00 [bar]
 4.1105e+01  3.4789e+01  7.4430e+00 +/- 0.0000e+00 0.0000e+00 0.0000e+00 [bar]
 4.6779e+01  7.4430e+00  5.7442e+01 +/- 0.0000e+00 0.0000e+00 0.0000e+00 [bar]
Ideal-gas pressure:   4.810775e+02 +/ 0.000000e+00 [bar]
Excess pressure:     -4.485606e+02 +/ 0.000000e+00 [bar]
Pressure:             3.251688e+01 +/ 0.000000e+00 [bar]

Total potential energy/kʙ  -2.207134e+05 (-2.206768e+05 +/- 0.000000e+00) [K]
-------------------------------------------------------------------------------
ExternalField-molecule
    Van der Waals/kʙ        0.000000e+00 ( 0.000000e+00 +/- 0.000000e+00) [K]
Framework-molecule
    Van der Waals/kʙ        0.000000e+00 ( 0.000000e+00 +/- 0.000000e+00) [K]
    Van der Waals (Tail)/kʙ 0.000000e+00 ( 0.000000e+00 +/- 0.000000e+00) [K]
    Coulombic Real/kʙ       0.000000e+00 ( 0.000000e+00 +/- 0.000000e+00) [K]
    Coulombic Fourier/kʙ    0.000000e+00 ( 0.000000e+00 +/- 0.000000e+00) [K]
Molecule-molecule
    Van der Waals/kʙ       -1.610905e+05 (-1.645074e+05 +/- 0.000000e+00) [K]
    Van der Waals (Tail)/kʙ-3.932123e+03 (-4.040775e+03 +/- 0.000000e+00) [K]
    Coulombic Real/kʙ      -5.038313e+04 (-4.702536e+04 +/- 0.000000e+00) [K]
    Coulombic Fourier/kʙ   -5.307664e+03 (-5.103244e+03 +/- 0.000000e+00) [K]
    Molecule Intra/kʙ       0.000000e+00 ( 0.000000e+00 +/- 0.000000e+00) [K]

Current cycle: 1200 out of 6000
===============================================================================

Box:      24.66696   0.00000   0.00000  Average:  24.21197   0.00000   0.00000
           0.00000  24.66696   0.00000             0.00000  24.21197   0.00000
           0.00000   0.00000  24.66696             0.00000   0.00000  24.21197
Lengths:  24.66696  24.66696  24.66696  Average:  24.21197  24.21197  24.21197
Angles:   90.00000  90.00000  90.00000  Average:  90.00000  90.00000  90.00000
Rectangular boundary conditions

net charge:   0.00000000

component 0 (CO2) lambda:  0 occupancy:  0 (0.000000)
    net charge:   0.00000000 [e]

Amount of molecules per component :
-------------------------------------------------------------------------------
Component 0 (CO2)
    molecules:      1.880000e+02 molecules  (1.769084e+02 +/- 0.000000e+00)
    number density: 1.252596e-02 molec./A^3 (1.245828e-02 +/- 0.000000e+00)
    density:        9.151680e+02 kg/m^3     (9.102234e+02 +/- 0.000000e+00)

Average pressure tensor: 
-------------------------------------------------------------------------------
 1.0987e+01  3.7173e+01  4.6292e+01 +/- 0.0000e+00 0.0000e+00 0.0000e+00 [bar]
 3.7173e+01  2.0868e+01  2.8568e+00 +/- 0.0000e+00 0.0000e+00 0.0000e+00 [bar]
 4.6292e+01  2.8568e+00  3.4753e+01 +/- 0.0000e+00 0.0000e+00 0.0000e+00 [bar]
Ideal-gas pressure:   4.816149e+02 +/ 0.000000e+00 [bar]
Excess pressure:     -4.594120e+02 +/ 0.000000e+00 [bar]
Pressure:             2.220284e+01 +/ 0.000000e+00 [bar]

Total potential energy/kʙ  -2.408004e+05 (-2.235436e+05 +/- 0.000000e+00) [K]
-------------------------------------------------------------------------------
ExternalField-molecule
    Van der Waals/kʙ        0.000000e+00 ( 0.000000e+00 +/- 0.000000e+00) [K]
Framework-molecule
    Van der Waals/kʙ        0.000000e+00 ( 0.000000e+00 +/- 0.000000e+00) [K]
    Van der Waals (Tail)/kʙ 0.000000e+00 ( 0.000000e+00 +/- 0.000000e+00) [K]
    Coulombic Real/kʙ       0.000000e+00 ( 0.000000e+00 +/- 0.000000e+00) [K]
    Coulombic Fourier/kʙ    0.000000e+00 ( 0.000000e+00 +/- 0.000000e+00) [K]
Molecule-molecule
    Van der Waals/kʙ       -1.775909e+05 (-1.667019e+05 +/- 0.000000e+00) [K]
    Van der Waals (Tail)/kʙ-4.373257e+03 (-4.090802e+03 +/- 0.000000e+00) [K]
    Coulombic Real/kʙ      -5.336579e+04 (-4.760173e+04 +/- 0.000000e+00) [K]
    Coulombic Fourier/kʙ   -5.470539e+03 (-5.149217e+03 +/- 0.000000e+00) [K]
    Molecule Intra/kʙ       0.000000e+00 ( 0.000000e+00 +/- 0.000000e+00) [K]

Current cycle: 1300 out of 6000
===============================================================================

Box:      24.94255   0.00000   0.00000  Average:  24.26242   0.00000   0.00000
           0.00000  24.94255   0.00000             0.00000  24.26242   0.00000
           0.00000   0.00000  24.94255             0.00000   0.00000  24.26242
Lengths:  24.94255  24.94255  24.94255  Average:  24.26242  24.26242  24.26242
Angles:   90.00000  90.00000  90.00000  Average:  90.00000  90.00000  90.00000
Rectangular boundary conditions

net charge:   0.00000000

component 0 (CO2) lambda:  0 occupancy:  0 (0.000000)
    net charge:   0.00000000 [e]

Amount of molecules per component :
-------------------------------------------------------------------------------
Component 0 (CO2)
    molecules:      1.740000e+02 molecules  (1.776103e+02 +/- 0.000000e+00)
    number density: 1.121313e-02 molec./A^3 (1.243080e-02 +/- 0.000000e+00)
    density:        8.192505e+02 kg/m^3     (9.082154e+02 +/- 0.000000e+00)

Average pressure tensor: 
-------------------------------------------------------------------------------
 1.9106e+01  3.4532e+01  4.7394e+01 +/- 0.0000e+00 0.0000e+00 0.0000e+00 [bar]
 3.4532e+01  2.9217e+01 -7.9944e+00 +/- 0.0000e+00 0.0000e+00 0.0000e+00 [bar]
 4.7394e+01 -7.9944e+00  3.4468e+01 +/- 0.0000e+00 0.0000e+00 0.0000e+00 [bar]
Ideal-gas pressure:   4.805524e+02 +/ 0.000000e+00 [bar]
Excess pressure:     -4.529556e+02 +/ 0.000000e+00 [bar]
Pressure:             2.759674e+01 +/ 0.000000e+00 [bar]

Total potential energy/kʙ  -1.953776e+05 (-2.239678e+05 +/- 0.000000e+00) [K]
-------------------------------------------------------------------------------
ExternalField-molecule
    Van der Waals/kʙ        0.000000e+00 ( 0.000000e+00 +/- 0.000000e+00) [K]
Framework-molecule
    Van der Waals/kʙ        0.000000e+00 ( 0.000000e+00 +/- 0.000000e+00) [K]
    Van der Waals (Tail)/kʙ 0.000000e+00 ( 0.000000e+00 +/- 0.000000e+00) [K]
    Coulombic Real/kʙ       0.000000e+00 ( 0.000000e+00 +/- 0.000000e+00) [K]
    Coulombic Fourier/kʙ    0.000000e+00 ( 0.000000e+00 +/- 0.000000e+00) [K]
Molecule-molecule
    Van der Waals/kʙ       -1.439363e+05 (-1.668668e+05 +/- 0.000000e+00) [K]
    Van der Waals (Tail)/kʙ-3.623367e+03 (-4.096782e+03 +/- 0.000000e+00) [K]
    Coulombic Real/kʙ      -4.345542e+04 (-4.785779e+04 +/- 0.000000e+00) [K]
    Coulombic Fourier/kʙ   -4.362507e+03 (-5.146384e+03 +/- 0.000000e+00) [K]
    Molecule Intra/kʙ       0.000000e+00 ( 0.000000e+00 +/- 0.000000e+00) [K]

Current cycle: 1400 out of 6000
===============================================================================

Box:      25.27187   0.00000   0.00000  Average:  24.30289   0.00000   0.00000
           0.00000  25.27187   0.00000             0.00000  24.30289   0.00000
           0.00000   0.00000  25.27187             0.00000   0.00000  24.30289
Lengths:  25.27187  25.27187  25.27187  Average:  24.30289  24.30289  24.30289
Angles:   90.00000  90.00000  90.00000  Average:  90.00000  90.00000  90.00000
Rectangular boundary conditions

net charge:   0.00000000

component 0 (CO2) lambda:  0 occupancy:  0 (0.000000)
    net charge:   0.00000000 [e]

Amount of molecules per component :
-------------------------------------------------------------------------------
Component 0 (CO2)
    molecules:      2.010000e+02 molecules  (1.783469e+02 +/- 0.000000e+00)
    number density: 1.245329e-02 molec./A^3 (1.241980e-02 +/- 0.000000e+00)
    density:        9.098586e+02 kg/m^3     (9.074121e+02 +/- 0.000000e+00)

Average pressure tensor: 
-------------------------------------------------------------------------------
 2.9163e+01  2.1749e+01  4.5827e+01 +/- 0.0000e+00 0.0000e+00 0.0000e+00 [bar]
 2.1749e+01  2.9395e+01 -8.4434e+00 +/- 0.0000e+00 0.0000e+00 0.0000e+00 [bar]
 4.5827e+01 -8.4434e+00  3.5110e+01 +/- 0.0000e+00 0.0000e+00 0.0000e+00 [bar]
Ideal-gas pressure:   4.801274e+02 +/ 0.000000e+00 [bar]
Excess pressure:     -4.489049e+02 +/ 0.000000e+00 [bar]
Pressure:             3.122247e+01 +/ 0.000000e+00 [bar]

Total potential energy/kʙ  -2.473517e+05 (-2.248143e+05 +/- 0.000000e+00) [K]
-------------------------------------------------------------------------------
ExternalField-molecule
    Van der Waals/kʙ        0.000000e+00 ( 0.000000e+00 +/- 0.000000e+00) [K]
Framework-molecule
    Van der Waals/kʙ        0.000000e+00 ( 0.000000e+00 +/- 0.000000e+00) [K]
    Van der Waals (Tail)/kʙ 0.000000e+00 ( 0.000000e+00 +/- 0.000000e+00) [K]
    Coulombic Real/kʙ       0.000000e+00 ( 0.000000e+00 +/- 0.000000e+00) [K]
    Coulombic Fourier/kʙ    0.000000e+00 ( 0.000000e+00 +/- 0.000000e+00) [K]
Molecule-molecule
    Van der Waals/kʙ       -1.821219e+05 (-1.673867e+05 +/- 0.000000e+00) [K]
    Van der Waals (Tail)/kʙ-4.648538e+03 (-4.113516e+03 +/- 0.000000e+00) [K]
    Coulombic Real/kʙ      -5.457865e+04 (-4.814145e+04 +/- 0.000000e+00) [K]
    Coulombic Fourier/kʙ   -6.002603e+03 (-5.172719e+03 +/- 0.000000e+00) [K]
    Molecule Intra/kʙ       0.000000e+00 ( 0.000000e+00 +/- 0.000000e+00) [K]

Current cycle: 1500 out of 6000
===============================================================================

Box:      25.02872   0.00000   0.00000  Average:  24.36592   0.00000   0.00000
           0.00000  25.02872   0.00000             0.00000  24.36592   0.00000
           0.00000   0.00000  25.02872             0.00000   0.00000  24.36592
Lengths:  25.02872  25.02872  25.02872  Average:  24.36592  24.36592  24.36592
[...]
    number density: 1.214423e-02 molec./A^3 (1.225332e-02 +/- 2.398675e-04)
    density:        8.872785e+02 kg/m^3     (8.952488e+02 +/- 1.752513e+01)

Average pressure tensor: 
-------------------------------------------------------------------------------
 2.8665e+01  9.9967e+00  2.0510e+01 +/- 3.2517e+01 2.4699e+01 2.3778e+01 [bar]
 9.9967e+00  3.1232e+01  6.1677e+00 +/- 2.4699e+01 1.9931e+01 3.6585e+01 [bar]
 2.0510e+01  6.1677e+00  4.4259e+01 +/- 2.3778e+01 3.6585e+01 7.2206e+01 [bar]
Ideal-gas pressure:   4.736915e+02 +/ 9.272847e+00 [bar]
Excess pressure:     -4.389730e+02 +/ 1.996927e+01 [bar]
Pressure:             3.471858e+01 +/ 2.048830e+01 [bar]

Total potential energy/kʙ  -2.689763e+05 (-2.375072e+05 +/- 1.031536e+04) [K]
-------------------------------------------------------------------------------
ExternalField-molecule
    Van der Waals/kʙ        0.000000e+00 ( 0.000000e+00 +/- 0.000000e+00) [K]
Framework-molecule
    Van der Waals/kʙ        0.000000e+00 ( 0.000000e+00 +/- 0.000000e+00) [K]
    Van der Waals (Tail)/kʙ 0.000000e+00 ( 0.000000e+00 +/- 0.000000e+00) [K]
    Coulombic Real/kʙ       0.000000e+00 ( 0.000000e+00 +/- 0.000000e+00) [K]
    Coulombic Fourier/kʙ    0.000000e+00 ( 0.000000e+00 +/- 0.000000e+00) [K]
Molecule-molecule
    Van der Waals/kʙ       -2.026579e+05 (-1.764494e+05 +/- 7.250222e+03) [K]
    Van der Waals (Tail)/kʙ-4.916577e+03 (-4.334889e+03 +/- 1.807499e+02) [K]
    Coulombic Real/kʙ      -5.626393e+04 (-5.129187e+04 +/- 2.688165e+03) [K]
    Coulombic Fourier/kʙ   -5.137871e+03 (-5.431058e+03 +/- 2.268751e+02) [K]
    Molecule Intra/kʙ       0.000000e+00 ( 0.000000e+00 +/- 0.000000e+00) [K]

Current cycle: 5800 out of 6000
===============================================================================

Box:      25.96356   0.00000   0.00000  Average:  24.97880   0.00000   0.00000
           0.00000  25.96356   0.00000             0.00000  24.97880   0.00000
           0.00000   0.00000  25.96356             0.00000   0.00000  24.97880
Lengths:  25.96356  25.96356  25.96356  Average:  24.97880  24.97880  24.97880
Angles:   90.00000  90.00000  90.00000  Average:  90.00000  90.00000  90.00000
Rectangular boundary conditions

net charge:   0.00000000

component 0 (CO2) lambda:  0 occupancy:  0 (0.000000)
    net charge:   0.00000000 [e]

Amount of molecules per component :
-------------------------------------------------------------------------------
Component 0 (CO2)
    molecules:      1.920000e+02 molecules  (1.907456e+02 +/- 1.087229e+01)
    number density: 1.097005e-02 molec./A^3 (1.223860e-02 +/- 2.621904e-04)
    density:        8.014906e+02 kg/m^3     (8.941733e+02 +/- 1.915608e+01)

Average pressure tensor: 
-------------------------------------------------------------------------------
 2.7363e+01  7.7629e+00  1.9722e+01 +/- 3.1455e+01 2.3100e+01 2.4579e+01 [bar]
 7.7629e+00  2.8802e+01  6.5915e+00 +/- 2.3100e+01 1.4222e+01 3.3598e+01 [bar]
 1.9722e+01  6.5915e+00  4.5144e+01 +/- 2.4579e+01 3.3598e+01 6.4226e+01 [bar]
Ideal-gas pressure:   4.731225e+02 +/ 1.013581e+01 [bar]
Excess pressure:     -4.393531e+02 +/ 2.017845e+01 [bar]
Pressure:             3.376936e+01 +/ 2.179334e+01 [bar]

Total potential energy/kʙ  -2.131514e+05 (-2.373254e+05 +/- 1.007263e+04) [K]
-------------------------------------------------------------------------------
ExternalField-molecule
    Van der Waals/kʙ        0.000000e+00 ( 0.000000e+00 +/- 0.000000e+00) [K]
Framework-molecule
    Van der Waals/kʙ        0.000000e+00 ( 0.000000e+00 +/- 0.000000e+00) [K]
    Van der Waals (Tail)/kʙ 0.000000e+00 ( 0.000000e+00 +/- 0.000000e+00) [K]
    Coulombic Real/kʙ       0.000000e+00 ( 0.000000e+00 +/- 0.000000e+00) [K]
    Coulombic Fourier/kʙ    0.000000e+00 ( 0.000000e+00 +/- 0.000000e+00) [K]
Molecule-molecule
    Van der Waals/kʙ       -1.574337e+05 (-1.763226e+05 +/- 7.056907e+03) [K]
    Van der Waals (Tail)/kʙ-3.911524e+03 (-4.331376e+03 +/- 1.760383e+02) [K]
    Coulombic Real/kʙ      -4.612050e+04 (-5.124230e+04 +/- 2.649018e+03) [K]
    Coulombic Fourier/kʙ   -5.685627e+03 (-5.429042e+03 +/- 2.205604e+02) [K]
    Molecule Intra/kʙ       0.000000e+00 ( 0.000000e+00 +/- 0.000000e+00) [K]

Current cycle: 5900 out of 6000
===============================================================================

Box:      26.13283   0.00000   0.00000  Average:  24.99703   0.00000   0.00000
           0.00000  26.13283   0.00000             0.00000  24.99703   0.00000
           0.00000   0.00000  26.13283             0.00000   0.00000  24.99703
Lengths:  26.13283  26.13283  26.13283  Average:  24.99703  24.99703  24.99703
Angles:   90.00000  90.00000  90.00000  Average:  90.00000  90.00000  90.00000
Rectangular boundary conditions

net charge:   0.00000000

component 0 (CO2) lambda:  0 occupancy:  0 (0.000000)
    net charge:   0.00000000 [e]

Amount of molecules per component :
-------------------------------------------------------------------------------
Component 0 (CO2)
    molecules:      1.980000e+02 molecules  (1.909442e+02 +/- 1.097159e+01)
    number density: 1.109446e-02 molec./A^3 (1.222524e-02 +/- 2.805485e-04)
    density:        8.105800e+02 kg/m^3     (8.931967e+02 +/- 2.049735e+01)

Average pressure tensor: 
-------------------------------------------------------------------------------
 2.6840e+01  7.0510e+00  1.9942e+01 +/- 3.1255e+01 2.3126e+01 2.3590e+01 [bar]
 7.0510e+00  2.8964e+01  6.4191e+00 +/- 2.3126e+01 1.4229e+01 3.2560e+01 [bar]
 1.9942e+01  6.4191e+00  4.7296e+01 +/- 2.3590e+01 3.2560e+01 5.4526e+01 [bar]
Ideal-gas pressure:   4.726058e+02 +/ 1.084550e+01 [bar]
Excess pressure:     -4.382391e+02 +/ 1.870095e+01 [bar]
Pressure:             3.436669e+01 +/ 1.969156e+01 [bar]

Total potential energy/kʙ  -2.217591e+05 (-2.372919e+05 +/- 1.000812e+04) [K]
-------------------------------------------------------------------------------
ExternalField-molecule
    Van der Waals/kʙ        0.000000e+00 ( 0.000000e+00 +/- 0.000000e+00) [K]
Framework-molecule
    Van der Waals/kʙ        0.000000e+00 ( 0.000000e+00 +/- 0.000000e+00) [K]
    Van der Waals (Tail)/kʙ 0.000000e+00 ( 0.000000e+00 +/- 0.000000e+00) [K]
    Coulombic Real/kʙ       0.000000e+00 ( 0.000000e+00 +/- 0.000000e+00) [K]
    Coulombic Fourier/kʙ    0.000000e+00 ( 0.000000e+00 +/- 0.000000e+00) [K]
Molecule-molecule
    Van der Waals/kʙ       -1.671112e+05 (-1.762692e+05 +/- 6.981154e+03) [K]
    Van der Waals (Tail)/kʙ-4.079505e+03 (-4.330635e+03 +/- 1.747763e+02) [K]
    Coulombic Real/kʙ      -4.594054e+04 (-5.126161e+04 +/- 2.653198e+03) [K]
    Coulombic Fourier/kʙ   -4.627932e+03 (-5.430443e+03 +/- 2.196464e+02) [K]
    Molecule Intra/kʙ       0.000000e+00 ( 0.000000e+00 +/- 0.000000e+00) [K]


Energy statistics             |  Energy [K]   | Recomputed [K]|  Drift [K]    |
===============================================================================
Total potential energy/kʙ     | -2.704939e+05 | -2.704939e+05 | -6.943895e-09 |
    external field VDW/kʙ     |  0.000000e+00 |  0.000000e+00 |  0.000000e+00 |
    external field Real/kʙ    |  0.000000e+00 |  0.000000e+00 |  0.000000e+00 |
    framework-molecule VDW/kʙ |  0.000000e+00 |  0.000000e+00 |  0.000000e+00 |
    framework-molecule Real/kʙ|  0.000000e+00 |  0.000000e+00 |  0.000000e+00 |
    molecule-molecule VDW/kʙ  | -2.009652e+05 | -2.009652e+05 | -5.600621e-10 |
    molecule-molecule Real/kʙ | -5.799031e+04 | -5.799031e+04 |  5.513112e-10 |
    Van der Waals (Tail)/kʙ   | -4.953523e+03 | -4.953523e+03 | -2.045539e-10 |
    Ewald Fourier/kʙ          |  5.823105e+03 |  5.823105e+03 | -9.844842e-12 |
    Ewald self/kʙ             | -3.875391e+06 | -3.875391e+06 | -2.240249e-09 |
    Ewald exclusion/kʙ        |  3.862983e+06 |  3.862983e+06 | -4.480497e-09 |
    intra VDW/kʙ              |  0.000000e+00 |  0.000000e+00 |  0.000000e+00 |
    intra Coulombic/kʙ        |  0.000000e+00 |  0.000000e+00 |  0.000000e+00 |
    polarization/kʙ           |  0.000000e+00 |  0.000000e+00 |  0.000000e+00 |
    dU/dlambda VDW/kʙ         |  0.000000e+00 |  0.000000e+00 |  0.000000e+00 |
    dU/dlambda Real/kʙ        |  0.000000e+00 |  0.000000e+00 |  0.000000e+00 |
    dU/dlambda Ewald/kʙ       |  0.000000e+00 |  0.000000e+00 |  0.000000e+00 |
-------------------------------------------------------------------------------


Monte-Carlo moves statistics
===============================================================================

    Gibbs volume         all:                2972
    Gibbs volume         total:              6017
    Gibbs volume         constructed:        6017
    Gibbs volume         accepted:           2974
    Gibbs volume         fraction:       0.494266
    Gibbs volume         max-change:     0.049497

Component 0 [CO2]
    Reinsertion (CBMC)   all:              149122
    Reinsertion (CBMC)   total:            149122
    Reinsertion (CBMC)   constructed:      146063
    Reinsertion (CBMC)   accepted:          13368
    Reinsertion (CBMC)   fraction:       0.089645
    Reinsertion (CBMC)   max-change:     0.000000

    Gibbs swap (CBMC)    all:              298734
    Gibbs swap (CBMC)    total:            596938
    Gibbs swap (CBMC)    constructed:      590476
    Gibbs swap (CBMC)    accepted:         107461
    Gibbs swap (CBMC)    fraction:       0.180020
    Gibbs swap (CBMC)    max-change:     0.000000

    Translation          all:              149641
    Translation          total:             50079      49639      49923
    Translation          constructed:       50079      49600      49923
    Translation          accepted:          28740      21590      31305
    Translation          fraction:       0.573893   0.434940   0.627066
    Translation          max-change:     0.773991   0.930295   0.695145

    Rotation             all:              150326
    Rotation             total:             50080      50377      49869
    Rotation             constructed:       50074      50377      49836
    Rotation             accepted:          24546      27386      21590
    Rotation             fraction:       0.490136   0.543621   0.432934
    Rotation             max-change:     0.879281   0.821542   0.967781



Production run counting of the MC moves summed over systems and components
===============================================================================

Reinsertion (CBMC)                   297772 (19.8515 [%])
Gibbs volume                           6017 (0.4011 [%])
Gibbs swap (CBMC)                    596938 (39.7959 [%])
Translation                          299201 (19.9467 [%])
Rotation                             300072 (20.0048 [%])

Production count MC-steps:          1500000 [-]
               All summed:          1500000 [-]
               difference:                0 [-]


Production run CPU timings of the MC moves
===============================================================================

Component 0 CO2

Rotation                             14.101240 [s]
    Ewald                             3.656564 [s]
    ExternalField-Molecule            0.006419 [s]
    Framework-Molecule                0.008266 [s]
    Molecule-Molecule                 9.978813 [s]
    Overhead                          0.451178 [s]

Reinsertion (CBMC)                   81.055095 [s]
    Ewald                             3.667447 [s]
    NonEwald                         77.174631 [s]
    Overhead                          0.213017 [s]

Translation                          14.091743 [s]
    Ewald                             3.643474 [s]
    ExternalField-Molecule            0.006781 [s]
    Framework-Molecule                0.011124 [s]
    Molecule-Molecule                 9.964879 [s]
    Overhead                          0.465485 [s]



Gibbs swap (CBMC)                   121.604962 [s]
    Ewald                            11.086042 [s]
    NonEwald                        108.652879 [s]
    Tail                              0.922934 [s]

Gibbs volume                         15.524258 [s]
    Ewald                             3.920802 [s]
    NonEwald                         10.987613 [s]
    Tail                              0.451702 [s]

Property sampling                     0.796076 [s]
Energy/pressure sampling:             4.658001 [s]


Production run CPU timings of the MC moves summed over systems and components
===============================================================================


Translation                          20.023853 [s]
    Ewald                             7.266618 [s]
    ExternalField-Molecule            0.013866 [s]
    Framework-Molecule                0.022514 [s]
    Molecule-Molecule                11.719145 [s]
    Overhead                          1.001710 [s]

Rotation                             20.047459 [s]
    Ewald                             7.305190 [s]
    ExternalField-Molecule            0.013164 [s]
    Framework-Molecule                0.016164 [s]
    Molecule-Molecule                11.719879 [s]
    Overhead                          0.993062 [s]

Reinsertion (CBMC)                  102.025007 [s]
    Ewald                             7.324890 [s]
    NonEwald                         94.081826 [s]
    Overhead                          0.618291 [s]

Gibbs volume                         31.449587 [s]
    Ewald                             7.948849 [s]
    NonEwald                         22.258668 [s]
    Tail                              0.914945 [s]
    Overhead                          0.327125 [s]

Gibbs swap (CBMC)                   248.464529 [s]
    Ewald                            22.370278 [s]
    NonEwald                        222.263915 [s]
    Tail                              1.890976 [s]
    Overhead                          1.939360 [s]

Property sampling:                    1.506249 [s]
Energy/pressure sampling:             5.403068 [s]

Production simulation time:         431.019888 [s]
                All summed:         428.919752 [s]
                  Overhead:           2.100136 [s]


Initalization simulation time:      121.680173 [s]
Equilibration simulation time:        0.000000 [s]
Production simulation time:         431.019888 [s]
Total simulation time:              552.700061 [s]


Energy averages and statistics:
===============================================================================

Framework-molecule energy:
-------------------------------------------------------------------------------



Framework-molecule energy contributions per energy type:
-------------------------------------------------------------------------------



Inter-molecular energy:
-------------------------------------------------------------------------------

    Inter-molecular energy/kʙ 0-0 [CO2-CO2]:
    ---------------------------------------------------------------------------
        Block[  0] -2.233998e+05
        Block[  1] -2.376692e+05
        Block[  2] -2.431718e+05
        Block[  3] -2.420269e+05
        Block[  4] -2.416955e+05
        -----------------------------------------------------------------------
        Average  -2.375926e+05 +/-  1.018199e+04 [K]



Inter-molecular energy contributions per energy type:
-------------------------------------------------------------------------------

    Van der Waals energy/kʙ 0-0 [CO2-CO2]:
    ---------------------------------------------------------------------------
        Block[  0] -1.666111e+05
        Block[  1] -1.764017e+05
        Block[  2] -1.805105e+05
        Block[  3] -1.793838e+05
        Block[  4] -1.794700e+05
        -----------------------------------------------------------------------
        Average  -1.764754e+05 +/-  7.105072e+03 [K]

    VDW Tail-Correction energy/kʙ 0-0 [CO2-CO2]:
    ---------------------------------------------------------------------------
        Block[  0] -4.088448e+03
        Block[  1] -4.337230e+03
        Block[  2] -4.438802e+03
        Block[  3] -4.407049e+03
        Block[  4] -4.410674e+03
        -----------------------------------------------------------------------
        Average  -4.336441e+03 +/-  1.782648e+02 [K]

    Coulomb Real energy/kʙ 0-0 [CO2-CO2]:
    ---------------------------------------------------------------------------
        Block[  0] -4.755369e+04
        Block[  1] -5.155419e+04
        Block[  2] -5.265331e+04
        Block[  3] -5.271891e+04
        Block[  4] -5.222360e+04
        -----------------------------------------------------------------------
        Average  -5.134074e+04 +/-  2.690638e+03 [K]

    Coulomb Fourier energy/kʙ 0-0 [CO2-CO2]:
    ---------------------------------------------------------------------------
        Block[  0] -5.146539e+03
        Block[  1] -5.376036e+03
        Block[  2] -5.569135e+03
        Block[  3] -5.517214e+03
        Block[  4] -5.591223e+03
        -----------------------------------------------------------------------
        Average  -5.440029e+03 +/-  2.286767e+02 [K]


Total energy/kʙ
-------------------------------------------------------------------------------
    Block[  0] -2.233998e+05
    Block[  1] -2.376692e+05
    Block[  2] -2.431718e+05
    Block[  3] -2.420269e+05
    Block[  4] -2.416955e+05
    ---------------------------------------------------------------------------
    Average  -2.375926e+05 +/-  1.018199e+04 [K]

Pressure averages and statistics:
===============================================================================

Average pressure tensor: 
-------------------------------------------------------------------------------
 2.5925e+01  7.2821e+00  2.1140e+01 +/- 3.1165e+01 2.3095e+01 2.1642e+01 [bar]
 7.2821e+00  3.1064e+01  4.9444e+00 +/- 2.3095e+01 1.7254e+01 3.4414e+01 [bar]
 2.1140e+01  4.9444e+00  4.7812e+01 +/- 2.1642e+01 3.4414e+01 5.0539e+01 [bar]

    Block[  0]  4.816127e+07
    Block[  1]  4.801906e+07
    Block[  2]  4.724179e+07
    Block[  3]  4.667590e+07
    Block[  4]  4.614144e+07
    ---------------------------------------------------------------------------
    Ideal gas pressure   4.724789e+07 +/-  6.453475e-02 [Pa]
                         4.724789e+02 +/-  1.071625e+01 [bar]


    Block[  0] -4.593823e+07
    Block[  1] -4.340199e+07
    Block[  2] -4.191679e+07
    Block[  3] -4.334878e+07
    Block[  4] -4.416684e+07
    ---------------------------------------------------------------------------
    Excess pressure  -4.375453e+07 +/-  1.820848e+06 [Pa]
                     -4.375453e+02 +/-  1.820848e+01 [bar]


    Block[  0]  2.223042e+06
    Block[  1]  4.617070e+06
    Block[  2]  5.325000e+06
    Block[  3]  3.327112e+06
    Block[  4]  1.974598e+06
    ---------------------------------------------------------------------------
    Pressure average   3.493364e+06 +/-  1.816702e+06 [Pa]
                       3.493364e+01 +/-  1.816702e+01 [bar]


Enthalpy of adsorption
===============================================================================

Component 0 [CO2]
-------------------------------------------------------------------------------
    Block[  0] -1.987246e+03
    Block[  1] -1.675932e+03
    Block[  2] -1.689126e+03
    Block[  3] -2.291837e+03
    Block[  4] -2.039904e+03
    ---------------------------------------------------------------------------
    Enthalpy of adsorption: -1.936809e+03 +/-  3.217175e+02 [K]
                            -1.610353e+01 +/-  2.674909e+00 [kJ/mol]
    Warning: need to subtract the ideal-gas energy.


Densities
===============================================================================

Component 0 (CO2)
    Block[  0] 176.89916666666667
    Block[  1] 188.12166666666667
    Block[  2] 195.12083333333334
    Block[  3] 196.81166666666667
    Block[  4] 199.28500000000003
    -----------------------------------------------------------------------
    Density average   1.912477e+02 +/-  1.121122e+01 [molecules]
    Density average   1.222196e-02 +/-  2.772051e-04 [molec/A^3]
    Density average   8.929570e+02 +/-  2.025308e+01 [kg.m⁻³]

