Compiler and run-time data
===============================================================================
RASPA 3.0.4

Random seed: 3181916230

Compiled as a 64-bits application
Compiler: gcc Clang 18.1.8
Compile Date = Mar 15 2025, Compile Time = 19:38:51

2025-06-03 15:40:38.452327
Simulation started on Tue, Jun 03
The start time was 15:40:00

Hostname:    1NNMVV3
OS type:     Linux on x86_64
OS release:  5.15.167.4-microsoft-standard-WSL2
OS version:  #1 SMP Tue Nov 5 00:21:55 UTC 2024


Mutual consistent basic set of units:
===============================================================================

Unit of temperature: 1 [K]
Unit of length:      1e-10 [m]
Unit of time:        1e-12 [s]
Unit of mass:        1.6605402e-27 [kg]
Unit of charge:      1.60217733e-19 [C/particle]


Boltzmann constant (internal units):          0.8314464919307584 [-]
represents conversion from energy (internal units) to temperature (in Kelvin)

Derived units and their conversion factors:
===============================================================================

Unit of energy:                           1.6605402000000002e-23 [J]
Unit of energy:                           10.000008872307538 [J.mol⁻¹]
Unit of velocity:                         100 [m.s⁻¹]
Unit of force:                            1.6605402000000002e-13 [N]
Unit of diffusion:                        1.0000000000000002e-08 [m².s⁻¹]
Unit of acceleration:                     1.0000000000000002e-08 [m².s⁻¹]
Unit of torque:                           1.6605402000000002e-23 [N.m]
Unit of pressure:                         16605402 [Pa]
Unit of volume:                           1e-30 [m³]
Unit of density:                          1660.5402 [kg.m⁻³]
Unit of dynamic viscosity:                1.6605401999999997e-05 [N.s.m⁻²]
Unit of enthalpy:                         1.6605402000000002e-23 [J]
Unit of polarizability:                   1.5458657349975198e-35 [-]
Unit of Coulomb potential:                167101.08000665612 [K]
Unit of dielectric constant:              1.5458657349975193e-05 [s².C².kg⁻¹.m⁻³]
Unit of dipole moment:                    1.60217733e-29 [C.m]
Unit of Debye:                            4.803206799099162 [C.m]
Unit of electric potential:               0.00010364272224473431 [V]
Unit of electric field:                   1036427.222447343 [V.m⁻¹]
Unit of isothermal compressibility:       6.02213665167516e-08 [Pa⁻¹]
Unit of heat capacity:                    10.000008872307538 [J.mol⁻¹.K⁻¹]
Unit of volumetric expansion coefficient: 1 [K⁻¹]


Internal conversion factors:
===============================================================================

Energy (internal units) to Kelvin:      1.202724284692786 [-]
Kelvin to energy (internal units):      0.8314457542157567 [-]


System definitions
===============================================================================

Temperature:          280 [K]
Beta:                 0.004295440062697377 [-]
Pressure:             0 [Pa]
Helium void fraction: 1 [-]

Box:      30.00000   0.00000   0.00000
           0.00000  30.00000   0.00000
           0.00000   0.00000  30.00000
Lengths:  30.00000  30.00000  30.00000
Angles:   90.00000  90.00000  90.00000
Rectangular boundary conditions



Property measurement settings
===============================================================================




Pseudo-atoms
===============================================================================

  0 - C_co2    framework-atom: false
  1 - O_co2    framework-atom: false

  0 - C_co2    mass: 12.00000, charge:  0.70000
  1 - O_co2    mass: 15.99940, charge: -0.35000

  0 - C_co2    polarizability:  0.00000
  1 - O_co2    polarizability:  0.00000

  0 - J. J. Potoff et al., AIChE J. 2001, 47, 1676–1682.
  1 - J. J. Potoff et al., AIChE J. 2001, 47, 1676–1682.

Force field status
===============================================================================

Cutoff Framework-Molecule VDW:  12.00000 [Å]
Cutoff Molecule-Molecule VDW:   12.00000 [Å]
Cutoff Coulomb:                 12.00000 [Å]

Overlap-criteria VDW:           1.000000e+05 [K]

C_co2    - C_co2    Lennard-Jones p₀/kʙ:  27.00000 [K], p₁:  2.80000 [Å]
                                  shift:   0.00000 [K], tailcorrections: true
C_co2    - O_co2    Lennard-Jones p₀/kʙ:  46.18441 [K], p₁:  2.92500 [Å]
                                  shift:   0.00000 [K], tailcorrections: true
O_co2    - O_co2    Lennard-Jones p₀/kʙ:  79.00000 [K], p₁:  3.05000 [Å]
                                  shift:   0.00000 [K], tailcorrections: true

Ewald precision: 1e-06
Ewald alpha: 0.26505830360350674
Ewald k-vectors: 8 8 8


Component definitions
===============================================================================

Component 0 [CO2]

    Type: Adsorbate

    Critical temperature:  304.1282 [K]
    Critical pressure:     7377300 [Pa]
    Acentric factor:       0.22394 [-]

    Mol-fraction:                 1 [-]
    Swappable:                   true

    Mass:                         43.9988 [-]
    Fugacity coefficient:         -nan [-]
    Bulk fluid density:           0 [-]
    Compressibility:              1 [-]
    Excess molecules:             0 [-]

    Number Of Atoms:    3
    CBMC starting bead: 0
      0: O_co2  position  0.00000 -0.00000  1.16000, charge -0.35000
      1: C_co2  position  0.00000 -0.00000  0.00000, charge  0.70000
      2: O_co2  position  0.00000 -0.00000 -1.16000, charge -0.35000
    Diagonalized inertia-vector:      43.05758528 43.05758528 0.00000000
    Translational degrees of freedom: 3
    Rotational degrees of freedom:    2
    Shape of the molecule is: 'Linear'
    Net-charge:        0.00000000 [e]

    Move probabilities:
    Translation:                   0.199203 [-]
    Random translation:            0.000000 [-]
    Rotation:                      0.199203 [-]
    Random rotation:               0.000000 [-]
    Volume change:                 0.000000 [-]
    Reinsertion (CBMC):            0.199203 [-]
    Identity change (CBMC):        0.000000 [-]
    Swap:                          0.000000 [-]
    Swap (CBMC):                   0.000000 [-]
    Swap (CFCMC):                  0.000000 [-]
    Swap (CB/CFCMC):               0.000000 [-]
    Gibbs volume:                  0.003984 [-]
    Gibbs swap (CBMC):             0.398406 [-]
    Gibbs swap (CFCMC):            0.000000 [-]
    Widom:                         0.000000 [-]
    Widom (CFCMC):                 0.000000 [-]
    Widom (CB/CFCMC):              0.000000 [-]
    Parallel tempering:            0.000000 [-]
    Hybrid MC:                     0.000000 [-]

    number of blocking-pockets: 0

    number of bonds: 0





Number of pseudo-atoms
===============================================================================

Component   0 (CO2)
-------------------------------------------------------------------------------
    index   0 (C_co2): 40 atoms
    index   1 (O_co2): 80 atoms

Total number of pseudo-atoms:
-------------------------------------------------------------------------------
    index   0 (C_co2): 40 atoms
    index   1 (O_co2): 80 atoms




Energy status Recomputed from scratch
===============================================================================

Total potential energy/kʙ       -5.411899e+03 [K]
    external field VDW/kʙ        0.000000e+00 [K]
    external field Real/kʙ       0.000000e+00 [K]
    framework-molecule VDW/kʙ    0.000000e+00 [K]
    framework-molecule Real/kʙ   0.000000e+00 [K]
    molecule-molecule VDW/kʙ    -5.173937e+03 [K]
    molecule-molecule Real/kʙ   -1.653036e+02 [K]
    Van der Waals (Tail)/kʙ     -1.100506e+02 [K]
    Ewald Fourier/kʙ             2.389618e+03 [K]
    Ewald self/kʙ               -7.346713e+05 [K]
    Ewald exclusion/kʙ           7.323191e+05 [K]
    intra VDW/kʙ                 0.000000e+00 [K]
    intra Coulombic/kʙ           0.000000e+00 [K]
    polarization/kʙ              0.000000e+00 [K]
    dU/dlambda VDW/kʙ            0.000000e+00 [K]
    dU/dlambda Real/kʙ           0.000000e+00 [K]
    dU/dlambda Ewald/kʙ          0.000000e+00 [K]





Initialization: Current cycle: 0 out of 2000
===============================================================================

Box:      30.00000   0.00000   0.00000
           0.00000  30.00000   0.00000
           0.00000   0.00000  30.00000
Lengths:  30.00000  30.00000  30.00000
Angles:   90.00000  90.00000  90.00000
Rectangular boundary conditions

net charge:   0.00000000

component   0 (CO2) lambda:  0 occupancy:  1 (1.000000)
    net charge:   0.00000000 [e]

Amount of molecules per component :
-------------------------------------------------------------------------------
Component 0 (CO2)
    molecules:         3.800000e+01 molecules
    number density:    1.407407e-03 molec/A^3
    density:           1.028276e+02 kg/m^3

Total potential energy/kʙ       -5.964065e+03 [K]
-------------------------------------------------------------------------------
    external field VDW/kʙ        0.000000e+00 [K]
    external field Real/kʙ       0.000000e+00 [K]
    framework-molecule VDW/kʙ    0.000000e+00 [K]
    framework-molecule Real/kʙ   0.000000e+00 [K]
    molecule-molecule VDW/kʙ    -4.557413e+03 [K]
    molecule-molecule Real/kʙ   -1.154602e+03 [K]
    Van der Waals (Tail)/kʙ     -9.932067e+01 [K]
    Ewald Fourier/kʙ             2.081885e+03 [K]
    Ewald self/kʙ               -6.979377e+05 [K]
    Ewald exclusion/kʙ           6.957031e+05 [K]
    intra VDW/kʙ                 0.000000e+00 [K]
    intra Coulombic/kʙ           0.000000e+00 [K]
    polarization/kʙ              0.000000e+00 [K]
    dU/dlambda VDW/kʙ            0.000000e+00 [K]
    dU/dlambda Real/kʙ           0.000000e+00 [K]
    dU/dlambda Ewald/kʙ          0.000000e+00 [K]


Initialization: Current cycle: 100 out of 2000
===============================================================================

Box:      30.46274   0.00000   0.00000
           0.00000  30.46274   0.00000
           0.00000   0.00000  30.46274
Lengths:  30.46274  30.46274  30.46274
Angles:   90.00000  90.00000  90.00000
Rectangular boundary conditions

net charge:   0.00000000

component   0 (CO2) lambda:  0 occupancy:  1 (1.000000)
    net charge:   0.00000000 [e]

Amount of molecules per component :
-------------------------------------------------------------------------------
Component 0 (CO2)
    molecules:         2.600000e+01 molecules
    number density:    9.197429e-04 molec/A^3
    density:           6.719799e+01 kg/m^3

Total potential energy/kʙ       -2.431391e+03 [K]
-------------------------------------------------------------------------------
    external field VDW/kʙ        0.000000e+00 [K]
    external field Real/kʙ       0.000000e+00 [K]
    framework-molecule VDW/kʙ    0.000000e+00 [K]
    framework-molecule Real/kʙ   0.000000e+00 [K]
    molecule-molecule VDW/kʙ    -1.973890e+03 [K]
    molecule-molecule Real/kʙ   -3.381279e+02 [K]
    Van der Waals (Tail)/kʙ     -4.440951e+01 [K]
    Ewald Fourier/kʙ             1.453983e+03 [K]
    Ewald self/kʙ               -4.775363e+05 [K]
    Ewald exclusion/kʙ           4.760074e+05 [K]
    intra VDW/kʙ                 0.000000e+00 [K]
    intra Coulombic/kʙ           0.000000e+00 [K]
    polarization/kʙ              0.000000e+00 [K]
    dU/dlambda VDW/kʙ            0.000000e+00 [K]
    dU/dlambda Real/kʙ           0.000000e+00 [K]
    dU/dlambda Ewald/kʙ          0.000000e+00 [K]


Initialization: Current cycle: 200 out of 2000
===============================================================================

Box:      31.44819   0.00000   0.00000
           0.00000  31.44819   0.00000
           0.00000   0.00000  31.44819
Lengths:  31.44819  31.44819  31.44819
Angles:   90.00000  90.00000  90.00000
Rectangular boundary conditions

net charge:   0.00000000

component   0 (CO2) lambda:  0 occupancy:  1 (1.000000)
    net charge:   0.00000000 [e]

Amount of molecules per component :
-------------------------------------------------------------------------------
Component 0 (CO2)
    molecules:         4.200000e+01 molecules
    number density:    1.350400e-03 molec/A^3
    density:           9.866255e+01 kg/m^3

Total potential energy/kʙ       -6.993801e+03 [K]
-------------------------------------------------------------------------------
    external field VDW/kʙ        0.000000e+00 [K]
    external field Real/kʙ       0.000000e+00 [K]
    framework-molecule VDW/kʙ    0.000000e+00 [K]
    framework-molecule Real/kʙ   0.000000e+00 [K]
    molecule-molecule VDW/kʙ    -5.418833e+03 [K]
    molecule-molecule Real/kʙ   -1.106834e+03 [K]
    Van der Waals (Tail)/kʙ     -1.053290e+02 [K]
    Ewald Fourier/kʙ             2.107032e+03 [K]
    Ewald self/kʙ               -7.714048e+05 [K]
    Ewald exclusion/kʙ           7.689350e+05 [K]
    intra VDW/kʙ                 0.000000e+00 [K]
    intra Coulombic/kʙ           0.000000e+00 [K]
    polarization/kʙ              0.000000e+00 [K]
    dU/dlambda VDW/kʙ            0.000000e+00 [K]
    dU/dlambda Real/kʙ           0.000000e+00 [K]
    dU/dlambda Ewald/kʙ          0.000000e+00 [K]


Initialization: Current cycle: 300 out of 2000
===============================================================================

Box:      31.32042   0.00000   0.00000
           0.00000  31.32042   0.00000
           0.00000   0.00000  31.32042
Lengths:  31.32042  31.32042  31.32042
Angles:   90.00000  90.00000  90.00000
Rectangular boundary conditions

net charge:   0.00000000

component   0 (CO2) lambda:  0 occupancy:  1 (1.000000)
    net charge:   0.00000000 [e]

Amount of molecules per component :
-------------------------------------------------------------------------------
Component 0 (CO2)
    molecules:         3.700000e+01 molecules
    number density:    1.204257e-03 molec/A^3
    density:           8.798504e+01 kg/m^3

Total potential energy/kʙ       -6.983702e+03 [K]
-------------------------------------------------------------------------------
    external field VDW/kʙ        0.000000e+00 [K]
    external field Real/kʙ       0.000000e+00 [K]
    framework-molecule VDW/kʙ    0.000000e+00 [K]
    framework-molecule Real/kʙ   0.000000e+00 [K]
    molecule-molecule VDW/kʙ    -5.035177e+03 [K]
    molecule-molecule Real/kʙ   -1.843392e+03 [K]
    Van der Waals (Tail)/kʙ     -8.274789e+01 [K]
    Ewald Fourier/kʙ             2.153424e+03 [K]
    Ewald self/kʙ               -6.795709e+05 [K]
    Ewald exclusion/kʙ           6.773951e+05 [K]
    intra VDW/kʙ                 0.000000e+00 [K]
    intra Coulombic/kʙ           0.000000e+00 [K]
    polarization/kʙ              0.000000e+00 [K]
    dU/dlambda VDW/kʙ            0.000000e+00 [K]
    dU/dlambda Real/kʙ           0.000000e+00 [K]
    dU/dlambda Ewald/kʙ          0.000000e+00 [K]


Initialization: Current cycle: 400 out of 2000
===============================================================================

Box:      32.09424   0.00000   0.00000
           0.00000  32.09424   0.00000
           0.00000   0.00000  32.09424
Lengths:  32.09424  32.09424  32.09424
Angles:   90.00000  90.00000  90.00000
Rectangular boundary conditions

net charge:   0.00000000

component   0 (CO2) lambda:  0 occupancy:  1 (1.000000)
    net charge:   0.00000000 [e]

Amount of molecules per component :
-------------------------------------------------------------------------------
Component 0 (CO2)
    molecules:         2.000000e+01 molecules
    number density:    6.049908e-04 molec/A^3
    density:           4.420166e+01 kg/m^3

Total potential energy/kʙ       -1.536448e+03 [K]
-------------------------------------------------------------------------------
    external field VDW/kʙ        0.000000e+00 [K]
    external field Real/kʙ       0.000000e+00 [K]
    framework-molecule VDW/kʙ    0.000000e+00 [K]
    framework-molecule Real/kʙ   0.000000e+00 [K]
    molecule-molecule VDW/kʙ    -1.377628e+03 [K]
    molecule-molecule Real/kʙ   -1.943203e+02 [K]
    Van der Waals (Tail)/kʙ     -2.247061e+01 [K]
    Ewald Fourier/kʙ             1.234083e+03 [K]
    Ewald self/kʙ               -3.673356e+05 [K]
    Ewald exclusion/kʙ           3.661595e+05 [K]
    intra VDW/kʙ                 0.000000e+00 [K]
    intra Coulombic/kʙ           0.000000e+00 [K]
    polarization/kʙ              0.000000e+00 [K]
    dU/dlambda VDW/kʙ            0.000000e+00 [K]
    dU/dlambda Real/kʙ           0.000000e+00 [K]
    dU/dlambda Ewald/kʙ          0.000000e+00 [K]


Initialization: Current cycle: 500 out of 2000
===============================================================================

Box:      32.12953   0.00000   0.00000
           0.00000  32.12953   0.00000
           0.00000   0.00000  32.12953
Lengths:  32.12953  32.12953  32.12953
Angles:   90.00000  90.00000  90.00000
Rectangular boundary conditions

net charge:   0.00000000

component   0 (CO2) lambda:  0 occupancy:  1 (1.000000)
    net charge:   0.00000000 [e]

Amount of molecules per component :
-------------------------------------------------------------------------------
Component 0 (CO2)
    molecules:         2.700000e+01 molecules
    number density:    8.140493e-04 molec/A^3
    density:           5.947583e+01 kg/m^3

Total potential energy/kʙ       -3.284756e+03 [K]
-------------------------------------------------------------------------------
    external field VDW/kʙ        0.000000e+00 [K]
    external field Real/kʙ       0.000000e+00 [K]
    framework-molecule VDW/kʙ    0.000000e+00 [K]
    framework-molecule Real/kʙ   0.000000e+00 [K]
    molecule-molecule VDW/kʙ    -1.965376e+03 [K]
    molecule-molecule Real/kʙ   -1.080663e+03 [K]
    Van der Waals (Tail)/kʙ     -4.081790e+01 [K]
    Ewald Fourier/kʙ             1.389852e+03 [K]
    Ewald self/kʙ               -4.959031e+05 [K]
    Ewald exclusion/kʙ           4.943154e+05 [K]
    intra VDW/kʙ                 0.000000e+00 [K]
    intra Coulombic/kʙ           0.000000e+00 [K]
    polarization/kʙ              0.000000e+00 [K]
    dU/dlambda VDW/kʙ            0.000000e+00 [K]
    dU/dlambda Real/kʙ           0.000000e+00 [K]
    dU/dlambda Ewald/kʙ          0.000000e+00 [K]


Initialization: Current cycle: 600 out of 2000
===============================================================================

Box:      32.16277   0.00000   0.00000
           0.00000  32.16277   0.00000
           0.00000   0.00000  32.16277
Lengths:  32.16277  32.16277  32.16277
Angles:   90.00000  90.00000  90.00000
Rectangular boundary conditions

net charge:   0.00000000

component   0 (CO2) lambda:  0 occupancy:  1 (1.000000)
    net charge:   0.00000000 [e]

Amount of molecules per component :
-------------------------------------------------------------------------------
Component 0 (CO2)
    molecules:         5.000000e+01 molecules
    number density:    1.502829e-03 molec/A^3
    density:           1.097992e+02 kg/m^3

Total potential energy/kʙ       -1.167695e+04 [K]
-------------------------------------------------------------------------------
    external field VDW/kʙ        0.000000e+00 [K]
    external field Real/kʙ       0.000000e+00 [K]
    framework-molecule VDW/kʙ    0.000000e+00 [K]
    framework-molecule Real/kʙ   0.000000e+00 [K]
    molecule-molecule VDW/kʙ    -9.878835e+03 [K]
    molecule-molecule Real/kʙ   -1.590289e+03 [K]
    Van der Waals (Tail)/kʙ     -1.395455e+02 [K]
    Ewald Fourier/kʙ             2.872001e+03 [K]
    Ewald self/kʙ               -9.183391e+05 [K]
    Ewald exclusion/kʙ           9.153988e+05 [K]
    intra VDW/kʙ                 0.000000e+00 [K]
    intra Coulombic/kʙ           0.000000e+00 [K]
    polarization/kʙ              0.000000e+00 [K]
    dU/dlambda VDW/kʙ            0.000000e+00 [K]
    dU/dlambda Real/kʙ           0.000000e+00 [K]
    dU/dlambda Ewald/kʙ          0.000000e+00 [K]


Initialization: Current cycle: 700 out of 2000
===============================================================================

Box:      32.68923   0.00000   0.00000
           0.00000  32.68923   0.00000
           0.00000   0.00000  32.68923
Lengths:  32.68923  32.68923  32.68923
Angles:   90.00000  90.00000  90.00000
Rectangular boundary conditions

net charge:   0.00000000

component   0 (CO2) lambda:  0 occupancy:  1 (1.000000)
    net charge:   0.00000000 [e]

Amount of molecules per component :
-------------------------------------------------------------------------------
Component 0 (CO2)
    molecules:         5.100000e+01 molecules
    number density:    1.460011e-03 molec/A^3
    density:           1.066709e+02 kg/m^3

Total potential energy/kʙ       -9.604089e+03 [K]
-------------------------------------------------------------------------------
    external field VDW/kʙ        0.000000e+00 [K]
    external field Real/kʙ       0.000000e+00 [K]
    framework-molecule VDW/kʙ    0.000000e+00 [K]
    framework-molecule Real/kʙ   0.000000e+00 [K]
    molecule-molecule VDW/kʙ    -8.110478e+03 [K]
    molecule-molecule Real/kʙ   -1.190832e+03 [K]
    Van der Waals (Tail)/kʙ     -1.382810e+02 [K]
    Ewald Fourier/kʙ             2.834591e+03 [K]
    Ewald self/kʙ               -9.367059e+05 [K]
    Ewald exclusion/kʙ           9.337068e+05 [K]
    intra VDW/kʙ                 0.000000e+00 [K]
    intra Coulombic/kʙ           0.000000e+00 [K]
    polarization/kʙ              0.000000e+00 [K]
    dU/dlambda VDW/kʙ            0.000000e+00 [K]
    dU/dlambda Real/kʙ           0.000000e+00 [K]
    dU/dlambda Ewald/kʙ          0.000000e+00 [K]


Initialization: Current cycle: 800 out of 2000
===============================================================================

Box:      33.08429   0.00000   0.00000
           0.00000  33.08429   0.00000
           0.00000   0.00000  33.08429
Lengths:  33.08429  33.08429  33.08429
Angles:   90.00000  90.00000  90.00000
Rectangular boundary conditions

net charge:   0.00000000

component   0 (CO2) lambda:  0 occupancy:  1 (1.000000)
    net charge:   0.00000000 [e]

Amount of molecules per component :
-------------------------------------------------------------------------------
Component 0 (CO2)
    molecules:         4.600000e+01 molecules
    number density:    1.270259e-03 molec/A^3
    density:           9.280732e+01 kg/m^3

Total potential energy/kʙ       -7.901796e+03 [K]
-------------------------------------------------------------------------------
    external field VDW/kʙ        0.000000e+00 [K]
    external field Real/kʙ       0.000000e+00 [K]
    framework-molecule VDW/kʙ    0.000000e+00 [K]
    framework-molecule Real/kʙ   0.000000e+00 [K]
    molecule-molecule VDW/kʙ    -5.481433e+03 [K]
    molecule-molecule Real/kʙ   -2.007206e+03 [K]
    Van der Waals (Tail)/kʙ     -1.085142e+02 [K]
    Ewald Fourier/kʙ             2.400417e+03 [K]
    Ewald self/kʙ               -8.448720e+05 [K]
    Ewald exclusion/kʙ           8.421669e+05 [K]
    intra VDW/kʙ                 0.000000e+00 [K]
    intra Coulombic/kʙ           0.000000e+00 [K]
    polarization/kʙ              0.000000e+00 [K]
    dU/dlambda VDW/kʙ            0.000000e+00 [K]
    dU/dlambda Real/kʙ           0.000000e+00 [K]
    dU/dlambda Ewald/kʙ          0.000000e+00 [K]


Initialization: Current cycle: 900 out of 2000
===============================================================================

Box:      33.05963   0.00000   0.00000
           0.00000  33.05963   0.00000
           0.00000   0.00000  33.05963
Lengths:  33.05963  33.05963  33.05963
Angles:   90.00000  90.00000  90.00000
Rectangular boundary conditions

net charge:   0.00000000

component   0 (CO2) lambda:  0 occupancy:  1 (1.000000)
    net charge:   0.00000000 [e]

Amount of molecules per component :
-------------------------------------------------------------------------------
Component 0 (CO2)
    molecules:         3.700000e+01 molecules
    number density:    1.024018e-03 molec/A^3
    density:           7.481651e+01 kg/m^3

Total potential energy/kʙ       -4.177769e+03 [K]
-------------------------------------------------------------------------------
    external field VDW/kʙ        0.000000e+00 [K]
    external field Real/kʙ       0.000000e+00 [K]
    framework-molecule VDW/kʙ    0.000000e+00 [K]
    framework-molecule Real/kʙ   0.000000e+00 [K]
    molecule-molecule VDW/kʙ    -3.617915e+03 [K]
    molecule-molecule Real/kʙ   -3.298313e+02 [K]
    Van der Waals (Tail)/kʙ     -7.036320e+01 [K]
    Ewald Fourier/kʙ             2.016149e+03 [K]
    Ewald self/kʙ               -6.795709e+05 [K]
    Ewald exclusion/kʙ           6.773951e+05 [K]
    intra VDW/kʙ                 0.000000e+00 [K]
    intra Coulombic/kʙ           0.000000e+00 [K]
    polarization/kʙ              0.000000e+00 [K]
    dU/dlambda VDW/kʙ            0.000000e+00 [K]
    dU/dlambda Real/kʙ           0.000000e+00 [K]
    dU/dlambda Ewald/kʙ          0.000000e+00 [K]


Initialization: Current cycle: 1000 out of 2000
===============================================================================

Box:      33.18120   0.00000   0.00000
           0.00000  33.18120   0.00000
           0.00000   0.00000  33.18120
Lengths:  33.18120  33.18120  33.18120
Angles:   90.00000  90.00000  90.00000
Rectangular boundary conditions

net charge:   0.00000000

component   0 (CO2) lambda:  0 occupancy:  1 (1.000000)
    net charge:   0.00000000 [e]

Amount of molecules per component :
-------------------------------------------------------------------------------
Component 0 (CO2)
    molecules:         4.600000e+01 molecules
    number density:    1.259162e-03 molec/A^3
    density:           9.199650e+01 kg/m^3

Total potential energy/kʙ       -1.125798e+04 [K]
-------------------------------------------------------------------------------
    external field VDW/kʙ        0.000000e+00 [K]
    external field Real/kʙ       0.000000e+00 [K]
    framework-molecule VDW/kʙ    0.000000e+00 [K]
    framework-molecule Real/kʙ   0.000000e+00 [K]
    molecule-molecule VDW/kʙ    -8.680783e+03 [K]
    molecule-molecule Real/kʙ   -2.320053e+03 [K]
    Van der Waals (Tail)/kʙ     -1.075661e+02 [K]
    Ewald Fourier/kʙ             2.555485e+03 [K]
    Ewald self/kʙ               -8.448720e+05 [K]
    Ewald exclusion/kʙ           8.421669e+05 [K]
    intra VDW/kʙ                 0.000000e+00 [K]
    intra Coulombic/kʙ           0.000000e+00 [K]
    polarization/kʙ              0.000000e+00 [K]
    dU/dlambda VDW/kʙ            0.000000e+00 [K]
    dU/dlambda Real/kʙ           0.000000e+00 [K]
    dU/dlambda Ewald/kʙ          0.000000e+00 [K]


Initialization: Current cycle: 1100 out of 2000
===============================================================================

Box:      32.94904   0.00000   0.00000
           0.00000  32.94904   0.00000
           0.00000   0.00000  32.94904
Lengths:  32.94904  32.94904  32.94904
Angles:   90.00000  90.00000  90.00000
Rectangular boundary conditions

net charge:   0.00000000

component   0 (CO2) lambda:  0 occupancy:  1 (1.000000)
    net charge:   0.00000000 [e]

Amount of molecules per component :
-------------------------------------------------------------------------------
Component 0 (CO2)
    molecules:         5.300000e+01 molecules
    number density:    1.481657e-03 molec/A^3
    density:           1.082524e+02 kg/m^3

Total potential energy/kʙ       -1.255175e+04 [K]
-------------------------------------------------------------------------------
    external field VDW/kʙ        0.000000e+00 [K]
    external field Real/kʙ       0.000000e+00 [K]
    framework-molecule VDW/kʙ    0.000000e+00 [K]
    framework-molecule Real/kʙ   0.000000e+00 [K]
    molecule-molecule VDW/kʙ    -8.455461e+03 [K]
    molecule-molecule Real/kʙ   -3.672931e+03 [K]
    Van der Waals (Tail)/kʙ     -1.458343e+02 [K]
    Ewald Fourier/kʙ             2.839173e+03 [K]
    Ewald self/kʙ               -9.734395e+05 [K]
    Ewald exclusion/kʙ           9.703228e+05 [K]
    intra VDW/kʙ                 0.000000e+00 [K]
    intra Coulombic/kʙ           0.000000e+00 [K]
    polarization/kʙ              0.000000e+00 [K]
    dU/dlambda VDW/kʙ            0.000000e+00 [K]
    dU/dlambda Real/kʙ           0.000000e+00 [K]
    dU/dlambda Ewald/kʙ          0.000000e+00 [K]


Initialization: Current cycle: 1200 out of 2000
===============================================================================

Box:      33.39578   0.00000   0.00000
           0.00000  33.39578   0.00000
           0.00000   0.00000  33.39578
Lengths:  33.39578  33.39578  33.39578
Angles:   90.00000  90.00000  90.00000
Rectangular boundary conditions

net charge:   0.00000000

component   0 (CO2) lambda:  0 occupancy:  1 (1.000000)
    net charge:   0.00000000 [e]

Amount of molecules per component :
-------------------------------------------------------------------------------
Component 0 (CO2)
    molecules:         6.000000e+01 molecules
    number density:    1.610930e-03 molec/A^3
    density:           1.176973e+02 kg/m^3

Total potential energy/kʙ       -1.435504e+04 [K]
-------------------------------------------------------------------------------
    external field VDW/kʙ        0.000000e+00 [K]
    external field Real/kʙ       0.000000e+00 [K]
    framework-molecule VDW/kʙ    0.000000e+00 [K]
    framework-molecule Real/kʙ   0.000000e+00 [K]
    molecule-molecule VDW/kʙ    -1.215419e+04 [K]
    molecule-molecule Real/kʙ   -1.936426e+03 [K]
    Van der Waals (Tail)/kʙ     -1.794998e+02 [K]
    Ewald Fourier/kʙ             3.443417e+03 [K]
    Ewald self/kʙ               -1.102007e+06 [K]
    Ewald exclusion/kʙ           1.098479e+06 [K]
    intra VDW/kʙ                 0.000000e+00 [K]
    intra Coulombic/kʙ           0.000000e+00 [K]
    polarization/kʙ              0.000000e+00 [K]
    dU/dlambda VDW/kʙ            0.000000e+00 [K]
    dU/dlambda Real/kʙ           0.000000e+00 [K]
    dU/dlambda Ewald/kʙ          0.000000e+00 [K]


Initialization: Current cycle: 1300 out of 2000
===============================================================================

Box:      33.36850   0.00000   0.00000
           0.00000  33.36850   0.00000
           0.00000   0.00000  33.36850
Lengths:  33.36850  33.36850  33.36850
Angles:   90.00000  90.00000  90.00000
Rectangular boundary conditions

net charge:   0.00000000

component   0 (CO2) lambda:  0 occupancy:  1 (1.000000)
    net charge:   0.00000000 [e]

Amount of molecules per component :
-------------------------------------------------------------------------------
Component 0 (CO2)
    molecules:         4.200000e+01 molecules
    number density:    1.130418e-03 molec/A^3
    density:           8.259029e+01 kg/m^3

Total potential energy/kʙ       -6.037170e+03 [K]
-------------------------------------------------------------------------------
    external field VDW/kʙ        0.000000e+00 [K]
    external field Real/kʙ       0.000000e+00 [K]
    framework-molecule VDW/kʙ    0.000000e+00 [K]
    framework-molecule Real/kʙ   0.000000e+00 [K]
    molecule-molecule VDW/kʙ    -4.777850e+03 [K]
    molecule-molecule Real/kʙ   -1.066010e+03 [K]
    Van der Waals (Tail)/kʙ     -8.817077e+01 [K]
    Ewald Fourier/kʙ             2.364698e+03 [K]
    Ewald self/kʙ               -7.714048e+05 [K]
    Ewald exclusion/kʙ           7.689350e+05 [K]
    intra VDW/kʙ                 0.000000e+00 [K]
    intra Coulombic/kʙ           0.000000e+00 [K]
    polarization/kʙ              0.000000e+00 [K]
    dU/dlambda VDW/kʙ            0.000000e+00 [K]
    dU/dlambda Real/kʙ           0.000000e+00 [K]
    dU/dlambda Ewald/kʙ          0.000000e+00 [K]


Initialization: Current cycle: 1400 out of 2000
===============================================================================

Box:      33.75799   0.00000   0.00000
           0.00000  33.75799   0.00000
           0.00000   0.00000  33.75799
Lengths:  33.75799  33.75799  33.75799
Angles:   90.00000  90.00000  90.00000
Rectangular boundary conditions

net charge:   0.00000000

component   0 (CO2) lambda:  0 occupancy:  1 (1.000000)
    net charge:   0.00000000 [e]

Amount of molecules per component :
-------------------------------------------------------------------------------
Component 0 (CO2)
    molecules:         5.300000e+01 molecules
    number density:    1.377673e-03 molec/A^3
    density:           1.006552e+02 kg/m^3

Total potential energy/kʙ       -1.036243e+04 [K]
-------------------------------------------------------------------------------
    external field VDW/kʙ        0.000000e+00 [K]
    external field Real/kʙ       0.000000e+00 [K]
    framework-molecule VDW/kʙ    0.000000e+00 [K]
    framework-molecule Real/kʙ   0.000000e+00 [K]
    molecule-molecule VDW/kʙ    -7.917438e+03 [K]
    molecule-molecule Real/kʙ   -2.106545e+03 [K]
    Van der Waals (Tail)/kʙ     -1.355996e+02 [K]
    Ewald Fourier/kʙ             2.913854e+03 [K]
    Ewald self/kʙ               -9.734395e+05 [K]
    Ewald exclusion/kʙ           9.703228e+05 [K]
    intra VDW/kʙ                 0.000000e+00 [K]
    intra Coulombic/kʙ           0.000000e+00 [K]
    polarization/kʙ              0.000000e+00 [K]
    dU/dlambda VDW/kʙ            0.000000e+00 [K]
    dU/dlambda Real/kʙ           0.000000e+00 [K]
    dU/dlambda Ewald/kʙ          0.000000e+00 [K]


Initialization: Current cycle: 1500 out of 2000
===============================================================================

Box:      33.68289   0.00000   0.00000
           0.00000  33.68289   0.00000
           0.00000   0.00000  33.68289
Lengths:  33.68289  33.68289  33.68289
Angles:   90.00000  90.00000  90.00000
Rectangular boundary conditions

net charge:   0.00000000

component   0 (CO2) lambda:  0 occupancy:  1 (1.000000)
    net charge:   0.00000000 [e]

Amount of molecules per component :
-------------------------------------------------------------------------------
Component 0 (CO2)
    molecules:         5.600000e+01 molecules
    number density:    1.465413e-03 molec/A^3
    density:           1.070656e+02 kg/m^3

Total potential energy/kʙ       -1.084710e+04 [K]
-------------------------------------------------------------------------------
    external field VDW/kʙ        0.000000e+00 [K]
    external field Real/kʙ       0.000000e+00 [K]
    framework-molecule VDW/kʙ    0.000000e+00 [K]
    framework-molecule Real/kʙ   0.000000e+00 [K]
    molecule-molecule VDW/kʙ    -8.007982e+03 [K]
    molecule-molecule Real/kʙ   -2.495455e+03 [K]
    Van der Waals (Tail)/kʙ     -1.523997e+02 [K]
    Ewald Fourier/kʙ             3.101853e+03 [K]
    Ewald self/kʙ               -1.028540e+06 [K]
    Ewald exclusion/kʙ           1.025247e+06 [K]
    intra VDW/kʙ                 0.000000e+00 [K]
    intra Coulombic/kʙ           0.000000e+00 [K]
    polarization/kʙ              0.000000e+00 [K]
    dU/dlambda VDW/kʙ            0.000000e+00 [K]
    dU/dlambda Real/kʙ           0.000000e+00 [K]
    dU/dlambda Ewald/kʙ          0.000000e+00 [K]


Initialization: Current cycle: 1600 out of 2000
===============================================================================

Box:      33.84896   0.00000   0.00000
           0.00000  33.84896   0.00000
           0.00000   0.00000  33.84896
Lengths:  33.84896  33.84896  33.84896
Angles:   90.00000  90.00000  90.00000
Rectangular boundary conditions

net charge:   0.00000000

component   0 (CO2) lambda:  0 occupancy:  1 (1.000000)
    net charge:   0.00000000 [e]

Amount of molecules per component :
-------------------------------------------------------------------------------
Component 0 (CO2)
    molecules:         6.300000e+01 molecules
    number density:    1.624444e-03 molec/A^3
    density:           1.186846e+02 kg/m^3

Total potential energy/kʙ       -1.208512e+04 [K]
-------------------------------------------------------------------------------
    external field VDW/kʙ        0.000000e+00 [K]
    external field Real/kʙ       0.000000e+00 [K]
    framework-molecule VDW/kʙ    0.000000e+00 [K]
    framework-molecule Real/kʙ   0.000000e+00 [K]
    molecule-molecule VDW/kʙ    -8.449328e+03 [K]
    molecule-molecule Real/kʙ   -3.268995e+03 [K]
    Van der Waals (Tail)/kʙ     -1.900559e+02 [K]
    Ewald Fourier/kʙ             3.528012e+03 [K]
    Ewald self/kʙ               -1.157107e+06 [K]
    Ewald exclusion/kʙ           1.153403e+06 [K]
    intra VDW/kʙ                 0.000000e+00 [K]
    intra Coulombic/kʙ           0.000000e+00 [K]
    polarization/kʙ              0.000000e+00 [K]
    dU/dlambda VDW/kʙ            0.000000e+00 [K]
    dU/dlambda Real/kʙ           0.000000e+00 [K]
    dU/dlambda Ewald/kʙ          0.000000e+00 [K]


Initialization: Current cycle: 1700 out of 2000
===============================================================================

Box:      33.52435   0.00000   0.00000
           0.00000  33.52435   0.00000
           0.00000   0.00000  33.52435
Lengths:  33.52435  33.52435  33.52435
Angles:   90.00000  90.00000  90.00000
Rectangular boundary conditions

net charge:   0.00000000

component   0 (CO2) lambda:  0 occupancy:  1 (1.000000)
    net charge:   0.00000000 [e]

Amount of molecules per component :
-------------------------------------------------------------------------------
Component 0 (CO2)
    molecules:         6.700000e+01 molecules
    number density:    1.778253e-03 molec/A^3
    density:           1.299222e+02 kg/m^3

Total potential energy/kʙ       -1.306405e+04 [K]
-------------------------------------------------------------------------------
    external field VDW/kʙ        0.000000e+00 [K]
    external field Real/kʙ       0.000000e+00 [K]
    framework-molecule VDW/kʙ    0.000000e+00 [K]
    framework-molecule Real/kʙ   0.000000e+00 [K]
    molecule-molecule VDW/kʙ    -1.077473e+04 [K]
    molecule-molecule Real/kʙ   -1.829526e+03 [K]
    Van der Waals (Tail)/kʙ     -2.212609e+02 [K]
    Ewald Fourier/kʙ             3.701448e+03 [K]
    Ewald self/kʙ               -1.230574e+06 [K]
    Ewald exclusion/kʙ           1.226634e+06 [K]
    intra VDW/kʙ                 0.000000e+00 [K]
    intra Coulombic/kʙ           0.000000e+00 [K]
    polarization/kʙ              0.000000e+00 [K]
    dU/dlambda VDW/kʙ            0.000000e+00 [K]
    dU/dlambda Real/kʙ           0.000000e+00 [K]
    dU/dlambda Ewald/kʙ          0.000000e+00 [K]


Initialization: Current cycle: 1800 out of 2000
===============================================================================

Box:      33.48771   0.00000   0.00000
           0.00000  33.48771   0.00000
           0.00000   0.00000  33.48771
Lengths:  33.48771  33.48771  33.48771
Angles:   90.00000  90.00000  90.00000
Rectangular boundary conditions

net charge:   0.00000000

component   0 (CO2) lambda:  0 occupancy:  1 (1.000000)
    net charge:   0.00000000 [e]

Amount of molecules per component :
-------------------------------------------------------------------------------
Component 0 (CO2)
    molecules:         4.800000e+01 molecules
    number density:    1.278158e-03 molec/A^3
    density:           9.338444e+01 kg/m^3

Total potential energy/kʙ       -1.201375e+04 [K]
-------------------------------------------------------------------------------
    external field VDW/kʙ        0.000000e+00 [K]
    external field Real/kʙ       0.000000e+00 [K]
    framework-molecule VDW/kʙ    0.000000e+00 [K]
    framework-molecule Real/kʙ   0.000000e+00 [K]
    molecule-molecule VDW/kʙ    -8.349483e+03 [K]
    molecule-molecule Real/kʙ   -3.465523e+03 [K]
    Van der Waals (Tail)/kʙ     -1.139363e+02 [K]
    Ewald Fourier/kʙ             2.737862e+03 [K]
    Ewald self/kʙ               -8.816055e+05 [K]
    Ewald exclusion/kʙ           8.787829e+05 [K]
    intra VDW/kʙ                 0.000000e+00 [K]
    intra Coulombic/kʙ           0.000000e+00 [K]
    polarization/kʙ              0.000000e+00 [K]
    dU/dlambda VDW/kʙ            0.000000e+00 [K]
    dU/dlambda Real/kʙ           0.000000e+00 [K]
    dU/dlambda Ewald/kʙ          0.000000e+00 [K]


Initialization: Current cycle: 1900 out of 2000
===============================================================================

Box:      33.56233   0.00000   0.00000
           0.00000  33.56233   0.00000
           0.00000   0.00000  33.56233
Lengths:  33.56233  33.56233  33.56233
Angles:   90.00000  90.00000  90.00000
Rectangular boundary conditions

net charge:   0.00000000

component   0 (CO2) lambda:  0 occupancy:  1 (1.000000)
    net charge:   0.00000000 [e]

Amount of molecules per component :
-------------------------------------------------------------------------------
Component 0 (CO2)
    molecules:         6.800000e+01 molecules
    number density:    1.798675e-03 molec/A^3
    density:           1.314142e+02 kg/m^3

Total potential energy/kʙ       -1.387807e+04 [K]
-------------------------------------------------------------------------------
    external field VDW/kʙ        0.000000e+00 [K]
    external field Real/kʙ       0.000000e+00 [K]
    framework-molecule VDW/kʙ    0.000000e+00 [K]
    framework-molecule Real/kʙ   0.000000e+00 [K]
    molecule-molecule VDW/kʙ    -1.136950e+04 [K]
    molecule-molecule Real/kʙ   -2.140689e+03 [K]
    Van der Waals (Tail)/kʙ     -2.271422e+02 [K]
    Ewald Fourier/kʙ             3.858050e+03 [K]
    Ewald self/kʙ               -1.248941e+06 [K]
    Ewald exclusion/kʙ           1.244942e+06 [K]
    intra VDW/kʙ                 0.000000e+00 [K]
    intra Coulombic/kʙ           0.000000e+00 [K]
    polarization/kʙ              0.000000e+00 [K]
    dU/dlambda VDW/kʙ            0.000000e+00 [K]
    dU/dlambda Real/kʙ           0.000000e+00 [K]
    dU/dlambda Ewald/kʙ          0.000000e+00 [K]


Current cycle: 0 out of 6000
===============================================================================

Box:      33.77666   0.00000   0.00000  Average:  33.77666   0.00000   0.00000
           0.00000  33.77666   0.00000             0.00000  33.77666   0.00000
           0.00000   0.00000  33.77666             0.00000   0.00000  33.77666
Lengths:  33.77666  33.77666  33.77666  Average:  33.77666  33.77666  33.77666
Angles:   90.00000  90.00000  90.00000  Average:  90.00000  90.00000  90.00000
Rectangular boundary conditions

net charge:   0.00000000

component 0 (CO2) lambda:  0 occupancy:  1 (1.000000)
    net charge:   0.00000000 [e]

Amount of molecules per component :
-------------------------------------------------------------------------------
Component 0 (CO2)
    molecules:      6.300000e+01 molecules  (6.300000e+01 +/- 0.000000e+00)
    number density: 1.634896e-03 molec./A^3 (1.634896e-03 +/- 0.000000e+00)
    density:        1.194483e+02 kg/m^3     (1.194483e+02 +/- 0.000000e+00)

Average pressure tensor: 
-------------------------------------------------------------------------------
 6.3202e+01  0.0000e+00  0.0000e+00 +/- 0.0000e+00 0.0000e+00 0.0000e+00 [bar]
 0.0000e+00  6.3202e+01  0.0000e+00 +/- 0.0000e+00 0.0000e+00 0.0000e+00 [bar]
 0.0000e+00  0.0000e+00  6.3202e+01 +/- 0.0000e+00 0.0000e+00 0.0000e+00 [bar]
Ideal-gas pressure:   6.320217e+01 +/ 0.000000e+00 [bar]
Excess pressure:      0.000000e+00 +/ 0.000000e+00 [bar]
Pressure:             6.320217e+01 +/ 0.000000e+00 [bar]

Total potential energy/kʙ  -1.382744e+04 (-1.382744e+04 +/- 0.000000e+00) [K]
-------------------------------------------------------------------------------
ExternalField-molecule
    Van der Waals/kʙ        0.000000e+00 ( 0.000000e+00 +/- 0.000000e+00) [K]
Framework-molecule
    Van der Waals/kʙ        0.000000e+00 ( 0.000000e+00 +/- 0.000000e+00) [K]
    Van der Waals (Tail)/kʙ 0.000000e+00 ( 0.000000e+00 +/- 0.000000e+00) [K]
    Coulombic Real/kʙ       0.000000e+00 ( 0.000000e+00 +/- 0.000000e+00) [K]
    Coulombic Fourier/kʙ    0.000000e+00 ( 0.000000e+00 +/- 0.000000e+00) [K]
Molecule-molecule
    Van der Waals/kʙ       -9.065971e+03 (-9.065971e+03 +/- 0.000000e+00) [K]
    Van der Waals (Tail)/kʙ-1.912789e+02 (-1.912789e+02 +/- 0.000000e+00) [K]
    Coulombic Real/kʙ      -4.238512e+03 (-4.238512e+03 +/- 0.000000e+00) [K]
    Coulombic Fourier/kʙ   -3.316767e+02 (-3.316767e+02 +/- 0.000000e+00) [K]
    Molecule Intra/kʙ       0.000000e+00 ( 0.000000e+00 +/- 0.000000e+00) [K]

Current cycle: 100 out of 6000
===============================================================================

Box:      33.90719   0.00000   0.00000  Average:  33.81713   0.00000   0.00000
           0.00000  33.90719   0.00000             0.00000  33.81713   0.00000
           0.00000   0.00000  33.90719             0.00000   0.00000  33.81713
Lengths:  33.90719  33.90719  33.90719  Average:  33.81713  33.81713  33.81713
Angles:   90.00000  90.00000  90.00000  Average:  90.00000  90.00000  90.00000
Rectangular boundary conditions

net charge:   0.00000000

component 0 (CO2) lambda:  0 occupancy:  1 (1.000000)
    net charge:   0.00000000 [e]

Amount of molecules per component :
-------------------------------------------------------------------------------
Component 0 (CO2)
    molecules:      5.400000e+01 molecules  (6.267327e+01 +/- 0.000000e+00)
    number density: 1.385218e-03 molec./A^3 (1.620571e-03 +/- 0.000000e+00)
    density:        1.012064e+02 kg/m^3     (1.184017e+02 +/- 0.000000e+00)

Average pressure tensor: 
-------------------------------------------------------------------------------
 3.9537e+01  3.3037e+00 -7.5519e+00 +/- 0.0000e+00 0.0000e+00 0.0000e+00 [bar]
 3.3037e+00  3.5098e+01  7.1520e+00 +/- 0.0000e+00 0.0000e+00 0.0000e+00 [bar]
-7.5519e+00  7.1520e+00  4.3515e+01 +/- 0.0000e+00 0.0000e+00 0.0000e+00 [bar]
Ideal-gas pressure:   6.264838e+01 +/ 0.000000e+00 [bar]
Excess pressure:     -2.326482e+01 +/ 0.000000e+00 [bar]
Pressure:             3.938356e+01 +/ 0.000000e+00 [bar]

Total potential energy/kʙ  -9.271871e+03 (-1.349913e+04 +/- 0.000000e+00) [K]
-------------------------------------------------------------------------------
ExternalField-molecule
    Van der Waals/kʙ        0.000000e+00 ( 0.000000e+00 +/- 0.000000e+00) [K]
Framework-molecule
    Van der Waals/kʙ        0.000000e+00 ( 0.000000e+00 +/- 0.000000e+00) [K]
    Van der Waals (Tail)/kʙ 0.000000e+00 ( 0.000000e+00 +/- 0.000000e+00) [K]
    Coulombic Real/kʙ       0.000000e+00 ( 0.000000e+00 +/- 0.000000e+00) [K]
    Coulombic Fourier/kʙ    0.000000e+00 ( 0.000000e+00 +/- 0.000000e+00) [K]
Molecule-molecule
    Van der Waals/kʙ       -7.313838e+03 (-9.930733e+03 +/- 0.000000e+00) [K]
    Van der Waals (Tail)/kʙ-1.389147e+02 (-1.898646e+02 +/- 0.000000e+00) [K]
    Coulombic Real/kʙ      -1.822148e+03 (-3.153674e+03 +/- 0.000000e+00) [K]
    Coulombic Fourier/kʙ    3.029428e+00 (-2.248597e+02 +/- 0.000000e+00) [K]
    Molecule Intra/kʙ       0.000000e+00 ( 0.000000e+00 +/- 0.000000e+00) [K]

Current cycle: 200 out of 6000
===============================================================================

Box:      34.31887   0.00000   0.00000  Average:  33.97019   0.00000   0.00000
           0.00000  34.31887   0.00000             0.00000  33.97019   0.00000
           0.00000   0.00000  34.31887             0.00000   0.00000  33.97019
Lengths:  34.31887  34.31887  34.31887  Average:  33.97019  33.97019  33.97019
Angles:   90.00000  90.00000  90.00000  Average:  90.00000  90.00000  90.00000
Rectangular boundary conditions

net charge:   0.00000000

component 0 (CO2) lambda:  0 occupancy:  1 (1.000000)
    net charge:   0.00000000 [e]

Amount of molecules per component :
-------------------------------------------------------------------------------
Component 0 (CO2)
    molecules:      7.200000e+01 molecules  (6.535323e+01 +/- 0.000000e+00)
    number density: 1.781285e-03 molec./A^3 (1.666311e-03 +/- 0.000000e+00)
    density:        1.301437e+02 kg/m^3     (1.217436e+02 +/- 0.000000e+00)

Average pressure tensor: 
-------------------------------------------------------------------------------
 4.2791e+01 -9.1867e-01 -7.3219e+00 +/- 0.0000e+00 0.0000e+00 0.0000e+00 [bar]
-9.1867e-01  3.8911e+01  5.6814e+00 +/- 0.0000e+00 0.0000e+00 0.0000e+00 [bar]
-7.3219e+00  5.6814e+00  5.0752e+01 +/- 0.0000e+00 0.0000e+00 0.0000e+00 [bar]
Ideal-gas pressure:   6.441661e+01 +/ 0.000000e+00 [bar]
Excess pressure:     -2.026515e+01 +/ 0.000000e+00 [bar]
Pressure:             4.415146e+01 +/ 0.000000e+00 [bar]

Total potential energy/kʙ  -1.776934e+04 (-1.449666e+04 +/- 0.000000e+00) [K]
-------------------------------------------------------------------------------
ExternalField-molecule
    Van der Waals/kʙ        0.000000e+00 ( 0.000000e+00 +/- 0.000000e+00) [K]
Framework-molecule
    Van der Waals/kʙ        0.000000e+00 ( 0.000000e+00 +/- 0.000000e+00) [K]
    Van der Waals (Tail)/kʙ 0.000000e+00 ( 0.000000e+00 +/- 0.000000e+00) [K]
    Coulombic Real/kʙ       0.000000e+00 ( 0.000000e+00 +/- 0.000000e+00) [K]
    Coulombic Fourier/kʙ    0.000000e+00 ( 0.000000e+00 +/- 0.000000e+00) [K]
Molecule-molecule
    Van der Waals/kʙ       -1.197374e+04 (-1.069393e+04 +/- 0.000000e+00) [K]
    Van der Waals (Tail)/kʙ-2.381783e+02 (-2.092659e+02 +/- 0.000000e+00) [K]
    Coulombic Real/kʙ      -4.831770e+03 (-3.322623e+03 +/- 0.000000e+00) [K]
    Coulombic Fourier/kʙ   -7.256436e+02 (-2.708405e+02 +/- 0.000000e+00) [K]
    Molecule Intra/kʙ       0.000000e+00 ( 0.000000e+00 +/- 0.000000e+00) [K]

Current cycle: 300 out of 6000
===============================================================================

Box:      34.44690   0.00000   0.00000  Average:  34.10950   0.00000   0.00000
           0.00000  34.44690   0.00000             0.00000  34.10950   0.00000
           0.00000   0.00000  34.44690             0.00000   0.00000  34.10950
Lengths:  34.44690  34.44690  34.44690  Average:  34.10950  34.10950  34.10950
Angles:   90.00000  90.00000  90.00000  Average:  90.00000  90.00000  90.00000
Rectangular boundary conditions

net charge:   0.00000000

component 0 (CO2) lambda:  0 occupancy:  1 (1.000000)
    net charge:   0.00000000 [e]

Amount of molecules per component :
-------------------------------------------------------------------------------
Component 0 (CO2)
    molecules:      8.200000e+01 molecules  (7.188704e+01 +/- 0.000000e+00)
    number density: 2.006149e-03 molec./A^3 (1.807180e-03 +/- 0.000000e+00)
    density:        1.465727e+02 kg/m^3     (1.320357e+02 +/- 0.000000e+00)

Average pressure tensor: 
-------------------------------------------------------------------------------
 4.5465e+01 -2.7226e+00 -4.3912e+00 +/- 0.0000e+00 0.0000e+00 0.0000e+00 [bar]
-2.7226e+00  4.0953e+01  4.3973e+00 +/- 0.0000e+00 0.0000e+00 0.0000e+00 [bar]
-4.3912e+00  4.3973e+00  5.2599e+01 +/- 0.0000e+00 0.0000e+00 0.0000e+00 [bar]
Ideal-gas pressure:   6.986235e+01 +/ 0.000000e+00 [bar]
Excess pressure:     -2.352346e+01 +/ 0.000000e+00 [bar]
Pressure:             4.633889e+01 +/ 0.000000e+00 [bar]

Total potential energy/kʙ  -1.740987e+04 (-1.697101e+04 +/- 0.000000e+00) [K]
-------------------------------------------------------------------------------
ExternalField-molecule
    Van der Waals/kʙ        0.000000e+00 ( 0.000000e+00 +/- 0.000000e+00) [K]
Framework-molecule
    Van der Waals/kʙ        0.000000e+00 ( 0.000000e+00 +/- 0.000000e+00) [K]
    Van der Waals (Tail)/kʙ 0.000000e+00 ( 0.000000e+00 +/- 0.000000e+00) [K]
    Coulombic Real/kʙ       0.000000e+00 ( 0.000000e+00 +/- 0.000000e+00) [K]
    Coulombic Fourier/kʙ    0.000000e+00 ( 0.000000e+00 +/- 0.000000e+00) [K]
Molecule-molecule
    Van der Waals/kʙ       -1.321710e+04 (-1.257881e+04 +/- 0.000000e+00) [K]
    Van der Waals (Tail)/kʙ-3.055015e+02 (-2.492530e+02 +/- 0.000000e+00) [K]
    Coulombic Real/kʙ      -3.355322e+03 (-3.793741e+03 +/- 0.000000e+00) [K]
    Coulombic Fourier/kʙ   -5.319491e+02 (-3.492017e+02 +/- 0.000000e+00) [K]
    Molecule Intra/kʙ       0.000000e+00 ( 0.000000e+00 +/- 0.000000e+00) [K]

Current cycle: 400 out of 6000
===============================================================================

Box:      34.36779   0.00000   0.00000  Average:  34.19129   0.00000   0.00000
           0.00000  34.36779   0.00000             0.00000  34.19129   0.00000
           0.00000   0.00000  34.36779             0.00000   0.00000  34.19129
Lengths:  34.36779  34.36779  34.36779  Average:  34.19129  34.19129  34.19129
Angles:   90.00000  90.00000  90.00000  Average:  90.00000  90.00000  90.00000
Rectangular boundary conditions

net charge:   0.00000000

component 0 (CO2) lambda:  0 occupancy:  1 (1.000000)
    net charge:   0.00000000 [e]

Amount of molecules per component :
-------------------------------------------------------------------------------
Component 0 (CO2)
    molecules:      8.400000e+01 molecules  (7.592768e+01 +/- 0.000000e+00)
    number density: 2.069305e-03 molec./A^3 (1.894126e-03 +/- 0.000000e+00)
    density:        1.511870e+02 kg/m^3     (1.383881e+02 +/- 0.000000e+00)

Average pressure tensor: 
-------------------------------------------------------------------------------
 4.6274e+01 -2.0333e+00 -3.0914e+00 +/- 0.0000e+00 0.0000e+00 0.0000e+00 [bar]
-2.0333e+00  4.3435e+01  4.7812e-01 +/- 0.0000e+00 0.0000e+00 0.0000e+00 [bar]
-3.0914e+00  4.7812e-01  5.2268e+01 +/- 0.0000e+00 0.0000e+00 0.0000e+00 [bar]
Ideal-gas pressure:   7.322351e+01 +/ 0.000000e+00 [bar]
Excess pressure:     -2.589754e+01 +/ 0.000000e+00 [bar]
Pressure:             4.732596e+01 +/ 0.000000e+00 [bar]

Total potential energy/kʙ  -2.064854e+04 (-1.884289e+04 +/- 0.000000e+00) [K]
-------------------------------------------------------------------------------
ExternalField-molecule
    Van der Waals/kʙ        0.000000e+00 ( 0.000000e+00 +/- 0.000000e+00) [K]
Framework-molecule
    Van der Waals/kʙ        0.000000e+00 ( 0.000000e+00 +/- 0.000000e+00) [K]
    Van der Waals (Tail)/kʙ 0.000000e+00 ( 0.000000e+00 +/- 0.000000e+00) [K]
    Coulombic Real/kʙ       0.000000e+00 ( 0.000000e+00 +/- 0.000000e+00) [K]
    Coulombic Fourier/kʙ    0.000000e+00 ( 0.000000e+00 +/- 0.000000e+00) [K]
Molecule-molecule
    Van der Waals/kʙ       -1.432136e+04 (-1.403020e+04 +/- 0.000000e+00) [K]
    Van der Waals (Tail)/kʙ-3.228048e+02 (-2.738607e+02 +/- 0.000000e+00) [K]
    Coulombic Real/kʙ      -5.467319e+03 (-4.139162e+03 +/- 0.000000e+00) [K]
    Coulombic Fourier/kʙ   -5.370558e+02 (-3.996637e+02 +/- 0.000000e+00) [K]
    Molecule Intra/kʙ       0.000000e+00 ( 0.000000e+00 +/- 0.000000e+00) [K]

Current cycle: 500 out of 6000
===============================================================================

Box:      34.28644   0.00000   0.00000  Average:  34.21292   0.00000   0.00000
           0.00000  34.28644   0.00000             0.00000  34.21292   0.00000
           0.00000   0.00000  34.28644             0.00000   0.00000  34.21292
Lengths:  34.28644  34.28644  34.28644  Average:  34.21292  34.21292  34.21292
Angles:   90.00000  90.00000  90.00000  Average:  90.00000  90.00000  90.00000
Rectangular boundary conditions

net charge:   0.00000000

component 0 (CO2) lambda:  0 occupancy:  1 (1.000000)
    net charge:   0.00000000 [e]

Amount of molecules per component :
-------------------------------------------------------------------------------
Component 0 (CO2)
    molecules:      7.700000e+01 molecules  (7.611377e+01 +/- 0.000000e+00)
    number density: 1.910397e-03 molec./A^3 (1.896185e-03 +/- 0.000000e+00)
    density:        1.395769e+02 kg/m^3     (1.385385e+02 +/- 0.000000e+00)

Average pressure tensor: 
-------------------------------------------------------------------------------
 4.5468e+01 -1.5383e+00 -2.6937e+00 +/- 0.0000e+00 0.0000e+00 0.0000e+00 [bar]
-1.5383e+00  4.2626e+01 -1.3286e+00 +/- 0.0000e+00 0.0000e+00 0.0000e+00 [bar]
-2.6937e+00 -1.3286e+00  5.1216e+01 +/- 0.0000e+00 0.0000e+00 0.0000e+00 [bar]
Ideal-gas pressure:   7.330313e+01 +/ 0.000000e+00 [bar]
Excess pressure:     -2.686627e+01 +/ 0.000000e+00 [bar]
Pressure:             4.643685e+01 +/ 0.000000e+00 [bar]

Total potential energy/kʙ  -1.947787e+04 (-1.908274e+04 +/- 0.000000e+00) [K]
-------------------------------------------------------------------------------
ExternalField-molecule
    Van der Waals/kʙ        0.000000e+00 ( 0.000000e+00 +/- 0.000000e+00) [K]
Framework-molecule
    Van der Waals/kʙ        0.000000e+00 ( 0.000000e+00 +/- 0.000000e+00) [K]
    Van der Waals (Tail)/kʙ 0.000000e+00 ( 0.000000e+00 +/- 0.000000e+00) [K]
    Coulombic Real/kʙ       0.000000e+00 ( 0.000000e+00 +/- 0.000000e+00) [K]
    Coulombic Fourier/kʙ    0.000000e+00 ( 0.000000e+00 +/- 0.000000e+00) [K]
Molecule-molecule
    Van der Waals/kʙ       -1.632400e+04 (-1.431919e+04 +/- 0.000000e+00) [K]
    Van der Waals (Tail)/kʙ-2.731810e+02 (-2.749467e+02 +/- 0.000000e+00) [K]
    Coulombic Real/kʙ      -2.662243e+03 (-4.090938e+03 +/- 0.000000e+00) [K]
    Coulombic Fourier/kʙ   -2.184491e+02 (-3.976597e+02 +/- 0.000000e+00) [K]
    Molecule Intra/kʙ       0.000000e+00 ( 0.000000e+00 +/- 0.000000e+00) [K]

Current cycle: 600 out of 6000
===============================================================================

Box:      34.03950   0.00000   0.00000  Average:  34.24101   0.00000   0.00000
           0.00000  34.03950   0.00000             0.00000  34.24101   0.00000
           0.00000   0.00000  34.03950             0.00000   0.00000  34.24101
Lengths:  34.03950  34.03950  34.03950  Average:  34.24101  34.24101  34.24101
Angles:   90.00000  90.00000  90.00000  Average:  90.00000  90.00000  90.00000
Rectangular boundary conditions

net charge:   0.00000000

component 0 (CO2) lambda:  0 occupancy:  1 (1.000000)
    net charge:   0.00000000 [e]

Amount of molecules per component :
-------------------------------------------------------------------------------
Component 0 (CO2)
    molecules:      7.500000e+01 molecules  (7.727953e+01 +/- 0.000000e+00)
    number density: 1.901567e-03 molec./A^3 (1.921026e-03 +/- 0.000000e+00)
    density:        1.389317e+02 kg/m^3     (1.403535e+02 +/- 0.000000e+00)

Average pressure tensor: 
-------------------------------------------------------------------------------
 4.5633e+01  8.3025e-01 -3.2036e+00 +/- 0.0000e+00 0.0000e+00 0.0000e+00 [bar]
 8.3025e-01  4.5288e+01 -3.3225e+00 +/- 0.0000e+00 0.0000e+00 0.0000e+00 [bar]
-3.2036e+00 -3.3225e+00  5.0977e+01 +/- 0.0000e+00 0.0000e+00 0.0000e+00 [bar]
Ideal-gas pressure:   7.426343e+01 +/ 0.000000e+00 [bar]
Excess pressure:     -2.696398e+01 +/ 0.000000e+00 [bar]
Pressure:             4.729946e+01 +/ 0.000000e+00 [bar]

Total potential energy/kʙ  -1.836687e+04 (-1.984269e+04 +/- 0.000000e+00) [K]
-------------------------------------------------------------------------------
ExternalField-molecule
    Van der Waals/kʙ        0.000000e+00 ( 0.000000e+00 +/- 0.000000e+00) [K]
Framework-molecule
    Van der Waals/kʙ        0.000000e+00 ( 0.000000e+00 +/- 0.000000e+00) [K]
    Van der Waals (Tail)/kʙ 0.000000e+00 ( 0.000000e+00 +/- 0.000000e+00) [K]
    Coulombic Real/kʙ       0.000000e+00 ( 0.000000e+00 +/- 0.000000e+00) [K]
    Coulombic Fourier/kʙ    0.000000e+00 ( 0.000000e+00 +/- 0.000000e+00) [K]
Molecule-molecule
    Van der Waals/kʙ       -1.361882e+04 (-1.479537e+04 +/- 0.000000e+00) [K]
    Van der Waals (Tail)/kʙ-2.648555e+02 (-2.811546e+02 +/- 0.000000e+00) [K]
    Coulombic Real/kʙ      -3.997066e+03 (-4.341971e+03 +/- 0.000000e+00) [K]
    Coulombic Fourier/kʙ   -4.861217e+02 (-4.241906e+02 +/- 0.000000e+00) [K]
    Molecule Intra/kʙ       0.000000e+00 ( 0.000000e+00 +/- 0.000000e+00) [K]

Current cycle: 700 out of 6000
===============================================================================

Box:      34.01301   0.00000   0.00000  Average:  34.20511   0.00000   0.00000
           0.00000  34.01301   0.00000             0.00000  34.20511   0.00000
           0.00000   0.00000  34.01301             0.00000   0.00000  34.20511
Lengths:  34.01301  34.01301  34.01301  Average:  34.20511  34.20511  34.20511
Angles:   90.00000  90.00000  90.00000  Average:  90.00000  90.00000  90.00000
Rectangular boundary conditions

net charge:   0.00000000

component 0 (CO2) lambda:  0 occupancy:  1 (1.000000)
    net charge:   0.00000000 [e]

Amount of molecules per component :
-------------------------------------------------------------------------------
Component 0 (CO2)
    molecules:      7.100000e+01 molecules  (7.649929e+01 +/- 0.000000e+00)
    number density: 1.804360e-03 molec./A^3 (1.907831e-03 +/- 0.000000e+00)
    density:        1.318297e+02 kg/m^3     (1.393894e+02 +/- 0.000000e+00)

Average pressure tensor: 
-------------------------------------------------------------------------------
 4.5334e+01  1.9359e+00 -1.8099e+00 +/- 0.0000e+00 0.0000e+00 0.0000e+00 [bar]
 1.9359e+00  4.8246e+01 -2.7063e+00 +/- 0.0000e+00 0.0000e+00 0.0000e+00 [bar]
-1.8099e+00 -2.7063e+00  4.9941e+01 +/- 0.0000e+00 0.0000e+00 0.0000e+00 [bar]
Ideal-gas pressure:   7.375332e+01 +/ 0.000000e+00 [bar]
Excess pressure:     -2.591281e+01 +/ 0.000000e+00 [bar]
Pressure:             4.784051e+01 +/ 0.000000e+00 [bar]

Total potential energy/kʙ  -2.097289e+04 (-1.962822e+04 +/- 0.000000e+00) [K]
-------------------------------------------------------------------------------
ExternalField-molecule
    Van der Waals/kʙ        0.000000e+00 ( 0.000000e+00 +/- 0.000000e+00) [K]
Framework-molecule
    Van der Waals/kʙ        0.000000e+00 ( 0.000000e+00 +/- 0.000000e+00) [K]
    Van der Waals (Tail)/kʙ 0.000000e+00 ( 0.000000e+00 +/- 0.000000e+00) [K]
    Coulombic Real/kʙ       0.000000e+00 ( 0.000000e+00 +/- 0.000000e+00) [K]
    Coulombic Fourier/kʙ    0.000000e+00 ( 0.000000e+00 +/- 0.000000e+00) [K]
Molecule-molecule
    Van der Waals/kʙ       -1.579625e+04 (-1.456963e+04 +/- 0.000000e+00) [K]
    Van der Waals (Tail)/kʙ-2.379128e+02 (-2.762853e+02 +/- 0.000000e+00) [K]
    Coulombic Real/kʙ      -4.775862e+03 (-4.359900e+03 +/- 0.000000e+00) [K]
    Coulombic Fourier/kʙ   -1.628675e+02 (-4.224019e+02 +/- 0.000000e+00) [K]
    Molecule Intra/kʙ       0.000000e+00 ( 0.000000e+00 +/- 0.000000e+00) [K]

Current cycle: 800 out of 6000
===============================================================================

Box:      34.06564   0.00000   0.00000  Average:  34.18954   0.00000   0.00000
           0.00000  34.06564   0.00000             0.00000  34.18954   0.00000
           0.00000   0.00000  34.06564             0.00000   0.00000  34.18954
Lengths:  34.06564  34.06564  34.06564  Average:  34.18954  34.18954  34.18954
Angles:   90.00000  90.00000  90.00000  Average:  90.00000  90.00000  90.00000
Rectangular boundary conditions

net charge:   0.00000000

component 0 (CO2) lambda:  0 occupancy:  1 (1.000000)
    net charge:   0.00000000 [e]

Amount of molecules per component :
-------------------------------------------------------------------------------
Component 0 (CO2)
    molecules:      6.200000e+01 molecules  (7.548190e+01 +/- 0.000000e+00)
    number density: 1.568346e-03 molec./A^3 (1.885191e-03 +/- 0.000000e+00)
    density:        1.145861e+02 kg/m^3     (1.377353e+02 +/- 0.000000e+00)

Average pressure tensor: 
-------------------------------------------------------------------------------
 4.4514e+01  1.3482e+00 -2.1993e+00 +/- 0.0000e+00 0.0000e+00 0.0000e+00 [bar]
 1.3482e+00  4.6949e+01 -1.7907e+00 +/- 0.0000e+00 0.0000e+00 0.0000e+00 [bar]
-2.1993e+00 -1.7907e+00  4.8239e+01 +/- 0.0000e+00 0.0000e+00 0.0000e+00 [bar]
Ideal-gas pressure:   7.287812e+01 +/ 0.000000e+00 [bar]
Excess pressure:     -2.631099e+01 +/ 0.000000e+00 [bar]
Pressure:             4.656713e+01 +/ 0.000000e+00 [bar]

Total potential energy/kʙ  -1.561521e+04 (-1.912004e+04 +/- 0.000000e+00) [K]
-------------------------------------------------------------------------------
ExternalField-molecule
    Van der Waals/kʙ        0.000000e+00 ( 0.000000e+00 +/- 0.000000e+00) [K]
Framework-molecule
    Van der Waals/kʙ        0.000000e+00 ( 0.000000e+00 +/- 0.000000e+00) [K]
    Van der Waals (Tail)/kʙ 0.000000e+00 ( 0.000000e+00 +/- 0.000000e+00) [K]
    Coulombic Real/kʙ       0.000000e+00 ( 0.000000e+00 +/- 0.000000e+00) [K]
    Coulombic Fourier/kʙ    0.000000e+00 ( 0.000000e+00 +/- 0.000000e+00) [K]
Molecule-molecule
    Van der Waals/kʙ       -1.104786e+04 (-1.419152e+04 +/- 0.000000e+00) [K]
    Van der Waals (Tail)/kʙ-1.805801e+02 (-2.690077e+02 +/- 0.000000e+00) [K]
    Coulombic Real/kʙ      -3.722378e+03 (-4.238009e+03 +/- 0.000000e+00) [K]
    Coulombic Fourier/kʙ   -6.643978e+02 (-4.215060e+02 +/- 0.000000e+00) [K]
    Molecule Intra/kʙ       0.000000e+00 ( 0.000000e+00 +/- 0.000000e+00) [K]

Current cycle: 900 out of 6000
===============================================================================

Box:      34.39166   0.00000   0.00000  Average:  34.19357   0.00000   0.00000
           0.00000  34.39166   0.00000             0.00000  34.19357   0.00000
           0.00000   0.00000  34.39166             0.00000   0.00000  34.19357
Lengths:  34.39166  34.39166  34.39166  Average:  34.19357  34.19357  34.19357
Angles:   90.00000  90.00000  90.00000  Average:  90.00000  90.00000  90.00000
Rectangular boundary conditions

net charge:   0.00000000

component 0 (CO2) lambda:  0 occupancy:  1 (1.000000)
    net charge:   0.00000000 [e]

Amount of molecules per component :
-------------------------------------------------------------------------------
Component 0 (CO2)
    molecules:      7.700000e+01 molecules  (7.472697e+01 +/- 0.000000e+00)
    number density: 1.892916e-03 molec./A^3 (1.866046e-03 +/- 0.000000e+00)
    density:        1.382997e+02 kg/m^3     (1.363365e+02 +/- 0.000000e+00)

Average pressure tensor: 
-------------------------------------------------------------------------------
 4.2691e+01  9.0552e-01 -1.9326e+00 +/- 0.0000e+00 0.0000e+00 0.0000e+00 [bar]
 9.0552e-01  4.8175e+01 -2.0240e+00 +/- 0.0000e+00 0.0000e+00 0.0000e+00 [bar]
-1.9326e+00 -2.0240e+00  4.8798e+01 +/- 0.0000e+00 0.0000e+00 0.0000e+00 [bar]
Ideal-gas pressure:   7.213798e+01 +/ 0.000000e+00 [bar]
Excess pressure:     -2.558330e+01 +/ 0.000000e+00 [bar]
Pressure:             4.655469e+01 +/ 0.000000e+00 [bar]

Total potential energy/kʙ  -1.821846e+04 (-1.873789e+04 +/- 0.000000e+00) [K]
-------------------------------------------------------------------------------
ExternalField-molecule
    Van der Waals/kʙ        0.000000e+00 ( 0.000000e+00 +/- 0.000000e+00) [K]
Framework-molecule
    Van der Waals/kʙ        0.000000e+00 ( 0.000000e+00 +/- 0.000000e+00) [K]
    Van der Waals (Tail)/kʙ 0.000000e+00 ( 0.000000e+00 +/- 0.000000e+00) [K]
    Coulombic Real/kʙ       0.000000e+00 ( 0.000000e+00 +/- 0.000000e+00) [K]
    Coulombic Fourier/kʙ    0.000000e+00 ( 0.000000e+00 +/- 0.000000e+00) [K]
Molecule-molecule
    Van der Waals/kʙ       -1.573847e+04 (-1.396050e+04 +/- 0.000000e+00) [K]
    Van der Waals (Tail)/kʙ-2.706814e+02 (-2.651337e+02 +/- 0.000000e+00) [K]
    Coulombic Real/kʙ      -2.127990e+03 (-4.100292e+03 +/- 0.000000e+00) [K]
    Coulombic Fourier/kʙ   -8.132141e+01 (-4.119731e+02 +/- 0.000000e+00) [K]
    Molecule Intra/kʙ       0.000000e+00 ( 0.000000e+00 +/- 0.000000e+00) [K]

Current cycle: 1000 out of 6000
===============================================================================

Box:      33.77250   0.00000   0.00000  Average:  34.19213   0.00000   0.00000
           0.00000  33.77250   0.00000             0.00000  34.19213   0.00000
           0.00000   0.00000  33.77250             0.00000   0.00000  34.19213
Lengths:  33.77250  33.77250  33.77250  Average:  34.19213  34.19213  34.19213
Angles:   90.00000  90.00000  90.00000  Average:  90.00000  90.00000  90.00000
Rectangular boundary conditions

net charge:   0.00000000

component 0 (CO2) lambda:  0 occupancy:  1 (1.000000)
    net charge:   0.00000000 [e]

Amount of molecules per component :
-------------------------------------------------------------------------------
Component 0 (CO2)
    molecules:      6.500000e+01 molecules  (7.505894e+01 +/- 0.000000e+00)
    number density: 1.687422e-03 molec./A^3 (1.874759e-03 +/- 0.000000e+00)
    density:        1.232860e+02 kg/m^3     (1.369731e+02 +/- 0.000000e+00)

Average pressure tensor: 
-------------------------------------------------------------------------------
 4.2549e+01  4.7618e-01 -1.8579e+00 +/- 0.0000e+00 0.0000e+00 0.0000e+00 [bar]
 4.7618e-01  4.6802e+01 -8.8700e-01 +/- 0.0000e+00 0.0000e+00 0.0000e+00 [bar]
-1.8579e+00 -8.8700e-01  4.7861e+01 +/- 0.0000e+00 0.0000e+00 0.0000e+00 [bar]
Ideal-gas pressure:   7.247482e+01 +/ 0.000000e+00 [bar]
Excess pressure:     -2.673739e+01 +/ 0.000000e+00 [bar]
Pressure:             4.573743e+01 +/ 0.000000e+00 [bar]

Total potential energy/kʙ  -1.099845e+04 (-1.890961e+04 +/- 0.000000e+00) [K]
-------------------------------------------------------------------------------
ExternalField-molecule
    Van der Waals/kʙ        0.000000e+00 ( 0.000000e+00 +/- 0.000000e+00) [K]
Framework-molecule
    Van der Waals/kʙ        0.000000e+00 ( 0.000000e+00 +/- 0.000000e+00) [K]
    Van der Waals (Tail)/kʙ 0.000000e+00 ( 0.000000e+00 +/- 0.000000e+00) [K]
    Coulombic Real/kʙ       0.000000e+00 ( 0.000000e+00 +/- 0.000000e+00) [K]
    Coulombic Fourier/kʙ    0.000000e+00 ( 0.000000e+00 +/- 0.000000e+00) [K]
Molecule-molecule
    Van der Waals/kʙ       -8.922107e+03 (-1.406778e+04 +/- 0.000000e+00) [K]
    Van der Waals (Tail)/kʙ-2.036917e+02 (-2.670156e+02 +/- 0.000000e+00) [K]
    Coulombic Real/kʙ      -1.709819e+03 (-4.159008e+03 +/- 0.000000e+00) [K]
    Coulombic Fourier/kʙ   -1.628325e+02 (-4.158089e+02 +/- 0.000000e+00) [K]
    Molecule Intra/kʙ       0.000000e+00 ( 0.000000e+00 +/- 0.000000e+00) [K]

Current cycle: 1100 out of 6000
===============================================================================

Box:      33.82429   0.00000   0.00000  Average:  34.16618   0.00000   0.00000
           0.00000  33.82429   0.00000             0.00000  34.16618   0.00000
           0.00000   0.00000  33.82429             0.00000   0.00000  34.16618
Lengths:  33.82429  33.82429  33.82429  Average:  34.16618  34.16618  34.16618
Angles:   90.00000  90.00000  90.00000  Average:  90.00000  90.00000  90.00000
Rectangular boundary conditions

net charge:   0.00000000

component 0 (CO2) lambda:  0 occupancy:  1 (1.000000)
    net charge:   0.00000000 [e]

Amount of molecules per component :
-------------------------------------------------------------------------------
Component 0 (CO2)
    molecules:      7.000000e+01 molecules  (7.452407e+01 +/- 0.000000e+00)
    number density: 1.808889e-03 molec./A^3 (1.865631e-03 +/- 0.000000e+00)
    density:        1.321605e+02 kg/m^3     (1.363062e+02 +/- 0.000000e+00)

Average pressure tensor: 
-------------------------------------------------------------------------------
 4.3871e+01  3.9394e-01 -9.2537e-01 +/- 0.0000e+00 0.0000e+00 0.0000e+00 [bar]
 3.9394e-01  4.7401e+01 -1.0822e+00 +/- 0.0000e+00 0.0000e+00 0.0000e+00 [bar]
-9.2537e-01 -1.0822e+00  4.7815e+01 +/- 0.0000e+00 0.0000e+00 0.0000e+00 [bar]
Ideal-gas pressure:   7.212196e+01 +/ 0.000000e+00 [bar]
Excess pressure:     -2.575925e+01 +/ 0.000000e+00 [bar]
Pressure:             4.636270e+01 +/ 0.000000e+00 [bar]

Total potential energy/kʙ  -1.568118e+04 (-1.890861e+04 +/- 0.000000e+00) [K]
-------------------------------------------------------------------------------
ExternalField-molecule
    Van der Waals/kʙ        0.000000e+00 ( 0.000000e+00 +/- 0.000000e+00) [K]
Framework-molecule
    Van der Waals/kʙ        0.000000e+00 ( 0.000000e+00 +/- 0.000000e+00) [K]
    Van der Waals (Tail)/kʙ 0.000000e+00 ( 0.000000e+00 +/- 0.000000e+00) [K]
    Coulombic Real/kʙ       0.000000e+00 ( 0.000000e+00 +/- 0.000000e+00) [K]
    Coulombic Fourier/kʙ    0.000000e+00 ( 0.000000e+00 +/- 0.000000e+00) [K]
Molecule-molecule
    Van der Waals/kʙ       -1.370244e+04 (-1.406364e+04 +/- 0.000000e+00) [K]
    Van der Waals (Tail)/kʙ-2.351506e+02 (-2.647893e+02 +/- 0.000000e+00) [K]
    Coulombic Real/kʙ      -1.743073e+03 (-4.175293e+03 +/- 0.000000e+00) [K]
    Coulombic Fourier/kʙ   -5.241762e-01 (-4.048917e+02 +/- 0.000000e+00) [K]
    Molecule Intra/kʙ       0.000000e+00 ( 0.000000e+00 +/- 0.000000e+00) [K]

Current cycle: 1200 out of 6000
===============================================================================

Box:      33.90955   0.00000   0.00000  Average:  34.13831   0.00000   0.00000
           0.00000  33.90955   0.00000             0.00000  34.13831   0.00000
           0.00000   0.00000  33.90955             0.00000   0.00000  34.13831
Lengths:  33.90955  33.90955  33.90955  Average:  34.13831  34.13831  34.13831
Angles:   90.00000  90.00000  90.00000  Average:  90.00000  90.00000  90.00000
Rectangular boundary conditions

net charge:   0.00000000

component 0 (CO2) lambda:  0 occupancy:  1 (1.000000)
    net charge:   0.00000000 [e]

Amount of molecules per component :
-------------------------------------------------------------------------------
Component 0 (CO2)
    molecules:      6.200000e+01 molecules  (7.309159e+01 +/- 0.000000e+00)
    number density: 1.590104e-03 molec./A^3 (1.833497e-03 +/- 0.000000e+00)
    density:        1.161757e+02 kg/m^3     (1.339584e+02 +/- 0.000000e+00)

Average pressure tensor: 
-------------------------------------------------------------------------------
 4.3162e+01  5.0192e-01 -1.0501e+00 +/- 0.0000e+00 0.0000e+00 0.0000e+00 [bar]
 5.0192e-01  4.5784e+01 -1.0279e+00 +/- 0.0000e+00 0.0000e+00 0.0000e+00 [bar]
-1.0501e+00 -1.0279e+00  4.7016e+01 +/- 0.0000e+00 0.0000e+00 0.0000e+00 [bar]
Ideal-gas pressure:   7.087971e+01 +/ 0.000000e+00 [bar]
Excess pressure:     -2.555934e+01 +/ 0.000000e+00 [bar]
Pressure:             4.532037e+01 +/ 0.000000e+00 [bar]

Total potential energy/kʙ  -1.110022e+04 (-1.825466e+04 +/- 0.000000e+00) [K]
-------------------------------------------------------------------------------
ExternalField-molecule
    Van der Waals/kʙ        0.000000e+00 ( 0.000000e+00 +/- 0.000000e+00) [K]
Framework-molecule
    Van der Waals/kʙ        0.000000e+00 ( 0.000000e+00 +/- 0.000000e+00) [K]
    Van der Waals (Tail)/kʙ 0.000000e+00 ( 0.000000e+00 +/- 0.000000e+00) [K]
    Coulombic Real/kʙ       0.000000e+00 ( 0.000000e+00 +/- 0.000000e+00) [K]
    Coulombic Fourier/kʙ    0.000000e+00 ( 0.000000e+00 +/- 0.000000e+00) [K]
Molecule-molecule
    Van der Waals/kʙ       -9.065856e+03 (-1.357923e+04 +/- 0.000000e+00) [K]
    Van der Waals (Tail)/kʙ-1.830852e+02 (-2.547336e+02 +/- 0.000000e+00) [K]
    Coulombic Real/kʙ      -1.635456e+03 (-4.034005e+03 +/- 0.000000e+00) [K]
    Coulombic Fourier/kʙ   -2.158186e+02 (-3.866945e+02 +/- 0.000000e+00) [K]
    Molecule Intra/kʙ       0.000000e+00 ( 0.000000e+00 +/- 0.000000e+00) [K]

Current cycle: 1300 out of 6000
===============================================================================

Box:      33.76144   0.00000   0.00000  Average:  34.11237   0.00000   0.00000
           0.00000  33.76144   0.00000             0.00000  34.11237   0.00000
           0.00000   0.00000  33.76144             0.00000   0.00000  34.11237
Lengths:  33.76144  33.76144  33.76144  Average:  34.11237  34.11237  34.11237
Angles:   90.00000  90.00000  90.00000  Average:  90.00000  90.00000  90.00000
Rectangular boundary conditions

net charge:   0.00000000

component 0 (CO2) lambda:  0 occupancy:  1 (1.000000)
    net charge:   0.00000000 [e]

Amount of molecules per component :
-------------------------------------------------------------------------------
Component 0 (CO2)
    molecules:      7.600000e+01 molecules  (7.238970e+01 +/- 0.000000e+00)
    number density: 1.974925e-03 molec./A^3 (1.819887e-03 +/- 0.000000e+00)
    density:        1.442914e+02 kg/m^3     (1.329640e+02 +/- 0.000000e+00)

Average pressure tensor: 
-------------------------------------------------------------------------------
 4.3735e+01 -2.9328e-02 -1.2149e+00 +/- 0.0000e+00 0.0000e+00 0.0000e+00 [bar]
-2.9328e-02  4.4818e+01 -9.3884e-01 +/- 0.0000e+00 0.0000e+00 0.0000e+00 [bar]
-1.2149e+00 -9.3884e-01  4.8757e+01 +/- 0.0000e+00 0.0000e+00 0.0000e+00 [bar]
Ideal-gas pressure:   7.035356e+01 +/ 0.000000e+00 [bar]
Excess pressure:     -2.458341e+01 +/ 0.000000e+00 [bar]
Pressure:             4.577015e+01 +/ 0.000000e+00 [bar]

Total potential energy/kʙ  -2.196889e+04 (-1.810532e+04 +/- 0.000000e+00) [K]
-------------------------------------------------------------------------------
ExternalField-molecule
    Van der Waals/kʙ        0.000000e+00 ( 0.000000e+00 +/- 0.000000e+00) [K]
Framework-molecule
    Van der Waals/kʙ        0.000000e+00 ( 0.000000e+00 +/- 0.000000e+00) [K]
    Van der Waals (Tail)/kʙ 0.000000e+00 ( 0.000000e+00 +/- 0.000000e+00) [K]
    Coulombic Real/kʙ       0.000000e+00 ( 0.000000e+00 +/- 0.000000e+00) [K]
    Coulombic Fourier/kʙ    0.000000e+00 ( 0.000000e+00 +/- 0.000000e+00) [K]
Molecule-molecule
    Van der Waals/kʙ       -1.679512e+04 (-1.344438e+04 +/- 0.000000e+00) [K]
    Van der Waals (Tail)/kʙ-2.787407e+02 (-2.507392e+02 +/- 0.000000e+00) [K]
    Coulombic Real/kʙ      -4.224886e+03 (-4.030470e+03 +/- 0.000000e+00) [K]
    Coulombic Fourier/kʙ   -6.701457e+02 (-3.797327e+02 +/- 0.000000e+00) [K]
    Molecule Intra/kʙ       0.000000e+00 ( 0.000000e+00 +/- 0.000000e+00) [K]

Current cycle: 1400 out of 6000
===============================================================================

Box:      33.57832   0.00000   0.00000  Average:  34.09162   0.00000   0.00000
           0.00000  33.57832   0.00000             0.00000  34.09162   0.00000
           0.00000   0.00000  33.57832             0.00000   0.00000  34.09162
Lengths:  33.57832  33.57832  33.57832  Average:  34.09162  34.09162  34.09162
Angles:   90.00000  90.00000  90.00000  Average:  90.00000  90.00000  90.00000
Rectangular boundary conditions

net charge:   0.00000000

component 0 (CO2) lambda:  0 occupancy:  1 (1.000000)
    net charge:   0.00000000 [e]

Amount of molecules per component :
-------------------------------------------------------------------------------
Component 0 (CO2)
    molecules:      4.900000e+01 molecules  (7.165310e+01 +/- 0.000000e+00)
    number density: 1.294253e-03 molec./A^3 (1.804453e-03 +/- 0.000000e+00)
    density:        9.456031e+01 kg/m^3     (1.318364e+02 +/- 0.000000e+00)

Average pressure tensor: 
-------------------------------------------------------------------------------
 4.3255e+01 -1.1638e-01 -1.6272e+00 +/- 0.0000e+00 0.0000e+00 0.0000e+00 [bar]
-1.1638e-01  4.4827e+01 -9.7027e-01 +/- 0.0000e+00 0.0000e+00 0.0000e+00 [bar]
-1.6272e+00 -9.7027e-01  4.8291e+01 +/- 0.0000e+00 0.0000e+00 0.0000e+00 [bar]
Ideal-gas pressure:   6.975690e+01 +/ 0.000000e+00 [bar]
Excess pressure:     -2.429918e+01 +/ 0.000000e+00 [bar]
Pressure:             4.545772e+01 +/ 0.000000e+00 [bar]

Total potential energy/kʙ  -7.902566e+03 (-1.776933e+04 +/- 0.000000e+00) [K]
-------------------------------------------------------------------------------
ExternalField-molecule
    Van der Waals/kʙ        0.000000e+00 ( 0.000000e+00 +/- 0.000000e+00) [K]
Framework-molecule
    Van der Waals/kʙ        0.000000e+00 ( 0.000000e+00 +/- 0.000000e+00) [K]
    Van der Waals (Tail)/kʙ 0.000000e+00 ( 0.000000e+00 +/- 0.000000e+00) [K]
    Coulombic Real/kʙ       0.000000e+00 ( 0.000000e+00 +/- 0.000000e+00) [K]
    Coulombic Fourier/kʙ    0.000000e+00 ( 0.000000e+00 +/- 0.000000e+00) [K]
Molecule-molecule
    Van der Waals/kʙ       -5.922185e+03 (-1.318523e+04 +/- 0.000000e+00) [K]
    Van der Waals (Tail)/kʙ-1.177745e+02 (-2.458448e+02 +/- 0.000000e+00) [K]
    Coulombic Real/kʙ      -1.839350e+03 (-3.967278e+03 +/- 0.000000e+00) [K]
    Coulombic Fourier/kʙ   -2.325612e+01 (-3.709833e+02 +/- 0.000000e+00) [K]
    Molecule Intra/kʙ       0.000000e+00 ( 0.000000e+00 +/- 0.000000e+00) [K]

Current cycle: 1500 out of 6000
===============================================================================

Box:      33.71418   0.00000   0.00000  Average:  34.05820   0.00000   0.00000
           0.00000  33.71418   0.00000             0.00000  34.05820   0.00000
           0.00000   0.00000  33.71418             0.00000   0.00000  34.05820
Lengths:  33.71418  33.71418  33.71418  Average:  34.05820  34.05820  34.05820
[...]
    number density: 8.876783e-04 molec./A^3 (1.540498e-03 +/- 2.301747e-04)
    density:        6.485530e+01 kg/m^3     (1.125514e+02 +/- 1.681695e+01)

Average pressure tensor: 
-------------------------------------------------------------------------------
 4.0752e+01  1.0183e-01 -1.1874e+00 +/- 4.3556e+00 3.9012e-01 1.4794e+00 [bar]
 1.0183e-01  4.0790e+01 -1.0538e+00 +/- 3.9012e-01 4.5126e+00 1.0738e+00 [bar]
-1.1874e+00 -1.0538e+00  4.3486e+01 +/- 1.4794e+00 1.0738e+00 6.7158e+00 [bar]
Ideal-gas pressure:   5.955289e+01 +/ 8.898140e+00 [bar]
Excess pressure:     -1.787682e+01 +/ 5.522071e+00 [bar]
Pressure:             4.167607e+01 +/ 4.937781e+00 [bar]

Total potential energy/kʙ  -3.259633e+03 (-1.277401e+04 +/- 4.292331e+03) [K]
-------------------------------------------------------------------------------
ExternalField-molecule
    Van der Waals/kʙ        0.000000e+00 ( 0.000000e+00 +/- 0.000000e+00) [K]
Framework-molecule
    Van der Waals/kʙ        0.000000e+00 ( 0.000000e+00 +/- 0.000000e+00) [K]
    Van der Waals (Tail)/kʙ 0.000000e+00 ( 0.000000e+00 +/- 0.000000e+00) [K]
    Coulombic Real/kʙ       0.000000e+00 ( 0.000000e+00 +/- 0.000000e+00) [K]
    Coulombic Fourier/kʙ    0.000000e+00 ( 0.000000e+00 +/- 0.000000e+00) [K]
Molecule-molecule
    Van der Waals/kʙ       -2.404147e+03 (-9.508826e+03 +/- 3.164878e+03) [K]
    Van der Waals (Tail)/kʙ-5.275235e+01 (-1.774932e+02 +/- 6.023624e+01) [K]
    Coulombic Real/kʙ      -7.598431e+02 (-2.816144e+03 +/- 9.772323e+02) [K]
    Coulombic Fourier/kʙ   -4.289096e+01 (-2.715497e+02 +/- 9.202316e+01) [K]
    Molecule Intra/kʙ       0.000000e+00 ( 0.000000e+00 +/- 0.000000e+00) [K]

Current cycle: 5800 out of 6000
===============================================================================

Box:      33.17077   0.00000   0.00000  Average:  33.72832   0.00000   0.00000
           0.00000  33.17077   0.00000             0.00000  33.72832   0.00000
           0.00000   0.00000  33.17077             0.00000   0.00000  33.72832
Lengths:  33.17077  33.17077  33.17077  Average:  33.72832  33.72832  33.72832
Angles:   90.00000  90.00000  90.00000  Average:  90.00000  90.00000  90.00000
Rectangular boundary conditions

net charge:   0.00000000

component 0 (CO2) lambda:  0 occupancy:  1 (1.000000)
    net charge:   0.00000000 [e]

Amount of molecules per component :
-------------------------------------------------------------------------------
Component 0 (CO2)
    molecules:      5.800000e+01 molecules  (5.925444e+01 +/- 1.087229e+01)
    number density: 1.589137e-03 molec./A^3 (1.537226e-03 +/- 2.310223e-04)
    density:        1.161051e+02 kg/m^3     (1.123124e+02 +/- 1.687888e+01)

Average pressure tensor: 
-------------------------------------------------------------------------------
 4.0642e+01  1.6775e-01 -1.2366e+00 +/- 4.4319e+00 3.6331e-01 1.5297e+00 [bar]
 1.6775e-01  4.0685e+01 -1.0307e+00 +/- 3.6331e-01 4.5809e+00 1.0706e+00 [bar]
-1.2366e+00 -1.0307e+00  4.3423e+01 +/- 1.5297e+00 1.0706e+00 6.5540e+00 [bar]
Ideal-gas pressure:   5.942641e+01 +/ 8.930908e+00 [bar]
Excess pressure:     -1.784301e+01 +/ 5.527404e+00 [bar]
Pressure:             4.158341e+01 +/ 4.963324e+00 [bar]

Total potential energy/kʙ  -1.120229e+04 (-1.272771e+04 +/- 4.289624e+03) [K]
-------------------------------------------------------------------------------
ExternalField-molecule
    Van der Waals/kʙ        0.000000e+00 ( 0.000000e+00 +/- 0.000000e+00) [K]
Framework-molecule
    Van der Waals/kʙ        0.000000e+00 ( 0.000000e+00 +/- 0.000000e+00) [K]
    Van der Waals (Tail)/kʙ 0.000000e+00 ( 0.000000e+00 +/- 0.000000e+00) [K]
    Coulombic Real/kʙ       0.000000e+00 ( 0.000000e+00 +/- 0.000000e+00) [K]
    Coulombic Fourier/kʙ    0.000000e+00 ( 0.000000e+00 +/- 0.000000e+00) [K]
Molecule-molecule
    Van der Waals/kʙ       -7.866947e+03 (-9.477439e+03 +/- 3.159975e+03) [K]
    Van der Waals (Tail)/kʙ-1.711692e+02 (-1.768467e+02 +/- 6.020535e+01) [K]
    Coulombic Real/kʙ      -2.614521e+03 (-2.803039e+03 +/- 9.793811e+02) [K]
    Coulombic Fourier/kʙ   -5.496555e+02 (-2.703825e+02 +/- 9.228709e+01) [K]
    Molecule Intra/kʙ       0.000000e+00 ( 0.000000e+00 +/- 0.000000e+00) [K]

Current cycle: 5900 out of 6000
===============================================================================

Box:      33.06606   0.00000   0.00000  Average:  33.71790   0.00000   0.00000
           0.00000  33.06606   0.00000             0.00000  33.71790   0.00000
           0.00000   0.00000  33.06606             0.00000   0.00000  33.71790
Lengths:  33.06606  33.06606  33.06606  Average:  33.71790  33.71790  33.71790
Angles:   90.00000  90.00000  90.00000  Average:  90.00000  90.00000  90.00000
Rectangular boundary conditions

net charge:   0.00000000

component 0 (CO2) lambda:  0 occupancy:  1 (1.000000)
    net charge:   0.00000000 [e]

Amount of molecules per component :
-------------------------------------------------------------------------------
Component 0 (CO2)
    molecules:      5.200000e+01 molecules  (5.905575e+01 +/- 1.097159e+01)
    number density: 1.438322e-03 molec./A^3 (1.533357e-03 +/- 2.326964e-04)
    density:        1.050862e+02 kg/m^3     (1.120297e+02 +/- 1.700120e+01)

Average pressure tensor: 
-------------------------------------------------------------------------------
 4.0693e+01  1.5597e-01 -1.3397e+00 +/- 4.2045e+00 3.5790e-01 1.6876e+00 [bar]
 1.5597e-01  4.0660e+01 -1.0306e+00 +/- 3.5790e-01 4.5694e+00 1.0139e+00 [bar]
-1.3397e+00 -1.0306e+00  4.3508e+01 +/- 1.6876e+00 1.0139e+00 6.1332e+00 [bar]
Ideal-gas pressure:   5.927683e+01 +/ 8.995627e+00 [bar]
Excess pressure:     -1.765652e+01 +/ 5.627454e+00 [bar]
Pressure:             4.162032e+01 +/ 4.766604e+00 [bar]

Total potential energy/kʙ  -7.618103e+03 (-1.264385e+04 +/- 4.337534e+03) [K]
-------------------------------------------------------------------------------
ExternalField-molecule
    Van der Waals/kʙ        0.000000e+00 ( 0.000000e+00 +/- 0.000000e+00) [K]
Framework-molecule
    Van der Waals/kʙ        0.000000e+00 ( 0.000000e+00 +/- 0.000000e+00) [K]
    Van der Waals (Tail)/kʙ 0.000000e+00 ( 0.000000e+00 +/- 0.000000e+00) [K]
    Coulombic Real/kʙ       0.000000e+00 ( 0.000000e+00 +/- 0.000000e+00) [K]
    Coulombic Fourier/kʙ    0.000000e+00 ( 0.000000e+00 +/- 0.000000e+00) [K]
Molecule-molecule
    Van der Waals/kʙ       -4.841727e+03 (-9.412428e+03 +/- 3.199594e+03) [K]
    Van der Waals (Tail)/kʙ-1.388979e+02 (-1.758535e+02 +/- 6.064585e+01) [K]
    Coulombic Real/kʙ      -2.537367e+03 (-2.786849e+03 +/- 9.860327e+02) [K]
    Coulombic Fourier/kʙ   -1.001106e+02 (-2.687236e+02 +/- 9.315339e+01) [K]
    Molecule Intra/kʙ       0.000000e+00 ( 0.000000e+00 +/- 0.000000e+00) [K]


Energy statistics             |  Energy [K]   | Recomputed [K]|  Drift [K]    |
===============================================================================
Total potential energy/kʙ     | -4.790598e+03 | -4.790598e+03 | -1.393472e-09 |
    external field VDW/kʙ     |  0.000000e+00 |  0.000000e+00 |  0.000000e+00 |
    external field Real/kʙ    |  0.000000e+00 |  0.000000e+00 |  0.000000e+00 |
    framework-molecule VDW/kʙ |  0.000000e+00 |  0.000000e+00 |  0.000000e+00 |
    framework-molecule Real/kʙ|  0.000000e+00 |  0.000000e+00 |  0.000000e+00 |
    molecule-molecule VDW/kʙ  | -3.315368e+03 | -3.315368e+03 | -9.297907e-12 |
    molecule-molecule Real/kʙ | -1.359078e+03 | -1.359078e+03 |  1.285299e-11 |
    Van der Waals (Tail)/kʙ   | -7.571011e+01 | -7.571011e+01 | -1.538257e-13 |
    Ewald Fourier/kʙ          |  2.252978e+03 |  2.252978e+03 |  3.281614e-12 |
    Ewald self/kʙ             | -7.163045e+05 | -7.163045e+05 | -2.800311e-10 |
    Ewald exclusion/kʙ        |  7.140111e+05 |  7.140111e+05 | -1.120124e-09 |
    intra VDW/kʙ              |  0.000000e+00 |  0.000000e+00 |  0.000000e+00 |
    intra Coulombic/kʙ        |  0.000000e+00 |  0.000000e+00 |  0.000000e+00 |
    polarization/kʙ           |  0.000000e+00 |  0.000000e+00 |  0.000000e+00 |
    dU/dlambda VDW/kʙ         |  0.000000e+00 |  0.000000e+00 |  0.000000e+00 |
    dU/dlambda Real/kʙ        |  0.000000e+00 |  0.000000e+00 |  0.000000e+00 |
    dU/dlambda Ewald/kʙ       |  0.000000e+00 |  0.000000e+00 |  0.000000e+00 |
-------------------------------------------------------------------------------


Monte-Carlo moves statistics
===============================================================================

    Gibbs volume         all:                3045
    Gibbs volume         total:              6017
    Gibbs volume         constructed:        6017
    Gibbs volume         accepted:           2974
    Gibbs volume         fraction:       0.494266
    Gibbs volume         max-change:     0.049497

Component 0 [CO2]
    Reinsertion (CBMC)   all:              148650
    Reinsertion (CBMC)   total:            148650
    Reinsertion (CBMC)   constructed:      148650
    Reinsertion (CBMC)   accepted:          87528
    Reinsertion (CBMC)   fraction:       0.588819
    Reinsertion (CBMC)   max-change:     0.000000

    Gibbs swap (CBMC)    all:              298204
    Gibbs swap (CBMC)    total:            596938
    Gibbs swap (CBMC)    constructed:      590476
    Gibbs swap (CBMC)    accepted:         107461
    Gibbs swap (CBMC)    fraction:       0.180020
    Gibbs swap (CBMC)    max-change:     0.000000

    Translation          all:              149560
    Translation          total:             49753      50046      49761
    Translation          constructed:       49624      49906      49604
    Translation          accepted:          38300      38720      38429
    Translation          fraction:       0.769803   0.773688   0.772271
    Translation          max-change:     1.500000   1.500000   1.500000

    Rotation             all:              149746
    Rotation             total:             49599      49959      50188
    Rotation             constructed:       49571      49926      50151
    Rotation             accepted:          38047      38416      38664
    Rotation             fraction:       0.767092   0.768951   0.770383
    Rotation             max-change:     1.500000   1.500000   1.500000



Production run counting of the MC moves summed over systems and components
===============================================================================

Reinsertion (CBMC)                   297772 (19.8515 [%])
Gibbs volume                           6017 (0.4011 [%])
Gibbs swap (CBMC)                    596938 (39.7959 [%])
Translation                          299201 (19.9467 [%])
Rotation                             300072 (20.0048 [%])

Production count MC-steps:          1500000 [-]
               All summed:          1500000 [-]
               difference:                0 [-]


Production run CPU timings of the MC moves
===============================================================================

Component 0 CO2

Rotation                              5.946219 [s]
    Ewald                             3.648626 [s]
    ExternalField-Molecule            0.006745 [s]
    Framework-Molecule                0.007898 [s]
    Molecule-Molecule                 1.741066 [s]
    Overhead                          0.541884 [s]

Reinsertion (CBMC)                   20.969912 [s]
    Ewald                             3.657443 [s]
    NonEwald                         16.907195 [s]
    Overhead                          0.405274 [s]

Translation                           5.932110 [s]
    Ewald                             3.623144 [s]
    ExternalField-Molecule            0.007085 [s]
    Framework-Molecule                0.011390 [s]
    Molecule-Molecule                 1.754266 [s]
    Overhead                          0.536225 [s]



Gibbs swap (CBMC)                   126.859567 [s]
    Ewald                            11.284236 [s]
    NonEwald                        113.611036 [s]
    Tail                              0.968042 [s]

Gibbs volume                         15.925329 [s]
    Ewald                             4.028047 [s]
    NonEwald                         11.271055 [s]
    Tail                              0.463243 [s]

Property sampling                     0.710173 [s]
Energy/pressure sampling:             0.745067 [s]


Production run CPU timings of the MC moves summed over systems and components
===============================================================================


Translation                          20.023853 [s]
    Ewald                             7.266618 [s]
    ExternalField-Molecule            0.013866 [s]
    Framework-Molecule                0.022514 [s]
    Molecule-Molecule                11.719145 [s]
    Overhead                          1.001710 [s]

Rotation                             20.047459 [s]
    Ewald                             7.305190 [s]
    ExternalField-Molecule            0.013164 [s]
    Framework-Molecule                0.016164 [s]
    Molecule-Molecule                11.719879 [s]
    Overhead                          0.993062 [s]

Reinsertion (CBMC)                  102.025007 [s]
    Ewald                             7.324890 [s]
    NonEwald                         94.081826 [s]
    Overhead                          0.618291 [s]

Gibbs volume                         31.449587 [s]
    Ewald                             7.948849 [s]
    NonEwald                         22.258668 [s]
    Tail                              0.914945 [s]
    Overhead                          0.327125 [s]

Gibbs swap (CBMC)                   248.464529 [s]
    Ewald                            22.370278 [s]
    NonEwald                        222.263915 [s]
    Tail                              1.890976 [s]
    Overhead                          1.939360 [s]

Property sampling:                    1.506249 [s]
Energy/pressure sampling:             5.403068 [s]

Production simulation time:         431.019888 [s]
                All summed:         428.919752 [s]
                  Overhead:           2.100136 [s]


Initalization simulation time:      121.680173 [s]
Equilibration simulation time:        0.000000 [s]
Production simulation time:         431.019888 [s]
Total simulation time:              552.700061 [s]


Energy averages and statistics:
===============================================================================

Framework-molecule energy:
-------------------------------------------------------------------------------



Framework-molecule energy contributions per energy type:
-------------------------------------------------------------------------------



Inter-molecular energy:
-------------------------------------------------------------------------------

    Inter-molecular energy/kʙ 0-0 [CO2-CO2]:
    ---------------------------------------------------------------------------
        Block[  0] -1.831428e+04
        Block[  1] -1.356516e+04
        Block[  2] -1.070090e+04
        Block[  3] -1.057076e+04
        Block[  4] -9.515202e+03
        -----------------------------------------------------------------------
        Average  -1.253326e+04 +/-  4.424330e+03 [K]



Inter-molecular energy contributions per energy type:
-------------------------------------------------------------------------------

    Van der Waals energy/kʙ 0-0 [CO2-CO2]:
    ---------------------------------------------------------------------------
        Block[  0] -1.361684e+04
        Block[  1] -1.004016e+04
        Block[  2] -8.012747e+03
        Block[  3] -7.858606e+03
        Block[  4] -7.125008e+03
        -----------------------------------------------------------------------
        Average  -9.330671e+03 +/-  3.263626e+03 [K]

    VDW Tail-Correction energy/kʙ 0-0 [CO2-CO2]:
    ---------------------------------------------------------------------------
        Block[  0] -2.553307e+02
        Block[  1] -1.883335e+02
        Block[  2] -1.504130e+02
        Block[  3] -1.443791e+02
        Block[  4] -1.337799e+02
        -----------------------------------------------------------------------
        Average  -1.744472e+02 +/-  6.167012e+01 [K]

    Coulomb Real energy/kʙ 0-0 [CO2-CO2]:
    ---------------------------------------------------------------------------
        Block[  0] -4.053993e+03
        Block[  1] -3.042325e+03
        Block[  2] -2.307677e+03
        Block[  3] -2.353470e+03
        Block[  4] -2.056882e+03
        -----------------------------------------------------------------------
        Average  -2.762869e+03 +/-  1.004421e+03 [K]

    Coulomb Fourier energy/kʙ 0-0 [CO2-CO2]:
    ---------------------------------------------------------------------------
        Block[  0] -3.881185e+02
        Block[  1] -2.943488e+02
        Block[  2] -2.300672e+02
        Block[  3] -2.143017e+02
        Block[  4] -1.995321e+02
        -----------------------------------------------------------------------
        Average  -2.652737e+02 +/-  9.635522e+01 [K]


Total energy/kʙ
-------------------------------------------------------------------------------
    Block[  0] -1.831428e+04
    Block[  1] -1.356516e+04
    Block[  2] -1.070090e+04
    Block[  3] -1.057076e+04
    Block[  4] -9.515202e+03
    ---------------------------------------------------------------------------
    Average  -1.253326e+04 +/-  4.424330e+03 [K]

Pressure averages and statistics:
===============================================================================

Average pressure tensor: 
-------------------------------------------------------------------------------
 4.0635e+01  1.1779e-01 -1.3587e+00 +/- 4.2011e+00 3.6558e-01 1.6667e+00 [bar]
 1.1779e-01  4.0648e+01 -9.4719e-01 +/- 3.6558e-01 4.5500e+00 1.1617e+00 [bar]
-1.3587e+00 -9.4719e-01  4.3418e+01 +/- 1.6667e+00 1.1617e+00 6.1163e+00 [bar]

    Block[  0]  7.088755e+06
    Block[  1]  6.143989e+06
    Block[  2]  5.569470e+06
    Block[  3]  5.451475e+06
    Block[  4]  5.250080e+06
    ---------------------------------------------------------------------------
    Ideal gas pressure   5.900754e+06 +/-  5.551462e-02 [Pa]
                         5.900754e+01 +/-  9.218426e+00 [bar]


    Block[  0] -2.556619e+06
    Block[  1] -1.592253e+06
    Block[  2] -1.423949e+06
    Block[  3] -1.676780e+06
    Block[  4] -1.470581e+06
    ---------------------------------------------------------------------------
    Excess pressure  -1.744037e+06 +/-  5.773431e+05 [Pa]
                     -1.744037e+01 +/-  5.773431e+00 [bar]


    Block[  0]  4.532136e+06
    Block[  1]  4.551736e+06
    Block[  2]  4.145522e+06
    Block[  3]  3.774695e+06
    Block[  4]  3.779498e+06
    ---------------------------------------------------------------------------
    Pressure average   4.156717e+06 +/-  4.749070e+05 [Pa]
                       4.156717e+01 +/-  4.749070e+00 [bar]


Enthalpy of adsorption
===============================================================================

Component 0 [CO2]
-------------------------------------------------------------------------------
    Block[  0] -7.444611e+02
    Block[  1] -6.617765e+02
    Block[  2] -6.537530e+02
    Block[  3] -6.372942e+02
    Block[  4] -6.608388e+02
    ---------------------------------------------------------------------------
    Enthalpy of adsorption: -6.716247e+02 +/-  5.199516e+01 [K]
                            -5.584200e+00 +/-  4.323120e-01 [kJ/mol]
    Warning: need to subtract the ideal-gas energy.


Densities
===============================================================================

Component 0 (CO2)
    Block[  0] 73.10083333333334
    Block[  1] 61.87833333333334
    Block[  2] 54.87916666666667
    Block[  3] 53.18833333333334
    Block[  4] 50.715
    -----------------------------------------------------------------------
    Density average   5.875233e+01 +/-  1.121122e+01 [molecules]
    Density average   1.526391e-03 +/-  2.384597e-04 [molec/A^3]
    Density average   1.115207e+02 +/-  1.742228e+01 [kg.m⁻³]

