Compiler and run-time data
===============================================================================
RASPA 3.0.4

Random seed: 4204350106

Compiled as a 64-bits application
Compiler: gcc Ubuntu Clang 18.1.3 (1ubuntu1)
Compile Date = Mar 15 2025, Compile Time = 19:39:45

2025-06-03 10:59:44.564639
Simulation started on Tue, Jun 03
The start time was 10:59:00

Hostname:    c109
OS type:     Linux on x86_64
OS release:  6.8.0-58-generic
OS version:  #60-Ubuntu SMP PREEMPT_DYNAMIC Fri Mar 14 18:29:48 UTC 2025


Mutual consistent basic set of units:
===============================================================================

Unit of temperature: 1 [K]
Unit of length:      1e-10 [m]
Unit of time:        1e-12 [s]
Unit of mass:        1.6605402e-27 [kg]
Unit of charge:      1.60217733e-19 [C/particle]


Boltzmann constant (internal units):          0.8314464919307584 [-]
represents conversion from energy (internal units) to temperature (in Kelvin)

Derived units and their conversion factors:
===============================================================================

Unit of energy:                           1.6605402000000002e-23 [J]
Unit of energy:                           10.000008872307538 [J.mol⁻¹]
Unit of velocity:                         100 [m.s⁻¹]
Unit of force:                            1.6605402000000002e-13 [N]
Unit of diffusion:                        1.0000000000000002e-08 [m².s⁻¹]
Unit of acceleration:                     1.0000000000000002e-08 [m².s⁻¹]
Unit of torque:                           1.6605402000000002e-23 [N.m]
Unit of pressure:                         16605402 [Pa]
Unit of volume:                           1e-30 [m³]
Unit of density:                          1660.5402 [kg.m⁻³]
Unit of dynamic viscosity:                1.6605401999999997e-05 [N.s.m⁻²]
Unit of enthalpy:                         1.6605402000000002e-23 [J]
Unit of polarizability:                   1.5458657349975198e-35 [-]
Unit of Coulomb potential:                167101.08000665612 [K]
Unit of dielectric constant:              1.5458657349975193e-05 [s².C².kg⁻¹.m⁻³]
Unit of dipole moment:                    1.60217733e-29 [C.m]
Unit of Debye:                            4.803206799099162 [C.m]
Unit of electric potential:               0.00010364272224473431 [V]
Unit of electric field:                   1036427.222447343 [V.m⁻¹]
Unit of isothermal compressibility:       6.02213665167516e-08 [Pa⁻¹]
Unit of heat capacity:                    10.000008872307538 [J.mol⁻¹.K⁻¹]
Unit of volumetric expansion coefficient: 1 [K⁻¹]


Internal conversion factors:
===============================================================================

Energy (internal units) to Kelvin:      1.202724284692786 [-]
Kelvin to energy (internal units):      0.8314457542157567 [-]


System definitions
===============================================================================

Temperature:          240 [K]
Beta:                 0.005011346739813608 [-]
Pressure:             0 [Pa]
Helium void fraction: 1 [-]

Box:      30.00000   0.00000   0.00000
           0.00000  30.00000   0.00000
           0.00000   0.00000  30.00000
Lengths:  30.00000  30.00000  30.00000
Angles:   90.00000  90.00000  90.00000
Rectangular boundary conditions



Property measurement settings
===============================================================================




Pseudo-atoms
===============================================================================

  0 - C_co2    framework-atom: false
  1 - O_co2    framework-atom: false

  0 - C_co2    mass: 12.00000, charge:  0.70000
  1 - O_co2    mass: 15.99940, charge: -0.35000

  0 - C_co2    polarizability:  0.00000
  1 - O_co2    polarizability:  0.00000

  0 - J. J. Potoff et al., AIChE J. 2001, 47, 1676–1682.
  1 - J. J. Potoff et al., AIChE J. 2001, 47, 1676–1682.

Force field status
===============================================================================

Cutoff Framework-Molecule VDW:  12.00000 [Å]
Cutoff Molecule-Molecule VDW:   12.00000 [Å]
Cutoff Coulomb:                 12.00000 [Å]

Overlap-criteria VDW:           1.000000e+05 [K]

C_co2    - C_co2    Lennard-Jones p₀/kʙ:  27.00000 [K], p₁:  2.80000 [Å]
                                  shift:   0.00000 [K], tailcorrections: true
C_co2    - O_co2    Lennard-Jones p₀/kʙ:  46.18441 [K], p₁:  2.92500 [Å]
                                  shift:   0.00000 [K], tailcorrections: true
O_co2    - O_co2    Lennard-Jones p₀/kʙ:  79.00000 [K], p₁:  3.05000 [Å]
                                  shift:   0.00000 [K], tailcorrections: true

Ewald precision: 1e-06
Ewald alpha: 0.26505830360350674
Ewald k-vectors: 8 8 8


Component definitions
===============================================================================

Component 0 [CO2]

    Type: Adsorbate

    Critical temperature:  304.1282 [K]
    Critical pressure:     7377300 [Pa]
    Acentric factor:       0.22394 [-]

    Mol-fraction:                 1 [-]
    Swappable:                   true

    Mass:                         43.9988 [-]
    Fugacity coefficient:         -nan [-]
    Bulk fluid density:           0 [-]
    Compressibility:              1 [-]
    Excess molecules:             0 [-]

    Number Of Atoms:    3
    CBMC starting bead: 0
      0: O_co2  position  0.00000 -0.00000  1.16000, charge -0.35000
      1: C_co2  position  0.00000 -0.00000  0.00000, charge  0.70000
      2: O_co2  position  0.00000 -0.00000 -1.16000, charge -0.35000
    Diagonalized inertia-vector:      43.05758528 43.05758528 0.00000000
    Translational degrees of freedom: 3
    Rotational degrees of freedom:    2
    Shape of the molecule is: 'Linear'
    Net-charge:        0.00000000 [e]

    Move probabilities:
    Translation:                   0.199203 [-]
    Random translation:            0.000000 [-]
    Rotation:                      0.199203 [-]
    Random rotation:               0.000000 [-]
    Volume change:                 0.000000 [-]
    Reinsertion (CBMC):            0.199203 [-]
    Identity change (CBMC):        0.000000 [-]
    Swap:                          0.000000 [-]
    Swap (CBMC):                   0.000000 [-]
    Swap (CFCMC):                  0.000000 [-]
    Swap (CB/CFCMC):               0.000000 [-]
    Gibbs volume:                  0.003984 [-]
    Gibbs swap (CBMC):             0.398406 [-]
    Gibbs swap (CFCMC):            0.000000 [-]
    Widom:                         0.000000 [-]
    Widom (CFCMC):                 0.000000 [-]
    Widom (CB/CFCMC):              0.000000 [-]
    Parallel tempering:            0.000000 [-]
    Hybrid MC:                     0.000000 [-]

    number of blocking-pockets: 0

    number of bonds: 0





Number of pseudo-atoms
===============================================================================

Component   0 (CO2)
-------------------------------------------------------------------------------
    index   0 (C_co2): 210 atoms
    index   1 (O_co2): 420 atoms

Total number of pseudo-atoms:
-------------------------------------------------------------------------------
    index   0 (C_co2): 210 atoms
    index   1 (O_co2): 420 atoms




Energy status Recomputed from scratch
===============================================================================

Total potential energy/kʙ       -1.091867e+05 [K]
    external field VDW/kʙ        0.000000e+00 [K]
    external field Real/kʙ       0.000000e+00 [K]
    framework-molecule VDW/kʙ    0.000000e+00 [K]
    framework-molecule Real/kʙ   0.000000e+00 [K]
    molecule-molecule VDW/kʙ    -8.558179e+04 [K]
    molecule-molecule Real/kʙ   -1.932309e+04 [K]
    Van der Waals (Tail)/kʙ     -3.033270e+03 [K]
    Ewald Fourier/kʙ             1.110067e+04 [K]
    Ewald self/kʙ               -3.857024e+06 [K]
    Ewald exclusion/kʙ           3.844675e+06 [K]
    intra VDW/kʙ                 0.000000e+00 [K]
    intra Coulombic/kʙ           0.000000e+00 [K]
    polarization/kʙ              0.000000e+00 [K]
    dU/dlambda VDW/kʙ            0.000000e+00 [K]
    dU/dlambda Real/kʙ           0.000000e+00 [K]
    dU/dlambda Ewald/kʙ          0.000000e+00 [K]





Initialization: Current cycle: 0 out of 2000
===============================================================================

Box:      30.27095   0.00000   0.00000
           0.00000  30.27095   0.00000
           0.00000   0.00000  30.27095
Lengths:  30.27095  30.27095  30.27095
Angles:   90.00000  90.00000  90.00000
Rectangular boundary conditions

net charge:   0.00000000

component   0 (CO2) lambda:  0 occupancy:  0 (0.000000)
    net charge:   0.00000000 [e]

Amount of molecules per component :
-------------------------------------------------------------------------------
Component 0 (CO2)
    molecules:         2.180000e+02 molecules
    number density:    7.859200e-03 molec/A^3
    density:           5.742066e+02 kg/m^3

Total potential energy/kʙ       -1.371501e+05 [K]
-------------------------------------------------------------------------------
    external field VDW/kʙ        0.000000e+00 [K]
    external field Real/kʙ       0.000000e+00 [K]
    framework-molecule VDW/kʙ    0.000000e+00 [K]
    framework-molecule Real/kʙ   0.000000e+00 [K]
    molecule-molecule VDW/kʙ    -1.053100e+05 [K]
    molecule-molecule Real/kʙ   -2.600044e+04 [K]
    Van der Waals (Tail)/kʙ     -3.181787e+03 [K]
    Ewald Fourier/kʙ             1.016178e+04 [K]
    Ewald self/kʙ               -4.003958e+06 [K]
    Ewald exclusion/kʙ           3.991139e+06 [K]
    intra VDW/kʙ                 0.000000e+00 [K]
    intra Coulombic/kʙ           0.000000e+00 [K]
    polarization/kʙ              0.000000e+00 [K]
    dU/dlambda VDW/kʙ            0.000000e+00 [K]
    dU/dlambda Real/kʙ           0.000000e+00 [K]
    dU/dlambda Ewald/kʙ          0.000000e+00 [K]


Initialization: Current cycle: 100 out of 2000
===============================================================================

Box:      27.78352   0.00000   0.00000
           0.00000  27.78352   0.00000
           0.00000   0.00000  27.78352
Lengths:  27.78352  27.78352  27.78352
Angles:   90.00000  90.00000  90.00000
Rectangular boundary conditions

net charge:   0.00000000

component   0 (CO2) lambda:  0 occupancy:  0 (0.000000)
    net charge:   0.00000000 [e]

Amount of molecules per component :
-------------------------------------------------------------------------------
Component 0 (CO2)
    molecules:         2.400000e+02 molecules
    number density:    1.119050e-02 molec/A^3
    density:           8.175974e+02 kg/m^3

Total potential energy/kʙ       -2.885187e+05 [K]
-------------------------------------------------------------------------------
    external field VDW/kʙ        0.000000e+00 [K]
    external field Real/kʙ       0.000000e+00 [K]
    framework-molecule VDW/kʙ    0.000000e+00 [K]
    framework-molecule Real/kʙ   0.000000e+00 [K]
    molecule-molecule VDW/kʙ    -2.088393e+05 [K]
    molecule-molecule Real/kʙ   -6.776604e+04 [K]
    Van der Waals (Tail)/kʙ     -4.987663e+03 [K]
    Ewald Fourier/kʙ             7.187729e+03 [K]
    Ewald self/kʙ               -4.408028e+06 [K]
    Ewald exclusion/kʙ           4.393914e+06 [K]
    intra VDW/kʙ                 0.000000e+00 [K]
    intra Coulombic/kʙ           0.000000e+00 [K]
    polarization/kʙ              0.000000e+00 [K]
    dU/dlambda VDW/kʙ            0.000000e+00 [K]
    dU/dlambda Real/kʙ           0.000000e+00 [K]
    dU/dlambda Ewald/kʙ          0.000000e+00 [K]


Initialization: Current cycle: 200 out of 2000
===============================================================================

Box:      26.72375   0.00000   0.00000
           0.00000  26.72375   0.00000
           0.00000   0.00000  26.72375
Lengths:  26.72375  26.72375  26.72375
Angles:   90.00000  90.00000  90.00000
Rectangular boundary conditions

net charge:   0.00000000

component   0 (CO2) lambda:  0 occupancy:  0 (0.000000)
    net charge:   0.00000000 [e]

Amount of molecules per component :
-------------------------------------------------------------------------------
Component 0 (CO2)
    molecules:         2.450000e+02 molecules
    number density:    1.283731e-02 molec/A^3
    density:           9.379158e+02 kg/m^3

Total potential energy/kʙ       -3.360917e+05 [K]
-------------------------------------------------------------------------------
    external field VDW/kʙ        0.000000e+00 [K]
    external field Real/kʙ       0.000000e+00 [K]
    framework-molecule VDW/kʙ    0.000000e+00 [K]
    framework-molecule Real/kʙ   0.000000e+00 [K]
    molecule-molecule VDW/kʙ    -2.375955e+05 [K]
    molecule-molecule Real/kʙ   -8.490510e+04 [K]
    Van der Waals (Tail)/kʙ     -5.840853e+03 [K]
    Ewald Fourier/kʙ             6.657151e+03 [K]
    Ewald self/kʙ               -4.499862e+06 [K]
    Ewald exclusion/kʙ           4.485454e+06 [K]
    intra VDW/kʙ                 0.000000e+00 [K]
    intra Coulombic/kʙ           0.000000e+00 [K]
    polarization/kʙ              0.000000e+00 [K]
    dU/dlambda VDW/kʙ            0.000000e+00 [K]
    dU/dlambda Real/kʙ           0.000000e+00 [K]
    dU/dlambda Ewald/kʙ          0.000000e+00 [K]


Initialization: Current cycle: 300 out of 2000
===============================================================================

Box:      26.48416   0.00000   0.00000
           0.00000  26.48416   0.00000
           0.00000   0.00000  26.48416
Lengths:  26.48416  26.48416  26.48416
Angles:   90.00000  90.00000  90.00000
Rectangular boundary conditions

net charge:   0.00000000

component   0 (CO2) lambda:  0 occupancy:  0 (0.000000)
    net charge:   0.00000000 [e]

Amount of molecules per component :
-------------------------------------------------------------------------------
Component 0 (CO2)
    molecules:         2.470000e+02 molecules
    number density:    1.329653e-02 molec/A^3
    density:           9.714672e+02 kg/m^3

Total potential energy/kʙ       -3.493396e+05 [K]
-------------------------------------------------------------------------------
    external field VDW/kʙ        0.000000e+00 [K]
    external field Real/kʙ       0.000000e+00 [K]
    framework-molecule VDW/kʙ    0.000000e+00 [K]
    framework-molecule Real/kʙ   0.000000e+00 [K]
    molecule-molecule VDW/kʙ    -2.531059e+05 [K]
    molecule-molecule Real/kʙ   -8.245764e+04 [K]
    Van der Waals (Tail)/kʙ     -6.099180e+03 [K]
    Ewald Fourier/kʙ             6.848154e+03 [K]
    Ewald self/kʙ               -4.536595e+06 [K]
    Ewald exclusion/kʙ           4.522070e+06 [K]
    intra VDW/kʙ                 0.000000e+00 [K]
    intra Coulombic/kʙ           0.000000e+00 [K]
    polarization/kʙ              0.000000e+00 [K]
    dU/dlambda VDW/kʙ            0.000000e+00 [K]
    dU/dlambda Real/kʙ           0.000000e+00 [K]
    dU/dlambda Ewald/kʙ          0.000000e+00 [K]


Initialization: Current cycle: 400 out of 2000
===============================================================================

Box:      26.56089   0.00000   0.00000
           0.00000  26.56089   0.00000
           0.00000   0.00000  26.56089
Lengths:  26.56089  26.56089  26.56089
Angles:   90.00000  90.00000  90.00000
Rectangular boundary conditions

net charge:   0.00000000

component   0 (CO2) lambda:  0 occupancy:  0 (0.000000)
    net charge:   0.00000000 [e]

Amount of molecules per component :
-------------------------------------------------------------------------------
Component 0 (CO2)
    molecules:         2.440000e+02 molecules
    number density:    1.302153e-02 molec/A^3
    density:           9.513754e+02 kg/m^3

Total potential energy/kʙ       -3.388025e+05 [K]
-------------------------------------------------------------------------------
    external field VDW/kʙ        0.000000e+00 [K]
    external field Real/kʙ       0.000000e+00 [K]
    framework-molecule VDW/kʙ    0.000000e+00 [K]
    framework-molecule Real/kʙ   0.000000e+00 [K]
    molecule-molecule VDW/kʙ    -2.450383e+05 [K]
    molecule-molecule Real/kʙ   -7.971008e+04 [K]
    Van der Waals (Tail)/kʙ     -5.900490e+03 [K]
    Ewald Fourier/kʙ             6.194877e+03 [K]
    Ewald self/kʙ               -4.481495e+06 [K]
    Ewald exclusion/kʙ           4.467146e+06 [K]
    intra VDW/kʙ                 0.000000e+00 [K]
    intra Coulombic/kʙ           0.000000e+00 [K]
    polarization/kʙ              0.000000e+00 [K]
    dU/dlambda VDW/kʙ            0.000000e+00 [K]
    dU/dlambda Real/kʙ           0.000000e+00 [K]
    dU/dlambda Ewald/kʙ          0.000000e+00 [K]


Initialization: Current cycle: 500 out of 2000
===============================================================================

Box:      25.76744   0.00000   0.00000
           0.00000  25.76744   0.00000
           0.00000   0.00000  25.76744
Lengths:  25.76744  25.76744  25.76744
Angles:   90.00000  90.00000  90.00000
Rectangular boundary conditions

net charge:   0.00000000

component   0 (CO2) lambda:  0 occupancy:  0 (0.000000)
    net charge:   0.00000000 [e]

Amount of molecules per component :
-------------------------------------------------------------------------------
Component 0 (CO2)
    molecules:         2.390000e+02 molecules
    number density:    1.396960e-02 molec/A^3
    density:           1.020643e+03 kg/m^3

Total potential energy/kʙ       -3.537690e+05 [K]
-------------------------------------------------------------------------------
    external field VDW/kʙ        0.000000e+00 [K]
    external field Real/kʙ       0.000000e+00 [K]
    framework-molecule VDW/kʙ    0.000000e+00 [K]
    framework-molecule Real/kʙ   0.000000e+00 [K]
    molecule-molecule VDW/kʙ    -2.560875e+05 [K]
    molecule-molecule Real/kʙ   -8.369225e+04 [K]
    Van der Waals (Tail)/kʙ     -6.200378e+03 [K]
    Ewald Fourier/kʙ             6.265681e+03 [K]
    Ewald self/kʙ               -4.389661e+06 [K]
    Ewald exclusion/kʙ           4.375606e+06 [K]
    intra VDW/kʙ                 0.000000e+00 [K]
    intra Coulombic/kʙ           0.000000e+00 [K]
    polarization/kʙ              0.000000e+00 [K]
    dU/dlambda VDW/kʙ            0.000000e+00 [K]
    dU/dlambda Real/kʙ           0.000000e+00 [K]
    dU/dlambda Ewald/kʙ          0.000000e+00 [K]


Initialization: Current cycle: 600 out of 2000
===============================================================================

Box:      25.70014   0.00000   0.00000
           0.00000  25.70014   0.00000
           0.00000   0.00000  25.70014
Lengths:  25.70014  25.70014  25.70014
Angles:   90.00000  90.00000  90.00000
Rectangular boundary conditions

net charge:   0.00000000

component   0 (CO2) lambda:  0 occupancy:  0 (0.000000)
    net charge:   0.00000000 [e]

Amount of molecules per component :
-------------------------------------------------------------------------------
Component 0 (CO2)
    molecules:         2.390000e+02 molecules
    number density:    1.407963e-02 molec/A^3
    density:           1.028682e+03 kg/m^3

Total potential energy/kʙ       -3.545292e+05 [K]
-------------------------------------------------------------------------------
    external field VDW/kʙ        0.000000e+00 [K]
    external field Real/kʙ       0.000000e+00 [K]
    framework-molecule VDW/kʙ    0.000000e+00 [K]
    framework-molecule Real/kʙ   0.000000e+00 [K]
    molecule-molecule VDW/kʙ    -2.533036e+05 [K]
    molecule-molecule Real/kʙ   -8.737641e+04 [K]
    Van der Waals (Tail)/kʙ     -6.249215e+03 [K]
    Ewald Fourier/kʙ             6.454615e+03 [K]
    Ewald self/kʙ               -4.389661e+06 [K]
    Ewald exclusion/kʙ           4.375606e+06 [K]
    intra VDW/kʙ                 0.000000e+00 [K]
    intra Coulombic/kʙ           0.000000e+00 [K]
    polarization/kʙ              0.000000e+00 [K]
    dU/dlambda VDW/kʙ            0.000000e+00 [K]
    dU/dlambda Real/kʙ           0.000000e+00 [K]
    dU/dlambda Ewald/kʙ          0.000000e+00 [K]


Initialization: Current cycle: 700 out of 2000
===============================================================================

Box:      25.53285   0.00000   0.00000
           0.00000  25.53285   0.00000
           0.00000   0.00000  25.53285
Lengths:  25.53285  25.53285  25.53285
Angles:   90.00000  90.00000  90.00000
Rectangular boundary conditions

net charge:   0.00000000

component   0 (CO2) lambda:  0 occupancy:  0 (0.000000)
    net charge:   0.00000000 [e]

Amount of molecules per component :
-------------------------------------------------------------------------------
Component 0 (CO2)
    molecules:         2.370000e+02 molecules
    number density:    1.423805e-02 molec/A^3
    density:           1.040256e+03 kg/m^3

Total potential energy/kʙ       -3.507025e+05 [K]
-------------------------------------------------------------------------------
    external field VDW/kʙ        0.000000e+00 [K]
    external field Real/kʙ       0.000000e+00 [K]
    framework-molecule VDW/kʙ    0.000000e+00 [K]
    framework-molecule Real/kʙ   0.000000e+00 [K]
    molecule-molecule VDW/kʙ    -2.564750e+05 [K]
    molecule-molecule Real/kʙ   -8.009923e+04 [K]
    Van der Waals (Tail)/kʙ     -6.266643e+03 [K]
    Ewald Fourier/kʙ             6.075370e+03 [K]
    Ewald self/kʙ               -4.352927e+06 [K]
    Ewald exclusion/kʙ           4.338990e+06 [K]
    intra VDW/kʙ                 0.000000e+00 [K]
    intra Coulombic/kʙ           0.000000e+00 [K]
    polarization/kʙ              0.000000e+00 [K]
    dU/dlambda VDW/kʙ            0.000000e+00 [K]
    dU/dlambda Real/kʙ           0.000000e+00 [K]
    dU/dlambda Ewald/kʙ          0.000000e+00 [K]


Initialization: Current cycle: 800 out of 2000
===============================================================================

Box:      25.35605   0.00000   0.00000
           0.00000  25.35605   0.00000
           0.00000   0.00000  25.35605
Lengths:  25.35605  25.35605  25.35605
Angles:   90.00000  90.00000  90.00000
Rectangular boundary conditions

net charge:   0.00000000

component   0 (CO2) lambda:  0 occupancy:  0 (0.000000)
    net charge:   0.00000000 [e]

Amount of molecules per component :
-------------------------------------------------------------------------------
Component 0 (CO2)
    molecules:         2.330000e+02 molecules
    number density:    1.429259e-02 molec/A^3
    density:           1.044241e+03 kg/m^3

Total potential energy/kʙ       -3.522801e+05 [K]
-------------------------------------------------------------------------------
    external field VDW/kʙ        0.000000e+00 [K]
    external field Real/kʙ       0.000000e+00 [K]
    framework-molecule VDW/kʙ    0.000000e+00 [K]
    framework-molecule Real/kʙ   0.000000e+00 [K]
    molecule-molecule VDW/kʙ    -2.532123e+05 [K]
    molecule-molecule Real/kʙ   -8.469870e+04 [K]
    Van der Waals (Tail)/kʙ     -6.184480e+03 [K]
    Ewald Fourier/kʙ             5.517088e+03 [K]
    Ewald self/kʙ               -4.279460e+06 [K]
    Ewald exclusion/kʙ           4.265759e+06 [K]
    intra VDW/kʙ                 0.000000e+00 [K]
    intra Coulombic/kʙ           0.000000e+00 [K]
    polarization/kʙ              0.000000e+00 [K]
    dU/dlambda VDW/kʙ            0.000000e+00 [K]
    dU/dlambda Real/kʙ           0.000000e+00 [K]
    dU/dlambda Ewald/kʙ          0.000000e+00 [K]


Initialization: Current cycle: 900 out of 2000
===============================================================================

Box:      25.21228   0.00000   0.00000
           0.00000  25.21228   0.00000
           0.00000   0.00000  25.21228
Lengths:  25.21228  25.21228  25.21228
Angles:   90.00000  90.00000  90.00000
Rectangular boundary conditions

net charge:   0.00000000

component   0 (CO2) lambda:  0 occupancy:  0 (0.000000)
    net charge:   0.00000000 [e]

Amount of molecules per component :
-------------------------------------------------------------------------------
Component 0 (CO2)
    molecules:         2.310000e+02 molecules
    number density:    1.441371e-02 molec/A^3
    density:           1.053090e+03 kg/m^3

Total potential energy/kʙ       -3.413977e+05 [K]
-------------------------------------------------------------------------------
    external field VDW/kʙ        0.000000e+00 [K]
    external field Real/kʙ       0.000000e+00 [K]
    framework-molecule VDW/kʙ    0.000000e+00 [K]
    framework-molecule Real/kʙ   0.000000e+00 [K]
    molecule-molecule VDW/kʙ    -2.462312e+05 [K]
    molecule-molecule Real/kʙ   -8.098181e+04 [K]
    Van der Waals (Tail)/kʙ     -6.183350e+03 [K]
    Ewald Fourier/kʙ             5.582851e+03 [K]
    Ewald self/kʙ               -4.242727e+06 [K]
    Ewald exclusion/kʙ           4.229143e+06 [K]
    intra VDW/kʙ                 0.000000e+00 [K]
    intra Coulombic/kʙ           0.000000e+00 [K]
    polarization/kʙ              0.000000e+00 [K]
    dU/dlambda VDW/kʙ            0.000000e+00 [K]
    dU/dlambda Real/kʙ           0.000000e+00 [K]
    dU/dlambda Ewald/kʙ          0.000000e+00 [K]


Initialization: Current cycle: 1000 out of 2000
===============================================================================

Box:      25.49240   0.00000   0.00000
           0.00000  25.49240   0.00000
           0.00000   0.00000  25.49240
Lengths:  25.49240  25.49240  25.49240
Angles:   90.00000  90.00000  90.00000
Rectangular boundary conditions

net charge:   0.00000000

component   0 (CO2) lambda:  0 occupancy:  0 (0.000000)
    net charge:   0.00000000 [e]

Amount of molecules per component :
-------------------------------------------------------------------------------
Component 0 (CO2)
    molecules:         2.330000e+02 molecules
    number density:    1.406448e-02 molec/A^3
    density:           1.027575e+03 kg/m^3

Total potential energy/kʙ       -3.478679e+05 [K]
-------------------------------------------------------------------------------
    external field VDW/kʙ        0.000000e+00 [K]
    external field Real/kʙ       0.000000e+00 [K]
    framework-molecule VDW/kʙ    0.000000e+00 [K]
    framework-molecule Real/kʙ   0.000000e+00 [K]
    molecule-molecule VDW/kʙ    -2.555033e+05 [K]
    molecule-molecule Real/kʙ   -7.869180e+04 [K]
    Van der Waals (Tail)/kʙ     -6.085773e+03 [K]
    Ewald Fourier/kʙ             6.114607e+03 [K]
    Ewald self/kʙ               -4.279460e+06 [K]
    Ewald exclusion/kʙ           4.265759e+06 [K]
    intra VDW/kʙ                 0.000000e+00 [K]
    intra Coulombic/kʙ           0.000000e+00 [K]
    polarization/kʙ              0.000000e+00 [K]
    dU/dlambda VDW/kʙ            0.000000e+00 [K]
    dU/dlambda Real/kʙ           0.000000e+00 [K]
    dU/dlambda Ewald/kʙ          0.000000e+00 [K]


Initialization: Current cycle: 1100 out of 2000
===============================================================================

Box:      25.26806   0.00000   0.00000
           0.00000  25.26806   0.00000
           0.00000   0.00000  25.26806
Lengths:  25.26806  25.26806  25.26806
Angles:   90.00000  90.00000  90.00000
Rectangular boundary conditions

net charge:   0.00000000

component   0 (CO2) lambda:  0 occupancy:  0 (0.000000)
    net charge:   0.00000000 [e]

Amount of molecules per component :
-------------------------------------------------------------------------------
Component 0 (CO2)
    molecules:         2.340000e+02 molecules
    number density:    1.450441e-02 molec/A^3
    density:           1.059717e+03 kg/m^3

Total potential energy/kʙ       -3.566407e+05 [K]
-------------------------------------------------------------------------------
    external field VDW/kʙ        0.000000e+00 [K]
    external field Real/kʙ       0.000000e+00 [K]
    framework-molecule VDW/kʙ    0.000000e+00 [K]
    framework-molecule Real/kʙ   0.000000e+00 [K]
    molecule-molecule VDW/kʙ    -2.537072e+05 [K]
    molecule-molecule Real/kʙ   -8.874601e+04 [K]
    Van der Waals (Tail)/kʙ     -6.303071e+03 [K]
    Ewald Fourier/kʙ             5.876173e+03 [K]
    Ewald self/kʙ               -4.297827e+06 [K]
    Ewald exclusion/kʙ           4.284066e+06 [K]
    intra VDW/kʙ                 0.000000e+00 [K]
    intra Coulombic/kʙ           0.000000e+00 [K]
    polarization/kʙ              0.000000e+00 [K]
    dU/dlambda VDW/kʙ            0.000000e+00 [K]
    dU/dlambda Real/kʙ           0.000000e+00 [K]
    dU/dlambda Ewald/kʙ          0.000000e+00 [K]


Initialization: Current cycle: 1200 out of 2000
===============================================================================

Box:      25.16294   0.00000   0.00000
           0.00000  25.16294   0.00000
           0.00000   0.00000  25.16294
Lengths:  25.16294  25.16294  25.16294
Angles:   90.00000  90.00000  90.00000
Rectangular boundary conditions

net charge:   0.00000000

component   0 (CO2) lambda:  0 occupancy:  0 (0.000000)
    net charge:   0.00000000 [e]

Amount of molecules per component :
-------------------------------------------------------------------------------
Component 0 (CO2)
    molecules:         2.380000e+02 molecules
    number density:    1.493800e-02 molec/A^3
    density:           1.091396e+03 kg/m^3

Total potential energy/kʙ       -3.670311e+05 [K]
-------------------------------------------------------------------------------
    external field VDW/kʙ        0.000000e+00 [K]
    external field Real/kʙ       0.000000e+00 [K]
    framework-molecule VDW/kʙ    0.000000e+00 [K]
    framework-molecule Real/kʙ   0.000000e+00 [K]
    molecule-molecule VDW/kʙ    -2.721726e+05 [K]
    molecule-molecule Real/kʙ   -7.991081e+04 [K]
    Van der Waals (Tail)/kʙ     -6.602460e+03 [K]
    Ewald Fourier/kʙ             5.650487e+03 [K]
    Ewald self/kʙ               -4.371294e+06 [K]
    Ewald exclusion/kʙ           4.357298e+06 [K]
    intra VDW/kʙ                 0.000000e+00 [K]
    intra Coulombic/kʙ           0.000000e+00 [K]
    polarization/kʙ              0.000000e+00 [K]
    dU/dlambda VDW/kʙ            0.000000e+00 [K]
    dU/dlambda Real/kʙ           0.000000e+00 [K]
    dU/dlambda Ewald/kʙ          0.000000e+00 [K]


Initialization: Current cycle: 1300 out of 2000
===============================================================================

Box:      25.17886   0.00000   0.00000
           0.00000  25.17886   0.00000
           0.00000   0.00000  25.17886
Lengths:  25.17886  25.17886  25.17886
Angles:   90.00000  90.00000  90.00000
Rectangular boundary conditions

net charge:   0.00000000

component   0 (CO2) lambda:  0 occupancy:  0 (0.000000)
    net charge:   0.00000000 [e]

Amount of molecules per component :
-------------------------------------------------------------------------------
Component 0 (CO2)
    molecules:         2.360000e+02 molecules
    number density:    1.478441e-02 molec/A^3
    density:           1.080174e+03 kg/m^3

Total potential energy/kʙ       -3.694020e+05 [K]
-------------------------------------------------------------------------------
    external field VDW/kʙ        0.000000e+00 [K]
    external field Real/kʙ       0.000000e+00 [K]
    framework-molecule VDW/kʙ    0.000000e+00 [K]
    framework-molecule Real/kʙ   0.000000e+00 [K]
    molecule-molecule VDW/kʙ    -2.640795e+05 [K]
    molecule-molecule Real/kʙ   -9.048042e+04 [K]
    Van der Waals (Tail)/kʙ     -6.479658e+03 [K]
    Ewald Fourier/kʙ             5.515760e+03 [K]
    Ewald self/kʙ               -4.334561e+06 [K]
    Ewald exclusion/kʙ           4.320682e+06 [K]
    intra VDW/kʙ                 0.000000e+00 [K]
    intra Coulombic/kʙ           0.000000e+00 [K]
    polarization/kʙ              0.000000e+00 [K]
    dU/dlambda VDW/kʙ            0.000000e+00 [K]
    dU/dlambda Real/kʙ           0.000000e+00 [K]
    dU/dlambda Ewald/kʙ          0.000000e+00 [K]


Initialization: Current cycle: 1400 out of 2000
===============================================================================

Box:      25.15944   0.00000   0.00000
           0.00000  25.15944   0.00000
           0.00000   0.00000  25.15944
Lengths:  25.15944  25.15944  25.15944
Angles:   90.00000  90.00000  90.00000
Rectangular boundary conditions

net charge:   0.00000000

component   0 (CO2) lambda:  0 occupancy:  0 (0.000000)
    net charge:   0.00000000 [e]

Amount of molecules per component :
-------------------------------------------------------------------------------
Component 0 (CO2)
    molecules:         2.330000e+02 molecules
    number density:    1.463029e-02 molec/A^3
    density:           1.068914e+03 kg/m^3

Total potential energy/kʙ       -3.671213e+05 [K]
-------------------------------------------------------------------------------
    external field VDW/kʙ        0.000000e+00 [K]
    external field Real/kʙ       0.000000e+00 [K]
    framework-molecule VDW/kʙ    0.000000e+00 [K]
    framework-molecule Real/kʙ   0.000000e+00 [K]
    molecule-molecule VDW/kʙ    -2.614541e+05 [K]
    molecule-molecule Real/kʙ   -9.138157e+04 [K]
    Van der Waals (Tail)/kʙ     -6.330601e+03 [K]
    Ewald Fourier/kʙ             5.746638e+03 [K]
    Ewald self/kʙ               -4.279460e+06 [K]
    Ewald exclusion/kʙ           4.265759e+06 [K]
    intra VDW/kʙ                 0.000000e+00 [K]
    intra Coulombic/kʙ           0.000000e+00 [K]
    polarization/kʙ              0.000000e+00 [K]
    dU/dlambda VDW/kʙ            0.000000e+00 [K]
    dU/dlambda Real/kʙ           0.000000e+00 [K]
    dU/dlambda Ewald/kʙ          0.000000e+00 [K]


Initialization: Current cycle: 1500 out of 2000
===============================================================================

Box:      25.00032   0.00000   0.00000
           0.00000  25.00032   0.00000
           0.00000   0.00000  25.00032
Lengths:  25.00032  25.00032  25.00032
Angles:   90.00000  90.00000  90.00000
Rectangular boundary conditions

net charge:   0.00000000

component   0 (CO2) lambda:  0 occupancy:  0 (0.000000)
    net charge:   0.00000000 [e]

Amount of molecules per component :
-------------------------------------------------------------------------------
Component 0 (CO2)
    molecules:         2.290000e+02 molecules
    number density:    1.465544e-02 molec/A^3
    density:           1.070751e+03 kg/m^3

Total potential energy/kʙ       -3.598665e+05 [K]
-------------------------------------------------------------------------------
    external field VDW/kʙ        0.000000e+00 [K]
    external field Real/kʙ       0.000000e+00 [K]
    framework-molecule VDW/kʙ    0.000000e+00 [K]
    framework-molecule Real/kʙ   0.000000e+00 [K]
    molecule-molecule VDW/kʙ    -2.591258e+05 [K]
    molecule-molecule Real/kʙ   -8.648176e+04 [K]
    Van der Waals (Tail)/kʙ     -6.232618e+03 [K]
    Ewald Fourier/kʙ             5.440171e+03 [K]
    Ewald self/kʙ               -4.205993e+06 [K]
    Ewald exclusion/kʙ           4.192527e+06 [K]
    intra VDW/kʙ                 0.000000e+00 [K]
    intra Coulombic/kʙ           0.000000e+00 [K]
    polarization/kʙ              0.000000e+00 [K]
    dU/dlambda VDW/kʙ            0.000000e+00 [K]
    dU/dlambda Real/kʙ           0.000000e+00 [K]
    dU/dlambda Ewald/kʙ          0.000000e+00 [K]


Initialization: Current cycle: 1600 out of 2000
===============================================================================

Box:      25.04537   0.00000   0.00000
           0.00000  25.04537   0.00000
           0.00000   0.00000  25.04537
Lengths:  25.04537  25.04537  25.04537
Angles:   90.00000  90.00000  90.00000
Rectangular boundary conditions

net charge:   0.00000000

component   0 (CO2) lambda:  0 occupancy:  0 (0.000000)
    net charge:   0.00000000 [e]

Amount of molecules per component :
-------------------------------------------------------------------------------
Component 0 (CO2)
    molecules:         2.290000e+02 molecules
    number density:    1.457650e-02 molec/A^3
    density:           1.064984e+03 kg/m^3

Total potential energy/kʙ       -3.539581e+05 [K]
-------------------------------------------------------------------------------
    external field VDW/kʙ        0.000000e+00 [K]
    external field Real/kʙ       0.000000e+00 [K]
    framework-molecule VDW/kʙ    0.000000e+00 [K]
    framework-molecule Real/kʙ   0.000000e+00 [K]
    molecule-molecule VDW/kʙ    -2.581481e+05 [K]
    molecule-molecule Real/kʙ   -8.173581e+04 [K]
    Van der Waals (Tail)/kʙ     -6.199046e+03 [K]
    Ewald Fourier/kʙ             5.591345e+03 [K]
    Ewald self/kʙ               -4.205993e+06 [K]
    Ewald exclusion/kʙ           4.192527e+06 [K]
    intra VDW/kʙ                 0.000000e+00 [K]
    intra Coulombic/kʙ           0.000000e+00 [K]
    polarization/kʙ              0.000000e+00 [K]
    dU/dlambda VDW/kʙ            0.000000e+00 [K]
    dU/dlambda Real/kʙ           0.000000e+00 [K]
    dU/dlambda Ewald/kʙ          0.000000e+00 [K]


Initialization: Current cycle: 1700 out of 2000
===============================================================================

Box:      24.86456   0.00000   0.00000
           0.00000  24.86456   0.00000
           0.00000   0.00000  24.86456
Lengths:  24.86456  24.86456  24.86456
Angles:   90.00000  90.00000  90.00000
Rectangular boundary conditions

net charge:   0.00000000

component   0 (CO2) lambda:  0 occupancy:  0 (0.000000)
    net charge:   0.00000000 [e]

Amount of molecules per component :
-------------------------------------------------------------------------------
Component 0 (CO2)
    molecules:         2.340000e+02 molecules
    number density:    1.522207e-02 molec/A^3
    density:           1.112150e+03 kg/m^3

Total potential energy/kʙ       -3.746134e+05 [K]
-------------------------------------------------------------------------------
    external field VDW/kʙ        0.000000e+00 [K]
    external field Real/kʙ       0.000000e+00 [K]
    framework-molecule VDW/kʙ    0.000000e+00 [K]
    framework-molecule Real/kʙ   0.000000e+00 [K]
    molecule-molecule VDW/kʙ    -2.740544e+05 [K]
    molecule-molecule Real/kʙ   -8.567673e+04 [K]
    Van der Waals (Tail)/kʙ     -6.614938e+03 [K]
    Ewald Fourier/kʙ             5.493127e+03 [K]
    Ewald self/kʙ               -4.297827e+06 [K]
    Ewald exclusion/kʙ           4.284066e+06 [K]
    intra VDW/kʙ                 0.000000e+00 [K]
    intra Coulombic/kʙ           0.000000e+00 [K]
    polarization/kʙ              0.000000e+00 [K]
    dU/dlambda VDW/kʙ            0.000000e+00 [K]
    dU/dlambda Real/kʙ           0.000000e+00 [K]
    dU/dlambda Ewald/kʙ          0.000000e+00 [K]


Initialization: Current cycle: 1800 out of 2000
===============================================================================

Box:      24.94241   0.00000   0.00000
           0.00000  24.94241   0.00000
           0.00000   0.00000  24.94241
Lengths:  24.94241  24.94241  24.94241
Angles:   90.00000  90.00000  90.00000
Rectangular boundary conditions

net charge:   0.00000000

component   0 (CO2) lambda:  0 occupancy:  0 (0.000000)
    net charge:   0.00000000 [e]

Amount of molecules per component :
-------------------------------------------------------------------------------
Component 0 (CO2)
    molecules:         2.350000e+02 molecules
    number density:    1.514443e-02 molec/A^3
    density:           1.106478e+03 kg/m^3

Total potential energy/kʙ       -3.776404e+05 [K]
-------------------------------------------------------------------------------
    external field VDW/kʙ        0.000000e+00 [K]
    external field Real/kʙ       0.000000e+00 [K]
    framework-molecule VDW/kʙ    0.000000e+00 [K]
    framework-molecule Real/kʙ   0.000000e+00 [K]
    molecule-molecule VDW/kʙ    -2.702022e+05 [K]
    molecule-molecule Real/kʙ   -9.215944e+04 [K]
    Van der Waals (Tail)/kʙ     -6.609322e+03 [K]
    Ewald Fourier/kʙ             5.149925e+03 [K]
    Ewald self/kʙ               -4.316194e+06 [K]
    Ewald exclusion/kʙ           4.302374e+06 [K]
    intra VDW/kʙ                 0.000000e+00 [K]
    intra Coulombic/kʙ           0.000000e+00 [K]
    polarization/kʙ              0.000000e+00 [K]
    dU/dlambda VDW/kʙ            0.000000e+00 [K]
    dU/dlambda Real/kʙ           0.000000e+00 [K]
    dU/dlambda Ewald/kʙ          0.000000e+00 [K]


Initialization: Current cycle: 1900 out of 2000
===============================================================================

Box:      24.71074   0.00000   0.00000
           0.00000  24.71074   0.00000
           0.00000   0.00000  24.71074
Lengths:  24.71074  24.71074  24.71074
Angles:   90.00000  90.00000  90.00000
Rectangular boundary conditions

net charge:   0.00000000

component   0 (CO2) lambda:  0 occupancy:  0 (0.000000)
    net charge:   0.00000000 [e]

Amount of molecules per component :
-------------------------------------------------------------------------------
Component 0 (CO2)
    molecules:         2.360000e+02 molecules
    number density:    1.564066e-02 molec/A^3
    density:           1.142733e+03 kg/m^3

Total potential energy/kʙ       -3.991633e+05 [K]
-------------------------------------------------------------------------------
    external field VDW/kʙ        0.000000e+00 [K]
    external field Real/kʙ       0.000000e+00 [K]
    framework-molecule VDW/kʙ    0.000000e+00 [K]
    framework-molecule Real/kʙ   0.000000e+00 [K]
    molecule-molecule VDW/kʙ    -2.829021e+05 [K]
    molecule-molecule Real/kʙ   -1.004591e+05 [K]
    Van der Waals (Tail)/kʙ     -6.854932e+03 [K]
    Ewald Fourier/kʙ             4.930940e+03 [K]
    Ewald self/kʙ               -4.334561e+06 [K]
    Ewald exclusion/kʙ           4.320682e+06 [K]
    intra VDW/kʙ                 0.000000e+00 [K]
    intra Coulombic/kʙ           0.000000e+00 [K]
    polarization/kʙ              0.000000e+00 [K]
    dU/dlambda VDW/kʙ            0.000000e+00 [K]
    dU/dlambda Real/kʙ           0.000000e+00 [K]
    dU/dlambda Ewald/kʙ          0.000000e+00 [K]


Current cycle: 0 out of 6000
===============================================================================

Box:      24.80366   0.00000   0.00000  Average:  24.80366   0.00000   0.00000
           0.00000  24.80366   0.00000             0.00000  24.80366   0.00000
           0.00000   0.00000  24.80366             0.00000   0.00000  24.80366
Lengths:  24.80366  24.80366  24.80366  Average:  24.80366  24.80366  24.80366
Angles:   90.00000  90.00000  90.00000  Average:  90.00000  90.00000  90.00000
Rectangular boundary conditions

net charge:   0.00000000

component 0 (CO2) lambda:  0 occupancy:  0 (0.000000)
    net charge:   0.00000000 [e]

Amount of molecules per component :
-------------------------------------------------------------------------------
Component 0 (CO2)
    molecules:      2.270000e+02 molecules  (2.270000e+02 +/- 0.000000e+00)
    number density: 1.487575e-02 molec./A^3 (1.487575e-02 +/- 0.000000e+00)
    density:        1.086847e+03 kg/m^3     (1.086847e+03 +/- 0.000000e+00)

Average pressure tensor: 
-------------------------------------------------------------------------------
 4.9292e+02  0.0000e+00  0.0000e+00 +/- 0.0000e+00 0.0000e+00 0.0000e+00 [bar]
 0.0000e+00  4.9292e+02  0.0000e+00 +/- 0.0000e+00 0.0000e+00 0.0000e+00 [bar]
 0.0000e+00  0.0000e+00  4.9292e+02 +/- 0.0000e+00 0.0000e+00 0.0000e+00 [bar]
Ideal-gas pressure:   4.929169e+02 +/ 0.000000e+00 [bar]
Excess pressure:      0.000000e+00 +/ 0.000000e+00 [bar]
Pressure:             4.929169e+02 +/ 0.000000e+00 [bar]

Total potential energy/kʙ  -3.675602e+05 (-3.675602e+05 +/- 0.000000e+00) [K]
-------------------------------------------------------------------------------
ExternalField-molecule
    Van der Waals/kʙ        0.000000e+00 ( 0.000000e+00 +/- 0.000000e+00) [K]
Framework-molecule
    Van der Waals/kʙ        0.000000e+00 ( 0.000000e+00 +/- 0.000000e+00) [K]
    Van der Waals (Tail)/kʙ 0.000000e+00 ( 0.000000e+00 +/- 0.000000e+00) [K]
    Coulombic Real/kʙ       0.000000e+00 ( 0.000000e+00 +/- 0.000000e+00) [K]
    Coulombic Fourier/kʙ    0.000000e+00 ( 0.000000e+00 +/- 0.000000e+00) [K]
Molecule-molecule
    Van der Waals/kʙ       -2.620825e+05 (-2.620825e+05 +/- 0.000000e+00) [K]
    Van der Waals (Tail)/kʙ-6.271058e+03 (-6.271058e+03 +/- 0.000000e+00) [K]
    Coulombic Real/kʙ      -9.098330e+04 (-9.098330e+04 +/- 0.000000e+00) [K]
    Coulombic Fourier/kʙ   -8.223345e+03 (-8.223345e+03 +/- 0.000000e+00) [K]
    Molecule Intra/kʙ       0.000000e+00 ( 0.000000e+00 +/- 0.000000e+00) [K]

Current cycle: 100 out of 6000
===============================================================================

Box:      25.00713   0.00000   0.00000  Average:  24.99311   0.00000   0.00000
           0.00000  25.00713   0.00000             0.00000  24.99311   0.00000
           0.00000   0.00000  25.00713             0.00000   0.00000  24.99311
Lengths:  25.00713  25.00713  25.00713  Average:  24.99311  24.99311  24.99311
Angles:   90.00000  90.00000  90.00000  Average:  90.00000  90.00000  90.00000
Rectangular boundary conditions

net charge:   0.00000000

component 0 (CO2) lambda:  0 occupancy:  0 (0.000000)
    net charge:   0.00000000 [e]

Amount of molecules per component :
-------------------------------------------------------------------------------
Component 0 (CO2)
    molecules:      2.280000e+02 molecules  (2.332772e+02 +/- 0.000000e+00)
    number density: 1.457951e-02 molec./A^3 (1.494271e-02 +/- 0.000000e+00)
    density:        1.065204e+03 kg/m^3     (1.091740e+03 +/- 0.000000e+00)

Average pressure tensor: 
-------------------------------------------------------------------------------
-2.3164e+01 -2.1822e+00 -1.7279e+02 +/- 0.0000e+00 0.0000e+00 0.0000e+00 [bar]
-2.1822e+00 -8.4527e+01  5.3490e+01 +/- 0.0000e+00 0.0000e+00 0.0000e+00 [bar]
-1.7279e+02  5.3490e+01  2.4885e+02 +/- 0.0000e+00 0.0000e+00 0.0000e+00 [bar]
Ideal-gas pressure:   4.951357e+02 +/ 0.000000e+00 [bar]
Excess pressure:     -4.480829e+02 +/ 0.000000e+00 [bar]
Pressure:             4.705285e+01 +/ 0.000000e+00 [bar]

Total potential energy/kʙ  -3.560787e+05 (-3.703291e+05 +/- 0.000000e+00) [K]
-------------------------------------------------------------------------------
ExternalField-molecule
    Van der Waals/kʙ        0.000000e+00 ( 0.000000e+00 +/- 0.000000e+00) [K]
Framework-molecule
    Van der Waals/kʙ        0.000000e+00 ( 0.000000e+00 +/- 0.000000e+00) [K]
    Van der Waals (Tail)/kʙ 0.000000e+00 ( 0.000000e+00 +/- 0.000000e+00) [K]
    Coulombic Real/kʙ       0.000000e+00 ( 0.000000e+00 +/- 0.000000e+00) [K]
    Coulombic Fourier/kʙ    0.000000e+00 ( 0.000000e+00 +/- 0.000000e+00) [K]
Molecule-molecule
    Van der Waals/kʙ       -2.595651e+05 (-2.671840e+05 +/- 0.000000e+00) [K]
    Van der Waals (Tail)/kʙ-6.173253e+03 (-6.444008e+03 +/- 0.000000e+00) [K]
    Coulombic Real/kʙ      -8.256297e+04 (-8.878616e+04 +/- 0.000000e+00) [K]
    Coulombic Fourier/kʙ   -7.777397e+03 (-7.914894e+03 +/- 0.000000e+00) [K]
    Molecule Intra/kʙ       0.000000e+00 ( 0.000000e+00 +/- 0.000000e+00) [K]

Current cycle: 200 out of 6000
===============================================================================

Box:      24.76392   0.00000   0.00000  Average:  24.90150   0.00000   0.00000
           0.00000  24.76392   0.00000             0.00000  24.90150   0.00000
           0.00000   0.00000  24.76392             0.00000   0.00000  24.90150
Lengths:  24.76392  24.76392  24.76392  Average:  24.90150  24.90150  24.90150
Angles:   90.00000  90.00000  90.00000  Average:  90.00000  90.00000  90.00000
Rectangular boundary conditions

net charge:   0.00000000

component 0 (CO2) lambda:  0 occupancy:  0 (0.000000)
    net charge:   0.00000000 [e]

Amount of molecules per component :
-------------------------------------------------------------------------------
Component 0 (CO2)
    molecules:      2.310000e+02 molecules  (2.307761e+02 +/- 0.000000e+00)
    number density: 1.521086e-02 molec./A^3 (1.494614e-02 +/- 0.000000e+00)
    density:        1.111331e+03 kg/m^3     (1.091991e+03 +/- 0.000000e+00)

Average pressure tensor: 
-------------------------------------------------------------------------------
-6.1610e+01 -2.8379e+01 -1.7695e+02 +/- 0.0000e+00 0.0000e+00 0.0000e+00 [bar]
-2.8379e+01 -2.8181e+01  1.0317e+02 +/- 0.0000e+00 0.0000e+00 0.0000e+00 [bar]
-1.7695e+02  1.0317e+02  3.6262e+01 +/- 0.0000e+00 0.0000e+00 0.0000e+00 [bar]
Ideal-gas pressure:   4.952495e+02 +/ 0.000000e+00 [bar]
Excess pressure:     -5.130926e+02 +/ 0.000000e+00 [bar]
Pressure:            -1.784315e+01 +/ 0.000000e+00 [bar]

Total potential energy/kʙ  -3.675458e+05 (-3.656015e+05 +/- 0.000000e+00) [K]
-------------------------------------------------------------------------------
ExternalField-molecule
    Van der Waals/kʙ        0.000000e+00 ( 0.000000e+00 +/- 0.000000e+00) [K]
Framework-molecule
    Van der Waals/kʙ        0.000000e+00 ( 0.000000e+00 +/- 0.000000e+00) [K]
    Van der Waals (Tail)/kʙ 0.000000e+00 ( 0.000000e+00 +/- 0.000000e+00) [K]
    Coulombic Real/kʙ       0.000000e+00 ( 0.000000e+00 +/- 0.000000e+00) [K]
    Coulombic Fourier/kʙ    0.000000e+00 ( 0.000000e+00 +/- 0.000000e+00) [K]
Molecule-molecule
    Van der Waals/kʙ       -2.690160e+05 (-2.658118e+05 +/- 0.000000e+00) [K]
    Van der Waals (Tail)/kʙ-6.525322e+03 (-6.391408e+03 +/- 0.000000e+00) [K]
    Coulombic Real/kʙ      -8.394263e+04 (-8.545832e+04 +/- 0.000000e+00) [K]
    Coulombic Fourier/kʙ   -8.061802e+03 (-7.939970e+03 +/- 0.000000e+00) [K]
    Molecule Intra/kʙ       0.000000e+00 ( 0.000000e+00 +/- 0.000000e+00) [K]

Current cycle: 300 out of 6000
===============================================================================

Box:      24.37387   0.00000   0.00000  Average:  24.82470   0.00000   0.00000
           0.00000  24.37387   0.00000             0.00000  24.82470   0.00000
           0.00000   0.00000  24.37387             0.00000   0.00000  24.82470
Lengths:  24.37387  24.37387  24.37387  Average:  24.82470  24.82470  24.82470
Angles:   90.00000  90.00000  90.00000  Average:  90.00000  90.00000  90.00000
Rectangular boundary conditions

net charge:   0.00000000

component 0 (CO2) lambda:  0 occupancy:  0 (0.000000)
    net charge:   0.00000000 [e]

Amount of molecules per component :
-------------------------------------------------------------------------------
Component 0 (CO2)
    molecules:      2.280000e+02 molecules  (2.299269e+02 +/- 0.000000e+00)
    number density: 1.574568e-02 molec./A^3 (1.503084e-02 +/- 0.000000e+00)
    density:        1.150406e+03 kg/m^3     (1.098179e+03 +/- 0.000000e+00)

Average pressure tensor: 
-------------------------------------------------------------------------------
-6.8629e+01 -2.1925e+00 -1.1075e+02 +/- 0.0000e+00 0.0000e+00 0.0000e+00 [bar]
-2.1925e+00 -9.0918e+01  1.0969e+02 +/- 0.0000e+00 0.0000e+00 0.0000e+00 [bar]
-1.1075e+02  1.0969e+02 -5.7366e+00 +/- 0.0000e+00 0.0000e+00 0.0000e+00 [bar]
Ideal-gas pressure:   4.980561e+02 +/ 0.000000e+00 [bar]
Excess pressure:     -5.531509e+02 +/ 0.000000e+00 [bar]
Pressure:            -5.509477e+01 +/ 0.000000e+00 [bar]

Total potential energy/kʙ  -3.806251e+05 (-3.666289e+05 +/- 0.000000e+00) [K]
-------------------------------------------------------------------------------
ExternalField-molecule
    Van der Waals/kʙ        0.000000e+00 ( 0.000000e+00 +/- 0.000000e+00) [K]
Framework-molecule
    Van der Waals/kʙ        0.000000e+00 ( 0.000000e+00 +/- 0.000000e+00) [K]
    Van der Waals (Tail)/kʙ 0.000000e+00 ( 0.000000e+00 +/- 0.000000e+00) [K]
    Coulombic Real/kʙ       0.000000e+00 ( 0.000000e+00 +/- 0.000000e+00) [K]
    Coulombic Fourier/kʙ    0.000000e+00 ( 0.000000e+00 +/- 0.000000e+00) [K]
Molecule-molecule
    Van der Waals/kʙ       -2.755243e+05 (-2.665642e+05 +/- 0.000000e+00) [K]
    Van der Waals (Tail)/kʙ-6.667030e+03 (-6.399448e+03 +/- 0.000000e+00) [K]
    Coulombic Real/kʙ      -9.051723e+04 (-8.574316e+04 +/- 0.000000e+00) [K]
    Coulombic Fourier/kʙ   -7.916564e+03 (-7.922026e+03 +/- 0.000000e+00) [K]
    Molecule Intra/kʙ       0.000000e+00 ( 0.000000e+00 +/- 0.000000e+00) [K]

Current cycle: 400 out of 6000
===============================================================================

Box:      24.36470   0.00000   0.00000  Average:  24.72516   0.00000   0.00000
           0.00000  24.36470   0.00000             0.00000  24.72516   0.00000
           0.00000   0.00000  24.36470             0.00000   0.00000  24.72516
Lengths:  24.36470  24.36470  24.36470  Average:  24.72516  24.72516  24.72516
Angles:   90.00000  90.00000  90.00000  Average:  90.00000  90.00000  90.00000
Rectangular boundary conditions

net charge:   0.00000000

component 0 (CO2) lambda:  0 occupancy:  0 (0.000000)
    net charge:   0.00000000 [e]

Amount of molecules per component :
-------------------------------------------------------------------------------
Component 0 (CO2)
    molecules:      2.210000e+02 molecules  (2.285262e+02 +/- 0.000000e+00)
    number density: 1.527950e-02 molec./A^3 (1.512093e-02 +/- 0.000000e+00)
    density:        1.116347e+03 kg/m^3     (1.104761e+03 +/- 0.000000e+00)

Average pressure tensor: 
-------------------------------------------------------------------------------
-7.9671e+01  4.0622e+01 -8.1908e+01 +/- 0.0000e+00 0.0000e+00 0.0000e+00 [bar]
 4.0622e+01 -7.8490e+01  5.1303e+01 +/- 0.0000e+00 0.0000e+00 0.0000e+00 [bar]
-8.1908e+01  5.1303e+01  3.6501e+01 +/- 0.0000e+00 0.0000e+00 0.0000e+00 [bar]
Ideal-gas pressure:   5.010413e+02 +/ 0.000000e+00 [bar]
Excess pressure:     -5.415945e+02 +/ 0.000000e+00 [bar]
Pressure:            -4.055320e+01 +/ 0.000000e+00 [bar]

Total potential energy/kʙ  -3.591662e+05 (-3.667725e+05 +/- 0.000000e+00) [K]
-------------------------------------------------------------------------------
ExternalField-molecule
    Van der Waals/kʙ        0.000000e+00 ( 0.000000e+00 +/- 0.000000e+00) [K]
Framework-molecule
    Van der Waals/kʙ        0.000000e+00 ( 0.000000e+00 +/- 0.000000e+00) [K]
    Van der Waals (Tail)/kʙ 0.000000e+00 ( 0.000000e+00 +/- 0.000000e+00) [K]
    Coulombic Real/kʙ       0.000000e+00 ( 0.000000e+00 +/- 0.000000e+00) [K]
    Coulombic Fourier/kʙ    0.000000e+00 ( 0.000000e+00 +/- 0.000000e+00) [K]
Molecule-molecule
    Van der Waals/kʙ       -2.626477e+05 (-2.663239e+05 +/- 0.000000e+00) [K]
    Van der Waals (Tail)/kʙ-6.271014e+03 (-6.397256e+03 +/- 0.000000e+00) [K]
    Coulombic Real/kʙ      -8.275688e+04 (-8.622673e+04 +/- 0.000000e+00) [K]
    Coulombic Fourier/kʙ   -7.490535e+03 (-7.824659e+03 +/- 0.000000e+00) [K]
    Molecule Intra/kʙ       0.000000e+00 ( 0.000000e+00 +/- 0.000000e+00) [K]

Current cycle: 500 out of 6000
===============================================================================

Box:      24.06433   0.00000   0.00000  Average:  24.63294   0.00000   0.00000
           0.00000  24.06433   0.00000             0.00000  24.63294   0.00000
           0.00000   0.00000  24.06433             0.00000   0.00000  24.63294
Lengths:  24.06433  24.06433  24.06433  Average:  24.63294  24.63294  24.63294
Angles:   90.00000  90.00000  90.00000  Average:  90.00000  90.00000  90.00000
Rectangular boundary conditions

net charge:   0.00000000

component 0 (CO2) lambda:  0 occupancy:  0 (0.000000)
    net charge:   0.00000000 [e]

Amount of molecules per component :
-------------------------------------------------------------------------------
Component 0 (CO2)
    molecules:      2.170000e+02 molecules  (2.264850e+02 +/- 0.000000e+00)
    number density: 1.557178e-02 molec./A^3 (1.515348e-02 +/- 0.000000e+00)
    density:        1.137701e+03 kg/m^3     (1.107139e+03 +/- 0.000000e+00)

Average pressure tensor: 
-------------------------------------------------------------------------------
-6.4538e+01  4.5038e+01 -8.5051e+01 +/- 0.0000e+00 0.0000e+00 0.0000e+00 [bar]
 4.5038e+01 -8.9155e+01  2.5016e+01 +/- 0.0000e+00 0.0000e+00 0.0000e+00 [bar]
-8.5051e+01  2.5016e+01  1.2374e+01 +/- 0.0000e+00 0.0000e+00 0.0000e+00 [bar]
Ideal-gas pressure:   5.021199e+02 +/ 0.000000e+00 [bar]
Excess pressure:     -5.492259e+02 +/ 0.000000e+00 [bar]
Pressure:            -4.710598e+01 +/ 0.000000e+00 [bar]

Total potential energy/kʙ  -3.614115e+05 (-3.645195e+05 +/- 0.000000e+00) [K]
-------------------------------------------------------------------------------
ExternalField-molecule
    Van der Waals/kʙ        0.000000e+00 ( 0.000000e+00 +/- 0.000000e+00) [K]
Framework-molecule
    Van der Waals/kʙ        0.000000e+00 ( 0.000000e+00 +/- 0.000000e+00) [K]
    Van der Waals (Tail)/kʙ 0.000000e+00 ( 0.000000e+00 +/- 0.000000e+00) [K]
    Coulombic Real/kʙ       0.000000e+00 ( 0.000000e+00 +/- 0.000000e+00) [K]
    Coulombic Fourier/kʙ    0.000000e+00 ( 0.000000e+00 +/- 0.000000e+00) [K]
Molecule-molecule
    Van der Waals/kʙ       -2.580387e+05 (-2.646807e+05 +/- 0.000000e+00) [K]
    Van der Waals (Tail)/kʙ-6.275296e+03 (-6.358894e+03 +/- 0.000000e+00) [K]
    Coulombic Real/kʙ      -8.929091e+04 (-8.569062e+04 +/- 0.000000e+00) [K]
    Coulombic Fourier/kʙ   -7.806652e+03 (-7.789274e+03 +/- 0.000000e+00) [K]
    Molecule Intra/kʙ       0.000000e+00 ( 0.000000e+00 +/- 0.000000e+00) [K]

Current cycle: 600 out of 6000
===============================================================================

Box:      24.21582   0.00000   0.00000  Average:  24.56139   0.00000   0.00000
           0.00000  24.21582   0.00000             0.00000  24.56139   0.00000
           0.00000   0.00000  24.21582             0.00000   0.00000  24.56139
Lengths:  24.21582  24.21582  24.21582  Average:  24.56139  24.56139  24.56139
Angles:   90.00000  90.00000  90.00000  Average:  90.00000  90.00000  90.00000
Rectangular boundary conditions

net charge:   0.00000000

component 0 (CO2) lambda:  0 occupancy:  0 (0.000000)
    net charge:   0.00000000 [e]

Amount of molecules per component :
-------------------------------------------------------------------------------
Component 0 (CO2)
    molecules:      2.190000e+02 molecules  (2.250166e+02 +/- 0.000000e+00)
    number density: 1.542220e-02 molec./A^3 (1.518668e-02 +/- 0.000000e+00)
    density:        1.126772e+03 kg/m^3     (1.109565e+03 +/- 0.000000e+00)

Average pressure tensor: 
-------------------------------------------------------------------------------
-6.8287e+01  5.7550e+01 -7.8001e+01 +/- 0.0000e+00 0.0000e+00 0.0000e+00 [bar]
 5.7550e+01 -6.1155e+01 -1.2703e+01 +/- 0.0000e+00 0.0000e+00 0.0000e+00 [bar]
-7.8001e+01 -1.2703e+01  1.0812e+01 +/- 0.0000e+00 0.0000e+00 0.0000e+00 [bar]
Ideal-gas pressure:   5.032198e+02 +/ 0.000000e+00 [bar]
Excess pressure:     -5.427630e+02 +/ 0.000000e+00 [bar]
Pressure:            -3.954317e+01 +/ 0.000000e+00 [bar]

Total potential energy/kʙ  -3.615424e+05 (-3.639057e+05 +/- 0.000000e+00) [K]
-------------------------------------------------------------------------------
ExternalField-molecule
    Van der Waals/kʙ        0.000000e+00 ( 0.000000e+00 +/- 0.000000e+00) [K]
Framework-molecule
    Van der Waals/kʙ        0.000000e+00 ( 0.000000e+00 +/- 0.000000e+00) [K]
    Van der Waals (Tail)/kʙ 0.000000e+00 ( 0.000000e+00 +/- 0.000000e+00) [K]
    Coulombic Real/kʙ       0.000000e+00 ( 0.000000e+00 +/- 0.000000e+00) [K]
    Coulombic Fourier/kʙ    0.000000e+00 ( 0.000000e+00 +/- 0.000000e+00) [K]
Molecule-molecule
    Van der Waals/kʙ       -2.628220e+05 (-2.637866e+05 +/- 0.000000e+00) [K]
    Van der Waals (Tail)/kʙ-6.272298e+03 (-6.334533e+03 +/- 0.000000e+00) [K]
    Coulombic Real/kʙ      -8.444320e+04 (-8.595004e+04 +/- 0.000000e+00) [K]
    Coulombic Fourier/kʙ   -8.004894e+03 (-7.834540e+03 +/- 0.000000e+00) [K]
    Molecule Intra/kʙ       0.000000e+00 ( 0.000000e+00 +/- 0.000000e+00) [K]

Current cycle: 700 out of 6000
===============================================================================

Box:      24.25653   0.00000   0.00000  Average:  24.52072   0.00000   0.00000
           0.00000  24.25653   0.00000             0.00000  24.52072   0.00000
           0.00000   0.00000  24.25653             0.00000   0.00000  24.52072
Lengths:  24.25653  24.25653  24.25653  Average:  24.52072  24.52072  24.52072
Angles:   90.00000  90.00000  90.00000  Average:  90.00000  90.00000  90.00000
Rectangular boundary conditions

net charge:   0.00000000

component 0 (CO2) lambda:  0 occupancy:  0 (0.000000)
    net charge:   0.00000000 [e]

Amount of molecules per component :
-------------------------------------------------------------------------------
Component 0 (CO2)
    molecules:      2.180000e+02 molecules  (2.237832e+02 +/- 0.000000e+00)
    number density: 1.527461e-02 molec./A^3 (1.517774e-02 +/- 0.000000e+00)
    density:        1.115989e+03 kg/m^3     (1.108912e+03 +/- 0.000000e+00)

Average pressure tensor: 
-------------------------------------------------------------------------------
-2.7225e+01  4.1477e+01 -5.5000e+01 +/- 0.0000e+00 0.0000e+00 0.0000e+00 [bar]
 4.1477e+01 -5.9476e+01  1.5505e+01 +/- 0.0000e+00 0.0000e+00 0.0000e+00 [bar]
-5.5000e+01  1.5505e+01  4.8832e+00 +/- 0.0000e+00 0.0000e+00 0.0000e+00 [bar]
Ideal-gas pressure:   5.029237e+02 +/ 0.000000e+00 [bar]
Excess pressure:     -5.301963e+02 +/ 0.000000e+00 [bar]
Pressure:            -2.727256e+01 +/ 0.000000e+00 [bar]

Total potential energy/kʙ  -3.507902e+05 (-3.619401e+05 +/- 0.000000e+00) [K]
-------------------------------------------------------------------------------
ExternalField-molecule
    Van der Waals/kʙ        0.000000e+00 ( 0.000000e+00 +/- 0.000000e+00) [K]
Framework-molecule
    Van der Waals/kʙ        0.000000e+00 ( 0.000000e+00 +/- 0.000000e+00) [K]
    Van der Waals (Tail)/kʙ 0.000000e+00 ( 0.000000e+00 +/- 0.000000e+00) [K]
    Coulombic Real/kʙ       0.000000e+00 ( 0.000000e+00 +/- 0.000000e+00) [K]
    Coulombic Fourier/kʙ    0.000000e+00 ( 0.000000e+00 +/- 0.000000e+00) [K]
Molecule-molecule
    Van der Waals/kʙ       -2.547869e+05 (-2.620502e+05 +/- 0.000000e+00) [K]
    Van der Waals (Tail)/kʙ-6.183907e+03 (-6.299483e+03 +/- 0.000000e+00) [K]
    Coulombic Real/kʙ      -8.187280e+04 (-8.577581e+04 +/- 0.000000e+00) [K]
    Coulombic Fourier/kʙ   -7.946596e+03 (-7.814679e+03 +/- 0.000000e+00) [K]
    Molecule Intra/kʙ       0.000000e+00 ( 0.000000e+00 +/- 0.000000e+00) [K]

Current cycle: 800 out of 6000
===============================================================================

Box:      24.42814   0.00000   0.00000  Average:  24.48697   0.00000   0.00000
           0.00000  24.42814   0.00000             0.00000  24.48697   0.00000
           0.00000   0.00000  24.42814             0.00000   0.00000  24.48697
Lengths:  24.42814  24.42814  24.42814  Average:  24.48697  24.48697  24.48697
Angles:   90.00000  90.00000  90.00000  Average:  90.00000  90.00000  90.00000
Rectangular boundary conditions

net charge:   0.00000000

component 0 (CO2) lambda:  0 occupancy:  0 (0.000000)
    net charge:   0.00000000 [e]

Amount of molecules per component :
-------------------------------------------------------------------------------
Component 0 (CO2)
    molecules:      2.210000e+02 molecules  (2.231111e+02 +/- 0.000000e+00)
    number density: 1.516077e-02 molec./A^3 (1.519496e-02 +/- 0.000000e+00)
    density:        1.107672e+03 kg/m^3     (1.110170e+03 +/- 0.000000e+00)

Average pressure tensor: 
-------------------------------------------------------------------------------
-1.5144e+01  2.1256e+01 -5.4860e+01 +/- 0.0000e+00 0.0000e+00 0.0000e+00 [bar]
 2.1256e+01 -7.7248e+00  3.6331e+01 +/- 0.0000e+00 0.0000e+00 0.0000e+00 [bar]
-5.4860e+01  3.6331e+01 -1.8352e+01 +/- 0.0000e+00 0.0000e+00 0.0000e+00 [bar]
Ideal-gas pressure:   5.034942e+02 +/ 0.000000e+00 [bar]
Excess pressure:     -5.172346e+02 +/ 0.000000e+00 [bar]
Pressure:            -1.374045e+01 +/ 0.000000e+00 [bar]

Total potential energy/kʙ  -3.573376e+05 (-3.611628e+05 +/- 0.000000e+00) [K]
-------------------------------------------------------------------------------
ExternalField-molecule
    Van der Waals/kʙ        0.000000e+00 ( 0.000000e+00 +/- 0.000000e+00) [K]
Framework-molecule
    Van der Waals/kʙ        0.000000e+00 ( 0.000000e+00 +/- 0.000000e+00) [K]
    Van der Waals (Tail)/kʙ 0.000000e+00 ( 0.000000e+00 +/- 0.000000e+00) [K]
    Coulombic Real/kʙ       0.000000e+00 ( 0.000000e+00 +/- 0.000000e+00) [K]
    Coulombic Fourier/kʙ    0.000000e+00 ( 0.000000e+00 +/- 0.000000e+00) [K]
Molecule-molecule
    Van der Waals/kʙ       -2.613169e+05 (-2.615301e+05 +/- 0.000000e+00) [K]
    Van der Waals (Tail)/kʙ-6.222283e+03 (-6.288046e+03 +/- 0.000000e+00) [K]
    Coulombic Real/kʙ      -8.168734e+04 (-8.552521e+04 +/- 0.000000e+00) [K]
    Coulombic Fourier/kʙ   -8.111052e+03 (-7.819402e+03 +/- 0.000000e+00) [K]
    Molecule Intra/kʙ       0.000000e+00 ( 0.000000e+00 +/- 0.000000e+00) [K]

Current cycle: 900 out of 6000
===============================================================================

Box:      24.47815   0.00000   0.00000  Average:  24.48339   0.00000   0.00000
           0.00000  24.47815   0.00000             0.00000  24.48339   0.00000
           0.00000   0.00000  24.47815             0.00000   0.00000  24.48339
Lengths:  24.47815  24.47815  24.47815  Average:  24.48339  24.48339  24.48339
Angles:   90.00000  90.00000  90.00000  Average:  90.00000  90.00000  90.00000
Rectangular boundary conditions

net charge:   0.00000000

component 0 (CO2) lambda:  0 occupancy:  0 (0.000000)
    net charge:   0.00000000 [e]

Amount of molecules per component :
-------------------------------------------------------------------------------
Component 0 (CO2)
    molecules:      2.230000e+02 molecules  (2.230844e+02 +/- 0.000000e+00)
    number density: 1.520439e-02 molec./A^3 (1.519995e-02 +/- 0.000000e+00)
    density:        1.110859e+03 kg/m^3     (1.110534e+03 +/- 0.000000e+00)

Average pressure tensor: 
-------------------------------------------------------------------------------
-1.4162e+01  3.9265e+01 -4.5668e+01 +/- 0.0000e+00 0.0000e+00 0.0000e+00 [bar]
 3.9265e+01 -9.3832e+00  2.7687e+01 +/- 0.0000e+00 0.0000e+00 0.0000e+00 [bar]
-4.5668e+01  2.7687e+01 -2.4637e+01 +/- 0.0000e+00 0.0000e+00 0.0000e+00 [bar]
Ideal-gas pressure:   5.036596e+02 +/ 0.000000e+00 [bar]
Excess pressure:     -5.197203e+02 +/ 0.000000e+00 [bar]
Pressure:            -1.606076e+01 +/ 0.000000e+00 [bar]

Total potential energy/kʙ  -3.566574e+05 (-3.609386e+05 +/- 0.000000e+00) [K]
-------------------------------------------------------------------------------
ExternalField-molecule
    Van der Waals/kʙ        0.000000e+00 ( 0.000000e+00 +/- 0.000000e+00) [K]
Framework-molecule
    Van der Waals/kʙ        0.000000e+00 ( 0.000000e+00 +/- 0.000000e+00) [K]
    Van der Waals (Tail)/kʙ 0.000000e+00 ( 0.000000e+00 +/- 0.000000e+00) [K]
    Coulombic Real/kʙ       0.000000e+00 ( 0.000000e+00 +/- 0.000000e+00) [K]
    Coulombic Fourier/kʙ    0.000000e+00 ( 0.000000e+00 +/- 0.000000e+00) [K]
Molecule-molecule
    Van der Waals/kʙ       -2.614565e+05 (-2.616488e+05 +/- 0.000000e+00) [K]
    Van der Waals (Tail)/kʙ-6.296657e+03 (-6.292994e+03 +/- 0.000000e+00) [K]
    Coulombic Real/kʙ      -8.142331e+04 (-8.518513e+04 +/- 0.000000e+00) [K]
    Coulombic Fourier/kʙ   -7.480852e+03 (-7.811731e+03 +/- 0.000000e+00) [K]
    Molecule Intra/kʙ       0.000000e+00 ( 0.000000e+00 +/- 0.000000e+00) [K]

Current cycle: 1000 out of 6000
===============================================================================

Box:      24.46164   0.00000   0.00000  Average:  24.48710   0.00000   0.00000
           0.00000  24.46164   0.00000             0.00000  24.48710   0.00000
           0.00000   0.00000  24.46164             0.00000   0.00000  24.48710
Lengths:  24.46164  24.46164  24.46164  Average:  24.48710  24.48710  24.48710
Angles:   90.00000  90.00000  90.00000  Average:  90.00000  90.00000  90.00000
Rectangular boundary conditions

net charge:   0.00000000

component 0 (CO2) lambda:  0 occupancy:  0 (0.000000)
    net charge:   0.00000000 [e]

Amount of molecules per component :
-------------------------------------------------------------------------------
Component 0 (CO2)
    molecules:      2.260000e+02 molecules  (2.230689e+02 +/- 0.000000e+00)
    number density: 1.544016e-02 molec./A^3 (1.519208e-02 +/- 0.000000e+00)
    density:        1.128085e+03 kg/m^3     (1.109959e+03 +/- 0.000000e+00)

Average pressure tensor: 
-------------------------------------------------------------------------------
 5.2595e+00  4.8930e+01 -4.8650e+01 +/- 0.0000e+00 0.0000e+00 0.0000e+00 [bar]
 4.8930e+01 -2.5318e+01  3.8697e+01 +/- 0.0000e+00 0.0000e+00 0.0000e+00 [bar]
-4.8650e+01  3.8697e+01 -3.7954e+01 +/- 0.0000e+00 0.0000e+00 0.0000e+00 [bar]
Ideal-gas pressure:   5.033988e+02 +/ 0.000000e+00 [bar]
Excess pressure:     -5.227362e+02 +/ 0.000000e+00 [bar]
Pressure:            -1.933740e+01 +/ 0.000000e+00 [bar]

Total potential energy/kʙ  -3.649728e+05 (-3.603273e+05 +/- 0.000000e+00) [K]
-------------------------------------------------------------------------------
ExternalField-molecule
    Van der Waals/kʙ        0.000000e+00 ( 0.000000e+00 +/- 0.000000e+00) [K]
Framework-molecule
    Van der Waals/kʙ        0.000000e+00 ( 0.000000e+00 +/- 0.000000e+00) [K]
    Van der Waals (Tail)/kʙ 0.000000e+00 ( 0.000000e+00 +/- 0.000000e+00) [K]
    Coulombic Real/kʙ       0.000000e+00 ( 0.000000e+00 +/- 0.000000e+00) [K]
    Coulombic Fourier/kʙ    0.000000e+00 ( 0.000000e+00 +/- 0.000000e+00) [K]
Molecule-molecule
    Van der Waals/kʙ       -2.629226e+05 (-2.611967e+05 +/- 0.000000e+00) [K]
    Van der Waals (Tail)/kʙ-6.480321e+03 (-6.285882e+03 +/- 0.000000e+00) [K]
    Coulombic Real/kʙ      -8.702667e+04 (-8.503021e+04 +/- 0.000000e+00) [K]
    Coulombic Fourier/kʙ   -8.543182e+03 (-7.814459e+03 +/- 0.000000e+00) [K]
    Molecule Intra/kʙ       0.000000e+00 ( 0.000000e+00 +/- 0.000000e+00) [K]

Current cycle: 1100 out of 6000
===============================================================================

Box:      24.35186   0.00000   0.00000  Average:  24.48055   0.00000   0.00000
           0.00000  24.35186   0.00000             0.00000  24.48055   0.00000
           0.00000   0.00000  24.35186             0.00000   0.00000  24.48055
Lengths:  24.35186  24.35186  24.35186  Average:  24.48055  24.48055  24.48055
Angles:   90.00000  90.00000  90.00000  Average:  90.00000  90.00000  90.00000
Rectangular boundary conditions

net charge:   0.00000000

component 0 (CO2) lambda:  0 occupancy:  0 (0.000000)
    net charge:   0.00000000 [e]

Amount of molecules per component :
-------------------------------------------------------------------------------
Component 0 (CO2)
    molecules:      2.220000e+02 molecules  (2.229773e+02 +/- 0.000000e+00)
    number density: 1.537293e-02 molec./A^3 (1.519826e-02 +/- 0.000000e+00)
    density:        1.123173e+03 kg/m^3     (1.110411e+03 +/- 0.000000e+00)

Average pressure tensor: 
-------------------------------------------------------------------------------
 3.0185e+01  4.3801e+01 -3.9548e+01 +/- 0.0000e+00 0.0000e+00 0.0000e+00 [bar]
 4.3801e+01 -3.0250e+01  2.5249e+01 +/- 0.0000e+00 0.0000e+00 0.0000e+00 [bar]
-3.9548e+01  2.5249e+01 -1.6283e+01 +/- 0.0000e+00 0.0000e+00 0.0000e+00 [bar]
Ideal-gas pressure:   5.036034e+02 +/ 0.000000e+00 [bar]
Excess pressure:     -5.090527e+02 +/ 0.000000e+00 [bar]
Pressure:            -5.449271e+00 +/ 0.000000e+00 [bar]

Total potential energy/kʙ  -3.626644e+05 (-3.602161e+05 +/- 0.000000e+00) [K]
-------------------------------------------------------------------------------
ExternalField-molecule
    Van der Waals/kʙ        0.000000e+00 ( 0.000000e+00 +/- 0.000000e+00) [K]
Framework-molecule
    Van der Waals/kʙ        0.000000e+00 ( 0.000000e+00 +/- 0.000000e+00) [K]
    Van der Waals (Tail)/kʙ 0.000000e+00 ( 0.000000e+00 +/- 0.000000e+00) [K]
    Coulombic Real/kʙ       0.000000e+00 ( 0.000000e+00 +/- 0.000000e+00) [K]
    Coulombic Fourier/kʙ    0.000000e+00 ( 0.000000e+00 +/- 0.000000e+00) [K]
Molecule-molecule
    Van der Waals/kʙ       -2.627525e+05 (-2.611526e+05 +/- 0.000000e+00) [K]
    Van der Waals (Tail)/kʙ-6.337907e+03 (-6.288839e+03 +/- 0.000000e+00) [K]
    Coulombic Real/kʙ      -8.512061e+04 (-8.490993e+04 +/- 0.000000e+00) [K]
    Coulombic Fourier/kʙ   -8.453403e+03 (-7.864784e+03 +/- 0.000000e+00) [K]
    Molecule Intra/kʙ       0.000000e+00 ( 0.000000e+00 +/- 0.000000e+00) [K]

Current cycle: 1200 out of 6000
===============================================================================

Box:      24.35497   0.00000   0.00000  Average:  24.47626   0.00000   0.00000
           0.00000  24.35497   0.00000             0.00000  24.47626   0.00000
           0.00000   0.00000  24.35497             0.00000   0.00000  24.47626
Lengths:  24.35497  24.35497  24.35497  Average:  24.47626  24.47626  24.47626
Angles:   90.00000  90.00000  90.00000  Average:  90.00000  90.00000  90.00000
Rectangular boundary conditions

net charge:   0.00000000

component 0 (CO2) lambda:  0 occupancy:  0 (0.000000)
    net charge:   0.00000000 [e]

Amount of molecules per component :
-------------------------------------------------------------------------------
Component 0 (CO2)
    molecules:      2.190000e+02 molecules  (2.231465e+02 +/- 0.000000e+00)
    number density: 1.515938e-02 molec./A^3 (1.521792e-02 +/- 0.000000e+00)
    density:        1.107571e+03 kg/m^3     (1.111847e+03 +/- 0.000000e+00)

Average pressure tensor: 
-------------------------------------------------------------------------------
 4.6788e+01  3.8969e+01 -3.5633e+01 +/- 0.0000e+00 0.0000e+00 0.0000e+00 [bar]
 3.8969e+01 -3.7161e+01  2.2844e+01 +/- 0.0000e+00 0.0000e+00 0.0000e+00 [bar]
-3.5633e+01  2.2844e+01 -5.9872e+00 +/- 0.0000e+00 0.0000e+00 0.0000e+00 [bar]
Ideal-gas pressure:   5.042551e+02 +/ 0.000000e+00 [bar]
Excess pressure:     -5.030420e+02 +/ 0.000000e+00 [bar]
Pressure:             1.213161e+00 +/ 0.000000e+00 [bar]

Total potential energy/kʙ  -3.550048e+05 (-3.610834e+05 +/- 0.000000e+00) [K]
-------------------------------------------------------------------------------
ExternalField-molecule
    Van der Waals/kʙ        0.000000e+00 ( 0.000000e+00 +/- 0.000000e+00) [K]
Framework-molecule
    Van der Waals/kʙ        0.000000e+00 ( 0.000000e+00 +/- 0.000000e+00) [K]
    Van der Waals (Tail)/kʙ 0.000000e+00 ( 0.000000e+00 +/- 0.000000e+00) [K]
    Coulombic Real/kʙ       0.000000e+00 ( 0.000000e+00 +/- 0.000000e+00) [K]
    Coulombic Fourier/kʙ    0.000000e+00 ( 0.000000e+00 +/- 0.000000e+00) [K]
Molecule-molecule
    Van der Waals/kʙ       -2.524897e+05 (-2.617069e+05 +/- 0.000000e+00) [K]
    Van der Waals (Tail)/kʙ-6.165409e+03 (-6.302639e+03 +/- 0.000000e+00) [K]
    Coulombic Real/kʙ      -8.852150e+04 (-8.520736e+04 +/- 0.000000e+00) [K]
    Coulombic Fourier/kʙ   -7.828215e+03 (-7.866483e+03 +/- 0.000000e+00) [K]
    Molecule Intra/kʙ       0.000000e+00 ( 0.000000e+00 +/- 0.000000e+00) [K]

Current cycle: 1300 out of 6000
===============================================================================

Box:      24.59734   0.00000   0.00000  Average:  24.47349   0.00000   0.00000
           0.00000  24.59734   0.00000             0.00000  24.47349   0.00000
           0.00000   0.00000  24.59734             0.00000   0.00000  24.47349
Lengths:  24.59734  24.59734  24.59734  Average:  24.47349  24.47349  24.47349
Angles:   90.00000  90.00000  90.00000  Average:  90.00000  90.00000  90.00000
Rectangular boundary conditions

net charge:   0.00000000

component 0 (CO2) lambda:  0 occupancy:  0 (0.000000)
    net charge:   0.00000000 [e]

Amount of molecules per component :
-------------------------------------------------------------------------------
Component 0 (CO2)
    molecules:      2.270000e+02 molecules  (2.233743e+02 +/- 0.000000e+00)
    number density: 1.525322e-02 molec./A^3 (1.523876e-02 +/- 0.000000e+00)
    density:        1.114426e+03 kg/m^3     (1.113370e+03 +/- 0.000000e+00)

Average pressure tensor: 
-------------------------------------------------------------------------------
 4.1961e+01  1.9699e+01 -3.1057e+01 +/- 0.0000e+00 0.0000e+00 0.0000e+00 [bar]
 1.9699e+01 -3.3976e+01  7.4764e+00 +/- 0.0000e+00 0.0000e+00 0.0000e+00 [bar]
-3.1057e+01  7.4764e+00  2.7933e+00 +/- 0.0000e+00 0.0000e+00 0.0000e+00 [bar]
Ideal-gas pressure:   5.049455e+02 +/ 0.000000e+00 [bar]
Excess pressure:     -5.013527e+02 +/ 0.000000e+00 [bar]
Pressure:             3.592850e+00 +/ 0.000000e+00 [bar]

Total potential energy/kʙ  -3.792145e+05 (-3.622683e+05 +/- 0.000000e+00) [K]
-------------------------------------------------------------------------------
ExternalField-molecule
    Van der Waals/kʙ        0.000000e+00 ( 0.000000e+00 +/- 0.000000e+00) [K]
Framework-molecule
    Van der Waals/kʙ        0.000000e+00 ( 0.000000e+00 +/- 0.000000e+00) [K]
    Van der Waals (Tail)/kʙ 0.000000e+00 ( 0.000000e+00 +/- 0.000000e+00) [K]
    Coulombic Real/kʙ       0.000000e+00 ( 0.000000e+00 +/- 0.000000e+00) [K]
    Coulombic Fourier/kʙ    0.000000e+00 ( 0.000000e+00 +/- 0.000000e+00) [K]
Molecule-molecule
    Van der Waals/kʙ       -2.735682e+05 (-2.623641e+05 +/- 0.000000e+00) [K]
    Van der Waals (Tail)/kʙ-6.430187e+03 (-6.315483e+03 +/- 0.000000e+00) [K]
    Coulombic Real/kʙ      -9.076043e+04 (-8.568939e+04 +/- 0.000000e+00) [K]
    Coulombic Fourier/kʙ   -8.455690e+03 (-7.899319e+03 +/- 0.000000e+00) [K]
    Molecule Intra/kʙ       0.000000e+00 ( 0.000000e+00 +/- 0.000000e+00) [K]

Current cycle: 1400 out of 6000
===============================================================================

Box:      24.68257   0.00000   0.00000  Average:  24.48069   0.00000   0.00000
           0.00000  24.68257   0.00000             0.00000  24.48069   0.00000
           0.00000   0.00000  24.68257             0.00000   0.00000  24.48069
Lengths:  24.68257  24.68257  24.68257  Average:  24.48069  24.48069  24.48069
Angles:   90.00000  90.00000  90.00000  Average:  90.00000  90.00000  90.00000
Rectangular boundary conditions

net charge:   0.00000000

component 0 (CO2) lambda:  0 occupancy:  0 (0.000000)
    net charge:   0.00000000 [e]

Amount of molecules per component :
-------------------------------------------------------------------------------
Component 0 (CO2)
    molecules:      2.290000e+02 molecules  (2.235924e+02 +/- 0.000000e+00)
    number density: 1.522876e-02 molec./A^3 (1.524029e-02 +/- 0.000000e+00)
    density:        1.112639e+03 kg/m^3     (1.113481e+03 +/- 0.000000e+00)

Average pressure tensor: 
-------------------------------------------------------------------------------
 2.3467e+01  1.1133e+01 -3.6318e+01 +/- 0.0000e+00 0.0000e+00 0.0000e+00 [bar]
 1.1133e+01 -2.3987e+01  3.1511e+00 +/- 0.0000e+00 0.0000e+00 0.0000e+00 [bar]
-3.6318e+01  3.1511e+00  1.9091e+01 +/- 0.0000e+00 0.0000e+00 0.0000e+00 [bar]
Ideal-gas pressure:   5.049961e+02 +/ 0.000000e+00 [bar]
Excess pressure:     -4.988059e+02 +/ 0.000000e+00 [bar]
Pressure:             6.190205e+00 +/ 0.000000e+00 [bar]

Total potential energy/kʙ  -3.686597e+05 (-3.628422e+05 +/- 0.000000e+00) [K]
-------------------------------------------------------------------------------
ExternalField-molecule
    Van der Waals/kʙ        0.000000e+00 ( 0.000000e+00 +/- 0.000000e+00) [K]
Framework-molecule
    Van der Waals/kʙ        0.000000e+00 ( 0.000000e+00 +/- 0.000000e+00) [K]
    Van der Waals (Tail)/kʙ 0.000000e+00 ( 0.000000e+00 +/- 0.000000e+00) [K]
    Coulombic Real/kʙ       0.000000e+00 ( 0.000000e+00 +/- 0.000000e+00) [K]
    Coulombic Fourier/kʙ    0.000000e+00 ( 0.000000e+00 +/- 0.000000e+00) [K]
Molecule-molecule
    Van der Waals/kʙ       -2.621533e+05 (-2.626416e+05 +/- 0.000000e+00) [K]
    Van der Waals (Tail)/kʙ-6.476438e+03 (-6.322542e+03 +/- 0.000000e+00) [K]
    Coulombic Real/kʙ      -9.194642e+04 (-8.596380e+04 +/- 0.000000e+00) [K]
    Coulombic Fourier/kʙ   -8.083487e+03 (-7.914262e+03 +/- 0.000000e+00) [K]
    Molecule Intra/kʙ       0.000000e+00 ( 0.000000e+00 +/- 0.000000e+00) [K]

Current cycle: 1500 out of 6000
===============================================================================

Box:      24.61354   0.00000   0.00000  Average:  24.49187   0.00000   0.00000
           0.00000  24.61354   0.00000             0.00000  24.49187   0.00000
           0.00000   0.00000  24.61354             0.00000   0.00000  24.49187
[...]
    number density: 1.574949e-02 molec./A^3 (1.510317e-02 +/- 1.034462e-04)
    density:        1.150684e+03 kg/m^3     (1.103464e+03 +/- 7.557959e+00)

Average pressure tensor: 
-------------------------------------------------------------------------------
 9.6057e-01 -6.5761e+00 -2.3788e+01 +/- 4.5975e+01 6.0397e+01 5.8697e+01 [bar]
-6.5761e+00 -1.9472e+01 -7.3717e+00 +/- 6.0397e+01 2.9781e+01 2.9774e+01 [bar]
-2.3788e+01 -7.3717e+00  5.5081e+01 +/- 5.8697e+01 2.9774e+01 4.4519e+01 [bar]
Ideal-gas pressure:   5.004528e+02 +/ 3.427754e+00 [bar]
Excess pressure:     -4.882630e+02 +/ 1.862494e+01 [bar]
Pressure:             1.218982e+01 +/ 1.571096e+01 [bar]

Total potential energy/kʙ  -4.044291e+05 (-3.717517e+05 +/- 9.658556e+03) [K]
-------------------------------------------------------------------------------
ExternalField-molecule
    Van der Waals/kʙ        0.000000e+00 ( 0.000000e+00 +/- 0.000000e+00) [K]
Framework-molecule
    Van der Waals/kʙ        0.000000e+00 ( 0.000000e+00 +/- 0.000000e+00) [K]
    Van der Waals (Tail)/kʙ 0.000000e+00 ( 0.000000e+00 +/- 0.000000e+00) [K]
    Coulombic Real/kʙ       0.000000e+00 ( 0.000000e+00 +/- 0.000000e+00) [K]
    Coulombic Fourier/kʙ    0.000000e+00 ( 0.000000e+00 +/- 0.000000e+00) [K]
Molecule-molecule
    Van der Waals/kʙ       -2.932790e+05 (-2.678112e+05 +/- 5.501334e+03) [K]
    Van der Waals (Tail)/kʙ-6.990376e+03 (-6.452681e+03 +/- 1.313129e+02) [K]
    Coulombic Real/kʙ      -9.530207e+04 (-8.931613e+04 +/- 3.767122e+03) [K]
    Coulombic Fourier/kʙ   -8.857651e+03 (-8.171709e+03 +/- 3.133153e+02) [K]
    Molecule Intra/kʙ       0.000000e+00 ( 0.000000e+00 +/- 0.000000e+00) [K]

Current cycle: 5800 out of 6000
===============================================================================

Box:      24.98420   0.00000   0.00000  Average:  24.79709   0.00000   0.00000
           0.00000  24.98420   0.00000             0.00000  24.79709   0.00000
           0.00000   0.00000  24.98420             0.00000   0.00000  24.79709
Lengths:  24.98420  24.98420  24.98420  Average:  24.79709  24.79709  24.79709
Angles:   90.00000  90.00000  90.00000  Average:  90.00000  90.00000  90.00000
Rectangular boundary conditions

net charge:   0.00000000

component 0 (CO2) lambda:  0 occupancy:  0 (0.000000)
    net charge:   0.00000000 [e]

Amount of molecules per component :
-------------------------------------------------------------------------------
Component 0 (CO2)
    molecules:      2.310000e+02 molecules  (2.303043e+02 +/- 5.762607e+00)
    number density: 1.481206e-02 molec./A^3 (1.510432e-02 +/- 1.038425e-04)
    density:        1.082195e+03 kg/m^3     (1.103548e+03 +/- 7.586909e+00)

Average pressure tensor: 
-------------------------------------------------------------------------------
 4.0487e+00 -7.9978e+00 -2.1348e+01 +/- 3.6096e+01 5.6546e+01 5.9553e+01 [bar]
-7.9978e+00 -2.0883e+01 -7.0065e+00 +/- 5.6546e+01 2.7603e+01 2.8686e+01 [bar]
-2.1348e+01 -7.0065e+00  5.3040e+01 +/- 5.9553e+01 2.8686e+01 4.2752e+01 [bar]
Ideal-gas pressure:   5.004909e+02 +/ 3.440883e+00 [bar]
Excess pressure:     -4.884225e+02 +/ 1.866280e+01 [bar]
Pressure:             1.206839e+01 +/ 1.573383e+01 [bar]

Total potential energy/kʙ  -3.751328e+05 (-3.719559e+05 +/- 9.699979e+03) [K]
-------------------------------------------------------------------------------
ExternalField-molecule
    Van der Waals/kʙ        0.000000e+00 ( 0.000000e+00 +/- 0.000000e+00) [K]
Framework-molecule
    Van der Waals/kʙ        0.000000e+00 ( 0.000000e+00 +/- 0.000000e+00) [K]
    Van der Waals (Tail)/kʙ 0.000000e+00 ( 0.000000e+00 +/- 0.000000e+00) [K]
    Coulombic Real/kʙ       0.000000e+00 ( 0.000000e+00 +/- 0.000000e+00) [K]
    Coulombic Fourier/kʙ    0.000000e+00 ( 0.000000e+00 +/- 0.000000e+00) [K]
Molecule-molecule
    Van der Waals/kʙ       -2.710620e+05 (-2.679373e+05 +/- 5.547225e+03) [K]
    Van der Waals (Tail)/kʙ-6.354241e+03 (-6.454703e+03 +/- 1.306544e+02) [K]
    Coulombic Real/kʙ      -8.959646e+04 (-8.939059e+04 +/- 3.774233e+03) [K]
    Coulombic Fourier/kʙ   -8.120102e+03 (-8.173275e+03 +/- 3.022523e+02) [K]
    Molecule Intra/kʙ       0.000000e+00 ( 0.000000e+00 +/- 0.000000e+00) [K]

Current cycle: 5900 out of 6000
===============================================================================

Box:      25.04942   0.00000   0.00000  Average:  24.80047   0.00000   0.00000
           0.00000  25.04942   0.00000             0.00000  24.80047   0.00000
           0.00000   0.00000  25.04942             0.00000   0.00000  24.80047
Lengths:  25.04942  25.04942  25.04942  Average:  24.80047  24.80047  24.80047
Angles:   90.00000  90.00000  90.00000  Average:  90.00000  90.00000  90.00000
Rectangular boundary conditions

net charge:   0.00000000

component 0 (CO2) lambda:  0 occupancy:  0 (0.000000)
    net charge:   0.00000000 [e]

Amount of molecules per component :
-------------------------------------------------------------------------------
Component 0 (CO2)
    molecules:      2.360000e+02 molecules  (2.303854e+02 +/- 5.772835e+00)
    number density: 1.501478e-02 molec./A^3 (1.510345e-02 +/- 1.030978e-04)
    density:        1.097006e+03 kg/m^3     (1.103484e+03 +/- 7.532504e+00)

Average pressure tensor: 
-------------------------------------------------------------------------------
 3.3511e+00 -4.5211e+00 -1.8396e+01 +/- 3.6247e+01 6.0860e+01 6.1459e+01 [bar]
-4.5211e+00 -2.2064e+01 -1.1795e+01 +/- 6.0860e+01 2.6700e+01 3.6312e+01 [bar]
-1.8396e+01 -1.1795e+01  5.3404e+01 +/- 6.1459e+01 3.6312e+01 4.2844e+01 [bar]
Ideal-gas pressure:   5.004619e+02 +/ 3.416209e+00 [bar]
Excess pressure:     -4.888983e+02 +/ 1.893320e+01 [bar]
Pressure:             1.156362e+01 +/ 1.604591e+01 [bar]

Total potential energy/kʙ  -3.830734e+05 (-3.721372e+05 +/- 9.703941e+03) [K]
-------------------------------------------------------------------------------
ExternalField-molecule
    Van der Waals/kʙ        0.000000e+00 ( 0.000000e+00 +/- 0.000000e+00) [K]
Framework-molecule
    Van der Waals/kʙ        0.000000e+00 ( 0.000000e+00 +/- 0.000000e+00) [K]
    Van der Waals (Tail)/kʙ 0.000000e+00 ( 0.000000e+00 +/- 0.000000e+00) [K]
    Coulombic Real/kʙ       0.000000e+00 ( 0.000000e+00 +/- 0.000000e+00) [K]
    Coulombic Fourier/kʙ    0.000000e+00 ( 0.000000e+00 +/- 0.000000e+00) [K]
Molecule-molecule
    Van der Waals/kʙ       -2.751594e+05 (-2.680646e+05 +/- 5.599044e+03) [K]
    Van der Waals (Tail)/kʙ-6.580627e+03 (-6.457437e+03 +/- 1.316840e+02) [K]
    Coulombic Real/kʙ      -9.249049e+04 (-8.943514e+04 +/- 3.724664e+03) [K]
    Coulombic Fourier/kʙ   -8.842891e+03 (-8.180028e+03 +/- 3.046980e+02) [K]
    Molecule Intra/kʙ       0.000000e+00 ( 0.000000e+00 +/- 0.000000e+00) [K]


Energy statistics             |  Energy [K]   | Recomputed [K]|  Drift [K]    |
===============================================================================
Total potential energy/kʙ     | -3.834761e+05 | -3.834761e+05 | -2.525749e-09 |
    external field VDW/kʙ     |  0.000000e+00 |  0.000000e+00 |  0.000000e+00 |
    external field Real/kʙ    |  0.000000e+00 |  0.000000e+00 |  0.000000e+00 |
    framework-molecule VDW/kʙ |  0.000000e+00 |  0.000000e+00 |  0.000000e+00 |
    framework-molecule Real/kʙ|  0.000000e+00 |  0.000000e+00 |  0.000000e+00 |
    molecule-molecule VDW/kʙ  | -2.778293e+05 | -2.778293e+05 | -1.995221e-09 |
    molecule-molecule Real/kʙ | -9.057395e+04 | -9.057395e+04 | -5.250583e-10 |
    Van der Waals (Tail)/kʙ   | -6.698753e+03 | -6.698753e+03 |  0.000000e+00 |
    Ewald Fourier/kʙ          |  5.386383e+03 |  5.386383e+03 | -5.469357e-12 |
    Ewald self/kʙ             | -4.297827e+06 | -4.297827e+06 |  0.000000e+00 |
    Ewald exclusion/kʙ        |  4.284066e+06 |  4.284066e+06 |  0.000000e+00 |
    intra VDW/kʙ              |  0.000000e+00 |  0.000000e+00 |  0.000000e+00 |
    intra Coulombic/kʙ        |  0.000000e+00 |  0.000000e+00 |  0.000000e+00 |
    polarization/kʙ           |  0.000000e+00 |  0.000000e+00 |  0.000000e+00 |
    dU/dlambda VDW/kʙ         |  0.000000e+00 |  0.000000e+00 |  0.000000e+00 |
    dU/dlambda Real/kʙ        |  0.000000e+00 |  0.000000e+00 |  0.000000e+00 |
    dU/dlambda Ewald/kʙ       |  0.000000e+00 |  0.000000e+00 |  0.000000e+00 |
-------------------------------------------------------------------------------


Monte-Carlo moves statistics
===============================================================================

    Gibbs volume         all:                3036
    Gibbs volume         total:              6103
    Gibbs volume         constructed:        6103
    Gibbs volume         accepted:           2345
    Gibbs volume         fraction:       0.384237
    Gibbs volume         max-change:     0.036122

Component 0 [CO2]
    Reinsertion (CBMC)   all:              149938
    Reinsertion (CBMC)   total:            149938
    Reinsertion (CBMC)   constructed:      125837
    Reinsertion (CBMC)   accepted:            993
    Reinsertion (CBMC)   fraction:       0.006623
    Reinsertion (CBMC)   max-change:     0.000000

    Gibbs swap (CBMC)    all:              299470
    Gibbs swap (CBMC)    total:            598164
    Gibbs swap (CBMC)    constructed:      548491
    Gibbs swap (CBMC)    accepted:          19794
    Gibbs swap (CBMC)    fraction:       0.033091
    Gibbs swap (CBMC)    max-change:     0.000000

    Translation          all:              149255
    Translation          total:             49817      49662      49776
    Translation          constructed:       49807      49662      49776
    Translation          accepted:          18165      28084      22544
    Translation          fraction:       0.364635   0.565503   0.452909
    Translation          max-change:     0.692053   0.572743   0.653358

    Rotation             all:              149173
    Rotation             total:             49497      49509      50167
    Rotation             constructed:       49497      49509      50167
    Rotation             accepted:          25319      26242      23219
    Rotation             fraction:       0.511526   0.530045   0.462834
    Rotation             max-change:     0.639202   0.609598   0.691682



Production run counting of the MC moves summed over systems and components
===============================================================================

Reinsertion (CBMC)                   299282 (19.9521 [%])
Gibbs volume                           6103 (0.4069 [%])
Gibbs swap (CBMC)                    598164 (39.8776 [%])
Translation                          298046 (19.8697 [%])
Rotation                             298405 (19.8937 [%])

Production count MC-steps:          1500000 [-]
               All summed:          1500000 [-]
               difference:                0 [-]


Production run CPU timings of the MC moves
===============================================================================

Component 0 CO2

Rotation                             23.129185 [s]
    Ewald                             5.238805 [s]
    ExternalField-Molecule            0.007697 [s]
    Framework-Molecule                0.008165 [s]
    Molecule-Molecule                17.402189 [s]
    Overhead                          0.472329 [s]

Reinsertion (CBMC)                  117.674912 [s]
    Ewald                             4.563981 [s]
    NonEwald                        112.991938 [s]
    Overhead                          0.118993 [s]

Translation                          23.162627 [s]
    Ewald                             5.231131 [s]
    ExternalField-Molecule            0.007677 [s]
    Framework-Molecule                0.012506 [s]
    Molecule-Molecule                17.469918 [s]
    Overhead                          0.441395 [s]



Gibbs swap (CBMC)                   157.251244 [s]
    Ewald                            14.231579 [s]
    NonEwald                        141.532060 [s]
    Tail                              1.055968 [s]

Gibbs volume                         27.512931 [s]
    Ewald                             4.762305 [s]
    NonEwald                         21.919313 [s]
    Tail                              0.681054 [s]

Property sampling                     0.340625 [s]
Energy/pressure sampling:            10.450387 [s]


Production run CPU timings of the MC moves summed over systems and components
===============================================================================


Translation                          29.739084 [s]
    Ewald                            10.439725 [s]
    ExternalField-Molecule            0.015482 [s]
    Framework-Molecule                0.024828 [s]
    Molecule-Molecule                18.252430 [s]
    Overhead                          1.006619 [s]

Rotation                             29.720015 [s]
    Ewald                            10.462770 [s]
    ExternalField-Molecule            0.015516 [s]
    Framework-Molecule                0.016119 [s]
    Molecule-Molecule                18.180085 [s]
    Overhead                          1.045525 [s]

Reinsertion (CBMC)                  132.792898 [s]
    Ewald                             9.819831 [s]
    NonEwald                        122.402077 [s]
    Overhead                          0.570990 [s]

Gibbs volume                         55.268437 [s]
    Ewald                             9.566625 [s]
    NonEwald                         44.033350 [s]
    Tail                              1.372834 [s]
    Overhead                          0.295628 [s]

Gibbs swap (CBMC)                   341.608071 [s]
    Ewald                            31.109299 [s]
    NonEwald                        306.862961 [s]
    Tail                              2.717847 [s]
    Overhead                          0.917964 [s]

Property sampling:                    0.652988 [s]
Energy/pressure sampling:            10.840385 [s]

Production simulation time:         601.658832 [s]
                All summed:         600.621878 [s]
                  Overhead:           1.036954 [s]


Initalization simulation time:      192.361147 [s]
Equilibration simulation time:        0.000000 [s]
Production simulation time:         601.658832 [s]
Total simulation time:              794.019979 [s]


Energy averages and statistics:
===============================================================================

Framework-molecule energy:
-------------------------------------------------------------------------------



Framework-molecule energy contributions per energy type:
-------------------------------------------------------------------------------



Inter-molecular energy:
-------------------------------------------------------------------------------

    Inter-molecular energy/kʙ 0-0 [CO2-CO2]:
    ---------------------------------------------------------------------------
        Block[  0] -3.611340e+05
        Block[  1] -3.694975e+05
        Block[  2] -3.729902e+05
        Block[  3] -3.754706e+05
        Block[  4] -3.819063e+05
        -----------------------------------------------------------------------
        Average  -3.721997e+05 +/-  9.521579e+03 [K]



Inter-molecular energy contributions per energy type:
-------------------------------------------------------------------------------

    Van der Waals energy/kʙ 0-0 [CO2-CO2]:
    ---------------------------------------------------------------------------
        Block[  0] -2.617837e+05
        Block[  1] -2.663539e+05
        Block[  2] -2.689659e+05
        Block[  3] -2.696251e+05
        Block[  4] -2.739573e+05
        -----------------------------------------------------------------------
        Average  -2.681372e+05 +/-  5.563141e+03 [K]

    VDW Tail-Correction energy/kʙ 0-0 [CO2-CO2]:
    ---------------------------------------------------------------------------
        Block[  0] -6.303783e+03
        Block[  1] -6.414521e+03
        Block[  2] -6.488342e+03
        Block[  3] -6.504810e+03
        Block[  4] -6.584020e+03
        -----------------------------------------------------------------------
        Average  -6.459095e+03 +/-  1.311794e+02 [K]

    Coulomb Real energy/kʙ 0-0 [CO2-CO2]:
    ---------------------------------------------------------------------------
        Block[  0] -8.517975e+04
        Block[  1] -8.868877e+04
        Block[  2] -8.922295e+04
        Block[  3] -9.114069e+04
        Block[  4] -9.285507e+04
        -----------------------------------------------------------------------
        Average  -8.941744e+04 +/-  3.582744e+03 [K]

    Coulomb Fourier energy/kʙ 0-0 [CO2-CO2]:
    ---------------------------------------------------------------------------
        Block[  0] -7.866802e+03
        Block[  1] -8.040254e+03
        Block[  2] -8.312970e+03
        Block[  3] -8.200021e+03
        Block[  4] -8.509900e+03
        -----------------------------------------------------------------------
        Average  -8.185989e+03 +/-  3.068447e+02 [K]


Total energy/kʙ
-------------------------------------------------------------------------------
    Block[  0] -3.611340e+05
    Block[  1] -3.694975e+05
    Block[  2] -3.729902e+05
    Block[  3] -3.754706e+05
    Block[  4] -3.819063e+05
    ---------------------------------------------------------------------------
    Average  -3.721997e+05 +/-  9.521579e+03 [K]

Pressure averages and statistics:
===============================================================================

Average pressure tensor: 
-------------------------------------------------------------------------------
 3.5371e+00 -2.4829e+00 -1.9753e+01 +/- 3.4833e+01 6.2805e+01 6.0146e+01 [bar]
-2.4829e+00 -2.0610e+01 -1.5526e+01 +/- 6.2805e+01 2.7502e+01 4.2781e+01 [bar]
-1.9753e+01 -1.5526e+01  5.4165e+01 +/- 6.0146e+01 4.2781e+01 4.3133e+01 [bar]

    Block[  0]  5.042567e+07
    Block[  1]  5.009293e+07
    Block[  2]  4.968288e+07
    Block[  3]  4.991051e+07
    Block[  4]  5.012856e+07
    ---------------------------------------------------------------------------
    Ideal gas pressure   5.004811e+07 +/-  2.058896e-02 [Pa]
                         5.004811e+02 +/-  3.418880e+00 [bar]


    Block[  0] -5.029688e+07
    Block[  1] -4.889540e+07
    Block[  2] -4.633083e+07
    Block[  3] -4.934460e+07
    Block[  4] -4.919094e+07
    ---------------------------------------------------------------------------
    Excess pressure  -4.881173e+07 +/-  1.840897e+06 [Pa]
                     -4.881173e+02 +/-  1.840897e+01 [bar]


    Block[  0]  1.287913e+05
    Block[  1]  1.197535e+06
    Block[  2]  3.352050e+06
    Block[  3]  5.659188e+05
    Block[  4]  9.376124e+05
    ---------------------------------------------------------------------------
    Pressure average   1.236381e+06 +/-  1.550974e+06 [Pa]
                       1.236381e+01 +/-  1.550974e+01 [bar]


Enthalpy of adsorption
===============================================================================

Component 0 [CO2]
-------------------------------------------------------------------------------
    Block[  0] -1.531473e+03
    Block[  1] -1.477900e+03
    Block[  2] -2.033149e+03
    Block[  3] -3.080024e+03
    Block[  4] -2.580987e+03
    ---------------------------------------------------------------------------
    Enthalpy of adsorption: -2.140706e+03 +/-  8.552176e+02 [K]
                            -1.779883e+01 +/-  7.110676e+00 [kJ/mol]
    Warning: need to subtract the ideal-gas energy.


Densities
===============================================================================

Component 0 (CO2)
    Block[  0] 223.15
    Block[  1] 228.65833333333336
    Block[  2] 233.3075
    Block[  3] 232.5316666666667
    Block[  4] 234.57000000000002
    -----------------------------------------------------------------------
    Density average   2.304435e+02 +/-  5.755529e+00 [molecules]
    Density average   1.510403e-02 +/-  1.031784e-04 [molec/A^3]
    Density average   1.103526e+03 +/-  7.538392e+00 [kg.m⁻³]

