Compiler and run-time data
===============================================================================
RASPA 3.0.4

Random seed: 4204350106

Compiled as a 64-bits application
Compiler: gcc Ubuntu Clang 18.1.3 (1ubuntu1)
Compile Date = Mar 15 2025, Compile Time = 19:39:45

2025-06-03 10:59:44.561033
Simulation started on Tue, Jun 03
The start time was 10:59:00

Hostname:    c109
OS type:     Linux on x86_64
OS release:  6.8.0-58-generic
OS version:  #60-Ubuntu SMP PREEMPT_DYNAMIC Fri Mar 14 18:29:48 UTC 2025


Mutual consistent basic set of units:
===============================================================================

Unit of temperature: 1 [K]
Unit of length:      1e-10 [m]
Unit of time:        1e-12 [s]
Unit of mass:        1.6605402e-27 [kg]
Unit of charge:      1.60217733e-19 [C/particle]


Boltzmann constant (internal units):          0.8314464919307584 [-]
represents conversion from energy (internal units) to temperature (in Kelvin)

Derived units and their conversion factors:
===============================================================================

Unit of energy:                           1.6605402000000002e-23 [J]
Unit of energy:                           10.000008872307538 [J.mol⁻¹]
Unit of velocity:                         100 [m.s⁻¹]
Unit of force:                            1.6605402000000002e-13 [N]
Unit of diffusion:                        1.0000000000000002e-08 [m².s⁻¹]
Unit of acceleration:                     1.0000000000000002e-08 [m².s⁻¹]
Unit of torque:                           1.6605402000000002e-23 [N.m]
Unit of pressure:                         16605402 [Pa]
Unit of volume:                           1e-30 [m³]
Unit of density:                          1660.5402 [kg.m⁻³]
Unit of dynamic viscosity:                1.6605401999999997e-05 [N.s.m⁻²]
Unit of enthalpy:                         1.6605402000000002e-23 [J]
Unit of polarizability:                   1.5458657349975198e-35 [-]
Unit of Coulomb potential:                167101.08000665612 [K]
Unit of dielectric constant:              1.5458657349975193e-05 [s².C².kg⁻¹.m⁻³]
Unit of dipole moment:                    1.60217733e-29 [C.m]
Unit of Debye:                            4.803206799099162 [C.m]
Unit of electric potential:               0.00010364272224473431 [V]
Unit of electric field:                   1036427.222447343 [V.m⁻¹]
Unit of isothermal compressibility:       6.02213665167516e-08 [Pa⁻¹]
Unit of heat capacity:                    10.000008872307538 [J.mol⁻¹.K⁻¹]
Unit of volumetric expansion coefficient: 1 [K⁻¹]


Internal conversion factors:
===============================================================================

Energy (internal units) to Kelvin:      1.202724284692786 [-]
Kelvin to energy (internal units):      0.8314457542157567 [-]


System definitions
===============================================================================

Temperature:          240 [K]
Beta:                 0.005011346739813608 [-]
Pressure:             0 [Pa]
Helium void fraction: 1 [-]

Box:      30.00000   0.00000   0.00000
           0.00000  30.00000   0.00000
           0.00000   0.00000  30.00000
Lengths:  30.00000  30.00000  30.00000
Angles:   90.00000  90.00000  90.00000
Rectangular boundary conditions



Property measurement settings
===============================================================================




Pseudo-atoms
===============================================================================

  0 - C_co2    framework-atom: false
  1 - O_co2    framework-atom: false

  0 - C_co2    mass: 12.00000, charge:  0.70000
  1 - O_co2    mass: 15.99940, charge: -0.35000

  0 - C_co2    polarizability:  0.00000
  1 - O_co2    polarizability:  0.00000

  0 - J. J. Potoff et al., AIChE J. 2001, 47, 1676–1682.
  1 - J. J. Potoff et al., AIChE J. 2001, 47, 1676–1682.

Force field status
===============================================================================

Cutoff Framework-Molecule VDW:  12.00000 [Å]
Cutoff Molecule-Molecule VDW:   12.00000 [Å]
Cutoff Coulomb:                 12.00000 [Å]

Overlap-criteria VDW:           1.000000e+05 [K]

C_co2    - C_co2    Lennard-Jones p₀/kʙ:  27.00000 [K], p₁:  2.80000 [Å]
                                  shift:   0.00000 [K], tailcorrections: true
C_co2    - O_co2    Lennard-Jones p₀/kʙ:  46.18441 [K], p₁:  2.92500 [Å]
                                  shift:   0.00000 [K], tailcorrections: true
O_co2    - O_co2    Lennard-Jones p₀/kʙ:  79.00000 [K], p₁:  3.05000 [Å]
                                  shift:   0.00000 [K], tailcorrections: true

Ewald precision: 1e-06
Ewald alpha: 0.26505830360350674
Ewald k-vectors: 8 8 8


Component definitions
===============================================================================

Component 0 [CO2]

    Type: Adsorbate

    Critical temperature:  304.1282 [K]
    Critical pressure:     7377300 [Pa]
    Acentric factor:       0.22394 [-]

    Mol-fraction:                 1 [-]
    Swappable:                   true

    Mass:                         43.9988 [-]
    Fugacity coefficient:         -nan [-]
    Bulk fluid density:           0 [-]
    Compressibility:              1 [-]
    Excess molecules:             0 [-]

    Number Of Atoms:    3
    CBMC starting bead: 0
      0: O_co2  position  0.00000 -0.00000  1.16000, charge -0.35000
      1: C_co2  position  0.00000 -0.00000  0.00000, charge  0.70000
      2: O_co2  position  0.00000 -0.00000 -1.16000, charge -0.35000
    Diagonalized inertia-vector:      43.05758528 43.05758528 0.00000000
    Translational degrees of freedom: 3
    Rotational degrees of freedom:    2
    Shape of the molecule is: 'Linear'
    Net-charge:        0.00000000 [e]

    Move probabilities:
    Translation:                   0.199203 [-]
    Random translation:            0.000000 [-]
    Rotation:                      0.199203 [-]
    Random rotation:               0.000000 [-]
    Volume change:                 0.000000 [-]
    Reinsertion (CBMC):            0.199203 [-]
    Identity change (CBMC):        0.000000 [-]
    Swap:                          0.000000 [-]
    Swap (CBMC):                   0.000000 [-]
    Swap (CFCMC):                  0.000000 [-]
    Swap (CB/CFCMC):               0.000000 [-]
    Gibbs volume:                  0.003984 [-]
    Gibbs swap (CBMC):             0.398406 [-]
    Gibbs swap (CFCMC):            0.000000 [-]
    Widom:                         0.000000 [-]
    Widom (CFCMC):                 0.000000 [-]
    Widom (CB/CFCMC):              0.000000 [-]
    Parallel tempering:            0.000000 [-]
    Hybrid MC:                     0.000000 [-]

    number of blocking-pockets: 0

    number of bonds: 0





Number of pseudo-atoms
===============================================================================

Component   0 (CO2)
-------------------------------------------------------------------------------
    index   0 (C_co2): 40 atoms
    index   1 (O_co2): 80 atoms

Total number of pseudo-atoms:
-------------------------------------------------------------------------------
    index   0 (C_co2): 40 atoms
    index   1 (O_co2): 80 atoms




Energy status Recomputed from scratch
===============================================================================

Total potential energy/kʙ       -5.798602e+03 [K]
    external field VDW/kʙ        0.000000e+00 [K]
    external field Real/kʙ       0.000000e+00 [K]
    framework-molecule VDW/kʙ    0.000000e+00 [K]
    framework-molecule Real/kʙ   0.000000e+00 [K]
    molecule-molecule VDW/kʙ    -4.686552e+03 [K]
    molecule-molecule Real/kʙ   -9.884835e+02 [K]
    Van der Waals (Tail)/kʙ     -1.100506e+02 [K]
    Ewald Fourier/kʙ             2.338710e+03 [K]
    Ewald self/kʙ               -7.346713e+05 [K]
    Ewald exclusion/kʙ           7.323191e+05 [K]
    intra VDW/kʙ                 0.000000e+00 [K]
    intra Coulombic/kʙ           0.000000e+00 [K]
    polarization/kʙ              0.000000e+00 [K]
    dU/dlambda VDW/kʙ            0.000000e+00 [K]
    dU/dlambda Real/kʙ           0.000000e+00 [K]
    dU/dlambda Ewald/kʙ          0.000000e+00 [K]





Initialization: Current cycle: 0 out of 2000
===============================================================================

Box:      29.72407   0.00000   0.00000
           0.00000  29.72407   0.00000
           0.00000   0.00000  29.72407
Lengths:  29.72407  29.72407  29.72407
Angles:   90.00000  90.00000  90.00000
Rectangular boundary conditions

net charge:   0.00000000

component   0 (CO2) lambda:  0 occupancy:  1 (1.000000)
    net charge:   0.00000000 [e]

Amount of molecules per component :
-------------------------------------------------------------------------------
Component 0 (CO2)
    molecules:         3.200000e+01 molecules
    number density:    1.218500e-03 molec/A^3
    density:           8.902566e+01 kg/m^3

Total potential energy/kʙ       -5.240668e+03 [K]
-------------------------------------------------------------------------------
    external field VDW/kʙ        0.000000e+00 [K]
    external field Real/kʙ       0.000000e+00 [K]
    framework-molecule VDW/kʙ    0.000000e+00 [K]
    framework-molecule Real/kʙ   0.000000e+00 [K]
    molecule-molecule VDW/kʙ    -3.907841e+03 [K]
    molecule-molecule Real/kʙ   -1.082544e+03 [K]
    Van der Waals (Tail)/kʙ     -7.241217e+01 [K]
    Ewald Fourier/kʙ             1.703909e+03 [K]
    Ewald self/kʙ               -5.877370e+05 [K]
    Ewald exclusion/kʙ           5.858552e+05 [K]
    intra VDW/kʙ                 0.000000e+00 [K]
    intra Coulombic/kʙ           0.000000e+00 [K]
    polarization/kʙ              0.000000e+00 [K]
    dU/dlambda VDW/kʙ            0.000000e+00 [K]
    dU/dlambda Real/kʙ           0.000000e+00 [K]
    dU/dlambda Ewald/kʙ          0.000000e+00 [K]


Initialization: Current cycle: 100 out of 2000
===============================================================================

Box:      31.92994   0.00000   0.00000
           0.00000  31.92994   0.00000
           0.00000   0.00000  31.92994
Lengths:  31.92994  31.92994  31.92994
Angles:   90.00000  90.00000  90.00000
Rectangular boundary conditions

net charge:   0.00000000

component   0 (CO2) lambda:  0 occupancy:  1 (1.000000)
    net charge:   0.00000000 [e]

Amount of molecules per component :
-------------------------------------------------------------------------------
Component 0 (CO2)
    molecules:         1.000000e+01 molecules
    number density:    3.071890e-04 molec/A^3
    density:           2.244376e+01 kg/m^3

Total potential energy/kʙ       -4.152110e+02 [K]
-------------------------------------------------------------------------------
    external field VDW/kʙ        0.000000e+00 [K]
    external field Real/kʙ       0.000000e+00 [K]
    framework-molecule VDW/kʙ    0.000000e+00 [K]
    framework-molecule Real/kʙ   0.000000e+00 [K]
    molecule-molecule VDW/kʙ    -2.759385e+02 [K]
    molecule-molecule Real/kʙ   -7.126091e+01 [K]
    Van der Waals (Tail)/kʙ     -5.704820e+00 [K]
    Ewald Fourier/kʙ             5.257497e+02 [K]
    Ewald self/kʙ               -1.836678e+05 [K]
    Ewald exclusion/kʙ           1.830798e+05 [K]
    intra VDW/kʙ                 0.000000e+00 [K]
    intra Coulombic/kʙ           0.000000e+00 [K]
    polarization/kʙ              0.000000e+00 [K]
    dU/dlambda VDW/kʙ            0.000000e+00 [K]
    dU/dlambda Real/kʙ           0.000000e+00 [K]
    dU/dlambda Ewald/kʙ          0.000000e+00 [K]


Initialization: Current cycle: 200 out of 2000
===============================================================================

Box:      32.68416   0.00000   0.00000
           0.00000  32.68416   0.00000
           0.00000   0.00000  32.68416
Lengths:  32.68416  32.68416  32.68416
Angles:   90.00000  90.00000  90.00000
Rectangular boundary conditions

net charge:   0.00000000

component   0 (CO2) lambda:  0 occupancy:  1 (1.000000)
    net charge:   0.00000000 [e]

Amount of molecules per component :
-------------------------------------------------------------------------------
Component 0 (CO2)
    molecules:         5.000000e+00 molecules
    number density:    1.432049e-04 molec/A^3
    density:           1.046280e+01 kg/m^3

Total potential energy/kʙ       -2.929654e+01 [K]
-------------------------------------------------------------------------------
    external field VDW/kʙ        0.000000e+00 [K]
    external field Real/kʙ       0.000000e+00 [K]
    framework-molecule VDW/kʙ    0.000000e+00 [K]
    framework-molecule Real/kʙ   0.000000e+00 [K]
    molecule-molecule VDW/kʙ    -2.493960e+01 [K]
    molecule-molecule Real/kʙ   -1.874711e-01 [K]
    Van der Waals (Tail)/kʙ     -1.329732e+00 [K]
    Ewald Fourier/kʙ             2.911885e+02 [K]
    Ewald self/kʙ               -9.183391e+04 [K]
    Ewald exclusion/kʙ           9.153988e+04 [K]
    intra VDW/kʙ                 0.000000e+00 [K]
    intra Coulombic/kʙ           0.000000e+00 [K]
    polarization/kʙ              0.000000e+00 [K]
    dU/dlambda VDW/kʙ            0.000000e+00 [K]
    dU/dlambda Real/kʙ           0.000000e+00 [K]
    dU/dlambda Ewald/kʙ          0.000000e+00 [K]


Initialization: Current cycle: 300 out of 2000
===============================================================================

Box:      32.84214   0.00000   0.00000
           0.00000  32.84214   0.00000
           0.00000   0.00000  32.84214
Lengths:  32.84214  32.84214  32.84214
Angles:   90.00000  90.00000  90.00000
Rectangular boundary conditions

net charge:   0.00000000

component   0 (CO2) lambda:  0 occupancy:  1 (1.000000)
    net charge:   0.00000000 [e]

Amount of molecules per component :
-------------------------------------------------------------------------------
Component 0 (CO2)
    molecules:         3.000000e+00 molecules
    number density:    8.468901e-05 molec/A^3
    density:           6.187524e+00 kg/m^3

Total potential energy/kʙ       -9.615449e-01 [K]
-------------------------------------------------------------------------------
    external field VDW/kʙ        0.000000e+00 [K]
    external field Real/kʙ       0.000000e+00 [K]
    framework-molecule VDW/kʙ    0.000000e+00 [K]
    framework-molecule Real/kʙ   0.000000e+00 [K]
    molecule-molecule VDW/kʙ     8.612635e-14 [K]
    molecule-molecule Real/kʙ    1.948191e-13 [K]
    Van der Waals (Tail)/kʙ     -4.718289e-01 [K]
    Ewald Fourier/kʙ             1.759272e+02 [K]
    Ewald self/kʙ               -5.510035e+04 [K]
    Ewald exclusion/kʙ           5.492393e+04 [K]
    intra VDW/kʙ                 0.000000e+00 [K]
    intra Coulombic/kʙ           0.000000e+00 [K]
    polarization/kʙ              0.000000e+00 [K]
    dU/dlambda VDW/kʙ            0.000000e+00 [K]
    dU/dlambda Real/kʙ           0.000000e+00 [K]
    dU/dlambda Ewald/kʙ          0.000000e+00 [K]


Initialization: Current cycle: 400 out of 2000
===============================================================================

Box:      32.79202   0.00000   0.00000
           0.00000  32.79202   0.00000
           0.00000   0.00000  32.79202
Lengths:  32.79202  32.79202  32.79202
Angles:   90.00000  90.00000  90.00000
Rectangular boundary conditions

net charge:   0.00000000

component   0 (CO2) lambda:  0 occupancy:  1 (1.000000)
    net charge:   0.00000000 [e]

Amount of molecules per component :
-------------------------------------------------------------------------------
Component 0 (CO2)
    molecules:         6.000000e+00 molecules
    number density:    1.701558e-04 molec/A^3
    density:           1.243187e+01 kg/m^3

Total potential energy/kʙ       -1.721669e+01 [K]
-------------------------------------------------------------------------------
    external field VDW/kʙ        0.000000e+00 [K]
    external field Real/kʙ       0.000000e+00 [K]
    framework-molecule VDW/kʙ    0.000000e+00 [K]
    framework-molecule Real/kʙ   0.000000e+00 [K]
    molecule-molecule VDW/kʙ    -6.935788e+00 [K]
    molecule-molecule Real/kʙ    1.429167e-01 [K]
    Van der Waals (Tail)/kʙ     -1.895982e+00 [K]
    Ewald Fourier/kʙ             3.443060e+02 [K]
    Ewald self/kʙ               -1.102007e+05 [K]
    Ewald exclusion/kʙ           1.098479e+05 [K]
    intra VDW/kʙ                 0.000000e+00 [K]
    intra Coulombic/kʙ           0.000000e+00 [K]
    polarization/kʙ              0.000000e+00 [K]
    dU/dlambda VDW/kʙ            0.000000e+00 [K]
    dU/dlambda Real/kʙ           0.000000e+00 [K]
    dU/dlambda Ewald/kʙ          0.000000e+00 [K]


Initialization: Current cycle: 500 out of 2000
===============================================================================

Box:      33.28959   0.00000   0.00000
           0.00000  33.28959   0.00000
           0.00000   0.00000  33.28959
Lengths:  33.28959  33.28959  33.28959
Angles:   90.00000  90.00000  90.00000
Rectangular boundary conditions

net charge:   0.00000000

component   0 (CO2) lambda:  0 occupancy:  1 (1.000000)
    net charge:   0.00000000 [e]

Amount of molecules per component :
-------------------------------------------------------------------------------
Component 0 (CO2)
    molecules:         1.100000e+01 molecules
    number density:    2.981723e-04 molec/A^3
    density:           2.178498e+01 kg/m^3

Total potential energy/kʙ       -3.204546e+02 [K]
-------------------------------------------------------------------------------
    external field VDW/kʙ        0.000000e+00 [K]
    external field Real/kʙ       0.000000e+00 [K]
    framework-molecule VDW/kʙ    0.000000e+00 [K]
    framework-molecule Real/kʙ   0.000000e+00 [K]
    molecule-molecule VDW/kʙ    -4.616969e+02 [K]
    molecule-molecule Real/kʙ    1.236174e+02 [K]
    Van der Waals (Tail)/kʙ     -6.091106e+00 [K]
    Ewald Fourier/kʙ             6.705781e+02 [K]
    Ewald self/kʙ               -2.020346e+05 [K]
    Ewald exclusion/kʙ           2.013877e+05 [K]
    intra VDW/kʙ                 0.000000e+00 [K]
    intra Coulombic/kʙ           0.000000e+00 [K]
    polarization/kʙ              0.000000e+00 [K]
    dU/dlambda VDW/kʙ            0.000000e+00 [K]
    dU/dlambda Real/kʙ           0.000000e+00 [K]
    dU/dlambda Ewald/kʙ          0.000000e+00 [K]


Initialization: Current cycle: 600 out of 2000
===============================================================================

Box:      33.32976   0.00000   0.00000
           0.00000  33.32976   0.00000
           0.00000   0.00000  33.32976
Lengths:  33.32976  33.32976  33.32976
Angles:   90.00000  90.00000  90.00000
Rectangular boundary conditions

net charge:   0.00000000

component   0 (CO2) lambda:  0 occupancy:  1 (1.000000)
    net charge:   0.00000000 [e]

Amount of molecules per component :
-------------------------------------------------------------------------------
Component 0 (CO2)
    molecules:         1.100000e+01 molecules
    number density:    2.970955e-04 molec/A^3
    density:           2.170631e+01 kg/m^3

Total potential energy/kʙ       -6.903840e+01 [K]
-------------------------------------------------------------------------------
    external field VDW/kʙ        0.000000e+00 [K]
    external field Real/kʙ       0.000000e+00 [K]
    framework-molecule VDW/kʙ    0.000000e+00 [K]
    framework-molecule Real/kʙ   0.000000e+00 [K]
    molecule-molecule VDW/kʙ    -7.460700e+01 [K]
    molecule-molecule Real/kʙ   -8.199541e-01 [K]
    Van der Waals (Tail)/kʙ     -6.069110e+00 [K]
    Ewald Fourier/kʙ             6.593197e+02 [K]
    Ewald self/kʙ               -2.020346e+05 [K]
    Ewald exclusion/kʙ           2.013877e+05 [K]
    intra VDW/kʙ                 0.000000e+00 [K]
    intra Coulombic/kʙ           0.000000e+00 [K]
    polarization/kʙ              0.000000e+00 [K]
    dU/dlambda VDW/kʙ            0.000000e+00 [K]
    dU/dlambda Real/kʙ           0.000000e+00 [K]
    dU/dlambda Ewald/kʙ          0.000000e+00 [K]


Initialization: Current cycle: 700 out of 2000
===============================================================================

Box:      33.42829   0.00000   0.00000
           0.00000  33.42829   0.00000
           0.00000   0.00000  33.42829
Lengths:  33.42829  33.42829  33.42829
Angles:   90.00000  90.00000  90.00000
Rectangular boundary conditions

net charge:   0.00000000

component   0 (CO2) lambda:  0 occupancy:  1 (1.000000)
    net charge:   0.00000000 [e]

Amount of molecules per component :
-------------------------------------------------------------------------------
Component 0 (CO2)
    molecules:         1.300000e+01 molecules
    number density:    3.480174e-04 molec/A^3
    density:           2.542674e+01 kg/m^3

Total potential energy/kʙ       -7.230258e+02 [K]
-------------------------------------------------------------------------------
    external field VDW/kʙ        0.000000e+00 [K]
    external field Real/kʙ       0.000000e+00 [K]
    framework-molecule VDW/kʙ    0.000000e+00 [K]
    framework-molecule Real/kʙ   0.000000e+00 [K]
    molecule-molecule VDW/kʙ    -5.519231e+02 [K]
    molecule-molecule Real/kʙ   -1.157202e+02 [K]
    Van der Waals (Tail)/kʙ     -8.401957e+00 [K]
    Ewald Fourier/kʙ             7.174927e+02 [K]
    Ewald self/kʙ               -2.387682e+05 [K]
    Ewald exclusion/kʙ           2.380037e+05 [K]
    intra VDW/kʙ                 0.000000e+00 [K]
    intra Coulombic/kʙ           0.000000e+00 [K]
    polarization/kʙ              0.000000e+00 [K]
    dU/dlambda VDW/kʙ            0.000000e+00 [K]
    dU/dlambda Real/kʙ           0.000000e+00 [K]
    dU/dlambda Ewald/kʙ          0.000000e+00 [K]


Initialization: Current cycle: 800 out of 2000
===============================================================================

Box:      33.53041   0.00000   0.00000
           0.00000  33.53041   0.00000
           0.00000   0.00000  33.53041
Lengths:  33.53041  33.53041  33.53041
Angles:   90.00000  90.00000  90.00000
Rectangular boundary conditions

net charge:   0.00000000

component   0 (CO2) lambda:  0 occupancy:  1 (1.000000)
    net charge:   0.00000000 [e]

Amount of molecules per component :
-------------------------------------------------------------------------------
Component 0 (CO2)
    molecules:         1.700000e+01 molecules
    number density:    4.509541e-04 molec/A^3
    density:           3.294748e+01 kg/m^3

Total potential energy/kʙ       -1.154820e+03 [K]
-------------------------------------------------------------------------------
    external field VDW/kʙ        0.000000e+00 [K]
    external field Real/kʙ       0.000000e+00 [K]
    framework-molecule VDW/kʙ    0.000000e+00 [K]
    framework-molecule Real/kʙ   0.000000e+00 [K]
    molecule-molecule VDW/kʙ    -8.788257e+02 [K]
    molecule-molecule Real/kʙ   -2.735433e+02 [K]
    Van der Waals (Tail)/kʙ     -1.423697e+01 [K]
    Ewald Fourier/kʙ             1.011482e+03 [K]
    Ewald self/kʙ               -3.122353e+05 [K]
    Ewald exclusion/kʙ           3.112356e+05 [K]
    intra VDW/kʙ                 0.000000e+00 [K]
    intra Coulombic/kʙ           0.000000e+00 [K]
    polarization/kʙ              0.000000e+00 [K]
    dU/dlambda VDW/kʙ            0.000000e+00 [K]
    dU/dlambda Real/kʙ           0.000000e+00 [K]
    dU/dlambda Ewald/kʙ          0.000000e+00 [K]


Initialization: Current cycle: 900 out of 2000
===============================================================================

Box:      33.61196   0.00000   0.00000
           0.00000  33.61196   0.00000
           0.00000   0.00000  33.61196
Lengths:  33.61196  33.61196  33.61196
Angles:   90.00000  90.00000  90.00000
Rectangular boundary conditions

net charge:   0.00000000

component   0 (CO2) lambda:  0 occupancy:  1 (1.000000)
    net charge:   0.00000000 [e]

Amount of molecules per component :
-------------------------------------------------------------------------------
Component 0 (CO2)
    molecules:         1.900000e+01 molecules
    number density:    5.003478e-04 molec/A^3
    density:           3.655626e+01 kg/m^3

Total potential energy/kʙ       -6.691257e+02 [K]
-------------------------------------------------------------------------------
    external field VDW/kʙ        0.000000e+00 [K]
    external field Real/kʙ       0.000000e+00 [K]
    framework-molecule VDW/kʙ    0.000000e+00 [K]
    framework-molecule Real/kʙ   0.000000e+00 [K]
    molecule-molecule VDW/kʙ    -5.372106e+02 [K]
    molecule-molecule Real/kʙ   -1.505876e+02 [K]
    Van der Waals (Tail)/kʙ     -1.765476e+01 [K]
    Ewald Fourier/kʙ             1.153634e+03 [K]
    Ewald self/kʙ               -3.489689e+05 [K]
    Ewald exclusion/kʙ           3.478516e+05 [K]
    intra VDW/kʙ                 0.000000e+00 [K]
    intra Coulombic/kʙ           0.000000e+00 [K]
    polarization/kʙ              0.000000e+00 [K]
    dU/dlambda VDW/kʙ            0.000000e+00 [K]
    dU/dlambda Real/kʙ           0.000000e+00 [K]
    dU/dlambda Ewald/kʙ          0.000000e+00 [K]


Initialization: Current cycle: 1000 out of 2000
===============================================================================

Box:      33.45183   0.00000   0.00000
           0.00000  33.45183   0.00000
           0.00000   0.00000  33.45183
Lengths:  33.45183  33.45183  33.45183
Angles:   90.00000  90.00000  90.00000
Rectangular boundary conditions

net charge:   0.00000000

component   0 (CO2) lambda:  0 occupancy:  1 (1.000000)
    net charge:   0.00000000 [e]

Amount of molecules per component :
-------------------------------------------------------------------------------
Component 0 (CO2)
    molecules:         1.700000e+01 molecules
    number density:    4.541394e-04 molec/A^3
    density:           3.318020e+01 kg/m^3

Total potential energy/kʙ       -9.212224e+02 [K]
-------------------------------------------------------------------------------
    external field VDW/kʙ        0.000000e+00 [K]
    external field Real/kʙ       0.000000e+00 [K]
    framework-molecule VDW/kʙ    0.000000e+00 [K]
    framework-molecule Real/kʙ   0.000000e+00 [K]
    molecule-molecule VDW/kʙ    -8.297368e+02 [K]
    molecule-molecule Real/kʙ   -2.703831e+01 [K]
    Van der Waals (Tail)/kʙ     -1.433753e+01 [K]
    Ewald Fourier/kʙ             9.495861e+02 [K]
    Ewald self/kʙ               -3.122353e+05 [K]
    Ewald exclusion/kʙ           3.112356e+05 [K]
    intra VDW/kʙ                 0.000000e+00 [K]
    intra Coulombic/kʙ           0.000000e+00 [K]
    polarization/kʙ              0.000000e+00 [K]
    dU/dlambda VDW/kʙ            0.000000e+00 [K]
    dU/dlambda Real/kʙ           0.000000e+00 [K]
    dU/dlambda Ewald/kʙ          0.000000e+00 [K]


Initialization: Current cycle: 1100 out of 2000
===============================================================================

Box:      33.58048   0.00000   0.00000
           0.00000  33.58048   0.00000
           0.00000   0.00000  33.58048
Lengths:  33.58048  33.58048  33.58048
Angles:   90.00000  90.00000  90.00000
Rectangular boundary conditions

net charge:   0.00000000

component   0 (CO2) lambda:  0 occupancy:  1 (1.000000)
    net charge:   0.00000000 [e]

Amount of molecules per component :
-------------------------------------------------------------------------------
Component 0 (CO2)
    molecules:         1.600000e+01 molecules
    number density:    4.225317e-04 molec/A^3
    density:           3.087089e+01 kg/m^3

Total potential energy/kʙ       -6.214651e+02 [K]
-------------------------------------------------------------------------------
    external field VDW/kʙ        0.000000e+00 [K]
    external field Real/kʙ       0.000000e+00 [K]
    framework-molecule VDW/kʙ    0.000000e+00 [K]
    framework-molecule Real/kʙ   0.000000e+00 [K]
    molecule-molecule VDW/kʙ    -6.335768e+02 [K]
    molecule-molecule Real/kʙ   -9.208567e+00 [K]
    Van der Waals (Tail)/kʙ     -1.255497e+01 [K]
    Ewald Fourier/kʙ             9.747655e+02 [K]
    Ewald self/kʙ               -2.938685e+05 [K]
    Ewald exclusion/kʙ           2.929276e+05 [K]
    intra VDW/kʙ                 0.000000e+00 [K]
    intra Coulombic/kʙ           0.000000e+00 [K]
    polarization/kʙ              0.000000e+00 [K]
    dU/dlambda VDW/kʙ            0.000000e+00 [K]
    dU/dlambda Real/kʙ           0.000000e+00 [K]
    dU/dlambda Ewald/kʙ          0.000000e+00 [K]


Initialization: Current cycle: 1200 out of 2000
===============================================================================

Box:      33.63964   0.00000   0.00000
           0.00000  33.63964   0.00000
           0.00000   0.00000  33.63964
Lengths:  33.63964  33.63964  33.63964
Angles:   90.00000  90.00000  90.00000
Rectangular boundary conditions

net charge:   0.00000000

component   0 (CO2) lambda:  0 occupancy:  1 (1.000000)
    net charge:   0.00000000 [e]

Amount of molecules per component :
-------------------------------------------------------------------------------
Component 0 (CO2)
    molecules:         1.200000e+01 molecules
    number density:    3.152297e-04 molec/A^3
    density:           2.303122e+01 kg/m^3

Total potential energy/kʙ       -1.068450e+02 [K]
-------------------------------------------------------------------------------
    external field VDW/kʙ        0.000000e+00 [K]
    external field Real/kʙ       0.000000e+00 [K]
    framework-molecule VDW/kʙ    0.000000e+00 [K]
    framework-molecule Real/kʙ   0.000000e+00 [K]
    molecule-molecule VDW/kʙ    -5.631074e+01 [K]
    molecule-molecule Real/kʙ   -1.726552e+01 [K]
    Van der Waals (Tail)/kʙ     -7.024971e+00 [K]
    Ewald Fourier/kʙ             6.794239e+02 [K]
    Ewald self/kʙ               -2.204014e+05 [K]
    Ewald exclusion/kʙ           2.196957e+05 [K]
    intra VDW/kʙ                 0.000000e+00 [K]
    intra Coulombic/kʙ           0.000000e+00 [K]
    polarization/kʙ              0.000000e+00 [K]
    dU/dlambda VDW/kʙ            0.000000e+00 [K]
    dU/dlambda Real/kʙ           0.000000e+00 [K]
    dU/dlambda Ewald/kʙ          0.000000e+00 [K]


Initialization: Current cycle: 1300 out of 2000
===============================================================================

Box:      33.63073   0.00000   0.00000
           0.00000  33.63073   0.00000
           0.00000   0.00000  33.63073
Lengths:  33.63073  33.63073  33.63073
Angles:   90.00000  90.00000  90.00000
Rectangular boundary conditions

net charge:   0.00000000

component   0 (CO2) lambda:  0 occupancy:  1 (1.000000)
    net charge:   0.00000000 [e]

Amount of molecules per component :
-------------------------------------------------------------------------------
Component 0 (CO2)
    molecules:         1.400000e+01 molecules
    number density:    3.680604e-04 molec/A^3
    density:           2.689112e+01 kg/m^3

Total potential energy/kʙ       -2.622376e+02 [K]
-------------------------------------------------------------------------------
    external field VDW/kʙ        0.000000e+00 [K]
    external field Real/kʙ       0.000000e+00 [K]
    framework-molecule VDW/kʙ    0.000000e+00 [K]
    framework-molecule Real/kʙ   0.000000e+00 [K]
    molecule-molecule VDW/kʙ    -3.088879e+02 [K]
    molecule-molecule Real/kʙ    1.029749e+02 [K]
    Van der Waals (Tail)/kʙ     -9.569370e+00 [K]
    Ewald Fourier/kʙ             7.765237e+02 [K]
    Ewald self/kʙ               -2.571349e+05 [K]
    Ewald exclusion/kʙ           2.563117e+05 [K]
    intra VDW/kʙ                 0.000000e+00 [K]
    intra Coulombic/kʙ           0.000000e+00 [K]
    polarization/kʙ              0.000000e+00 [K]
    dU/dlambda VDW/kʙ            0.000000e+00 [K]
    dU/dlambda Real/kʙ           0.000000e+00 [K]
    dU/dlambda Ewald/kʙ          0.000000e+00 [K]


Initialization: Current cycle: 1400 out of 2000
===============================================================================

Box:      33.64160   0.00000   0.00000
           0.00000  33.64160   0.00000
           0.00000   0.00000  33.64160
Lengths:  33.64160  33.64160  33.64160
Angles:   90.00000  90.00000  90.00000
Rectangular boundary conditions

net charge:   0.00000000

component   0 (CO2) lambda:  0 occupancy:  1 (1.000000)
    net charge:   0.00000000 [e]

Amount of molecules per component :
-------------------------------------------------------------------------------
Component 0 (CO2)
    molecules:         1.700000e+01 molecules
    number density:    4.464974e-04 molec/A^3
    density:           3.262186e+01 kg/m^3

Total potential energy/kʙ       -1.420069e+03 [K]
-------------------------------------------------------------------------------
    external field VDW/kʙ        0.000000e+00 [K]
    external field Real/kʙ       0.000000e+00 [K]
    framework-molecule VDW/kʙ    0.000000e+00 [K]
    framework-molecule Real/kʙ   0.000000e+00 [K]
    molecule-molecule VDW/kʙ    -1.246164e+03 [K]
    molecule-molecule Real/kʙ   -2.324910e+02 [K]
    Van der Waals (Tail)/kʙ     -1.409626e+01 [K]
    Ewald Fourier/kʙ             1.072378e+03 [K]
    Ewald self/kʙ               -3.122353e+05 [K]
    Ewald exclusion/kʙ           3.112356e+05 [K]
    intra VDW/kʙ                 0.000000e+00 [K]
    intra Coulombic/kʙ           0.000000e+00 [K]
    polarization/kʙ              0.000000e+00 [K]
    dU/dlambda VDW/kʙ            0.000000e+00 [K]
    dU/dlambda Real/kʙ           0.000000e+00 [K]
    dU/dlambda Ewald/kʙ          0.000000e+00 [K]


Initialization: Current cycle: 1500 out of 2000
===============================================================================

Box:      33.72981   0.00000   0.00000
           0.00000  33.72981   0.00000
           0.00000   0.00000  33.72981
Lengths:  33.72981  33.72981  33.72981
Angles:   90.00000  90.00000  90.00000
Rectangular boundary conditions

net charge:   0.00000000

component   0 (CO2) lambda:  0 occupancy:  1 (1.000000)
    net charge:   0.00000000 [e]

Amount of molecules per component :
-------------------------------------------------------------------------------
Component 0 (CO2)
    molecules:         2.100000e+01 molecules
    number density:    5.472398e-04 molec/A^3
    density:           3.998228e+01 kg/m^3

Total potential energy/kʙ       -3.641527e+03 [K]
-------------------------------------------------------------------------------
    external field VDW/kʙ        0.000000e+00 [K]
    external field Real/kʙ       0.000000e+00 [K]
    framework-molecule VDW/kʙ    0.000000e+00 [K]
    framework-molecule Real/kʙ   0.000000e+00 [K]
    molecule-molecule VDW/kʙ    -3.691467e+03 [K]
    molecule-molecule Real/kʙ    7.645023e+01 [K]
    Van der Waals (Tail)/kʙ     -2.134191e+01 [K]
    Ewald Fourier/kʙ             1.229750e+03 [K]
    Ewald self/kʙ               -3.857024e+05 [K]
    Ewald exclusion/kʙ           3.844675e+05 [K]
    intra VDW/kʙ                 0.000000e+00 [K]
    intra Coulombic/kʙ           0.000000e+00 [K]
    polarization/kʙ              0.000000e+00 [K]
    dU/dlambda VDW/kʙ            0.000000e+00 [K]
    dU/dlambda Real/kʙ           0.000000e+00 [K]
    dU/dlambda Ewald/kʙ          0.000000e+00 [K]


Initialization: Current cycle: 1600 out of 2000
===============================================================================

Box:      33.70500   0.00000   0.00000
           0.00000  33.70500   0.00000
           0.00000   0.00000  33.70500
Lengths:  33.70500  33.70500  33.70500
Angles:   90.00000  90.00000  90.00000
Rectangular boundary conditions

net charge:   0.00000000

component   0 (CO2) lambda:  0 occupancy:  1 (1.000000)
    net charge:   0.00000000 [e]

Amount of molecules per component :
-------------------------------------------------------------------------------
Component 0 (CO2)
    molecules:         2.100000e+01 molecules
    number density:    5.484493e-04 molec/A^3
    density:           4.007064e+01 kg/m^3

Total potential energy/kʙ       -1.021123e+03 [K]
-------------------------------------------------------------------------------
    external field VDW/kʙ        0.000000e+00 [K]
    external field Real/kʙ       0.000000e+00 [K]
    framework-molecule VDW/kʙ    0.000000e+00 [K]
    framework-molecule Real/kʙ   0.000000e+00 [K]
    molecule-molecule VDW/kʙ    -7.124712e+02 [K]
    molecule-molecule Real/kʙ   -2.629966e+02 [K]
    Van der Waals (Tail)/kʙ     -2.138907e+01 [K]
    Ewald Fourier/kʙ             1.210652e+03 [K]
    Ewald self/kʙ               -3.857024e+05 [K]
    Ewald exclusion/kʙ           3.844675e+05 [K]
    intra VDW/kʙ                 0.000000e+00 [K]
    intra Coulombic/kʙ           0.000000e+00 [K]
    polarization/kʙ              0.000000e+00 [K]
    dU/dlambda VDW/kʙ            0.000000e+00 [K]
    dU/dlambda Real/kʙ           0.000000e+00 [K]
    dU/dlambda Ewald/kʙ          0.000000e+00 [K]


Initialization: Current cycle: 1700 out of 2000
===============================================================================

Box:      33.80383   0.00000   0.00000
           0.00000  33.80383   0.00000
           0.00000   0.00000  33.80383
Lengths:  33.80383  33.80383  33.80383
Angles:   90.00000  90.00000  90.00000
Rectangular boundary conditions

net charge:   0.00000000

component   0 (CO2) lambda:  0 occupancy:  1 (1.000000)
    net charge:   0.00000000 [e]

Amount of molecules per component :
-------------------------------------------------------------------------------
Component 0 (CO2)
    molecules:         1.600000e+01 molecules
    number density:    4.142118e-04 molec/A^3
    density:           3.026302e+01 kg/m^3

Total potential energy/kʙ       -3.544337e+02 [K]
-------------------------------------------------------------------------------
    external field VDW/kʙ        0.000000e+00 [K]
    external field Real/kʙ       0.000000e+00 [K]
    framework-molecule VDW/kʙ    0.000000e+00 [K]
    framework-molecule Real/kʙ   0.000000e+00 [K]
    molecule-molecule VDW/kʙ    -2.309168e+02 [K]
    molecule-molecule Real/kʙ   -6.716708e+01 [K]
    Van der Waals (Tail)/kʙ     -1.230775e+01 [K]
    Ewald Fourier/kʙ             8.968483e+02 [K]
    Ewald self/kʙ               -2.938685e+05 [K]
    Ewald exclusion/kʙ           2.929276e+05 [K]
    intra VDW/kʙ                 0.000000e+00 [K]
    intra Coulombic/kʙ           0.000000e+00 [K]
    polarization/kʙ              0.000000e+00 [K]
    dU/dlambda VDW/kʙ            0.000000e+00 [K]
    dU/dlambda Real/kʙ           0.000000e+00 [K]
    dU/dlambda Ewald/kʙ          0.000000e+00 [K]


Initialization: Current cycle: 1800 out of 2000
===============================================================================

Box:      33.76152   0.00000   0.00000
           0.00000  33.76152   0.00000
           0.00000   0.00000  33.76152
Lengths:  33.76152  33.76152  33.76152
Angles:   90.00000  90.00000  90.00000
Rectangular boundary conditions

net charge:   0.00000000

component   0 (CO2) lambda:  0 occupancy:  1 (1.000000)
    net charge:   0.00000000 [e]

Amount of molecules per component :
-------------------------------------------------------------------------------
Component 0 (CO2)
    molecules:         1.500000e+01 molecules
    number density:    3.897851e-04 molec/A^3
    density:           2.847837e+01 kg/m^3

Total potential energy/kʙ       -1.028894e+03 [K]
-------------------------------------------------------------------------------
    external field VDW/kʙ        0.000000e+00 [K]
    external field Real/kʙ       0.000000e+00 [K]
    framework-molecule VDW/kʙ    0.000000e+00 [K]
    framework-molecule Real/kʙ   0.000000e+00 [K]
    molecule-molecule VDW/kʙ    -7.120824e+02 [K]
    molecule-molecule Real/kʙ   -2.714079e+02 [K]
    Van der Waals (Tail)/kʙ     -1.085807e+01 [K]
    Ewald Fourier/kʙ             8.475391e+02 [K]
    Ewald self/kʙ               -2.755017e+05 [K]
    Ewald exclusion/kʙ           2.746196e+05 [K]
    intra VDW/kʙ                 0.000000e+00 [K]
    intra Coulombic/kʙ           0.000000e+00 [K]
    polarization/kʙ              0.000000e+00 [K]
    dU/dlambda VDW/kʙ            0.000000e+00 [K]
    dU/dlambda Real/kʙ           0.000000e+00 [K]
    dU/dlambda Ewald/kʙ          0.000000e+00 [K]


Initialization: Current cycle: 1900 out of 2000
===============================================================================

Box:      33.88633   0.00000   0.00000
           0.00000  33.88633   0.00000
           0.00000   0.00000  33.88633
Lengths:  33.88633  33.88633  33.88633
Angles:   90.00000  90.00000  90.00000
Rectangular boundary conditions

net charge:   0.00000000

component   0 (CO2) lambda:  0 occupancy:  1 (1.000000)
    net charge:   0.00000000 [e]

Amount of molecules per component :
-------------------------------------------------------------------------------
Component 0 (CO2)
    molecules:         1.400000e+01 molecules
    number density:    3.597943e-04 molec/A^3
    density:           2.628719e+01 kg/m^3

Total potential energy/kʙ       -9.139383e+02 [K]
-------------------------------------------------------------------------------
    external field VDW/kʙ        0.000000e+00 [K]
    external field Real/kʙ       0.000000e+00 [K]
    framework-molecule VDW/kʙ    0.000000e+00 [K]
    framework-molecule Real/kʙ   0.000000e+00 [K]
    molecule-molecule VDW/kʙ    -7.202138e+02 [K]
    molecule-molecule Real/kʙ   -1.930732e+02 [K]
    Van der Waals (Tail)/kʙ     -9.354457e+00 [K]
    Ewald Fourier/kʙ             8.319823e+02 [K]
    Ewald self/kʙ               -2.571349e+05 [K]
    Ewald exclusion/kʙ           2.563117e+05 [K]
    intra VDW/kʙ                 0.000000e+00 [K]
    intra Coulombic/kʙ           0.000000e+00 [K]
    polarization/kʙ              0.000000e+00 [K]
    dU/dlambda VDW/kʙ            0.000000e+00 [K]
    dU/dlambda Real/kʙ           0.000000e+00 [K]
    dU/dlambda Ewald/kʙ          0.000000e+00 [K]


Current cycle: 0 out of 6000
===============================================================================

Box:      33.83666   0.00000   0.00000  Average:  33.83666   0.00000   0.00000
           0.00000  33.83666   0.00000             0.00000  33.83666   0.00000
           0.00000   0.00000  33.83666             0.00000   0.00000  33.83666
Lengths:  33.83666  33.83666  33.83666  Average:  33.83666  33.83666  33.83666
Angles:   90.00000  90.00000  90.00000  Average:  90.00000  90.00000  90.00000
Rectangular boundary conditions

net charge:   0.00000000

component 0 (CO2) lambda:  0 occupancy:  1 (1.000000)
    net charge:   0.00000000 [e]

Amount of molecules per component :
-------------------------------------------------------------------------------
Component 0 (CO2)
    molecules:      2.300000e+01 molecules  (2.300000e+01 +/- 0.000000e+00)
    number density: 5.936976e-04 molec./A^3 (5.936976e-04 +/- 0.000000e+00)
    density:        4.337656e+01 kg/m^3     (4.337656e+01 +/- 0.000000e+00)

Average pressure tensor: 
-------------------------------------------------------------------------------
 1.9673e+01  0.0000e+00  0.0000e+00 +/- 0.0000e+00 0.0000e+00 0.0000e+00 [bar]
 0.0000e+00  1.9673e+01  0.0000e+00 +/- 0.0000e+00 0.0000e+00 0.0000e+00 [bar]
 0.0000e+00  0.0000e+00  1.9673e+01 +/- 0.0000e+00 0.0000e+00 0.0000e+00 [bar]
Ideal-gas pressure:   1.967253e+01 +/ 0.000000e+00 [bar]
Excess pressure:      0.000000e+00 +/ 0.000000e+00 [bar]
Pressure:             1.967253e+01 +/ 0.000000e+00 [bar]

Total potential energy/kʙ  -1.331952e+03 (-1.331952e+03 +/- 0.000000e+00) [K]
-------------------------------------------------------------------------------
ExternalField-molecule
    Van der Waals/kʙ        0.000000e+00 ( 0.000000e+00 +/- 0.000000e+00) [K]
Framework-molecule
    Van der Waals/kʙ        0.000000e+00 ( 0.000000e+00 +/- 0.000000e+00) [K]
    Van der Waals (Tail)/kʙ 0.000000e+00 ( 0.000000e+00 +/- 0.000000e+00) [K]
    Coulombic Real/kʙ       0.000000e+00 ( 0.000000e+00 +/- 0.000000e+00) [K]
    Coulombic Fourier/kʙ    0.000000e+00 ( 0.000000e+00 +/- 0.000000e+00) [K]
Molecule-molecule
    Van der Waals/kʙ       -1.421371e+03 (-1.421371e+03 +/- 0.000000e+00) [K]
    Van der Waals (Tail)/kʙ-2.535884e+01 (-2.535884e+01 +/- 0.000000e+00) [K]
    Coulombic Real/kʙ       1.510271e+02 ( 1.510271e+02 +/- 0.000000e+00) [K]
    Coulombic Fourier/kʙ   -3.624895e+01 (-3.624895e+01 +/- 0.000000e+00) [K]
    Molecule Intra/kʙ       0.000000e+00 ( 0.000000e+00 +/- 0.000000e+00) [K]

Current cycle: 100 out of 6000
===============================================================================

Box:      33.72606   0.00000   0.00000  Average:  33.73330   0.00000   0.00000
           0.00000  33.72606   0.00000             0.00000  33.73330   0.00000
           0.00000   0.00000  33.72606             0.00000   0.00000  33.73330
Lengths:  33.72606  33.72606  33.72606  Average:  33.73330  33.73330  33.73330
Angles:   90.00000  90.00000  90.00000  Average:  90.00000  90.00000  90.00000
Rectangular boundary conditions

net charge:   0.00000000

component 0 (CO2) lambda:  0 occupancy:  1 (1.000000)
    net charge:   0.00000000 [e]

Amount of molecules per component :
-------------------------------------------------------------------------------
Component 0 (CO2)
    molecules:      2.200000e+01 molecules  (1.672277e+01 +/- 0.000000e+00)
    number density: 5.734899e-04 molec./A^3 (4.353988e-04 +/- 0.000000e+00)
    density:        4.190015e+01 kg/m^3     (3.181098e+01 +/- 0.000000e+00)

Average pressure tensor: 
-------------------------------------------------------------------------------
 1.5475e+01 -4.6471e-01  5.5819e-01 +/- 0.0000e+00 0.0000e+00 0.0000e+00 [bar]
-4.6471e-01  1.2085e+01 -1.4985e-01 +/- 0.0000e+00 0.0000e+00 0.0000e+00 [bar]
 5.5819e-01 -1.4985e-01  1.2361e+01 +/- 0.0000e+00 0.0000e+00 0.0000e+00 [bar]
Ideal-gas pressure:   1.442720e+01 +/ 0.000000e+00 [bar]
Excess pressure:     -1.120137e+00 +/ 0.000000e+00 [bar]
Pressure:             1.330707e+01 +/ 0.000000e+00 [bar]

Total potential energy/kʙ  -2.282094e+03 (-1.023983e+03 +/- 0.000000e+00) [K]
-------------------------------------------------------------------------------
ExternalField-molecule
    Van der Waals/kʙ        0.000000e+00 ( 0.000000e+00 +/- 0.000000e+00) [K]
Framework-molecule
    Van der Waals/kʙ        0.000000e+00 ( 0.000000e+00 +/- 0.000000e+00) [K]
    Van der Waals (Tail)/kʙ 0.000000e+00 ( 0.000000e+00 +/- 0.000000e+00) [K]
    Coulombic Real/kʙ       0.000000e+00 ( 0.000000e+00 +/- 0.000000e+00) [K]
    Coulombic Fourier/kʙ    0.000000e+00 ( 0.000000e+00 +/- 0.000000e+00) [K]
Molecule-molecule
    Van der Waals/kʙ       -1.663847e+03 (-7.832610e+02 +/- 0.000000e+00) [K]
    Van der Waals (Tail)/kʙ-2.343067e+01 (-1.494162e+01 +/- 0.000000e+00) [K]
    Coulombic Real/kʙ      -5.543743e+02 (-2.085519e+02 +/- 0.000000e+00) [K]
    Coulombic Fourier/kʙ   -4.044203e+01 (-1.722888e+01 +/- 0.000000e+00) [K]
    Molecule Intra/kʙ       0.000000e+00 ( 0.000000e+00 +/- 0.000000e+00) [K]

Current cycle: 200 out of 6000
===============================================================================

Box:      33.85797   0.00000   0.00000  Average:  33.78311   0.00000   0.00000
           0.00000  33.85797   0.00000             0.00000  33.78311   0.00000
           0.00000   0.00000  33.85797             0.00000   0.00000  33.78311
Lengths:  33.85797  33.85797  33.85797  Average:  33.78311  33.78311  33.78311
Angles:   90.00000  90.00000  90.00000  Average:  90.00000  90.00000  90.00000
Rectangular boundary conditions

net charge:   0.00000000

component 0 (CO2) lambda:  0 occupancy:  1 (1.000000)
    net charge:   0.00000000 [e]

Amount of molecules per component :
-------------------------------------------------------------------------------
Component 0 (CO2)
    molecules:      1.900000e+01 molecules  (1.922388e+01 +/- 0.000000e+00)
    number density: 4.895206e-04 molec./A^3 (4.981654e-04 +/- 0.000000e+00)
    density:        3.576522e+01 kg/m^3     (3.639681e+01 +/- 0.000000e+00)

Average pressure tensor: 
-------------------------------------------------------------------------------
 1.3785e+01 -1.2485e-01 -9.7398e-02 +/- 0.0000e+00 0.0000e+00 0.0000e+00 [bar]
-1.2485e-01  1.2007e+01  1.2302e+00 +/- 0.0000e+00 0.0000e+00 0.0000e+00 [bar]
-9.7398e-02  1.2302e+00  1.3803e+01 +/- 0.0000e+00 0.0000e+00 0.0000e+00 [bar]
Ideal-gas pressure:   1.650701e+01 +/ 0.000000e+00 [bar]
Excess pressure:     -3.309114e+00 +/ 0.000000e+00 [bar]
Pressure:             1.319790e+01 +/ 0.000000e+00 [bar]

Total potential energy/kʙ  -1.593465e+03 (-1.524170e+03 +/- 0.000000e+00) [K]
-------------------------------------------------------------------------------
ExternalField-molecule
    Van der Waals/kʙ        0.000000e+00 ( 0.000000e+00 +/- 0.000000e+00) [K]
Framework-molecule
    Van der Waals/kʙ        0.000000e+00 ( 0.000000e+00 +/- 0.000000e+00) [K]
    Van der Waals (Tail)/kʙ 0.000000e+00 ( 0.000000e+00 +/- 0.000000e+00) [K]
    Coulombic Real/kʙ       0.000000e+00 ( 0.000000e+00 +/- 0.000000e+00) [K]
    Coulombic Fourier/kʙ    0.000000e+00 ( 0.000000e+00 +/- 0.000000e+00) [K]
Molecule-molecule
    Van der Waals/kʙ       -1.022214e+03 (-1.124065e+03 +/- 0.000000e+00) [K]
    Van der Waals (Tail)/kʙ-1.727272e+01 (-1.883583e+01 +/- 0.000000e+00) [K]
    Coulombic Real/kʙ      -4.819151e+02 (-3.428018e+02 +/- 0.000000e+00) [K]
    Coulombic Fourier/kʙ   -7.206366e+01 (-3.846779e+01 +/- 0.000000e+00) [K]
    Molecule Intra/kʙ       0.000000e+00 ( 0.000000e+00 +/- 0.000000e+00) [K]

Current cycle: 300 out of 6000
===============================================================================

Box:      34.06212   0.00000   0.00000  Average:  33.82438   0.00000   0.00000
           0.00000  34.06212   0.00000             0.00000  33.82438   0.00000
           0.00000   0.00000  34.06212             0.00000   0.00000  33.82438
Lengths:  34.06212  34.06212  34.06212  Average:  33.82438  33.82438  33.82438
Angles:   90.00000  90.00000  90.00000  Average:  90.00000  90.00000  90.00000
Rectangular boundary conditions

net charge:   0.00000000

component 0 (CO2) lambda:  0 occupancy:  1 (1.000000)
    net charge:   0.00000000 [e]

Amount of molecules per component :
-------------------------------------------------------------------------------
Component 0 (CO2)
    molecules:      2.200000e+01 molecules  (2.007309e+01 +/- 0.000000e+00)
    number density: 5.566825e-04 molec./A^3 (5.182507e-04 +/- 0.000000e+00)
    density:        4.067217e+01 kg/m^3     (3.786429e+01 +/- 0.000000e+00)

Average pressure tensor: 
-------------------------------------------------------------------------------
 1.4440e+01  1.6522e-01 -6.1062e-01 +/- 0.0000e+00 0.0000e+00 0.0000e+00 [bar]
 1.6522e-01  1.3448e+01  9.2641e-01 +/- 0.0000e+00 0.0000e+00 0.0000e+00 [bar]
-6.1062e-01  9.2641e-01  1.3011e+01 +/- 0.0000e+00 0.0000e+00 0.0000e+00 [bar]
Ideal-gas pressure:   1.717255e+01 +/ 0.000000e+00 [bar]
Excess pressure:     -3.539737e+00 +/ 0.000000e+00 [bar]
Pressure:             1.363282e+01 +/ 0.000000e+00 [bar]

Total potential energy/kʙ  -1.336528e+03 (-1.767783e+03 +/- 0.000000e+00) [K]
-------------------------------------------------------------------------------
ExternalField-molecule
    Van der Waals/kʙ        0.000000e+00 ( 0.000000e+00 +/- 0.000000e+00) [K]
Framework-molecule
    Van der Waals/kʙ        0.000000e+00 ( 0.000000e+00 +/- 0.000000e+00) [K]
    Van der Waals (Tail)/kʙ 0.000000e+00 ( 0.000000e+00 +/- 0.000000e+00) [K]
    Coulombic Real/kʙ       0.000000e+00 ( 0.000000e+00 +/- 0.000000e+00) [K]
    Coulombic Fourier/kʙ    0.000000e+00 ( 0.000000e+00 +/- 0.000000e+00) [K]
Molecule-molecule
    Van der Waals/kʙ       -1.022628e+03 (-1.306447e+03 +/- 0.000000e+00) [K]
    Van der Waals (Tail)/kʙ-2.274398e+01 (-2.044028e+01 +/- 0.000000e+00) [K]
    Coulombic Real/kʙ      -2.586671e+02 (-4.093740e+02 +/- 0.000000e+00) [K]
    Coulombic Fourier/kʙ   -3.248863e+01 (-3.152173e+01 +/- 0.000000e+00) [K]
    Molecule Intra/kʙ       0.000000e+00 ( 0.000000e+00 +/- 0.000000e+00) [K]

Current cycle: 400 out of 6000
===============================================================================

Box:      34.06682   0.00000   0.00000  Average:  33.87701   0.00000   0.00000
           0.00000  34.06682   0.00000             0.00000  33.87701   0.00000
           0.00000   0.00000  34.06682             0.00000   0.00000  33.87701
Lengths:  34.06682  34.06682  34.06682  Average:  33.87701  33.87701  33.87701
Angles:   90.00000  90.00000  90.00000  Average:  90.00000  90.00000  90.00000
Rectangular boundary conditions

net charge:   0.00000000

component 0 (CO2) lambda:  0 occupancy:  1 (1.000000)
    net charge:   0.00000000 [e]

Amount of molecules per component :
-------------------------------------------------------------------------------
Component 0 (CO2)
    molecules:      2.900000e+01 molecules  (2.147382e+01 +/- 0.000000e+00)
    number density: 7.335054e-04 molec./A^3 (5.514539e-04 +/- 0.000000e+00)
    density:        5.359116e+01 kg/m^3     (4.029016e+01 +/- 0.000000e+00)

Average pressure tensor: 
-------------------------------------------------------------------------------
 1.5266e+01  5.8045e-02 -4.5537e-02 +/- 0.0000e+00 0.0000e+00 0.0000e+00 [bar]
 5.8045e-02  1.4102e+01  8.8982e-01 +/- 0.0000e+00 0.0000e+00 0.0000e+00 [bar]
-4.5537e-02  8.8982e-01  1.3280e+01 +/- 0.0000e+00 0.0000e+00 0.0000e+00 [bar]
Ideal-gas pressure:   1.827276e+01 +/ 0.000000e+00 [bar]
Excess pressure:     -4.056595e+00 +/ 0.000000e+00 [bar]
Pressure:             1.421616e+01 +/ 0.000000e+00 [bar]

Total potential energy/kʙ  -4.051007e+03 (-1.977267e+03 +/- 0.000000e+00) [K]
-------------------------------------------------------------------------------
ExternalField-molecule
    Van der Waals/kʙ        0.000000e+00 ( 0.000000e+00 +/- 0.000000e+00) [K]
Framework-molecule
    Van der Waals/kʙ        0.000000e+00 ( 0.000000e+00 +/- 0.000000e+00) [K]
    Van der Waals (Tail)/kʙ 0.000000e+00 ( 0.000000e+00 +/- 0.000000e+00) [K]
    Coulombic Real/kʙ       0.000000e+00 ( 0.000000e+00 +/- 0.000000e+00) [K]
    Coulombic Fourier/kʙ    0.000000e+00 ( 0.000000e+00 +/- 0.000000e+00) [K]
Molecule-molecule
    Van der Waals/kʙ       -2.497597e+03 (-1.469230e+03 +/- 0.000000e+00) [K]
    Van der Waals (Tail)/kʙ-3.950368e+01 (-2.334069e+01 +/- 0.000000e+00) [K]
    Coulombic Real/kʙ      -1.334496e+03 (-4.428824e+02 +/- 0.000000e+00) [K]
    Coulombic Fourier/kʙ   -1.794097e+02 (-4.181357e+01 +/- 0.000000e+00) [K]
    Molecule Intra/kʙ       0.000000e+00 ( 0.000000e+00 +/- 0.000000e+00) [K]

Current cycle: 500 out of 6000
===============================================================================

Box:      34.21790   0.00000   0.00000  Average:  33.92515   0.00000   0.00000
           0.00000  34.21790   0.00000             0.00000  33.92515   0.00000
           0.00000   0.00000  34.21790             0.00000   0.00000  33.92515
Lengths:  34.21790  34.21790  34.21790  Average:  33.92515  33.92515  33.92515
Angles:   90.00000  90.00000  90.00000  Average:  90.00000  90.00000  90.00000
Rectangular boundary conditions

net charge:   0.00000000

component 0 (CO2) lambda:  0 occupancy:  1 (1.000000)
    net charge:   0.00000000 [e]

Amount of molecules per component :
-------------------------------------------------------------------------------
Component 0 (CO2)
    molecules:      3.300000e+01 molecules  (2.351497e+01 +/- 0.000000e+00)
    number density: 8.236711e-04 molec./A^3 (6.006832e-04 +/- 0.000000e+00)
    density:        6.017882e+01 kg/m^3     (4.388694e+01 +/- 0.000000e+00)

Average pressure tensor: 
-------------------------------------------------------------------------------
 1.6567e+01 -5.8423e-02  3.3399e-01 +/- 0.0000e+00 0.0000e+00 0.0000e+00 [bar]
-5.8423e-02  1.6105e+01  2.3604e-02 +/- 0.0000e+00 0.0000e+00 0.0000e+00 [bar]
 3.3399e-01  2.3604e-02  1.6025e+01 +/- 0.0000e+00 0.0000e+00 0.0000e+00 [bar]
Ideal-gas pressure:   1.990400e+01 +/ 0.000000e+00 [bar]
Excess pressure:     -3.671623e+00 +/ 0.000000e+00 [bar]
Pressure:             1.623238e+01 +/ 0.000000e+00 [bar]

Total potential energy/kʙ  -5.710092e+03 (-2.328847e+03 +/- 0.000000e+00) [K]
-------------------------------------------------------------------------------
ExternalField-molecule
    Van der Waals/kʙ        0.000000e+00 ( 0.000000e+00 +/- 0.000000e+00) [K]
Framework-molecule
    Van der Waals/kʙ        0.000000e+00 ( 0.000000e+00 +/- 0.000000e+00) [K]
    Van der Waals (Tail)/kʙ 0.000000e+00 ( 0.000000e+00 +/- 0.000000e+00) [K]
    Coulombic Real/kʙ       0.000000e+00 ( 0.000000e+00 +/- 0.000000e+00) [K]
    Coulombic Fourier/kʙ    0.000000e+00 ( 0.000000e+00 +/- 0.000000e+00) [K]
Molecule-molecule
    Van der Waals/kʙ       -4.746047e+03 (-1.711572e+03 +/- 0.000000e+00) [K]
    Van der Waals (Tail)/kʙ-5.047821e+01 (-2.799128e+01 +/- 0.000000e+00) [K]
    Coulombic Real/kʙ      -7.948178e+02 (-5.401556e+02 +/- 0.000000e+00) [K]
    Coulombic Fourier/kʙ   -1.187483e+02 (-4.912795e+01 +/- 0.000000e+00) [K]
    Molecule Intra/kʙ       0.000000e+00 ( 0.000000e+00 +/- 0.000000e+00) [K]

Current cycle: 600 out of 6000
===============================================================================

Box:      34.14234   0.00000   0.00000  Average:  33.96235   0.00000   0.00000
           0.00000  34.14234   0.00000             0.00000  33.96235   0.00000
           0.00000   0.00000  34.14234             0.00000   0.00000  33.96235
Lengths:  34.14234  34.14234  34.14234  Average:  33.96235  33.96235  33.96235
Angles:   90.00000  90.00000  90.00000  Average:  90.00000  90.00000  90.00000
Rectangular boundary conditions

net charge:   0.00000000

component 0 (CO2) lambda:  0 occupancy:  1 (1.000000)
    net charge:   0.00000000 [e]

Amount of molecules per component :
-------------------------------------------------------------------------------
Component 0 (CO2)
    molecules:      3.100000e+01 molecules  (2.498336e+01 +/- 0.000000e+00)
    number density: 7.789005e-04 molec./A^3 (6.358628e-04 +/- 0.000000e+00)
    density:        5.690780e+01 kg/m^3     (4.645722e+01 +/- 0.000000e+00)

Average pressure tensor: 
-------------------------------------------------------------------------------
 1.7274e+01 -9.0163e-02  4.7939e-01 +/- 0.0000e+00 0.0000e+00 0.0000e+00 [bar]
-9.0163e-02  1.5570e+01  1.0185e-02 +/- 0.0000e+00 0.0000e+00 0.0000e+00 [bar]
 4.7939e-01  1.0185e-02  1.6073e+01 +/- 0.0000e+00 0.0000e+00 0.0000e+00 [bar]
Ideal-gas pressure:   2.106970e+01 +/ 0.000000e+00 [bar]
Excess pressure:     -4.764132e+00 +/ 0.000000e+00 [bar]
Pressure:             1.630557e+01 +/ 0.000000e+00 [bar]

Total potential energy/kʙ  -3.293688e+03 (-2.642002e+03 +/- 0.000000e+00) [K]
-------------------------------------------------------------------------------
ExternalField-molecule
    Van der Waals/kʙ        0.000000e+00 ( 0.000000e+00 +/- 0.000000e+00) [K]
Framework-molecule
    Van der Waals/kʙ        0.000000e+00 ( 0.000000e+00 +/- 0.000000e+00) [K]
    Van der Waals (Tail)/kʙ 0.000000e+00 ( 0.000000e+00 +/- 0.000000e+00) [K]
    Coulombic Real/kʙ       0.000000e+00 ( 0.000000e+00 +/- 0.000000e+00) [K]
    Coulombic Fourier/kʙ    0.000000e+00 ( 0.000000e+00 +/- 0.000000e+00) [K]
Molecule-molecule
    Van der Waals/kʙ       -2.510042e+03 (-1.927758e+03 +/- 0.000000e+00) [K]
    Van der Waals (Tail)/kʙ-4.484147e+01 (-3.130322e+01 +/- 0.000000e+00) [K]
    Coulombic Real/kʙ      -5.032616e+02 (-6.181173e+02 +/- 0.000000e+00) [K]
    Coulombic Fourier/kʙ   -2.355429e+02 (-6.482361e+01 +/- 0.000000e+00) [K]
    Molecule Intra/kʙ       0.000000e+00 ( 0.000000e+00 +/- 0.000000e+00) [K]

Current cycle: 700 out of 6000
===============================================================================

Box:      34.12181   0.00000   0.00000  Average:  33.98363   0.00000   0.00000
           0.00000  34.12181   0.00000             0.00000  33.98363   0.00000
           0.00000   0.00000  34.12181             0.00000   0.00000  33.98363
Lengths:  34.12181  34.12181  34.12181  Average:  33.98363  33.98363  33.98363
Angles:   90.00000  90.00000  90.00000  Average:  90.00000  90.00000  90.00000
Rectangular boundary conditions

net charge:   0.00000000

component 0 (CO2) lambda:  0 occupancy:  1 (1.000000)
    net charge:   0.00000000 [e]

Amount of molecules per component :
-------------------------------------------------------------------------------
Component 0 (CO2)
    molecules:      3.200000e+01 molecules  (2.621683e+01 +/- 0.000000e+00)
    number density: 8.054782e-04 molec./A^3 (6.660071e-04 +/- 0.000000e+00)
    density:        5.884962e+01 kg/m^3     (4.865962e+01 +/- 0.000000e+00)

Average pressure tensor: 
-------------------------------------------------------------------------------
 1.8618e+01 -7.7917e-01  9.9329e-01 +/- 0.0000e+00 0.0000e+00 0.0000e+00 [bar]
-7.7917e-01  1.6281e+01  1.2903e-01 +/- 0.0000e+00 0.0000e+00 0.0000e+00 [bar]
 9.9329e-01  1.2903e-01  1.7639e+01 +/- 0.0000e+00 0.0000e+00 0.0000e+00 [bar]
Ideal-gas pressure:   2.206855e+01 +/ 0.000000e+00 [bar]
Excess pressure:     -4.555944e+00 +/ 0.000000e+00 [bar]
Pressure:             1.751261e+01 +/ 0.000000e+00 [bar]

Total potential energy/kʙ  -4.865802e+03 (-2.884832e+03 +/- 0.000000e+00) [K]
-------------------------------------------------------------------------------
ExternalField-molecule
    Van der Waals/kʙ        0.000000e+00 ( 0.000000e+00 +/- 0.000000e+00) [K]
Framework-molecule
    Van der Waals/kʙ        0.000000e+00 ( 0.000000e+00 +/- 0.000000e+00) [K]
    Van der Waals (Tail)/kʙ 0.000000e+00 ( 0.000000e+00 +/- 0.000000e+00) [K]
    Coulombic Real/kʙ       0.000000e+00 ( 0.000000e+00 +/- 0.000000e+00) [K]
    Coulombic Fourier/kʙ    0.000000e+00 ( 0.000000e+00 +/- 0.000000e+00) [K]
Molecule-molecule
    Van der Waals/kʙ       -3.374566e+03 (-2.122401e+03 +/- 0.000000e+00) [K]
    Van der Waals (Tail)/kʙ-4.786742e+01 (-3.439387e+01 +/- 0.000000e+00) [K]
    Coulombic Real/kʙ      -1.264260e+03 (-6.603868e+02 +/- 0.000000e+00) [K]
    Coulombic Fourier/kʙ   -1.791078e+02 (-6.765020e+01 +/- 0.000000e+00) [K]
    Molecule Intra/kʙ       0.000000e+00 ( 0.000000e+00 +/- 0.000000e+00) [K]

Current cycle: 800 out of 6000
===============================================================================

Box:      34.03425   0.00000   0.00000  Average:  34.00122   0.00000   0.00000
           0.00000  34.03425   0.00000             0.00000  34.00122   0.00000
           0.00000   0.00000  34.03425             0.00000   0.00000  34.00122
Lengths:  34.03425  34.03425  34.03425  Average:  34.00122  34.00122  34.00122
Angles:   90.00000  90.00000  90.00000  Average:  90.00000  90.00000  90.00000
Rectangular boundary conditions

net charge:   0.00000000

component 0 (CO2) lambda:  0 occupancy:  1 (1.000000)
    net charge:   0.00000000 [e]

Amount of molecules per component :
-------------------------------------------------------------------------------
Component 0 (CO2)
    molecules:      2.900000e+01 molecules  (2.688889e+01 +/- 0.000000e+00)
    number density: 7.356130e-04 molec./A^3 (6.821306e-04 +/- 0.000000e+00)
    density:        5.374514e+01 kg/m^3     (4.983763e+01 +/- 0.000000e+00)

Average pressure tensor: 
-------------------------------------------------------------------------------
 1.8657e+01 -7.1937e-01  1.4082e+00 +/- 0.0000e+00 0.0000e+00 0.0000e+00 [bar]
-7.1937e-01  1.7419e+01  1.6896e-01 +/- 0.0000e+00 0.0000e+00 0.0000e+00 [bar]
 1.4082e+00  1.6896e-01  1.8272e+01 +/- 0.0000e+00 0.0000e+00 0.0000e+00 [bar]
Ideal-gas pressure:   2.260281e+01 +/ 0.000000e+00 [bar]
Excess pressure:     -4.487132e+00 +/ 0.000000e+00 [bar]
Pressure:             1.811568e+01 +/ 0.000000e+00 [bar]

Total potential energy/kʙ  -5.057900e+03 (-2.990360e+03 +/- 0.000000e+00) [K]
-------------------------------------------------------------------------------
ExternalField-molecule
    Van der Waals/kʙ        0.000000e+00 ( 0.000000e+00 +/- 0.000000e+00) [K]
Framework-molecule
    Van der Waals/kʙ        0.000000e+00 ( 0.000000e+00 +/- 0.000000e+00) [K]
    Van der Waals (Tail)/kʙ 0.000000e+00 ( 0.000000e+00 +/- 0.000000e+00) [K]
    Coulombic Real/kʙ       0.000000e+00 ( 0.000000e+00 +/- 0.000000e+00) [K]
    Coulombic Fourier/kʙ    0.000000e+00 ( 0.000000e+00 +/- 0.000000e+00) [K]
Molecule-molecule
    Van der Waals/kʙ       -2.677892e+03 (-2.188989e+03 +/- 0.000000e+00) [K]
    Van der Waals (Tail)/kʙ-3.961718e+01 (-3.603656e+01 +/- 0.000000e+00) [K]
    Coulombic Real/kʙ      -2.184825e+03 (-6.999179e+02 +/- 0.000000e+00) [K]
    Coulombic Fourier/kʙ   -1.555668e+02 (-6.541580e+01 +/- 0.000000e+00) [K]
    Molecule Intra/kʙ       0.000000e+00 ( 0.000000e+00 +/- 0.000000e+00) [K]

Current cycle: 900 out of 6000
===============================================================================

Box:      34.00841   0.00000   0.00000  Average:  34.00334   0.00000   0.00000
           0.00000  34.00841   0.00000             0.00000  34.00334   0.00000
           0.00000   0.00000  34.00841             0.00000   0.00000  34.00334
Lengths:  34.00841  34.00841  34.00841  Average:  34.00334  34.00334  34.00334
Angles:   90.00000  90.00000  90.00000  Average:  90.00000  90.00000  90.00000
Rectangular boundary conditions

net charge:   0.00000000

component 0 (CO2) lambda:  0 occupancy:  1 (1.000000)
    net charge:   0.00000000 [e]

Amount of molecules per component :
-------------------------------------------------------------------------------
Component 0 (CO2)
    molecules:      2.700000e+01 molecules  (2.691565e+01 +/- 0.000000e+00)
    number density: 6.864433e-04 molec./A^3 (6.828898e-04 +/- 0.000000e+00)
    density:        5.015272e+01 kg/m^3     (4.989310e+01 +/- 0.000000e+00)

Average pressure tensor: 
-------------------------------------------------------------------------------
 1.8500e+01 -3.4383e-01  1.0820e+00 +/- 0.0000e+00 0.0000e+00 0.0000e+00 [bar]
-3.4383e-01  1.7650e+01  1.0338e-01 +/- 0.0000e+00 0.0000e+00 0.0000e+00 [bar]
 1.0820e+00  1.0338e-01  1.8220e+01 +/- 0.0000e+00 0.0000e+00 0.0000e+00 [bar]
Ideal-gas pressure:   2.262797e+01 +/ 0.000000e+00 [bar]
Excess pressure:     -4.504579e+00 +/ 0.000000e+00 [bar]
Pressure:             1.812339e+01 +/ 0.000000e+00 [bar]

Total potential energy/kʙ  -3.740399e+03 (-2.996433e+03 +/- 0.000000e+00) [K]
-------------------------------------------------------------------------------
ExternalField-molecule
    Van der Waals/kʙ        0.000000e+00 ( 0.000000e+00 +/- 0.000000e+00) [K]
Framework-molecule
    Van der Waals/kʙ        0.000000e+00 ( 0.000000e+00 +/- 0.000000e+00) [K]
    Van der Waals (Tail)/kʙ 0.000000e+00 ( 0.000000e+00 +/- 0.000000e+00) [K]
    Coulombic Real/kʙ       0.000000e+00 ( 0.000000e+00 +/- 0.000000e+00) [K]
    Coulombic Fourier/kʙ    0.000000e+00 ( 0.000000e+00 +/- 0.000000e+00) [K]
Molecule-molecule
    Van der Waals/kʙ       -2.187396e+03 (-2.183226e+03 +/- 0.000000e+00) [K]
    Van der Waals (Tail)/kʙ-3.441951e+01 (-3.571397e+01 +/- 0.000000e+00) [K]
    Coulombic Real/kʙ      -1.578354e+03 (-7.121010e+02 +/- 0.000000e+00) [K]
    Coulombic Fourier/kʙ    5.977018e+01 (-6.539251e+01 +/- 0.000000e+00) [K]
    Molecule Intra/kʙ       0.000000e+00 ( 0.000000e+00 +/- 0.000000e+00) [K]

Current cycle: 1000 out of 6000
===============================================================================

Box:      34.01696   0.00000   0.00000  Average:  34.00164   0.00000   0.00000
           0.00000  34.01696   0.00000             0.00000  34.00164   0.00000
           0.00000   0.00000  34.01696             0.00000   0.00000  34.00164
Lengths:  34.01696  34.01696  34.01696  Average:  34.00164  34.00164  34.00164
Angles:   90.00000  90.00000  90.00000  Average:  90.00000  90.00000  90.00000
Rectangular boundary conditions

net charge:   0.00000000

component 0 (CO2) lambda:  0 occupancy:  1 (1.000000)
    net charge:   0.00000000 [e]

Amount of molecules per component :
-------------------------------------------------------------------------------
Component 0 (CO2)
    molecules:      2.400000e+01 molecules  (2.693107e+01 +/- 0.000000e+00)
    number density: 6.097120e-04 molec./A^3 (6.835540e-04 +/- 0.000000e+00)
    density:        4.454660e+01 kg/m^3     (4.994163e+01 +/- 0.000000e+00)

Average pressure tensor: 
-------------------------------------------------------------------------------
 1.8826e+01 -4.2367e-01  6.9550e-01 +/- 0.0000e+00 0.0000e+00 0.0000e+00 [bar]
-4.2367e-01  1.8232e+01 -4.5740e-01 +/- 0.0000e+00 0.0000e+00 0.0000e+00 [bar]
 6.9550e-01 -4.5740e-01  1.8274e+01 +/- 0.0000e+00 0.0000e+00 0.0000e+00 [bar]
Ideal-gas pressure:   2.264998e+01 +/ 0.000000e+00 [bar]
Excess pressure:     -4.206003e+00 +/ 0.000000e+00 [bar]
Pressure:             1.844398e+01 +/ 0.000000e+00 [bar]

Total potential energy/kʙ  -1.596770e+03 (-2.997169e+03 +/- 0.000000e+00) [K]
-------------------------------------------------------------------------------
ExternalField-molecule
    Van der Waals/kʙ        0.000000e+00 ( 0.000000e+00 +/- 0.000000e+00) [K]
Framework-molecule
    Van der Waals/kʙ        0.000000e+00 ( 0.000000e+00 +/- 0.000000e+00) [K]
    Van der Waals (Tail)/kʙ 0.000000e+00 ( 0.000000e+00 +/- 0.000000e+00) [K]
    Coulombic Real/kʙ       0.000000e+00 ( 0.000000e+00 +/- 0.000000e+00) [K]
    Coulombic Fourier/kʙ    0.000000e+00 ( 0.000000e+00 +/- 0.000000e+00) [K]
Molecule-molecule
    Van der Waals/kʙ       -1.059009e+03 (-2.196670e+03 +/- 0.000000e+00) [K]
    Van der Waals (Tail)/kʙ-2.717516e+01 (-3.581983e+01 +/- 0.000000e+00) [K]
    Coulombic Real/kʙ      -4.326318e+02 (-6.998387e+02 +/- 0.000000e+00) [K]
    Coulombic Fourier/kʙ   -7.795468e+01 (-6.484062e+01 +/- 0.000000e+00) [K]
    Molecule Intra/kʙ       0.000000e+00 ( 0.000000e+00 +/- 0.000000e+00) [K]

Current cycle: 1100 out of 6000
===============================================================================

Box:      34.07338   0.00000   0.00000  Average:  34.00518   0.00000   0.00000
           0.00000  34.07338   0.00000             0.00000  34.00518   0.00000
           0.00000   0.00000  34.07338             0.00000   0.00000  34.00518
Lengths:  34.07338  34.07338  34.07338  Average:  34.00518  34.00518  34.00518
Angles:   90.00000  90.00000  90.00000  Average:  90.00000  90.00000  90.00000
Rectangular boundary conditions

net charge:   0.00000000

component 0 (CO2) lambda:  0 occupancy:  1 (1.000000)
    net charge:   0.00000000 [e]

Amount of molecules per component :
-------------------------------------------------------------------------------
Component 0 (CO2)
    molecules:      2.800000e+01 molecules  (2.702271e+01 +/- 0.000000e+00)
    number density: 7.078030e-04 molec./A^3 (6.858004e-04 +/- 0.000000e+00)
    density:        5.171330e+01 kg/m^3     (5.010575e+01 +/- 0.000000e+00)

Average pressure tensor: 
-------------------------------------------------------------------------------
 1.8625e+01 -6.3817e-01  8.2879e-01 +/- 0.0000e+00 0.0000e+00 0.0000e+00 [bar]
-6.3817e-01  1.8343e+01 -5.7589e-01 +/- 0.0000e+00 0.0000e+00 0.0000e+00 [bar]
 8.2879e-01 -5.7589e-01  1.8543e+01 +/- 0.0000e+00 0.0000e+00 0.0000e+00 [bar]
Ideal-gas pressure:   2.272441e+01 +/ 0.000000e+00 [bar]
Excess pressure:     -4.220354e+00 +/ 0.000000e+00 [bar]
Pressure:             1.850406e+01 +/ 0.000000e+00 [bar]

Total potential energy/kʙ  -4.569531e+03 (-3.005679e+03 +/- 0.000000e+00) [K]
-------------------------------------------------------------------------------
ExternalField-molecule
    Van der Waals/kʙ        0.000000e+00 ( 0.000000e+00 +/- 0.000000e+00) [K]
Framework-molecule
    Van der Waals/kʙ        0.000000e+00 ( 0.000000e+00 +/- 0.000000e+00) [K]
    Van der Waals (Tail)/kʙ 0.000000e+00 ( 0.000000e+00 +/- 0.000000e+00) [K]
    Coulombic Real/kʙ       0.000000e+00 ( 0.000000e+00 +/- 0.000000e+00) [K]
    Coulombic Fourier/kʙ    0.000000e+00 ( 0.000000e+00 +/- 0.000000e+00) [K]
Molecule-molecule
    Van der Waals/kʙ       -3.033121e+03 (-2.190092e+03 +/- 0.000000e+00) [K]
    Van der Waals (Tail)/kʙ-3.680498e+01 (-3.587293e+01 +/- 0.000000e+00) [K]
    Coulombic Real/kʙ      -1.352342e+03 (-7.145587e+02 +/- 0.000000e+00) [K]
    Coulombic Fourier/kʙ   -1.472628e+02 (-6.515572e+01 +/- 0.000000e+00) [K]
    Molecule Intra/kʙ       0.000000e+00 ( 0.000000e+00 +/- 0.000000e+00) [K]

Current cycle: 1200 out of 6000
===============================================================================

Box:      34.07179   0.00000   0.00000  Average:  34.00755   0.00000   0.00000
           0.00000  34.07179   0.00000             0.00000  34.00755   0.00000
           0.00000   0.00000  34.07179             0.00000   0.00000  34.00755
Lengths:  34.07179  34.07179  34.07179  Average:  34.00755  34.00755  34.00755
Angles:   90.00000  90.00000  90.00000  Average:  90.00000  90.00000  90.00000
Rectangular boundary conditions

net charge:   0.00000000

component 0 (CO2) lambda:  0 occupancy:  1 (1.000000)
    net charge:   0.00000000 [e]

Amount of molecules per component :
-------------------------------------------------------------------------------
Component 0 (CO2)
    molecules:      3.100000e+01 molecules  (2.685346e+01 +/- 0.000000e+00)
    number density: 7.837485e-04 molec./A^3 (6.814752e-04 +/- 0.000000e+00)
    density:        5.726201e+01 kg/m^3     (4.978975e+01 +/- 0.000000e+00)

Average pressure tensor: 
-------------------------------------------------------------------------------
 1.8983e+01 -3.3925e-01  6.8917e-01 +/- 0.0000e+00 0.0000e+00 0.0000e+00 [bar]
-3.3925e-01  1.8702e+01 -3.7374e-01 +/- 0.0000e+00 0.0000e+00 0.0000e+00 [bar]
 6.8917e-01 -3.7374e-01  1.8166e+01 +/- 0.0000e+00 0.0000e+00 0.0000e+00 [bar]
Ideal-gas pressure:   2.258110e+01 +/ 0.000000e+00 [bar]
Excess pressure:     -3.964023e+00 +/ 0.000000e+00 [bar]
Pressure:             1.861707e+01 +/ 0.000000e+00 [bar]

Total potential energy/kʙ  -3.224621e+03 (-2.955635e+03 +/- 0.000000e+00) [K]
-------------------------------------------------------------------------------
ExternalField-molecule
    Van der Waals/kʙ        0.000000e+00 ( 0.000000e+00 +/- 0.000000e+00) [K]
Framework-molecule
    Van der Waals/kʙ        0.000000e+00 ( 0.000000e+00 +/- 0.000000e+00) [K]
    Van der Waals (Tail)/kʙ 0.000000e+00 ( 0.000000e+00 +/- 0.000000e+00) [K]
    Coulombic Real/kʙ       0.000000e+00 ( 0.000000e+00 +/- 0.000000e+00) [K]
    Coulombic Fourier/kʙ    0.000000e+00 ( 0.000000e+00 +/- 0.000000e+00) [K]
Molecule-molecule
    Van der Waals/kʙ       -2.274922e+03 (-2.152399e+03 +/- 0.000000e+00) [K]
    Van der Waals (Tail)/kʙ-4.512058e+01 (-3.536625e+01 +/- 0.000000e+00) [K]
    Coulombic Real/kʙ      -9.048423e+02 (-7.009661e+02 +/- 0.000000e+00) [K]
    Coulombic Fourier/kʙ    2.636918e-01 (-6.690322e+01 +/- 0.000000e+00) [K]
    Molecule Intra/kʙ       0.000000e+00 ( 0.000000e+00 +/- 0.000000e+00) [K]

Current cycle: 1300 out of 6000
===============================================================================

Box:      33.94625   0.00000   0.00000  Average:  34.00911   0.00000   0.00000
           0.00000  33.94625   0.00000             0.00000  34.00911   0.00000
           0.00000   0.00000  33.94625             0.00000   0.00000  34.00911
Lengths:  33.94625  33.94625  33.94625  Average:  34.00911  34.00911  34.00911
Angles:   90.00000  90.00000  90.00000  Average:  90.00000  90.00000  90.00000
Rectangular boundary conditions

net charge:   0.00000000

component 0 (CO2) lambda:  0 occupancy:  1 (1.000000)
    net charge:   0.00000000 [e]

Amount of molecules per component :
-------------------------------------------------------------------------------
Component 0 (CO2)
    molecules:      2.300000e+01 molecules  (2.662567e+01 +/- 0.000000e+00)
    number density: 5.879662e-04 molec./A^3 (6.756995e-04 +/- 0.000000e+00)
    density:        4.295782e+01 kg/m^3     (4.936776e+01 +/- 0.000000e+00)

Average pressure tensor: 
-------------------------------------------------------------------------------
 1.8817e+01 -3.2916e-01  6.6101e-01 +/- 0.0000e+00 0.0000e+00 0.0000e+00 [bar]
-3.2916e-01  1.8485e+01 -2.0885e-01 +/- 0.0000e+00 0.0000e+00 0.0000e+00 [bar]
 6.6101e-01 -2.0885e-01  1.8530e+01 +/- 0.0000e+00 0.0000e+00 0.0000e+00 [bar]
Ideal-gas pressure:   2.238971e+01 +/ 0.000000e+00 [bar]
Excess pressure:     -3.779323e+00 +/ 0.000000e+00 [bar]
Pressure:             1.861039e+01 +/ 0.000000e+00 [bar]

Total potential energy/kʙ  -2.412221e+03 (-2.901552e+03 +/- 0.000000e+00) [K]
-------------------------------------------------------------------------------
ExternalField-molecule
    Van der Waals/kʙ        0.000000e+00 ( 0.000000e+00 +/- 0.000000e+00) [K]
Framework-molecule
    Van der Waals/kʙ        0.000000e+00 ( 0.000000e+00 +/- 0.000000e+00) [K]
    Van der Waals (Tail)/kʙ 0.000000e+00 ( 0.000000e+00 +/- 0.000000e+00) [K]
    Coulombic Real/kʙ       0.000000e+00 ( 0.000000e+00 +/- 0.000000e+00) [K]
    Coulombic Fourier/kʙ    0.000000e+00 ( 0.000000e+00 +/- 0.000000e+00) [K]
Molecule-molecule
    Van der Waals/kʙ       -1.495064e+03 (-2.116515e+03 +/- 0.000000e+00) [K]
    Van der Waals (Tail)/kʙ-2.511403e+01 (-3.479724e+01 +/- 0.000000e+00) [K]
    Coulombic Real/kʙ      -7.416391e+02 (-6.853030e+02 +/- 0.000000e+00) [K]
    Coulombic Fourier/kʙ   -1.504041e+02 (-6.493622e+01 +/- 0.000000e+00) [K]
    Molecule Intra/kʙ       0.000000e+00 ( 0.000000e+00 +/- 0.000000e+00) [K]

Current cycle: 1400 out of 6000
===============================================================================

Box:      33.90129   0.00000   0.00000  Average:  34.00545   0.00000   0.00000
           0.00000  33.90129   0.00000             0.00000  34.00545   0.00000
           0.00000   0.00000  33.90129             0.00000   0.00000  34.00545
Lengths:  33.90129  33.90129  33.90129  Average:  34.00545  34.00545  34.00545
Angles:   90.00000  90.00000  90.00000  Average:  90.00000  90.00000  90.00000
Rectangular boundary conditions

net charge:   0.00000000

component 0 (CO2) lambda:  0 occupancy:  1 (1.000000)
    net charge:   0.00000000 [e]

Amount of molecules per component :
-------------------------------------------------------------------------------
Component 0 (CO2)
    molecules:      2.100000e+01 molecules  (2.640757e+01 +/- 0.000000e+00)
    number density: 5.389776e-04 molec./A^3 (6.704371e-04 +/- 0.000000e+00)
    density:        3.937862e+01 kg/m^3     (4.898328e+01 +/- 0.000000e+00)

Average pressure tensor: 
-------------------------------------------------------------------------------
 1.8835e+01 -2.9988e-01  5.9815e-01 +/- 0.0000e+00 0.0000e+00 0.0000e+00 [bar]
-2.9988e-01  1.8834e+01 -6.4835e-02 +/- 0.0000e+00 0.0000e+00 0.0000e+00 [bar]
 5.9815e-01 -6.4835e-02  1.8562e+01 +/- 0.0000e+00 0.0000e+00 0.0000e+00 [bar]
Ideal-gas pressure:   2.221534e+01 +/ 0.000000e+00 [bar]
Excess pressure:     -3.471785e+00 +/ 0.000000e+00 [bar]
Pressure:             1.874356e+01 +/ 0.000000e+00 [bar]

Total potential energy/kʙ  -8.408866e+02 (-2.848217e+03 +/- 0.000000e+00) [K]
-------------------------------------------------------------------------------
ExternalField-molecule
    Van der Waals/kʙ        0.000000e+00 ( 0.000000e+00 +/- 0.000000e+00) [K]
Framework-molecule
    Van der Waals/kʙ        0.000000e+00 ( 0.000000e+00 +/- 0.000000e+00) [K]
    Van der Waals (Tail)/kʙ 0.000000e+00 ( 0.000000e+00 +/- 0.000000e+00) [K]
    Coulombic Real/kʙ       0.000000e+00 ( 0.000000e+00 +/- 0.000000e+00) [K]
    Coulombic Fourier/kʙ    0.000000e+00 ( 0.000000e+00 +/- 0.000000e+00) [K]
Molecule-molecule
    Van der Waals/kʙ       -6.647303e+02 (-2.075815e+03 +/- 0.000000e+00) [K]
    Van der Waals (Tail)/kʙ-2.101968e+01 (-3.425596e+01 +/- 0.000000e+00) [K]
    Coulombic Real/kʙ      -1.053144e+02 (-6.773050e+02 +/- 0.000000e+00) [K]
    Coulombic Fourier/kʙ   -4.982224e+01 (-6.084142e+01 +/- 0.000000e+00) [K]
    Molecule Intra/kʙ       0.000000e+00 ( 0.000000e+00 +/- 0.000000e+00) [K]

Current cycle: 1500 out of 6000
===============================================================================

Box:      33.93774   0.00000   0.00000  Average:  33.99971   0.00000   0.00000
           0.00000  33.93774   0.00000             0.00000  33.99971   0.00000
           0.00000   0.00000  33.93774             0.00000   0.00000  33.99971
[...]
    number density: 2.833233e-04 molec./A^3 (5.083123e-04 +/- 1.421695e-04)
    density:        2.070009e+01 kg/m^3     (3.713816e+01 +/- 1.038715e+01)

Average pressure tensor: 
-------------------------------------------------------------------------------
 1.4588e+01 -3.2740e-01 -2.5721e-02 +/- 3.5041e+00 7.5996e-02 5.1785e-01 [bar]
-3.2740e-01  1.4205e+01  1.3275e-01 +/- 7.5996e-02 3.9477e+00 3.8003e-01 [bar]
-2.5721e-02  1.3275e-01  1.4478e+01 +/- 5.1785e-01 3.8003e-01 3.1714e+00 [bar]
Ideal-gas pressure:   1.684324e+01 +/ 4.710872e+00 [bar]
Excess pressure:     -2.419613e+00 +/ 1.253209e+00 [bar]
Pressure:             1.442362e+01 +/ 3.506391e+00 [bar]

Total potential energy/kʙ  -1.205664e+02 (-1.645392e+03 +/- 1.015517e+03) [K]
-------------------------------------------------------------------------------
ExternalField-molecule
    Van der Waals/kʙ        0.000000e+00 ( 0.000000e+00 +/- 0.000000e+00) [K]
Framework-molecule
    Van der Waals/kʙ        0.000000e+00 ( 0.000000e+00 +/- 0.000000e+00) [K]
    Van der Waals (Tail)/kʙ 0.000000e+00 ( 0.000000e+00 +/- 0.000000e+00) [K]
    Coulombic Real/kʙ       0.000000e+00 ( 0.000000e+00 +/- 0.000000e+00) [K]
    Coulombic Fourier/kʙ    0.000000e+00 ( 0.000000e+00 +/- 0.000000e+00) [K]
Molecule-molecule
    Van der Waals/kʙ       -1.081560e+02 (-1.193738e+03 +/- 7.384534e+02) [K]
    Van der Waals (Tail)/kʙ-5.787769e+00 (-2.048404e+01 +/- 1.152609e+01) [K]
    Coulombic Real/kʙ       1.647129e+01 (-3.955053e+02 +/- 2.404974e+02) [K]
    Coulombic Fourier/kʙ   -2.309396e+01 (-3.566423e+01 +/- 2.574746e+01) [K]
    Molecule Intra/kʙ       0.000000e+00 ( 0.000000e+00 +/- 0.000000e+00) [K]

Current cycle: 5800 out of 6000
===============================================================================

Box:      33.73865   0.00000   0.00000  Average:  33.83797   0.00000   0.00000
           0.00000  33.73865   0.00000             0.00000  33.83797   0.00000
           0.00000   0.00000  33.73865             0.00000   0.00000  33.83797
Lengths:  33.73865  33.73865  33.73865  Average:  33.83797  33.83797  33.83797
Angles:   90.00000  90.00000  90.00000  Average:  90.00000  90.00000  90.00000
Rectangular boundary conditions

net charge:   0.00000000

component 0 (CO2) lambda:  0 occupancy:  1 (1.000000)
    net charge:   0.00000000 [e]

Amount of molecules per component :
-------------------------------------------------------------------------------
Component 0 (CO2)
    molecules:      1.900000e+01 molecules  (1.969574e+01 +/- 5.762607e+00)
    number density: 4.947324e-04 molec./A^3 (5.067517e-04 +/- 1.414942e-04)
    density:        3.614599e+01 kg/m^3     (3.702415e+01 +/- 1.033781e+01)

Average pressure tensor: 
-------------------------------------------------------------------------------
 1.4567e+01 -3.4574e-01 -2.3920e-02 +/- 3.4688e+00 6.1269e-02 5.1136e-01 [bar]
-3.4574e-01  1.4164e+01  9.5626e-02 +/- 6.1269e-02 3.9259e+00 3.4822e-01 [bar]
-2.3920e-02  9.5626e-02  1.4478e+01 +/- 5.1136e-01 3.4822e-01 3.0839e+00 [bar]
Ideal-gas pressure:   1.679153e+01 +/ 4.688495e+00 [bar]
Excess pressure:     -2.388330e+00 +/ 1.277256e+00 [bar]
Pressure:             1.440320e+01 +/ 3.459097e+00 [bar]

Total potential energy/kʙ  -7.357899e+02 (-1.637738e+03 +/- 1.009357e+03) [K]
-------------------------------------------------------------------------------
ExternalField-molecule
    Van der Waals/kʙ        0.000000e+00 ( 0.000000e+00 +/- 0.000000e+00) [K]
Framework-molecule
    Van der Waals/kʙ        0.000000e+00 ( 0.000000e+00 +/- 0.000000e+00) [K]
    Van der Waals (Tail)/kʙ 0.000000e+00 ( 0.000000e+00 +/- 0.000000e+00) [K]
    Coulombic Real/kʙ       0.000000e+00 ( 0.000000e+00 +/- 0.000000e+00) [K]
    Coulombic Fourier/kʙ    0.000000e+00 ( 0.000000e+00 +/- 0.000000e+00) [K]
Molecule-molecule
    Van der Waals/kʙ       -6.017782e+02 (-1.188900e+03 +/- 7.333628e+02) [K]
    Van der Waals (Tail)/kʙ-1.745662e+01 (-2.034841e+01 +/- 1.151813e+01) [K]
    Coulombic Real/kʙ      -1.076578e+02 (-3.935760e+02 +/- 2.388691e+02) [K]
    Coulombic Fourier/kʙ   -8.897228e+00 (-3.491429e+01 +/- 2.641146e+01) [K]
    Molecule Intra/kʙ       0.000000e+00 ( 0.000000e+00 +/- 0.000000e+00) [K]

Current cycle: 5900 out of 6000
===============================================================================

Box:      33.70276   0.00000   0.00000  Average:  33.83617   0.00000   0.00000
           0.00000  33.70276   0.00000             0.00000  33.83617   0.00000
           0.00000   0.00000  33.70276             0.00000   0.00000  33.83617
Lengths:  33.70276  33.70276  33.70276  Average:  33.83617  33.83617  33.83617
Angles:   90.00000  90.00000  90.00000  Average:  90.00000  90.00000  90.00000
Rectangular boundary conditions

net charge:   0.00000000

component 0 (CO2) lambda:  0 occupancy:  1 (1.000000)
    net charge:   0.00000000 [e]

Amount of molecules per component :
-------------------------------------------------------------------------------
Component 0 (CO2)
    molecules:      1.400000e+01 molecules  (1.961464e+01 +/- 5.772835e+00)
    number density: 3.657056e-04 molec./A^3 (5.047470e-04 +/- 1.417268e-04)
    density:        2.671908e+01 kg/m^3     (3.687768e+01 +/- 1.035480e+01)

Average pressure tensor: 
-------------------------------------------------------------------------------
 1.4535e+01 -3.7452e-01 -8.5715e-03 +/- 3.4571e+00 1.1635e-01 4.9749e-01 [bar]
-3.7452e-01  1.4094e+01  1.1213e-01 +/- 1.1635e-01 3.9558e+00 3.5422e-01 [bar]
-8.5715e-03  1.1213e-01  1.4438e+01 +/- 4.9749e-01 3.5422e-01 3.0811e+00 [bar]
Ideal-gas pressure:   1.672510e+01 +/ 4.696202e+00 [bar]
Excess pressure:     -2.369700e+00 +/ 1.280189e+00 [bar]
Pressure:             1.435540e+01 +/ 3.463806e+00 [bar]

Total potential energy/kʙ  -1.279075e+03 (-1.627923e+03 +/- 1.007634e+03) [K]
-------------------------------------------------------------------------------
ExternalField-molecule
    Van der Waals/kʙ        0.000000e+00 ( 0.000000e+00 +/- 0.000000e+00) [K]
Framework-molecule
    Van der Waals/kʙ        0.000000e+00 ( 0.000000e+00 +/- 0.000000e+00) [K]
    Van der Waals (Tail)/kʙ 0.000000e+00 ( 0.000000e+00 +/- 0.000000e+00) [K]
    Coulombic Real/kʙ       0.000000e+00 ( 0.000000e+00 +/- 0.000000e+00) [K]
    Coulombic Fourier/kʙ    0.000000e+00 ( 0.000000e+00 +/- 0.000000e+00) [K]
Molecule-molecule
    Van der Waals/kʙ       -7.142694e+02 (-1.179907e+03 +/- 7.347311e+02) [K]
    Van der Waals (Tail)/kʙ-9.508147e+00 (-2.017662e+01 +/- 1.156868e+01) [K]
    Coulombic Real/kʙ      -5.455259e+02 (-3.931103e+02 +/- 2.357856e+02) [K]
    Coulombic Fourier/kʙ   -9.772007e+00 (-3.472965e+01 +/- 2.618593e+01) [K]
    Molecule Intra/kʙ       0.000000e+00 ( 0.000000e+00 +/- 0.000000e+00) [K]


Energy statistics             |  Energy [K]   | Recomputed [K]|  Drift [K]    |
===============================================================================
Total potential energy/kʙ     | -1.424392e+03 | -1.424392e+03 | -3.616612e-11 |
    external field VDW/kʙ     |  0.000000e+00 |  0.000000e+00 |  0.000000e+00 |
    external field Real/kʙ    |  0.000000e+00 |  0.000000e+00 |  0.000000e+00 |
    framework-molecule VDW/kʙ |  0.000000e+00 |  0.000000e+00 |  0.000000e+00 |
    framework-molecule Real/kʙ|  0.000000e+00 |  0.000000e+00 |  0.000000e+00 |
    molecule-molecule VDW/kʙ  | -9.460383e+02 | -9.460383e+02 | -5.469357e-13 |
    molecule-molecule Real/kʙ | -4.621930e+02 | -4.621930e+02 | -7.520366e-13 |
    Van der Waals (Tail)/kʙ   | -1.224677e+01 | -1.224677e+01 |  0.000000e+00 |
    Ewald Fourier/kʙ          |  9.369763e+02 |  9.369763e+02 |  1.367339e-13 |
    Ewald self/kʙ             | -2.938685e+05 | -2.938685e+05 |  0.000000e+00 |
    Ewald exclusion/kʙ        |  2.929276e+05 |  2.929276e+05 | -3.500388e-11 |
    intra VDW/kʙ              |  0.000000e+00 |  0.000000e+00 |  0.000000e+00 |
    intra Coulombic/kʙ        |  0.000000e+00 |  0.000000e+00 |  0.000000e+00 |
    polarization/kʙ           |  0.000000e+00 |  0.000000e+00 |  0.000000e+00 |
    dU/dlambda VDW/kʙ         |  0.000000e+00 |  0.000000e+00 |  0.000000e+00 |
    dU/dlambda Real/kʙ        |  0.000000e+00 |  0.000000e+00 |  0.000000e+00 |
    dU/dlambda Ewald/kʙ       |  0.000000e+00 |  0.000000e+00 |  0.000000e+00 |
-------------------------------------------------------------------------------


Monte-Carlo moves statistics
===============================================================================

    Gibbs volume         all:                3067
    Gibbs volume         total:              6103
    Gibbs volume         constructed:        6103
    Gibbs volume         accepted:           2345
    Gibbs volume         fraction:       0.384237
    Gibbs volume         max-change:     0.036122

Component 0 [CO2]
    Reinsertion (CBMC)   all:              149344
    Reinsertion (CBMC)   total:            149344
    Reinsertion (CBMC)   constructed:      149344
    Reinsertion (CBMC)   accepted:         112105
    Reinsertion (CBMC)   fraction:       0.750650
    Reinsertion (CBMC)   max-change:     0.000000

    Gibbs swap (CBMC)    all:              298694
    Gibbs swap (CBMC)    total:            598164
    Gibbs swap (CBMC)    constructed:      548491
    Gibbs swap (CBMC)    accepted:          19794
    Gibbs swap (CBMC)    fraction:       0.033091
    Gibbs swap (CBMC)    max-change:     0.000000

    Translation          all:              148791
    Translation          total:             49702      49634      49455
    Translation          constructed:       49644      49569      49395
    Translation          accepted:          43914      43807      43801
    Translation          fraction:       0.883546   0.882601   0.885674
    Translation          max-change:     1.500000   1.500000   1.500000

    Rotation             all:              149232
    Rotation             total:             50133      49694      49405
    Rotation             constructed:       50123      49687      49391
    Rotation             accepted:          44087      43784      43475
    Rotation             fraction:       0.879401   0.881072   0.879972
    Rotation             max-change:     1.500000   1.500000   1.500000



Production run counting of the MC moves summed over systems and components
===============================================================================

Reinsertion (CBMC)                   299282 (19.9521 [%])
Gibbs volume                           6103 (0.4069 [%])
Gibbs swap (CBMC)                    598164 (39.8776 [%])
Translation                          298046 (19.8697 [%])
Rotation                             298405 (19.8937 [%])

Production count MC-steps:          1500000 [-]
               All summed:          1500000 [-]
               difference:                0 [-]


Production run CPU timings of the MC moves
===============================================================================

Component 0 CO2

Rotation                              6.590830 [s]
    Ewald                             5.223965 [s]
    ExternalField-Molecule            0.007819 [s]
    Framework-Molecule                0.007954 [s]
    Molecule-Molecule                 0.777896 [s]
    Overhead                          0.573196 [s]

Reinsertion (CBMC)                   15.117986 [s]
    Ewald                             5.255850 [s]
    NonEwald                          9.410139 [s]
    Overhead                          0.451997 [s]

Translation                           6.576457 [s]
    Ewald                             5.208594 [s]
    ExternalField-Molecule            0.007805 [s]
    Framework-Molecule                0.012322 [s]
    Molecule-Molecule                 0.782512 [s]
    Overhead                          0.565224 [s]



Gibbs swap (CBMC)                   184.356827 [s]
    Ewald                            16.877720 [s]
    NonEwald                        165.330901 [s]
    Tail                              1.661879 [s]

Gibbs volume                         27.755506 [s]
    Ewald                             4.804320 [s]
    NonEwald                         22.114037 [s]
    Tail                              0.691780 [s]

Property sampling                     0.312363 [s]
Energy/pressure sampling:             0.389998 [s]


Production run CPU timings of the MC moves summed over systems and components
===============================================================================


Translation                          29.739084 [s]
    Ewald                            10.439725 [s]
    ExternalField-Molecule            0.015482 [s]
    Framework-Molecule                0.024828 [s]
    Molecule-Molecule                18.252430 [s]
    Overhead                          1.006619 [s]

Rotation                             29.720015 [s]
    Ewald                            10.462770 [s]
    ExternalField-Molecule            0.015516 [s]
    Framework-Molecule                0.016119 [s]
    Molecule-Molecule                18.180085 [s]
    Overhead                          1.045525 [s]

Reinsertion (CBMC)                  132.792898 [s]
    Ewald                             9.819831 [s]
    NonEwald                        122.402077 [s]
    Overhead                          0.570990 [s]

Gibbs volume                         55.268437 [s]
    Ewald                             9.566625 [s]
    NonEwald                         44.033350 [s]
    Tail                              1.372834 [s]
    Overhead                          0.295628 [s]

Gibbs swap (CBMC)                   341.608071 [s]
    Ewald                            31.109299 [s]
    NonEwald                        306.862961 [s]
    Tail                              2.717847 [s]
    Overhead                          0.917964 [s]

Property sampling:                    0.652988 [s]
Energy/pressure sampling:            10.840385 [s]

Production simulation time:         601.658832 [s]
                All summed:         600.621878 [s]
                  Overhead:           1.036954 [s]


Initalization simulation time:      192.361147 [s]
Equilibration simulation time:        0.000000 [s]
Production simulation time:         601.658832 [s]
Total simulation time:              794.019979 [s]


Energy averages and statistics:
===============================================================================

Framework-molecule energy:
-------------------------------------------------------------------------------



Framework-molecule energy contributions per energy type:
-------------------------------------------------------------------------------



Inter-molecular energy:
-------------------------------------------------------------------------------

    Inter-molecular energy/kʙ 0-0 [CO2-CO2]:
    ---------------------------------------------------------------------------
        Block[  0] -2.953393e+03
        Block[  1] -1.824399e+03
        Block[  2] -1.129584e+03
        Block[  3] -1.187124e+03
        Block[  4] -1.011971e+03
        -----------------------------------------------------------------------
        Average  -1.621294e+03 +/-  1.004225e+03 [K]



Inter-molecular energy contributions per energy type:
-------------------------------------------------------------------------------

    Van der Waals energy/kʙ 0-0 [CO2-CO2]:
    ---------------------------------------------------------------------------
        Block[  0] -2.151378e+03
        Block[  1] -1.309968e+03
        Block[  2] -8.078640e+02
        Block[  3] -8.704007e+02
        Block[  4] -7.313469e+02
        -----------------------------------------------------------------------
        Average  -1.174192e+03 +/-  7.333909e+02 [K]

    VDW Tail-Correction energy/kʙ 0-0 [CO2-CO2]:
    ---------------------------------------------------------------------------
        Block[  0] -3.528496e+01
        Block[  1] -2.248155e+01
        Block[  2] -1.444251e+01
        Block[  3] -1.572749e+01
        Block[  4] -1.246347e+01
        -----------------------------------------------------------------------
        Average  -2.008000e+01 +/-  1.154121e+01 [K]

    Coulomb Real energy/kʙ 0-0 [CO2-CO2]:
    ---------------------------------------------------------------------------
        Block[  0] -6.992671e+02
        Block[  1] -4.491192e+02
        Block[  2] -2.814437e+02
        Block[  3] -2.809629e+02
        Block[  4] -2.512188e+02
        -----------------------------------------------------------------------
        Average  -3.924024e+02 +/-  2.339479e+02 [K]

    Coulomb Fourier energy/kʙ 0-0 [CO2-CO2]:
    ---------------------------------------------------------------------------
        Block[  0] -6.746295e+01
        Block[  1] -4.283001e+01
        Block[  2] -2.583372e+01
        Block[  3] -2.003247e+01
        Block[  4] -1.694165e+01
        -----------------------------------------------------------------------
        Average  -3.462016e+01 +/-  2.595658e+01 [K]


Total energy/kʙ
-------------------------------------------------------------------------------
    Block[  0] -2.953393e+03
    Block[  1] -1.824399e+03
    Block[  2] -1.129584e+03
    Block[  3] -1.187124e+03
    Block[  4] -1.011971e+03
    ---------------------------------------------------------------------------
    Average  -1.621294e+03 +/-  1.004225e+03 [K]

Pressure averages and statistics:
===============================================================================

Average pressure tensor: 
-------------------------------------------------------------------------------
 1.4508e+01 -3.5572e-01  3.2978e-02 +/- 3.4432e+00 7.2143e-02 4.8944e-01 [bar]
-3.5572e-01  1.4087e+01  6.9064e-02 +/- 7.2143e-02 3.8963e+00 3.5212e-01 [bar]
 3.2978e-02  6.9064e-02  1.4451e+01 +/- 4.8944e-01 3.5212e-01 3.0055e+00 [bar]

    Block[  0]  2.257827e+06
    Block[  1]  1.818148e+06
    Block[  2]  1.436378e+06
    Block[  3]  1.499157e+06
    Block[  4]  1.327122e+06
    ---------------------------------------------------------------------------
    Ideal gas pressure   1.667727e+06 +/-  2.819245e-02 [Pa]
                         1.667727e+01 +/-  4.681469e+00 [bar]


    Block[  0] -3.961966e+05
    Block[  1] -2.712530e+05
    Block[  2] -2.092744e+05
    Block[  3] -1.588628e+05
    Block[  4] -1.286876e+05
    ---------------------------------------------------------------------------
    Excess pressure  -2.328549e+05 +/-  1.317308e+05 [Pa]
                     -2.328549e+00 +/-  1.317308e+00 [bar]


    Block[  0]  1.861631e+06
    Block[  1]  1.546895e+06
    Block[  2]  1.227104e+06
    Block[  3]  1.340294e+06
    Block[  4]  1.198435e+06
    ---------------------------------------------------------------------------
    Pressure average   1.434872e+06 +/-  3.415085e+05 [Pa]
                       1.434872e+01 +/-  3.415085e+00 [bar]


Enthalpy of adsorption
===============================================================================

Component 0 [CO2]
-------------------------------------------------------------------------------
    Block[  0] -4.413370e+02
    Block[  1] -4.025604e+02
    Block[  2] -3.658989e+02
    Block[  3] -4.086764e+02
    Block[  4] -3.590206e+02
    ---------------------------------------------------------------------------
    Enthalpy of adsorption: -3.954987e+02 +/-  4.178536e+01 [K]
                            -3.288360e+00 +/-  3.474229e-01 [kJ/mol]
    Warning: need to subtract the ideal-gas energy.


Densities
===============================================================================

Component 0 (CO2)
    Block[  0] 26.85
    Block[  1] 21.34166666666667
    Block[  2] 16.692500000000003
    Block[  3] 17.468333333333334
    Block[  4] 15.430000000000001
    -----------------------------------------------------------------------
    Density average   1.955650e+01 +/-  5.755529e+00 [molecules]
    Density average   5.033035e-04 +/-  1.412821e-04 [molec/A^3]
    Density average   3.677221e+01 +/-  1.032231e+01 [kg.m⁻³]

