Compiler and run-time data
===============================================================================
RASPA 3.0.4

Random seed: 4081244324

Compiled as a 64-bits application
Compiler: gcc Ubuntu Clang 18.1.3 (1ubuntu1)
Compile Date = Mar 15 2025, Compile Time = 19:39:45

2025-06-02 14:17:00.120799
Simulation started on Mon, Jun 02
The start time was 14:17:00

Hostname:    c062
OS type:     Linux on x86_64
OS release:  6.8.0-58-generic
OS version:  #60-Ubuntu SMP PREEMPT_DYNAMIC Fri Mar 14 18:29:48 UTC 2025


Mutual consistent basic set of units:
===============================================================================

Unit of temperature: 1 [K]
Unit of length:      1e-10 [m]
Unit of time:        1e-12 [s]
Unit of mass:        1.6605402e-27 [kg]
Unit of charge:      1.60217733e-19 [C/particle]


Boltzmann constant (internal units):          0.8314464919307584 [-]
represents conversion from energy (internal units) to temperature (in Kelvin)

Derived units and their conversion factors:
===============================================================================

Unit of energy:                           1.6605402000000002e-23 [J]
Unit of energy:                           10.000008872307538 [J.mol⁻¹]
Unit of velocity:                         100 [m.s⁻¹]
Unit of force:                            1.6605402000000002e-13 [N]
Unit of diffusion:                        1.0000000000000002e-08 [m².s⁻¹]
Unit of acceleration:                     1.0000000000000002e-08 [m².s⁻¹]
Unit of torque:                           1.6605402000000002e-23 [N.m]
Unit of pressure:                         16605402 [Pa]
Unit of volume:                           1e-30 [m³]
Unit of density:                          1660.5402 [kg.m⁻³]
Unit of dynamic viscosity:                1.6605401999999997e-05 [N.s.m⁻²]
Unit of enthalpy:                         1.6605402000000002e-23 [J]
Unit of polarizability:                   1.5458657349975198e-35 [-]
Unit of Coulomb potential:                167101.08000665612 [K]
Unit of dielectric constant:              1.5458657349975193e-05 [s².C².kg⁻¹.m⁻³]
Unit of dipole moment:                    1.60217733e-29 [C.m]
Unit of Debye:                            4.803206799099162 [C.m]
Unit of electric potential:               0.00010364272224473431 [V]
Unit of electric field:                   1036427.222447343 [V.m⁻¹]
Unit of isothermal compressibility:       6.02213665167516e-08 [Pa⁻¹]
Unit of heat capacity:                    10.000008872307538 [J.mol⁻¹.K⁻¹]
Unit of volumetric expansion coefficient: 1 [K⁻¹]


Internal conversion factors:
===============================================================================

Energy (internal units) to Kelvin:      1.202724284692786 [-]
Kelvin to energy (internal units):      0.8314457542157567 [-]


System definitions
===============================================================================

Temperature:          250 [K]
Beta:                 0.0048108928702210625 [-]
Pressure:             1.8e+07 [Pa]
Helium void fraction: 1 [-]

Box:      30.00000   0.00000   0.00000
           0.00000  30.00000   0.00000
           0.00000   0.00000  30.00000
Lengths:  30.00000  30.00000  30.00000
Angles:   90.00000  90.00000  90.00000
Rectangular boundary conditions



Property measurement settings
===============================================================================




Pseudo-atoms
===============================================================================

  0 - C_co2    framework-atom: false
  1 - O_co2    framework-atom: false

  0 - C_co2    mass: 12.00000, charge:  0.70000
  1 - O_co2    mass: 15.99940, charge: -0.35000

  0 - C_co2    polarizability:  0.00000
  1 - O_co2    polarizability:  0.00000

  0 - J. J. Potoff et al., AIChE J. 2001, 47, 1676–1682.
  1 - J. J. Potoff et al., AIChE J. 2001, 47, 1676–1682.

Force field status
===============================================================================

Cutoff Framework-Molecule VDW:  10.00000 [Å]
Cutoff Molecule-Molecule VDW:   10.00000 [Å]
Cutoff Coulomb:                 10.00000 [Å]

Overlap-criteria VDW:           1.000000e+05 [K]

C_co2    - C_co2    Lennard-Jones p₀/kʙ:  27.00000 [K], p₁:  2.80000 [Å]
                                  shift:   0.00000 [K], tailcorrections: true
C_co2    - O_co2    Lennard-Jones p₀/kʙ:  46.18441 [K], p₁:  2.92500 [Å]
                                  shift:   0.00000 [K], tailcorrections: true
O_co2    - O_co2    Lennard-Jones p₀/kʙ:  79.00000 [K], p₁:  3.05000 [Å]
                                  shift:   0.00000 [K], tailcorrections: true

Ewald precision: 1e-06
Ewald alpha: 0.32079885109097883
Ewald k-vectors: 10 10 10


Component definitions
===============================================================================

Component 0 [CO2]

    Type: Adsorbate

    Critical temperature:  304.1282 [K]
    Critical pressure:     7377300 [Pa]
    Acentric factor:       0.22394 [-]

    Mol-fraction:                 1 [-]
    Swappable:                   false

    Mass:                         43.9988 [-]
    Bulk fluid density:           0 [-]
    Compressibility:              0 [-]
    Excess molecules:             0 [-]

    Number Of Atoms:    3
    CBMC starting bead: 0
      0: O_co2  position  0.00000 -0.00000  1.16000, charge -0.35000
      1: C_co2  position  0.00000 -0.00000  0.00000, charge  0.70000
      2: O_co2  position  0.00000 -0.00000 -1.16000, charge -0.35000
    Diagonalized inertia-vector:      43.05758528 43.05758528 0.00000000
    Translational degrees of freedom: 3
    Rotational degrees of freedom:    2
    Shape of the molecule is: 'Linear'
    Net-charge:        0.00000000 [e]

    Move probabilities:
    Translation:                   0.331126 [-]
    Random translation:            0.000000 [-]
    Rotation:                      0.331126 [-]
    Random rotation:               0.000000 [-]
    Volume change:                 0.006623 [-]
    Reinsertion (CBMC):            0.331126 [-]
    Identity change (CBMC):        0.000000 [-]
    Swap:                          0.000000 [-]
    Swap (CBMC):                   0.000000 [-]
    Swap (CFCMC):                  0.000000 [-]
    Swap (CB/CFCMC):               0.000000 [-]
    Gibbs volume:                  0.000000 [-]
    Gibbs swap (CBMC):             0.000000 [-]
    Gibbs swap (CFCMC):            0.000000 [-]
    Widom:                         0.000000 [-]
    Widom (CFCMC):                 0.000000 [-]
    Widom (CB/CFCMC):              0.000000 [-]
    Parallel tempering:            0.000000 [-]
    Hybrid MC:                     0.000000 [-]

    number of blocking-pockets: 0

    number of bonds: 0





Number of pseudo-atoms
===============================================================================

Component   0 (CO2)
-------------------------------------------------------------------------------
    index   0 (C_co2): 100 atoms
    index   1 (O_co2): 200 atoms

Total number of pseudo-atoms:
-------------------------------------------------------------------------------
    index   0 (C_co2): 100 atoms
    index   1 (O_co2): 200 atoms




Energy status Recomputed from scratch
===============================================================================

Total potential energy/kʙ       -4.134792e+03 [K]
    external field VDW/kʙ        0.000000e+00 [K]
    external field Real/kʙ       0.000000e+00 [K]
    framework-molecule VDW/kʙ    0.000000e+00 [K]
    framework-molecule Real/kʙ   0.000000e+00 [K]
    molecule-molecule VDW/kʙ    -5.412412e+02 [K]
    molecule-molecule Real/kʙ   -2.528339e+03 [K]
    Van der Waals (Tail)/kʙ     -1.188352e+03 [K]
    Ewald Fourier/kʙ             1.465399e+04 [K]
    Ewald self/kʙ               -2.222923e+06 [K]
    Ewald exclusion/kʙ           2.208392e+06 [K]
    intra VDW/kʙ                 0.000000e+00 [K]
    intra Coulombic/kʙ           0.000000e+00 [K]
    polarization/kʙ              0.000000e+00 [K]
    dU/dlambda VDW/kʙ            0.000000e+00 [K]
    dU/dlambda Real/kʙ           0.000000e+00 [K]
    dU/dlambda Ewald/kʙ          0.000000e+00 [K]





Initialization: Current cycle: 0 out of 1000
===============================================================================

Box:      30.97575   0.00000   0.00000
           0.00000  30.97575   0.00000
           0.00000   0.00000  30.97575
Lengths:  30.97575  30.97575  30.97575
Angles:   90.00000  90.00000  90.00000
Rectangular boundary conditions

net charge:   0.00000000

component   0 (CO2) lambda:  0 occupancy:  1 (1.000000)
    net charge:   0.00000000 [e]

Amount of molecules per component :
-------------------------------------------------------------------------------
Component 0 (CO2)
    molecules:         1.000000e+02 molecules
    number density:    3.364610e-03 molec/A^3
    density:           2.458241e+02 kg/m^3

Total potential energy/kʙ       -1.637812e+04 [K]
-------------------------------------------------------------------------------
    external field VDW/kʙ        0.000000e+00 [K]
    external field Real/kʙ       0.000000e+00 [K]
    framework-molecule VDW/kʙ    0.000000e+00 [K]
    framework-molecule Real/kʙ   0.000000e+00 [K]
    molecule-molecule VDW/kʙ    -1.047740e+04 [K]
    molecule-molecule Real/kʙ   -4.057690e+03 [K]
    Van der Waals (Tail)/kʙ     -1.079552e+03 [K]
    Ewald Fourier/kʙ             1.376737e+04 [K]
    Ewald self/kʙ               -2.222923e+06 [K]
    Ewald exclusion/kʙ           2.208392e+06 [K]
    intra VDW/kʙ                 0.000000e+00 [K]
    intra Coulombic/kʙ           0.000000e+00 [K]
    polarization/kʙ              0.000000e+00 [K]
    dU/dlambda VDW/kʙ            0.000000e+00 [K]
    dU/dlambda Real/kʙ           0.000000e+00 [K]
    dU/dlambda Ewald/kʙ          0.000000e+00 [K]


Initialization: Current cycle: 100 out of 1000
===============================================================================

Box:      27.69824   0.00000   0.00000
           0.00000  27.69824   0.00000
           0.00000   0.00000  27.69824
Lengths:  27.69824  27.69824  27.69824
Angles:   90.00000  90.00000  90.00000
Rectangular boundary conditions

net charge:   0.00000000

component   0 (CO2) lambda:  0 occupancy:  1 (1.000000)
    net charge:   0.00000000 [e]

Amount of molecules per component :
-------------------------------------------------------------------------------
Component 0 (CO2)
    molecules:         1.000000e+02 molecules
    number density:    4.705908e-03 molec/A^3
    density:           3.438217e+02 kg/m^3

Total potential energy/kʙ       -6.464667e+04 [K]
-------------------------------------------------------------------------------
    external field VDW/kʙ        0.000000e+00 [K]
    external field Real/kʙ       0.000000e+00 [K]
    framework-molecule VDW/kʙ    0.000000e+00 [K]
    framework-molecule Real/kʙ   0.000000e+00 [K]
    molecule-molecule VDW/kʙ    -4.547818e+04 [K]
    molecule-molecule Real/kʙ   -1.391408e+04 [K]
    Van der Waals (Tail)/kʙ     -1.509914e+03 [K]
    Ewald Fourier/kʙ             1.078636e+04 [K]
    Ewald self/kʙ               -2.222923e+06 [K]
    Ewald exclusion/kʙ           2.208392e+06 [K]
    intra VDW/kʙ                 0.000000e+00 [K]
    intra Coulombic/kʙ           0.000000e+00 [K]
    polarization/kʙ              0.000000e+00 [K]
    dU/dlambda VDW/kʙ            0.000000e+00 [K]
    dU/dlambda Real/kʙ           0.000000e+00 [K]
    dU/dlambda Ewald/kʙ          0.000000e+00 [K]


Initialization: Current cycle: 200 out of 1000
===============================================================================

Box:      24.89493   0.00000   0.00000
           0.00000  24.89493   0.00000
           0.00000   0.00000  24.89493
Lengths:  24.89493  24.89493  24.89493
Angles:   90.00000  90.00000  90.00000
Rectangular boundary conditions

net charge:   0.00000000

component   0 (CO2) lambda:  0 occupancy:  1 (1.000000)
    net charge:   0.00000000 [e]

Amount of molecules per component :
-------------------------------------------------------------------------------
Component 0 (CO2)
    molecules:         1.000000e+02 molecules
    number density:    6.481373e-03 molec/A^3
    density:           4.735402e+02 kg/m^3

Total potential energy/kʙ       -8.491919e+04 [K]
-------------------------------------------------------------------------------
    external field VDW/kʙ        0.000000e+00 [K]
    external field Real/kʙ       0.000000e+00 [K]
    framework-molecule VDW/kʙ    0.000000e+00 [K]
    framework-molecule Real/kʙ   0.000000e+00 [K]
    molecule-molecule VDW/kʙ    -6.156713e+04 [K]
    molecule-molecule Real/kʙ   -1.679017e+04 [K]
    Van der Waals (Tail)/kʙ     -2.079580e+03 [K]
    Ewald Fourier/kʙ             1.004854e+04 [K]
    Ewald self/kʙ               -2.222923e+06 [K]
    Ewald exclusion/kʙ           2.208392e+06 [K]
    intra VDW/kʙ                 0.000000e+00 [K]
    intra Coulombic/kʙ           0.000000e+00 [K]
    polarization/kʙ              0.000000e+00 [K]
    dU/dlambda VDW/kʙ            0.000000e+00 [K]
    dU/dlambda Real/kʙ           0.000000e+00 [K]
    dU/dlambda Ewald/kʙ          0.000000e+00 [K]


Initialization: Current cycle: 300 out of 1000
===============================================================================

Box:      21.71182   0.00000   0.00000
           0.00000  21.71182   0.00000
           0.00000   0.00000  21.71182
Lengths:  21.71182  21.71182  21.71182
Angles:   90.00000  90.00000  90.00000
Rectangular boundary conditions

net charge:   0.00000000

component   0 (CO2) lambda:  0 occupancy:  1 (1.000000)
    net charge:   0.00000000 [e]

Amount of molecules per component :
-------------------------------------------------------------------------------
Component 0 (CO2)
    molecules:         1.000000e+02 molecules
    number density:    9.770376e-03 molec/A^3
    density:           7.138404e+02 kg/m^3

Total potential energy/kʙ       -1.048460e+05 [K]
-------------------------------------------------------------------------------
    external field VDW/kʙ        0.000000e+00 [K]
    external field Real/kʙ       0.000000e+00 [K]
    framework-molecule VDW/kʙ    0.000000e+00 [K]
    framework-molecule Real/kʙ   0.000000e+00 [K]
    molecule-molecule VDW/kʙ    -7.505459e+04 [K]
    molecule-molecule Real/kʙ   -2.192932e+04 [K]
    Van der Waals (Tail)/kʙ     -3.134873e+03 [K]
    Ewald Fourier/kʙ             9.803629e+03 [K]
    Ewald self/kʙ               -2.222923e+06 [K]
    Ewald exclusion/kʙ           2.208392e+06 [K]
    intra VDW/kʙ                 0.000000e+00 [K]
    intra Coulombic/kʙ           0.000000e+00 [K]
    polarization/kʙ              0.000000e+00 [K]
    dU/dlambda VDW/kʙ            0.000000e+00 [K]
    dU/dlambda Real/kʙ           0.000000e+00 [K]
    dU/dlambda Ewald/kʙ          0.000000e+00 [K]


Initialization: Current cycle: 400 out of 1000
===============================================================================

Box:      20.46278   0.00000   0.00000
           0.00000  20.46278   0.00000
           0.00000   0.00000  20.46278
Lengths:  20.46278  20.46278  20.46278
Angles:   90.00000  90.00000  90.00000
Rectangular boundary conditions

net charge:   0.00000000

component   0 (CO2) lambda:  0 occupancy:  1 (1.000000)
    net charge:   0.00000000 [e]

Amount of molecules per component :
-------------------------------------------------------------------------------
Component 0 (CO2)
    molecules:         1.000000e+02 molecules
    number density:    1.167095e-02 molec/A^3
    density:           8.526993e+02 kg/m^3

Total potential energy/kʙ       -1.161599e+05 [K]
-------------------------------------------------------------------------------
    external field VDW/kʙ        0.000000e+00 [K]
    external field Real/kʙ       0.000000e+00 [K]
    framework-molecule VDW/kʙ    0.000000e+00 [K]
    framework-molecule Real/kʙ   0.000000e+00 [K]
    molecule-molecule VDW/kʙ    -8.648072e+04 [K]
    molecule-molecule Real/kʙ   -2.052298e+04 [K]
    Van der Waals (Tail)/kʙ     -3.744681e+03 [K]
    Ewald Fourier/kʙ             9.119304e+03 [K]
    Ewald self/kʙ               -2.222923e+06 [K]
    Ewald exclusion/kʙ           2.208392e+06 [K]
    intra VDW/kʙ                 0.000000e+00 [K]
    intra Coulombic/kʙ           0.000000e+00 [K]
    polarization/kʙ              0.000000e+00 [K]
    dU/dlambda VDW/kʙ            0.000000e+00 [K]
    dU/dlambda Real/kʙ           0.000000e+00 [K]
    dU/dlambda Ewald/kʙ          0.000000e+00 [K]


Initialization: Current cycle: 500 out of 1000
===============================================================================

Box:      19.65330   0.00000   0.00000
           0.00000  19.65330   0.00000
           0.00000   0.00000  19.65330
Lengths:  19.65330  19.65330  19.65330
Angles:   90.00000  90.00000  90.00000
Rectangular boundary conditions

net charge:   0.00000000

component   0 (CO2) lambda:  0 occupancy:  1 (1.000000)
    net charge:   0.00000000 [e]

Amount of molecules per component :
-------------------------------------------------------------------------------
Component 0 (CO2)
    molecules:         1.000000e+02 molecules
    number density:    1.317328e-02 molec/A^3
    density:           9.624621e+02 kg/m^3

Total potential energy/kʙ       -1.349039e+05 [K]
-------------------------------------------------------------------------------
    external field VDW/kʙ        0.000000e+00 [K]
    external field Real/kʙ       0.000000e+00 [K]
    framework-molecule VDW/kʙ    0.000000e+00 [K]
    framework-molecule Real/kʙ   0.000000e+00 [K]
    molecule-molecule VDW/kʙ    -9.916645e+04 [K]
    molecule-molecule Real/kʙ   -2.443983e+04 [K]
    Van der Waals (Tail)/kʙ     -4.226710e+03 [K]
    Ewald Fourier/kʙ             7.459897e+03 [K]
    Ewald self/kʙ               -2.222923e+06 [K]
    Ewald exclusion/kʙ           2.208392e+06 [K]
    intra VDW/kʙ                 0.000000e+00 [K]
    intra Coulombic/kʙ           0.000000e+00 [K]
    polarization/kʙ              0.000000e+00 [K]
    dU/dlambda VDW/kʙ            0.000000e+00 [K]
    dU/dlambda Real/kʙ           0.000000e+00 [K]
    dU/dlambda Ewald/kʙ          0.000000e+00 [K]


Initialization: Current cycle: 600 out of 1000
===============================================================================

Box:      19.16690   0.00000   0.00000
           0.00000  19.16690   0.00000
           0.00000   0.00000  19.16690
Lengths:  19.16690  19.16690  19.16690
Angles:   90.00000  90.00000  90.00000
Rectangular boundary conditions

net charge:   0.00000000

component   0 (CO2) lambda:  0 occupancy:  1 (1.000000)
    net charge:   0.00000000 [e]

Amount of molecules per component :
-------------------------------------------------------------------------------
Component 0 (CO2)
    molecules:         1.000000e+02 molecules
    number density:    1.420183e-02 molec/A^3
    density:           1.037610e+03 kg/m^3

Total potential energy/kʙ       -1.501887e+05 [K]
-------------------------------------------------------------------------------
    external field VDW/kʙ        0.000000e+00 [K]
    external field Real/kʙ       0.000000e+00 [K]
    framework-molecule VDW/kʙ    0.000000e+00 [K]
    framework-molecule Real/kʙ   0.000000e+00 [K]
    molecule-molecule VDW/kʙ    -1.058619e+05 [K]
    molecule-molecule Real/kʙ   -3.160184e+04 [K]
    Van der Waals (Tail)/kʙ     -4.556728e+03 [K]
    Ewald Fourier/kʙ             6.362598e+03 [K]
    Ewald self/kʙ               -2.222923e+06 [K]
    Ewald exclusion/kʙ           2.208392e+06 [K]
    intra VDW/kʙ                 0.000000e+00 [K]
    intra Coulombic/kʙ           0.000000e+00 [K]
    polarization/kʙ              0.000000e+00 [K]
    dU/dlambda VDW/kʙ            0.000000e+00 [K]
    dU/dlambda Real/kʙ           0.000000e+00 [K]
    dU/dlambda Ewald/kʙ          0.000000e+00 [K]


Initialization: Current cycle: 700 out of 1000
===============================================================================

Box:      18.83858   0.00000   0.00000
           0.00000  18.83858   0.00000
           0.00000   0.00000  18.83858
Lengths:  18.83858  18.83858  18.83858
Angles:   90.00000  90.00000  90.00000
Rectangular boundary conditions

net charge:   0.00000000

component   0 (CO2) lambda:  0 occupancy:  1 (1.000000)
    net charge:   0.00000000 [e]

Amount of molecules per component :
-------------------------------------------------------------------------------
Component 0 (CO2)
    molecules:         1.000000e+02 molecules
    number density:    1.495737e-02 molec/A^3
    density:           1.092811e+03 kg/m^3

Total potential energy/kʙ       -1.500731e+05 [K]
-------------------------------------------------------------------------------
    external field VDW/kʙ        0.000000e+00 [K]
    external field Real/kʙ       0.000000e+00 [K]
    framework-molecule VDW/kʙ    0.000000e+00 [K]
    framework-molecule Real/kʙ   0.000000e+00 [K]
    molecule-molecule VDW/kʙ    -1.094323e+05 [K]
    molecule-molecule Real/kʙ   -2.831954e+04 [K]
    Van der Waals (Tail)/kʙ     -4.799145e+03 [K]
    Ewald Fourier/kʙ             7.008663e+03 [K]
    Ewald self/kʙ               -2.222923e+06 [K]
    Ewald exclusion/kʙ           2.208392e+06 [K]
    intra VDW/kʙ                 0.000000e+00 [K]
    intra Coulombic/kʙ           0.000000e+00 [K]
    polarization/kʙ              0.000000e+00 [K]
    dU/dlambda VDW/kʙ            0.000000e+00 [K]
    dU/dlambda Real/kʙ           0.000000e+00 [K]
    dU/dlambda Ewald/kʙ          0.000000e+00 [K]


Initialization: Current cycle: 800 out of 1000
===============================================================================

Box:      18.90877   0.00000   0.00000
           0.00000  18.90877   0.00000
           0.00000   0.00000  18.90877
Lengths:  18.90877  18.90877  18.90877
Angles:   90.00000  90.00000  90.00000
Rectangular boundary conditions

net charge:   0.00000000

component   0 (CO2) lambda:  0 occupancy:  1 (1.000000)
    net charge:   0.00000000 [e]

Amount of molecules per component :
-------------------------------------------------------------------------------
Component 0 (CO2)
    molecules:         1.000000e+02 molecules
    number density:    1.479143e-02 molec/A^3
    density:           1.080687e+03 kg/m^3

Total potential energy/kʙ       -1.550417e+05 [K]
-------------------------------------------------------------------------------
    external field VDW/kʙ        0.000000e+00 [K]
    external field Real/kʙ       0.000000e+00 [K]
    framework-molecule VDW/kʙ    0.000000e+00 [K]
    framework-molecule Real/kʙ   0.000000e+00 [K]
    molecule-molecule VDW/kʙ    -1.099242e+05 [K]
    molecule-molecule Real/kʙ   -3.261100e+04 [K]
    Van der Waals (Tail)/kʙ     -4.745904e+03 [K]
    Ewald Fourier/kʙ             6.770187e+03 [K]
    Ewald self/kʙ               -2.222923e+06 [K]
    Ewald exclusion/kʙ           2.208392e+06 [K]
    intra VDW/kʙ                 0.000000e+00 [K]
    intra Coulombic/kʙ           0.000000e+00 [K]
    polarization/kʙ              0.000000e+00 [K]
    dU/dlambda VDW/kʙ            0.000000e+00 [K]
    dU/dlambda Real/kʙ           0.000000e+00 [K]
    dU/dlambda Ewald/kʙ          0.000000e+00 [K]


Initialization: Current cycle: 900 out of 1000
===============================================================================

Box:      19.27161   0.00000   0.00000
           0.00000  19.27161   0.00000
           0.00000   0.00000  19.27161
Lengths:  19.27161  19.27161  19.27161
Angles:   90.00000  90.00000  90.00000
Rectangular boundary conditions

net charge:   0.00000000

component   0 (CO2) lambda:  0 occupancy:  1 (1.000000)
    net charge:   0.00000000 [e]

Amount of molecules per component :
-------------------------------------------------------------------------------
Component 0 (CO2)
    molecules:         1.000000e+02 molecules
    number density:    1.397160e-02 molec/A^3
    density:           1.020789e+03 kg/m^3

Total potential energy/kʙ       -1.505230e+05 [K]
-------------------------------------------------------------------------------
    external field VDW/kʙ        0.000000e+00 [K]
    external field Real/kʙ       0.000000e+00 [K]
    framework-molecule VDW/kʙ    0.000000e+00 [K]
    framework-molecule Real/kʙ   0.000000e+00 [K]
    molecule-molecule VDW/kʙ    -1.082792e+05 [K]
    molecule-molecule Real/kʙ   -2.965761e+04 [K]
    Van der Waals (Tail)/kʙ     -4.482858e+03 [K]
    Ewald Fourier/kʙ             6.427458e+03 [K]
    Ewald self/kʙ               -2.222923e+06 [K]
    Ewald exclusion/kʙ           2.208392e+06 [K]
    intra VDW/kʙ                 0.000000e+00 [K]
    intra Coulombic/kʙ           0.000000e+00 [K]
    polarization/kʙ              0.000000e+00 [K]
    dU/dlambda VDW/kʙ            0.000000e+00 [K]
    dU/dlambda Real/kʙ           0.000000e+00 [K]
    dU/dlambda Ewald/kʙ          0.000000e+00 [K]


Current cycle: 0 out of 5000
===============================================================================

Box:      18.79007   0.00000   0.00000  Average:  18.79007   0.00000   0.00000
           0.00000  18.79007   0.00000             0.00000  18.79007   0.00000
           0.00000   0.00000  18.79007             0.00000   0.00000  18.79007
Lengths:  18.79007  18.79007  18.79007  Average:  18.79007  18.79007  18.79007
Angles:   90.00000  90.00000  90.00000  Average:  90.00000  90.00000  90.00000
Rectangular boundary conditions

net charge:   0.00000000

component 0 (CO2) lambda:  0 occupancy:  1 (1.000000)
    net charge:   0.00000000 [e]

Amount of molecules per component :
-------------------------------------------------------------------------------
Component 0 (CO2)
    molecules:      1.000000e+02 molecules  (1.000000e+02 +/- 0.000000e+00)
    number density: 1.507354e-02 molec./A^3 (1.507354e-02 +/- 0.000000e+00)
    density:        1.101298e+03 kg/m^3     (1.101298e+03 +/- 0.000000e+00)

Average pressure tensor: 
-------------------------------------------------------------------------------
 5.2028e+02  0.0000e+00  0.0000e+00 +/- 0.0000e+00 0.0000e+00 0.0000e+00 [bar]
 0.0000e+00  5.2028e+02  0.0000e+00 +/- 0.0000e+00 0.0000e+00 0.0000e+00 [bar]
 0.0000e+00  0.0000e+00  5.2028e+02 +/- 0.0000e+00 0.0000e+00 0.0000e+00 [bar]
Ideal-gas pressure:   5.202820e+02 +/ 0.000000e+00 [bar]
Excess pressure:      0.000000e+00 +/ 0.000000e+00 [bar]
Pressure:             5.202820e+02 +/ 0.000000e+00 [bar]

Total potential energy/kʙ  -1.589612e+05 (-1.589612e+05 +/- 0.000000e+00) [K]
-------------------------------------------------------------------------------
ExternalField-molecule
    Van der Waals/kʙ        0.000000e+00 ( 0.000000e+00 +/- 0.000000e+00) [K]
Framework-molecule
    Van der Waals/kʙ        0.000000e+00 ( 0.000000e+00 +/- 0.000000e+00) [K]
    Van der Waals (Tail)/kʙ 0.000000e+00 ( 0.000000e+00 +/- 0.000000e+00) [K]
    Coulombic Real/kʙ       0.000000e+00 ( 0.000000e+00 +/- 0.000000e+00) [K]
    Coulombic Fourier/kʙ    0.000000e+00 ( 0.000000e+00 +/- 0.000000e+00) [K]
Molecule-molecule
    Van der Waals/kʙ       -1.100600e+05 (-1.100600e+05 +/- 0.000000e+00) [K]
    Van der Waals (Tail)/kʙ-4.836418e+03 (-4.836418e+03 +/- 0.000000e+00) [K]
    Coulombic Real/kʙ      -3.591812e+04 (-3.591812e+04 +/- 0.000000e+00) [K]
    Coulombic Fourier/kʙ   -8.146721e+03 (-8.146721e+03 +/- 0.000000e+00) [K]
    Molecule Intra/kʙ       0.000000e+00 ( 0.000000e+00 +/- 0.000000e+00) [K]

Current cycle: 100 out of 5000
===============================================================================

Box:      18.57427   0.00000   0.00000  Average:  18.58425   0.00000   0.00000
           0.00000  18.57427   0.00000             0.00000  18.58425   0.00000
           0.00000   0.00000  18.57427             0.00000   0.00000  18.58425
Lengths:  18.57427  18.57427  18.57427  Average:  18.58425  18.58425  18.58425
Angles:   90.00000  90.00000  90.00000  Average:  90.00000  90.00000  90.00000
Rectangular boundary conditions

net charge:   0.00000000

component 0 (CO2) lambda:  0 occupancy:  1 (1.000000)
    net charge:   0.00000000 [e]

Amount of molecules per component :
-------------------------------------------------------------------------------
Component 0 (CO2)
    molecules:      1.000000e+02 molecules  (1.000000e+02 +/- 0.000000e+00)
    number density: 1.560503e-02 molec./A^3 (1.558162e-02 +/- 0.000000e+00)
    density:        1.140130e+03 kg/m^3     (1.138420e+03 +/- 0.000000e+00)

Average pressure tensor: 
-------------------------------------------------------------------------------
 4.1008e+02 -9.8433e+01 -5.7522e+01 +/- 0.0000e+00 0.0000e+00 0.0000e+00 [bar]
-9.8433e+01  7.1348e+02  1.3678e+02 +/- 0.0000e+00 0.0000e+00 0.0000e+00 [bar]
-5.7522e+01  1.3678e+02  3.1685e+02 +/- 0.0000e+00 0.0000e+00 0.0000e+00 [bar]
Ideal-gas pressure:   5.378193e+02 +/ 0.000000e+00 [bar]
Excess pressure:     -5.768563e+01 +/ 0.000000e+00 [bar]
Pressure:             4.801337e+02 +/ 0.000000e+00 [bar]

Total potential energy/kʙ  -1.714684e+05 (-1.669644e+05 +/- 0.000000e+00) [K]
-------------------------------------------------------------------------------
ExternalField-molecule
    Van der Waals/kʙ        0.000000e+00 ( 0.000000e+00 +/- 0.000000e+00) [K]
Framework-molecule
    Van der Waals/kʙ        0.000000e+00 ( 0.000000e+00 +/- 0.000000e+00) [K]
    Van der Waals (Tail)/kʙ 0.000000e+00 ( 0.000000e+00 +/- 0.000000e+00) [K]
    Coulombic Real/kʙ       0.000000e+00 ( 0.000000e+00 +/- 0.000000e+00) [K]
    Coulombic Fourier/kʙ    0.000000e+00 ( 0.000000e+00 +/- 0.000000e+00) [K]
Molecule-molecule
    Van der Waals/kʙ       -1.204119e+05 (-1.160176e+05 +/- 0.000000e+00) [K]
    Van der Waals (Tail)/kʙ-5.006950e+03 (-4.990641e+03 +/- 0.000000e+00) [K]
    Coulombic Real/kʙ      -3.767163e+04 (-3.750890e+04 +/- 0.000000e+00) [K]
    Coulombic Fourier/kʙ   -8.377912e+03 (-8.447327e+03 +/- 0.000000e+00) [K]
    Molecule Intra/kʙ       0.000000e+00 ( 0.000000e+00 +/- 0.000000e+00) [K]

Current cycle: 200 out of 5000
===============================================================================

Box:      18.83121   0.00000   0.00000  Average:  18.66483   0.00000   0.00000
           0.00000  18.83121   0.00000             0.00000  18.66483   0.00000
           0.00000   0.00000  18.83121             0.00000   0.00000  18.66483
Lengths:  18.83121  18.83121  18.83121  Average:  18.66483  18.66483  18.66483
Angles:   90.00000  90.00000  90.00000  Average:  90.00000  90.00000  90.00000
Rectangular boundary conditions

net charge:   0.00000000

component 0 (CO2) lambda:  0 occupancy:  1 (1.000000)
    net charge:   0.00000000 [e]

Amount of molecules per component :
-------------------------------------------------------------------------------
Component 0 (CO2)
    molecules:      1.000000e+02 molecules  (1.000000e+02 +/- 0.000000e+00)
    number density: 1.497494e-02 molec./A^3 (1.538238e-02 +/- 0.000000e+00)
    density:        1.094095e+03 kg/m^3     (1.123863e+03 +/- 0.000000e+00)

Average pressure tensor: 
-------------------------------------------------------------------------------
 2.4887e+01 -4.1620e+01 -1.0019e+02 +/- 0.0000e+00 0.0000e+00 0.0000e+00 [bar]
-4.1620e+01  3.0488e+02  7.2074e+01 +/- 0.0000e+00 0.0000e+00 0.0000e+00 [bar]
-1.0019e+02  7.2074e+01  2.1989e+02 +/- 0.0000e+00 0.0000e+00 0.0000e+00 [bar]
Ideal-gas pressure:   5.309423e+02 +/ 0.000000e+00 [bar]
Excess pressure:     -3.477247e+02 +/ 0.000000e+00 [bar]
Pressure:             1.832176e+02 +/ 0.000000e+00 [bar]

Total potential energy/kʙ  -1.616516e+05 (-1.651955e+05 +/- 0.000000e+00) [K]
-------------------------------------------------------------------------------
ExternalField-molecule
    Van der Waals/kʙ        0.000000e+00 ( 0.000000e+00 +/- 0.000000e+00) [K]
Framework-molecule
    Van der Waals/kʙ        0.000000e+00 ( 0.000000e+00 +/- 0.000000e+00) [K]
    Van der Waals (Tail)/kʙ 0.000000e+00 ( 0.000000e+00 +/- 0.000000e+00) [K]
    Coulombic Real/kʙ       0.000000e+00 ( 0.000000e+00 +/- 0.000000e+00) [K]
    Coulombic Fourier/kʙ    0.000000e+00 ( 0.000000e+00 +/- 0.000000e+00) [K]
Molecule-molecule
    Van der Waals/kʙ       -1.118950e+05 (-1.149369e+05 +/- 0.000000e+00) [K]
    Van der Waals (Tail)/kʙ-4.804782e+03 (-4.922618e+03 +/- 0.000000e+00) [K]
    Coulombic Real/kʙ      -3.558907e+04 (-3.673061e+04 +/- 0.000000e+00) [K]
    Coulombic Fourier/kʙ   -9.362681e+03 (-8.605323e+03 +/- 0.000000e+00) [K]
    Molecule Intra/kʙ       0.000000e+00 ( 0.000000e+00 +/- 0.000000e+00) [K]

Current cycle: 300 out of 5000
===============================================================================

Box:      18.84633   0.00000   0.00000  Average:  18.68867   0.00000   0.00000
           0.00000  18.84633   0.00000             0.00000  18.68867   0.00000
           0.00000   0.00000  18.84633             0.00000   0.00000  18.68867
Lengths:  18.84633  18.84633  18.84633  Average:  18.68867  18.68867  18.68867
Angles:   90.00000  90.00000  90.00000  Average:  90.00000  90.00000  90.00000
Rectangular boundary conditions

net charge:   0.00000000

component 0 (CO2) lambda:  0 occupancy:  1 (1.000000)
    net charge:   0.00000000 [e]

Amount of molecules per component :
-------------------------------------------------------------------------------
Component 0 (CO2)
    molecules:      1.000000e+02 molecules  (1.000000e+02 +/- 0.000000e+00)
    number density: 1.493893e-02 molec./A^3 (1.532339e-02 +/- 0.000000e+00)
    density:        1.091464e+03 kg/m^3     (1.119553e+03 +/- 0.000000e+00)

Average pressure tensor: 
-------------------------------------------------------------------------------
-4.9100e+01  9.1373e+01 -6.0999e+01 +/- 0.0000e+00 0.0000e+00 0.0000e+00 [bar]
 9.1373e+01  3.0788e+02  5.9281e+01 +/- 0.0000e+00 0.0000e+00 0.0000e+00 [bar]
-6.0999e+01  5.9281e+01  2.0904e+02 +/- 0.0000e+00 0.0000e+00 0.0000e+00 [bar]
Ideal-gas pressure:   5.289061e+02 +/ 0.000000e+00 [bar]
Excess pressure:     -3.729659e+02 +/ 0.000000e+00 [bar]
Pressure:             1.559402e+02 +/ 0.000000e+00 [bar]

Total potential energy/kʙ  -1.543425e+05 (-1.643742e+05 +/- 0.000000e+00) [K]
-------------------------------------------------------------------------------
ExternalField-molecule
    Van der Waals/kʙ        0.000000e+00 ( 0.000000e+00 +/- 0.000000e+00) [K]
Framework-molecule
    Van der Waals/kʙ        0.000000e+00 ( 0.000000e+00 +/- 0.000000e+00) [K]
    Van der Waals (Tail)/kʙ 0.000000e+00 ( 0.000000e+00 +/- 0.000000e+00) [K]
    Coulombic Real/kʙ       0.000000e+00 ( 0.000000e+00 +/- 0.000000e+00) [K]
    Coulombic Fourier/kʙ    0.000000e+00 ( 0.000000e+00 +/- 0.000000e+00) [K]
Molecule-molecule
    Van der Waals/kʙ       -1.096943e+05 (-1.146136e+05 +/- 0.000000e+00) [K]
    Van der Waals (Tail)/kʙ-4.793229e+03 (-4.908101e+03 +/- 0.000000e+00) [K]
    Coulombic Real/kʙ      -3.209264e+04 (-3.640270e+04 +/- 0.000000e+00) [K]
    Coulombic Fourier/kʙ   -7.762286e+03 (-8.449817e+03 +/- 0.000000e+00) [K]
    Molecule Intra/kʙ       0.000000e+00 ( 0.000000e+00 +/- 0.000000e+00) [K]

Current cycle: 400 out of 5000
===============================================================================

Box:      18.72190   0.00000   0.00000  Average:  18.72958   0.00000   0.00000
           0.00000  18.72190   0.00000             0.00000  18.72958   0.00000
           0.00000   0.00000  18.72190             0.00000   0.00000  18.72958
Lengths:  18.72190  18.72190  18.72190  Average:  18.72958  18.72958  18.72958
Angles:   90.00000  90.00000  90.00000  Average:  90.00000  90.00000  90.00000
Rectangular boundary conditions

net charge:   0.00000000

component 0 (CO2) lambda:  0 occupancy:  1 (1.000000)
    net charge:   0.00000000 [e]

Amount of molecules per component :
-------------------------------------------------------------------------------
Component 0 (CO2)
    molecules:      1.000000e+02 molecules  (1.000000e+02 +/- 0.000000e+00)
    number density: 1.523877e-02 molec./A^3 (1.522481e-02 +/- 0.000000e+00)
    density:        1.113371e+03 kg/m^3     (1.112350e+03 +/- 0.000000e+00)

Average pressure tensor: 
-------------------------------------------------------------------------------
 1.0398e+02  2.3033e+01 -2.9302e+01 +/- 0.0000e+00 0.0000e+00 0.0000e+00 [bar]
 2.3033e+01  3.5762e+02  3.7261e+01 +/- 0.0000e+00 0.0000e+00 0.0000e+00 [bar]
-2.9302e+01  3.7261e+01  2.8612e+02 +/- 0.0000e+00 0.0000e+00 0.0000e+00 [bar]
Ideal-gas pressure:   5.255033e+02 +/ 0.000000e+00 [bar]
Excess pressure:     -2.762640e+02 +/ 0.000000e+00 [bar]
Pressure:             2.492393e+02 +/ 0.000000e+00 [bar]

Total potential energy/kʙ  -1.599724e+05 (-1.623059e+05 +/- 0.000000e+00) [K]
-------------------------------------------------------------------------------
ExternalField-molecule
    Van der Waals/kʙ        0.000000e+00 ( 0.000000e+00 +/- 0.000000e+00) [K]
Framework-molecule
    Van der Waals/kʙ        0.000000e+00 ( 0.000000e+00 +/- 0.000000e+00) [K]
    Van der Waals (Tail)/kʙ 0.000000e+00 ( 0.000000e+00 +/- 0.000000e+00) [K]
    Coulombic Real/kʙ       0.000000e+00 ( 0.000000e+00 +/- 0.000000e+00) [K]
    Coulombic Fourier/kʙ    0.000000e+00 ( 0.000000e+00 +/- 0.000000e+00) [K]
Molecule-molecule
    Van der Waals/kʙ       -1.131422e+05 (-1.132841e+05 +/- 0.000000e+00) [K]
    Van der Waals (Tail)/kʙ-4.889435e+03 (-4.884552e+03 +/- 0.000000e+00) [K]
    Coulombic Real/kʙ      -3.453684e+04 (-3.579198e+04 +/- 0.000000e+00) [K]
    Coulombic Fourier/kʙ   -7.403940e+03 (-8.345234e+03 +/- 0.000000e+00) [K]
    Molecule Intra/kʙ       0.000000e+00 ( 0.000000e+00 +/- 0.000000e+00) [K]

Current cycle: 500 out of 5000
===============================================================================

Box:      18.76191   0.00000   0.00000  Average:  18.75090   0.00000   0.00000
           0.00000  18.76191   0.00000             0.00000  18.75090   0.00000
           0.00000   0.00000  18.76191             0.00000   0.00000  18.75090
Lengths:  18.76191  18.76191  18.76191  Average:  18.75090  18.75090  18.75090
Angles:   90.00000  90.00000  90.00000  Average:  90.00000  90.00000  90.00000
Rectangular boundary conditions

net charge:   0.00000000

component 0 (CO2) lambda:  0 occupancy:  1 (1.000000)
    net charge:   0.00000000 [e]

Amount of molecules per component :
-------------------------------------------------------------------------------
Component 0 (CO2)
    molecules:      1.000000e+02 molecules  (1.000000e+02 +/- 0.000000e+00)
    number density: 1.514149e-02 molec./A^3 (1.517265e-02 +/- 0.000000e+00)
    density:        1.106263e+03 kg/m^3     (1.108540e+03 +/- 0.000000e+00)

Average pressure tensor: 
-------------------------------------------------------------------------------
 1.3706e+02 -2.0741e+01 -1.8594e+01 +/- 0.0000e+00 0.0000e+00 0.0000e+00 [bar]
-2.0741e+01  2.9235e+02  1.8323e+01 +/- 0.0000e+00 0.0000e+00 0.0000e+00 [bar]
-1.8594e+01  1.8323e+01  2.6291e+02 +/- 0.0000e+00 0.0000e+00 0.0000e+00 [bar]
Ideal-gas pressure:   5.237031e+02 +/ 0.000000e+00 [bar]
Excess pressure:     -2.929296e+02 +/ 0.000000e+00 [bar]
Pressure:             2.307735e+02 +/ 0.000000e+00 [bar]

Total potential energy/kʙ  -1.643263e+05 (-1.618633e+05 +/- 0.000000e+00) [K]
-------------------------------------------------------------------------------
ExternalField-molecule
    Van der Waals/kʙ        0.000000e+00 ( 0.000000e+00 +/- 0.000000e+00) [K]
Framework-molecule
    Van der Waals/kʙ        0.000000e+00 ( 0.000000e+00 +/- 0.000000e+00) [K]
    Van der Waals (Tail)/kʙ 0.000000e+00 ( 0.000000e+00 +/- 0.000000e+00) [K]
    Coulombic Real/kʙ       0.000000e+00 ( 0.000000e+00 +/- 0.000000e+00) [K]
    Coulombic Fourier/kʙ    0.000000e+00 ( 0.000000e+00 +/- 0.000000e+00) [K]
Molecule-molecule
    Van der Waals/kʙ       -1.163631e+05 (-1.131332e+05 +/- 0.000000e+00) [K]
    Van der Waals (Tail)/kʙ-4.858220e+03 (-4.870787e+03 +/- 0.000000e+00) [K]
    Coulombic Real/kʙ      -3.493527e+04 (-3.550514e+04 +/- 0.000000e+00) [K]
    Coulombic Fourier/kʙ   -8.169625e+03 (-8.354237e+03 +/- 0.000000e+00) [K]
    Molecule Intra/kʙ       0.000000e+00 ( 0.000000e+00 +/- 0.000000e+00) [K]

Current cycle: 600 out of 5000
===============================================================================

Box:      19.05314   0.00000   0.00000  Average:  18.75817   0.00000   0.00000
           0.00000  19.05314   0.00000             0.00000  18.75817   0.00000
           0.00000   0.00000  19.05314             0.00000   0.00000  18.75817
Lengths:  19.05314  19.05314  19.05314  Average:  18.75817  18.75817  18.75817
Angles:   90.00000  90.00000  90.00000  Average:  90.00000  90.00000  90.00000
Rectangular boundary conditions

net charge:   0.00000000

component 0 (CO2) lambda:  0 occupancy:  1 (1.000000)
    net charge:   0.00000000 [e]

Amount of molecules per component :
-------------------------------------------------------------------------------
Component 0 (CO2)
    molecules:      1.000000e+02 molecules  (1.000000e+02 +/- 0.000000e+00)
    number density: 1.445773e-02 molec./A^3 (1.515492e-02 +/- 0.000000e+00)
    density:        1.056307e+03 kg/m^3     (1.107244e+03 +/- 0.000000e+00)

Average pressure tensor: 
-------------------------------------------------------------------------------
 1.4304e+02 -1.9641e+01  3.1474e-01 +/- 0.0000e+00 0.0000e+00 0.0000e+00 [bar]
-1.9641e+01  2.6975e+02  2.1863e+01 +/- 0.0000e+00 0.0000e+00 0.0000e+00 [bar]
 3.1474e-01  2.1863e+01  2.5795e+02 +/- 0.0000e+00 0.0000e+00 0.0000e+00 [bar]
Ideal-gas pressure:   5.230910e+02 +/ 0.000000e+00 [bar]
Excess pressure:     -2.995083e+02 +/ 0.000000e+00 [bar]
Pressure:             2.235827e+02 +/ 0.000000e+00 [bar]

Total potential energy/kʙ  -1.562266e+05 (-1.617317e+05 +/- 0.000000e+00) [K]
-------------------------------------------------------------------------------
ExternalField-molecule
    Van der Waals/kʙ        0.000000e+00 ( 0.000000e+00 +/- 0.000000e+00) [K]
Framework-molecule
    Van der Waals/kʙ        0.000000e+00 ( 0.000000e+00 +/- 0.000000e+00) [K]
    Van der Waals (Tail)/kʙ 0.000000e+00 ( 0.000000e+00 +/- 0.000000e+00) [K]
    Coulombic Real/kʙ       0.000000e+00 ( 0.000000e+00 +/- 0.000000e+00) [K]
    Coulombic Fourier/kʙ    0.000000e+00 ( 0.000000e+00 +/- 0.000000e+00) [K]
Molecule-molecule
    Van der Waals/kʙ       -1.094671e+05 (-1.130742e+05 +/- 0.000000e+00) [K]
    Van der Waals (Tail)/kʙ-4.638835e+03 (-4.862360e+03 +/- 0.000000e+00) [K]
    Coulombic Real/kʙ      -3.436499e+04 (-3.550990e+04 +/- 0.000000e+00) [K]
    Coulombic Fourier/kʙ   -7.755592e+03 (-8.285217e+03 +/- 0.000000e+00) [K]
    Molecule Intra/kʙ       0.000000e+00 ( 0.000000e+00 +/- 0.000000e+00) [K]

Current cycle: 700 out of 5000
===============================================================================

Box:      18.91522   0.00000   0.00000  Average:  18.79558   0.00000   0.00000
           0.00000  18.91522   0.00000             0.00000  18.79558   0.00000
           0.00000   0.00000  18.91522             0.00000   0.00000  18.79558
Lengths:  18.91522  18.91522  18.91522  Average:  18.79558  18.79558  18.79558
Angles:   90.00000  90.00000  90.00000  Average:  90.00000  90.00000  90.00000
Rectangular boundary conditions

net charge:   0.00000000

component 0 (CO2) lambda:  0 occupancy:  1 (1.000000)
    net charge:   0.00000000 [e]

Amount of molecules per component :
-------------------------------------------------------------------------------
Component 0 (CO2)
    molecules:      1.000000e+02 molecules  (1.000000e+02 +/- 0.000000e+00)
    number density: 1.477631e-02 molec./A^3 (1.506652e-02 +/- 0.000000e+00)
    density:        1.079583e+03 kg/m^3     (1.100786e+03 +/- 0.000000e+00)

Average pressure tensor: 
-------------------------------------------------------------------------------
 9.4080e+01 -2.3042e+01 -5.9118e+00 +/- 0.0000e+00 0.0000e+00 0.0000e+00 [bar]
-2.3042e+01  2.3646e+02  5.4757e+01 +/- 0.0000e+00 0.0000e+00 0.0000e+00 [bar]
-5.9118e+00  5.4757e+01  2.4288e+02 +/- 0.0000e+00 0.0000e+00 0.0000e+00 [bar]
Ideal-gas pressure:   5.200399e+02 +/ 0.000000e+00 [bar]
Excess pressure:     -3.289001e+02 +/ 0.000000e+00 [bar]
Pressure:             1.911398e+02 +/ 0.000000e+00 [bar]

Total potential energy/kʙ  -1.591372e+05 (-1.610589e+05 +/- 0.000000e+00) [K]
-------------------------------------------------------------------------------
ExternalField-molecule
    Van der Waals/kʙ        0.000000e+00 ( 0.000000e+00 +/- 0.000000e+00) [K]
Framework-molecule
    Van der Waals/kʙ        0.000000e+00 ( 0.000000e+00 +/- 0.000000e+00) [K]
    Van der Waals (Tail)/kʙ 0.000000e+00 ( 0.000000e+00 +/- 0.000000e+00) [K]
    Coulombic Real/kʙ       0.000000e+00 ( 0.000000e+00 +/- 0.000000e+00) [K]
    Coulombic Fourier/kʙ    0.000000e+00 ( 0.000000e+00 +/- 0.000000e+00) [K]
Molecule-molecule
    Van der Waals/kʙ       -1.123596e+05 (-1.126120e+05 +/- 0.000000e+00) [K]
    Van der Waals (Tail)/kʙ-4.741053e+03 (-4.835173e+03 +/- 0.000000e+00) [K]
    Coulombic Real/kʙ      -3.399093e+04 (-3.532886e+04 +/- 0.000000e+00) [K]
    Coulombic Fourier/kʙ   -8.045580e+03 (-8.282907e+03 +/- 0.000000e+00) [K]
    Molecule Intra/kʙ       0.000000e+00 ( 0.000000e+00 +/- 0.000000e+00) [K]

Current cycle: 800 out of 5000
===============================================================================

Box:      18.58480   0.00000   0.00000  Average:  18.79345   0.00000   0.00000
           0.00000  18.58480   0.00000             0.00000  18.79345   0.00000
           0.00000   0.00000  18.58480             0.00000   0.00000  18.79345
Lengths:  18.58480  18.58480  18.58480  Average:  18.79345  18.79345  18.79345
Angles:   90.00000  90.00000  90.00000  Average:  90.00000  90.00000  90.00000
Rectangular boundary conditions

net charge:   0.00000000

component 0 (CO2) lambda:  0 occupancy:  1 (1.000000)
    net charge:   0.00000000 [e]

Amount of molecules per component :
-------------------------------------------------------------------------------
Component 0 (CO2)
    molecules:      1.000000e+02 molecules  (1.000000e+02 +/- 0.000000e+00)
    number density: 1.557853e-02 molec./A^3 (1.507151e-02 +/- 0.000000e+00)
    density:        1.138194e+03 kg/m^3     (1.101150e+03 +/- 0.000000e+00)

Average pressure tensor: 
-------------------------------------------------------------------------------
 1.0976e+02 -4.6249e+01  3.4678e+01 +/- 0.0000e+00 0.0000e+00 0.0000e+00 [bar]
-4.6249e+01  2.0791e+02  4.7347e+01 +/- 0.0000e+00 0.0000e+00 0.0000e+00 [bar]
 3.4678e+01  4.7347e+01  2.3796e+02 +/- 0.0000e+00 0.0000e+00 0.0000e+00 [bar]
Ideal-gas pressure:   5.202122e+02 +/ 0.000000e+00 [bar]
Excess pressure:     -3.350017e+02 +/ 0.000000e+00 [bar]
Pressure:             1.852105e+02 +/ 0.000000e+00 [bar]

Total potential energy/kʙ  -1.651800e+05 (-1.612474e+05 +/- 0.000000e+00) [K]
-------------------------------------------------------------------------------
ExternalField-molecule
    Van der Waals/kʙ        0.000000e+00 ( 0.000000e+00 +/- 0.000000e+00) [K]
Framework-molecule
    Van der Waals/kʙ        0.000000e+00 ( 0.000000e+00 +/- 0.000000e+00) [K]
    Van der Waals (Tail)/kʙ 0.000000e+00 ( 0.000000e+00 +/- 0.000000e+00) [K]
    Coulombic Real/kʙ       0.000000e+00 ( 0.000000e+00 +/- 0.000000e+00) [K]
    Coulombic Fourier/kʙ    0.000000e+00 ( 0.000000e+00 +/- 0.000000e+00) [K]
Molecule-molecule
    Van der Waals/kʙ       -1.163858e+05 (-1.127264e+05 +/- 0.000000e+00) [K]
    Van der Waals (Tail)/kʙ-4.998447e+03 (-4.838547e+03 +/- 0.000000e+00) [K]
    Coulombic Real/kʙ      -3.560666e+04 (-3.539964e+04 +/- 0.000000e+00) [K]
    Coulombic Fourier/kʙ   -8.189113e+03 (-8.282884e+03 +/- 0.000000e+00) [K]
    Molecule Intra/kʙ       0.000000e+00 ( 0.000000e+00 +/- 0.000000e+00) [K]

Current cycle: 900 out of 5000
===============================================================================

Box:      18.87273   0.00000   0.00000  Average:  18.77817   0.00000   0.00000
           0.00000  18.87273   0.00000             0.00000  18.77817   0.00000
           0.00000   0.00000  18.87273             0.00000   0.00000  18.77817
Lengths:  18.87273  18.87273  18.87273  Average:  18.77817  18.77817  18.77817
Angles:   90.00000  90.00000  90.00000  Average:  90.00000  90.00000  90.00000
Rectangular boundary conditions

net charge:   0.00000000

component 0 (CO2) lambda:  0 occupancy:  1 (1.000000)
    net charge:   0.00000000 [e]

Amount of molecules per component :
-------------------------------------------------------------------------------
Component 0 (CO2)
    molecules:      1.000000e+02 molecules  (1.000000e+02 +/- 0.000000e+00)
    number density: 1.487634e-02 molec./A^3 (1.510844e-02 +/- 0.000000e+00)
    density:        1.086891e+03 kg/m^3     (1.103849e+03 +/- 0.000000e+00)

Average pressure tensor: 
-------------------------------------------------------------------------------
 1.2903e+02 -4.0731e+01  5.3040e+01 +/- 0.0000e+00 0.0000e+00 0.0000e+00 [bar]
-4.0731e+01  2.0020e+02  4.9591e+01 +/- 0.0000e+00 0.0000e+00 0.0000e+00 [bar]
 5.3040e+01  4.9591e+01  2.4744e+02 +/- 0.0000e+00 0.0000e+00 0.0000e+00 [bar]
Ideal-gas pressure:   5.214870e+02 +/ 0.000000e+00 [bar]
Excess pressure:     -3.292636e+02 +/ 0.000000e+00 [bar]
Pressure:             1.922234e+02 +/ 0.000000e+00 [bar]

Total potential energy/kʙ  -1.640137e+05 (-1.616183e+05 +/- 0.000000e+00) [K]
-------------------------------------------------------------------------------
ExternalField-molecule
    Van der Waals/kʙ        0.000000e+00 ( 0.000000e+00 +/- 0.000000e+00) [K]
Framework-molecule
    Van der Waals/kʙ        0.000000e+00 ( 0.000000e+00 +/- 0.000000e+00) [K]
    Van der Waals (Tail)/kʙ 0.000000e+00 ( 0.000000e+00 +/- 0.000000e+00) [K]
    Coulombic Real/kʙ       0.000000e+00 ( 0.000000e+00 +/- 0.000000e+00) [K]
    Coulombic Fourier/kʙ    0.000000e+00 ( 0.000000e+00 +/- 0.000000e+00) [K]
Molecule-molecule
    Van der Waals/kʙ       -1.167860e+05 (-1.131005e+05 +/- 0.000000e+00) [K]
    Van der Waals (Tail)/kʙ-4.773145e+03 (-4.850001e+03 +/- 0.000000e+00) [K]
    Coulombic Real/kʙ      -3.417399e+04 (-3.540973e+04 +/- 0.000000e+00) [K]
    Coulombic Fourier/kʙ   -8.280575e+03 (-8.258145e+03 +/- 0.000000e+00) [K]
    Molecule Intra/kʙ       0.000000e+00 ( 0.000000e+00 +/- 0.000000e+00) [K]

Current cycle: 1000 out of 5000
===============================================================================

Box:      18.86401   0.00000   0.00000  Average:  18.78552   0.00000   0.00000
           0.00000  18.86401   0.00000             0.00000  18.78552   0.00000
           0.00000   0.00000  18.86401             0.00000   0.00000  18.78552
Lengths:  18.86401  18.86401  18.86401  Average:  18.78552  18.78552  18.78552
Angles:   90.00000  90.00000  90.00000  Average:  90.00000  90.00000  90.00000
Rectangular boundary conditions

net charge:   0.00000000

component 0 (CO2) lambda:  0 occupancy:  1 (1.000000)
    net charge:   0.00000000 [e]

Amount of molecules per component :
-------------------------------------------------------------------------------
Component 0 (CO2)
    molecules:      1.000000e+02 molecules  (1.000000e+02 +/- 0.000000e+00)
    number density: 1.489697e-02 molec./A^3 (1.509041e-02 +/- 0.000000e+00)
    density:        1.088398e+03 kg/m^3     (1.102531e+03 +/- 0.000000e+00)

Average pressure tensor: 
-------------------------------------------------------------------------------
 1.5877e+02 -3.6720e+01  5.8434e+01 +/- 0.0000e+00 0.0000e+00 0.0000e+00 [bar]
-3.6720e+01  1.9385e+02  4.7595e+01 +/- 0.0000e+00 0.0000e+00 0.0000e+00 [bar]
 5.8434e+01  4.7595e+01  2.5620e+02 +/- 0.0000e+00 0.0000e+00 0.0000e+00 [bar]
Ideal-gas pressure:   5.208644e+02 +/ 0.000000e+00 [bar]
Excess pressure:     -3.179253e+02 +/ 0.000000e+00 [bar]
Pressure:             2.029391e+02 +/ 0.000000e+00 [bar]

Total potential energy/kʙ  -1.551601e+05 (-1.612452e+05 +/- 0.000000e+00) [K]
-------------------------------------------------------------------------------
ExternalField-molecule
    Van der Waals/kʙ        0.000000e+00 ( 0.000000e+00 +/- 0.000000e+00) [K]
Framework-molecule
    Van der Waals/kʙ        0.000000e+00 ( 0.000000e+00 +/- 0.000000e+00) [K]
    Van der Waals (Tail)/kʙ 0.000000e+00 ( 0.000000e+00 +/- 0.000000e+00) [K]
    Coulombic Real/kʙ       0.000000e+00 ( 0.000000e+00 +/- 0.000000e+00) [K]
    Coulombic Fourier/kʙ    0.000000e+00 ( 0.000000e+00 +/- 0.000000e+00) [K]
Molecule-molecule
    Van der Waals/kʙ       -1.087061e+05 (-1.128254e+05 +/- 0.000000e+00) [K]
    Van der Waals (Tail)/kʙ-4.779765e+03 (-4.846387e+03 +/- 0.000000e+00) [K]
    Coulombic Real/kʙ      -3.356449e+04 (-3.533591e+04 +/- 0.000000e+00) [K]
    Coulombic Fourier/kʙ   -8.109771e+03 (-8.237491e+03 +/- 0.000000e+00) [K]
    Molecule Intra/kʙ       0.000000e+00 ( 0.000000e+00 +/- 0.000000e+00) [K]

Current cycle: 1100 out of 5000
===============================================================================

Box:      18.78559   0.00000   0.00000  Average:  18.78080   0.00000   0.00000
           0.00000  18.78559   0.00000             0.00000  18.78080   0.00000
           0.00000   0.00000  18.78559             0.00000   0.00000  18.78080
Lengths:  18.78559  18.78559  18.78559  Average:  18.78080  18.78080  18.78080
Angles:   90.00000  90.00000  90.00000  Average:  90.00000  90.00000  90.00000
Rectangular boundary conditions

net charge:   0.00000000

component 0 (CO2) lambda:  0 occupancy:  1 (1.000000)
    net charge:   0.00000000 [e]

Amount of molecules per component :
-------------------------------------------------------------------------------
Component 0 (CO2)
    molecules:      1.000000e+02 molecules  (1.000000e+02 +/- 0.000000e+00)
    number density: 1.508432e-02 molec./A^3 (1.510161e-02 +/- 0.000000e+00)
    density:        1.102086e+03 kg/m^3     (1.103349e+03 +/- 0.000000e+00)

Average pressure tensor: 
-------------------------------------------------------------------------------
 1.5855e+02 -2.4764e+01  4.3585e+01 +/- 0.0000e+00 0.0000e+00 0.0000e+00 [bar]
-2.4764e+01  1.9315e+02  5.5167e+01 +/- 0.0000e+00 0.0000e+00 0.0000e+00 [bar]
 4.3585e+01  5.5167e+01  2.3760e+02 +/- 0.0000e+00 0.0000e+00 0.0000e+00 [bar]
Ideal-gas pressure:   5.212510e+02 +/ 0.000000e+00 [bar]
Excess pressure:     -3.248161e+02 +/ 0.000000e+00 [bar]
Pressure:             1.964349e+02 +/ 0.000000e+00 [bar]

Total potential energy/kʙ  -1.561758e+05 (-1.608609e+05 +/- 0.000000e+00) [K]
-------------------------------------------------------------------------------
ExternalField-molecule
    Van der Waals/kʙ        0.000000e+00 ( 0.000000e+00 +/- 0.000000e+00) [K]
Framework-molecule
    Van der Waals/kʙ        0.000000e+00 ( 0.000000e+00 +/- 0.000000e+00) [K]
    Van der Waals (Tail)/kʙ 0.000000e+00 ( 0.000000e+00 +/- 0.000000e+00) [K]
    Coulombic Real/kʙ       0.000000e+00 ( 0.000000e+00 +/- 0.000000e+00) [K]
    Coulombic Fourier/kʙ    0.000000e+00 ( 0.000000e+00 +/- 0.000000e+00) [K]
Molecule-molecule
    Van der Waals/kʙ       -1.108759e+05 (-1.130780e+05 +/- 0.000000e+00) [K]
    Van der Waals (Tail)/kʙ-4.839879e+03 (-4.848890e+03 +/- 0.000000e+00) [K]
    Coulombic Real/kʙ      -3.245752e+04 (-3.477918e+04 +/- 0.000000e+00) [K]
    Coulombic Fourier/kʙ   -8.002525e+03 (-8.154781e+03 +/- 0.000000e+00) [K]
    Molecule Intra/kʙ       0.000000e+00 ( 0.000000e+00 +/- 0.000000e+00) [K]

Current cycle: 1200 out of 5000
===============================================================================

Box:      19.01102   0.00000   0.00000  Average:  18.79027   0.00000   0.00000
           0.00000  19.01102   0.00000             0.00000  18.79027   0.00000
           0.00000   0.00000  19.01102             0.00000   0.00000  18.79027
Lengths:  19.01102  19.01102  19.01102  Average:  18.79027  18.79027  18.79027
Angles:   90.00000  90.00000  90.00000  Average:  90.00000  90.00000  90.00000
Rectangular boundary conditions

net charge:   0.00000000

component 0 (CO2) lambda:  0 occupancy:  1 (1.000000)
    net charge:   0.00000000 [e]

Amount of molecules per component :
-------------------------------------------------------------------------------
Component 0 (CO2)
    molecules:      1.000000e+02 molecules  (1.000000e+02 +/- 0.000000e+00)
    number density: 1.455405e-02 molec./A^3 (1.507873e-02 +/- 0.000000e+00)
    density:        1.063344e+03 kg/m^3     (1.101678e+03 +/- 0.000000e+00)

Average pressure tensor: 
-------------------------------------------------------------------------------
 1.6305e+02 -2.5665e+01  3.8014e+01 +/- 0.0000e+00 0.0000e+00 0.0000e+00 [bar]
-2.5665e+01  1.9851e+02  3.8136e+01 +/- 0.0000e+00 0.0000e+00 0.0000e+00 [bar]
 3.8014e+01  3.8136e+01  2.2848e+02 +/- 0.0000e+00 0.0000e+00 0.0000e+00 [bar]
Ideal-gas pressure:   5.204615e+02 +/ 0.000000e+00 [bar]
Excess pressure:     -3.237787e+02 +/ 0.000000e+00 [bar]
Pressure:             1.966828e+02 +/ 0.000000e+00 [bar]

Total potential energy/kʙ  -1.501043e+05 (-1.604076e+05 +/- 0.000000e+00) [K]
-------------------------------------------------------------------------------
ExternalField-molecule
    Van der Waals/kʙ        0.000000e+00 ( 0.000000e+00 +/- 0.000000e+00) [K]
Framework-molecule
    Van der Waals/kʙ        0.000000e+00 ( 0.000000e+00 +/- 0.000000e+00) [K]
    Van der Waals (Tail)/kʙ 0.000000e+00 ( 0.000000e+00 +/- 0.000000e+00) [K]
    Coulombic Real/kʙ       0.000000e+00 ( 0.000000e+00 +/- 0.000000e+00) [K]
    Coulombic Fourier/kʙ    0.000000e+00 ( 0.000000e+00 +/- 0.000000e+00) [K]
Molecule-molecule
    Van der Waals/kʙ       -1.084749e+05 (-1.128742e+05 +/- 0.000000e+00) [K]
    Van der Waals (Tail)/kʙ-4.669737e+03 (-4.840772e+03 +/- 0.000000e+00) [K]
    Coulombic Real/kʙ      -2.962975e+04 (-3.455349e+04 +/- 0.000000e+00) [K]
    Coulombic Fourier/kʙ   -7.329959e+03 (-8.139165e+03 +/- 0.000000e+00) [K]
    Molecule Intra/kʙ       0.000000e+00 ( 0.000000e+00 +/- 0.000000e+00) [K]

Current cycle: 1300 out of 5000
===============================================================================

Box:      18.83925   0.00000   0.00000  Average:  18.79340   0.00000   0.00000
           0.00000  18.83925   0.00000             0.00000  18.79340   0.00000
           0.00000   0.00000  18.83925             0.00000   0.00000  18.79340
Lengths:  18.83925  18.83925  18.83925  Average:  18.79340  18.79340  18.79340
Angles:   90.00000  90.00000  90.00000  Average:  90.00000  90.00000  90.00000
Rectangular boundary conditions

net charge:   0.00000000

component 0 (CO2) lambda:  0 occupancy:  1 (1.000000)
    net charge:   0.00000000 [e]

Amount of molecules per component :
-------------------------------------------------------------------------------
Component 0 (CO2)
    molecules:      1.000000e+02 molecules  (1.000000e+02 +/- 0.000000e+00)
    number density: 1.495578e-02 molec./A^3 (1.507104e-02 +/- 0.000000e+00)
    density:        1.092695e+03 kg/m^3     (1.101116e+03 +/- 0.000000e+00)

Average pressure tensor: 
-------------------------------------------------------------------------------
 1.5625e+02 -1.4661e+01  5.7897e+01 +/- 0.0000e+00 0.0000e+00 0.0000e+00 [bar]
-1.4661e+01  2.0035e+02  2.0727e+01 +/- 0.0000e+00 0.0000e+00 0.0000e+00 [bar]
 5.7897e+01  2.0727e+01  2.3399e+02 +/- 0.0000e+00 0.0000e+00 0.0000e+00 [bar]
Ideal-gas pressure:   5.201957e+02 +/ 0.000000e+00 [bar]
Excess pressure:     -3.233311e+02 +/ 0.000000e+00 [bar]
Pressure:             1.968647e+02 +/ 0.000000e+00 [bar]

Total potential energy/kʙ  -1.584040e+05 (-1.599256e+05 +/- 0.000000e+00) [K]
-------------------------------------------------------------------------------
ExternalField-molecule
    Van der Waals/kʙ        0.000000e+00 ( 0.000000e+00 +/- 0.000000e+00) [K]
Framework-molecule
    Van der Waals/kʙ        0.000000e+00 ( 0.000000e+00 +/- 0.000000e+00) [K]
    Van der Waals (Tail)/kʙ 0.000000e+00 ( 0.000000e+00 +/- 0.000000e+00) [K]
    Coulombic Real/kʙ       0.000000e+00 ( 0.000000e+00 +/- 0.000000e+00) [K]
    Coulombic Fourier/kʙ    0.000000e+00 ( 0.000000e+00 +/- 0.000000e+00) [K]
Molecule-molecule
    Van der Waals/kʙ       -1.121010e+05 (-1.128605e+05 +/- 0.000000e+00) [K]
    Van der Waals (Tail)/kʙ-4.798635e+03 (-4.838393e+03 +/- 0.000000e+00) [K]
    Coulombic Real/kʙ      -3.350609e+04 (-3.415237e+04 +/- 0.000000e+00) [K]
    Coulombic Fourier/kʙ   -7.998283e+03 (-8.074389e+03 +/- 0.000000e+00) [K]
    Molecule Intra/kʙ       0.000000e+00 ( 0.000000e+00 +/- 0.000000e+00) [K]

Current cycle: 1400 out of 5000
===============================================================================

Box:      18.73351   0.00000   0.00000  Average:  18.79859   0.00000   0.00000
           0.00000  18.73351   0.00000             0.00000  18.79859   0.00000
           0.00000   0.00000  18.73351             0.00000   0.00000  18.79859
Lengths:  18.73351  18.73351  18.73351  Average:  18.79859  18.79859  18.79859
Angles:   90.00000  90.00000  90.00000  Average:  90.00000  90.00000  90.00000
Rectangular boundary conditions

net charge:   0.00000000

component 0 (CO2) lambda:  0 occupancy:  1 (1.000000)
    net charge:   0.00000000 [e]

Amount of molecules per component :
-------------------------------------------------------------------------------
Component 0 (CO2)
    molecules:      1.000000e+02 molecules  (1.000000e+02 +/- 0.000000e+00)
    number density: 1.521046e-02 molec./A^3 (1.505854e-02 +/- 0.000000e+00)
    density:        1.111302e+03 kg/m^3     (1.100203e+03 +/- 0.000000e+00)

Average pressure tensor: 
-------------------------------------------------------------------------------
 1.5569e+02 -1.4634e+01  4.6176e+01 +/- 0.0000e+00 0.0000e+00 0.0000e+00 [bar]
-1.4634e+01  2.0037e+02  2.0760e+01 +/- 0.0000e+00 0.0000e+00 0.0000e+00 [bar]
 4.6176e+01  2.0760e+01  2.3726e+02 +/- 0.0000e+00 0.0000e+00 0.0000e+00 [bar]
Ideal-gas pressure:   5.197645e+02 +/ 0.000000e+00 [bar]
Excess pressure:     -3.219921e+02 +/ 0.000000e+00 [bar]
Pressure:             1.977724e+02 +/ 0.000000e+00 [bar]

Total potential energy/kʙ  -1.593235e+05 (-1.597335e+05 +/- 0.000000e+00) [K]
-------------------------------------------------------------------------------
ExternalField-molecule
    Van der Waals/kʙ        0.000000e+00 ( 0.000000e+00 +/- 0.000000e+00) [K]
Framework-molecule
    Van der Waals/kʙ        0.000000e+00 ( 0.000000e+00 +/- 0.000000e+00) [K]
    Van der Waals (Tail)/kʙ 0.000000e+00 ( 0.000000e+00 +/- 0.000000e+00) [K]
    Coulombic Real/kʙ       0.000000e+00 ( 0.000000e+00 +/- 0.000000e+00) [K]
    Coulombic Fourier/kʙ    0.000000e+00 ( 0.000000e+00 +/- 0.000000e+00) [K]
Molecule-molecule
    Van der Waals/kʙ       -1.122196e+05 (-1.127732e+05 +/- 0.000000e+00) [K]
    Van der Waals (Tail)/kʙ-4.880351e+03 (-4.836007e+03 +/- 0.000000e+00) [K]
    Coulombic Real/kʙ      -3.460402e+04 (-3.407761e+04 +/- 0.000000e+00) [K]
    Coulombic Fourier/kʙ   -7.619541e+03 (-8.046714e+03 +/- 0.000000e+00) [K]
    Molecule Intra/kʙ       0.000000e+00 ( 0.000000e+00 +/- 0.000000e+00) [K]

Current cycle: 1500 out of 5000
===============================================================================

Box:      18.82773   0.00000   0.00000  Average:  18.80845   0.00000   0.00000
           0.00000  18.82773   0.00000             0.00000  18.80845   0.00000
           0.00000   0.00000  18.82773             0.00000   0.00000  18.80845
Lengths:  18.82773  18.82773  18.82773  Average:  18.80845  18.80845  18.80845
Angles:   90.00000  90.00000  90.00000  Average:  90.00000  90.00000  90.00000
Rectangular boundary conditions

net charge:   0.00000000

component 0 (CO2) lambda:  0 occupancy:  1 (1.000000)
    net charge:   0.00000000 [e]

Amount of molecules per component :
-------------------------------------------------------------------------------
Component 0 (CO2)
    molecules:      1.000000e+02 molecules  (1.000000e+02 +/- 0.000000e+00)
    number density: 1.498326e-02 molec./A^3 (1.503500e-02 +/- 0.000000e+00)
    density:        1.094703e+03 kg/m^3     (1.098483e+03 +/- 0.000000e+00)

Average pressure tensor: 
-------------------------------------------------------------------------------
 1.4970e+02 -1.3331e+00  4.5811e+01 +/- 0.0000e+00 0.0000e+00 0.0000e+00 [bar]
-1.3331e+00  1.9524e+02  1.6312e+01 +/- 0.0000e+00 0.0000e+00 0.0000e+00 [bar]
 4.5811e+01  1.6312e+01  2.5690e+02 +/- 0.0000e+00 0.0000e+00 0.0000e+00 [bar]
Ideal-gas pressure:   5.189520e+02 +/ 0.000000e+00 [bar]
Excess pressure:     -3.183410e+02 +/ 0.000000e+00 [bar]
Pressure:             2.006110e+02 +/ 0.000000e+00 [bar]

Total potential energy/kʙ  -1.537256e+05 (-1.594147e+05 +/- 0.000000e+00) [K]
-------------------------------------------------------------------------------
ExternalField-molecule
    Van der Waals/kʙ        0.000000e+00 ( 0.000000e+00 +/- 0.000000e+00) [K]
Framework-molecule
    Van der Waals/kʙ        0.000000e+00 ( 0.000000e+00 +/- 0.000000e+00) [K]
    Van der Waals (Tail)/kʙ 0.000000e+00 ( 0.000000e+00 +/- 0.000000e+00) [K]
    Coulombic Real/kʙ       0.000000e+00 ( 0.000000e+00 +/- 0.000000e+00) [K]
    Coulombic Fourier/kʙ    0.000000e+00 ( 0.000000e+00 +/- 0.000000e+00) [K]
Molecule-molecule
    Van der Waals/kʙ       -1.128789e+05 (-1.126159e+05 +/- 0.000000e+00) [K]
    Van der Waals (Tail)/kʙ-4.807453e+03 (-4.828806e+03 +/- 0.000000e+00) [K]
    Coulombic Real/kʙ      -2.880771e+04 (-3.395583e+04 +/- 0.000000e+00) [K]
    Coulombic Fourier/kʙ   -7.231539e+03 (-8.014231e+03 +/- 0.000000e+00) [K]
    Molecule Intra/kʙ       0.000000e+00 ( 0.000000e+00 +/- 0.000000e+00) [K]

Current cycle: 1600 out of 5000
===============================================================================

Box:      18.87958   0.00000   0.00000  Average:  18.80765   0.00000   0.00000
           0.00000  18.87958   0.00000             0.00000  18.80765   0.00000
           0.00000   0.00000  18.87958             0.00000   0.00000  18.80765
Lengths:  18.87958  18.87958  18.87958  Average:  18.80765  18.80765  18.80765
Angles:   90.00000  90.00000  90.00000  Average:  90.00000  90.00000  90.00000
Rectangular boundary conditions

net charge:   0.00000000

component 0 (CO2) lambda:  0 occupancy:  1 (1.000000)
    net charge:   0.00000000 [e]

Amount of molecules per component :
-------------------------------------------------------------------------------
Component 0 (CO2)
    molecules:      1.000000e+02 molecules  (1.000000e+02 +/- 0.000000e+00)
    number density: 1.486015e-02 molec./A^3 (1.503681e-02 +/- 0.000000e+00)
    density:        1.085708e+03 kg/m^3     (1.098615e+03 +/- 0.000000e+00)

Average pressure tensor: 
-------------------------------------------------------------------------------
 1.5806e+02 -8.1152e+00  4.6798e+01 +/- 0.0000e+00 0.0000e+00 0.0000e+00 [bar]
-8.1152e+00  2.0960e+02  8.1802e+00 +/- 0.0000e+00 0.0000e+00 0.0000e+00 [bar]
 4.6798e+01  8.1802e+00  2.7434e+02 +/- 0.0000e+00 0.0000e+00 0.0000e+00 [bar]
Ideal-gas pressure:   5.190145e+02 +/ 0.000000e+00 [bar]
Excess pressure:     -3.050137e+02 +/ 0.000000e+00 [bar]
Pressure:             2.140008e+02 +/ 0.000000e+00 [bar]

Total potential energy/kʙ  -1.583175e+05 (-1.592884e+05 +/- 0.000000e+00) [K]
-------------------------------------------------------------------------------
ExternalField-molecule
    Van der Waals/kʙ        0.000000e+00 ( 0.000000e+00 +/- 0.000000e+00) [K]
Framework-molecule
    Van der Waals/kʙ        0.000000e+00 ( 0.000000e+00 +/- 0.000000e+00) [K]
    Van der Waals (Tail)/kʙ 0.000000e+00 ( 0.000000e+00 +/- 0.000000e+00) [K]
    Coulombic Real/kʙ       0.000000e+00 ( 0.000000e+00 +/- 0.000000e+00) [K]
    Coulombic Fourier/kʙ    0.000000e+00 ( 0.000000e+00 +/- 0.000000e+00) [K]
Molecule-molecule
    Van der Waals/kʙ       -1.122676e+05 (-1.126093e+05 +/- 0.000000e+00) [K]
    Van der Waals (Tail)/kʙ-4.767954e+03 (-4.829625e+03 +/- 0.000000e+00) [K]
    Coulombic Real/kʙ      -3.322296e+04 (-3.386635e+04 +/- 0.000000e+00) [K]
    Coulombic Fourier/kʙ   -8.059001e+03 (-7.983120e+03 +/- 0.000000e+00) [K]
    Molecule Intra/kʙ       0.000000e+00 ( 0.000000e+00 +/- 0.000000e+00) [K]

Current cycle: 1700 out of 5000
===============================================================================

Box:      18.49248   0.00000   0.00000  Average:  18.80186   0.00000   0.00000
           0.00000  18.49248   0.00000             0.00000  18.80186   0.00000
           0.00000   0.00000  18.49248             0.00000   0.00000  18.80186
Lengths:  18.49248  18.49248  18.49248  Average:  18.80186  18.80186  18.80186
Angles:   90.00000  90.00000  90.00000  Average:  90.00000  90.00000  90.00000
Rectangular boundary conditions

net charge:   0.00000000

component 0 (CO2) lambda:  0 occupancy:  1 (1.000000)
    net charge:   0.00000000 [e]

Amount of molecules per component :
-------------------------------------------------------------------------------
Component 0 (CO2)
    molecules:      1.000000e+02 molecules  (1.000000e+02 +/- 0.000000e+00)
    number density: 1.581301e-02 molec./A^3 (1.505079e-02 +/- 0.000000e+00)
    density:        1.155325e+03 kg/m^3     (1.099636e+03 +/- 0.000000e+00)

Average pressure tensor: 
-------------------------------------------------------------------------------
 1.5979e+02 -1.9760e+01  3.3506e+01 +/- 0.0000e+00 0.0000e+00 0.0000e+00 [bar]
-1.9760e+01  2.2148e+02 -2.5819e+00 +/- 0.0000e+00 0.0000e+00 0.0000e+00 [bar]
 3.3506e+01 -2.5819e+00  2.8870e+02 +/- 0.0000e+00 0.0000e+00 0.0000e+00 [bar]
Ideal-gas pressure:   5.194968e+02 +/ 0.000000e+00 [bar]
Excess pressure:     -2.961758e+02 +/ 0.000000e+00 [bar]
Pressure:             2.233210e+02 +/ 0.000000e+00 [bar]

Total potential energy/kʙ  -1.682046e+05 (-1.592834e+05 +/- 0.000000e+00) [K]
-------------------------------------------------------------------------------
ExternalField-molecule
    Van der Waals/kʙ        0.000000e+00 ( 0.000000e+00 +/- 0.000000e+00) [K]
Framework-molecule
    Van der Waals/kʙ        0.000000e+00 ( 0.000000e+00 +/- 0.000000e+00) [K]
    Van der Waals (Tail)/kʙ 0.000000e+00 ( 0.000000e+00 +/- 0.000000e+00) [K]
    Coulombic Real/kʙ       0.000000e+00 ( 0.000000e+00 +/- 0.000000e+00) [K]
    Coulombic Fourier/kʙ    0.000000e+00 ( 0.000000e+00 +/- 0.000000e+00) [K]
Molecule-molecule
    Van der Waals/kʙ       -1.175889e+05 (-1.126419e+05 +/- 0.000000e+00) [K]
    Van der Waals (Tail)/kʙ-5.073681e+03 (-4.834318e+03 +/- 0.000000e+00) [K]
    Coulombic Real/kʙ      -3.692671e+04 (-3.381374e+04 +/- 0.000000e+00) [K]
    Coulombic Fourier/kʙ   -8.615373e+03 (-7.993438e+03 +/- 0.000000e+00) [K]
    Molecule Intra/kʙ       0.000000e+00 ( 0.000000e+00 +/- 0.000000e+00) [K]

Current cycle: 1800 out of 5000
===============================================================================

Box:      18.66621   0.00000   0.00000  Average:  18.78904   0.00000   0.00000
           0.00000  18.66621   0.00000             0.00000  18.78904   0.00000
           0.00000   0.00000  18.66621             0.00000   0.00000  18.78904
Lengths:  18.66621  18.66621  18.66621  Average:  18.78904  18.78904  18.78904
Angles:   90.00000  90.00000  90.00000  Average:  90.00000  90.00000  90.00000
Rectangular boundary conditions

net charge:   0.00000000

component 0 (CO2) lambda:  0 occupancy:  1 (1.000000)
    net charge:   0.00000000 [e]

Amount of molecules per component :
-------------------------------------------------------------------------------
Component 0 (CO2)
    molecules:      1.000000e+02 molecules  (1.000000e+02 +/- 0.000000e+00)
    number density: 1.537559e-02 molec./A^3 (1.508223e-02 +/- 0.000000e+00)
    density:        1.123367e+03 kg/m^3     (1.101933e+03 +/- 0.000000e+00)

Average pressure tensor: 
-------------------------------------------------------------------------------
 1.4998e+02 -1.1958e+01  2.8308e+01 +/- 0.0000e+00 0.0000e+00 0.0000e+00 [bar]
-1.1958e+01  2.2396e+02 -2.3141e+00 +/- 0.0000e+00 0.0000e+00 0.0000e+00 [bar]
 2.8308e+01 -2.3141e+00  2.5987e+02 +/- 0.0000e+00 0.0000e+00 0.0000e+00 [bar]
Ideal-gas pressure:   5.205821e+02 +/ 0.000000e+00 [bar]
Excess pressure:     -3.093104e+02 +/ 0.000000e+00 [bar]
Pressure:             2.112717e+02 +/ 0.000000e+00 [bar]

Total potential energy/kʙ  -1.588665e+05 (-1.597390e+05 +/- 0.000000e+00) [K]
-------------------------------------------------------------------------------
ExternalField-molecule
    Van der Waals/kʙ        0.000000e+00 ( 0.000000e+00 +/- 0.000000e+00) [K]
Framework-molecule
    Van der Waals/kʙ        0.000000e+00 ( 0.000000e+00 +/- 0.000000e+00) [K]
    Van der Waals (Tail)/kʙ 0.000000e+00 ( 0.000000e+00 +/- 0.000000e+00) [K]
    Coulombic Real/kʙ       0.000000e+00 ( 0.000000e+00 +/- 0.000000e+00) [K]
    Coulombic Fourier/kʙ    0.000000e+00 ( 0.000000e+00 +/- 0.000000e+00) [K]
Molecule-molecule
    Van der Waals/kʙ       -1.148475e+05 (-1.129222e+05 +/- 0.000000e+00) [K]
    Van der Waals (Tail)/kʙ-4.933333e+03 (-4.843206e+03 +/- 0.000000e+00) [K]
    Coulombic Real/kʙ      -3.158974e+04 (-3.394446e+04 +/- 0.000000e+00) [K]
    Coulombic Fourier/kʙ   -7.495968e+03 (-8.029124e+03 +/- 0.000000e+00) [K]
    Molecule Intra/kʙ       0.000000e+00 ( 0.000000e+00 +/- 0.000000e+00) [K]

Current cycle: 1900 out of 5000
===============================================================================

Box:      18.97848   0.00000   0.00000  Average:  18.78901   0.00000   0.00000
           0.00000  18.97848   0.00000             0.00000  18.78901   0.00000
           0.00000   0.00000  18.97848             0.00000   0.00000  18.78901
Lengths:  18.97848  18.97848  18.97848  Average:  18.78901  18.78901  18.78901
Angles:   90.00000  90.00000  90.00000  Average:  90.00000  90.00000  90.00000
Rectangular boundary conditions

net charge:   0.00000000

component 0 (CO2) lambda:  0 occupancy:  1 (1.000000)
    net charge:   0.00000000 [e]

Amount of molecules per component :
-------------------------------------------------------------------------------
Component 0 (CO2)
    molecules:      1.000000e+02 molecules  (1.000000e+02 +/- 0.000000e+00)
    number density: 1.462904e-02 molec./A^3 (1.508207e-02 +/- 0.000000e+00)
    density:        1.068823e+03 kg/m^3     (1.101922e+03 +/- 0.000000e+00)

Average pressure tensor: 
-------------------------------------------------------------------------------
 1.4668e+02 -1.9739e+01  1.7447e+01 +/- 0.0000e+00 0.0000e+00 0.0000e+00 [bar]
-1.9739e+01  2.3188e+02 -1.3810e+01 +/- 0.0000e+00 0.0000e+00 0.0000e+00 [bar]
 1.7447e+01 -1.3810e+01  2.4435e+02 +/- 0.0000e+00 0.0000e+00 0.0000e+00 [bar]
Ideal-gas pressure:   5.205768e+02 +/ 0.000000e+00 [bar]
Excess pressure:     -3.129394e+02 +/ 0.000000e+00 [bar]
Pressure:             2.076374e+02 +/ 0.000000e+00 [bar]

Total potential energy/kʙ  -1.560017e+05 (-1.596712e+05 +/- 0.000000e+00) [K]
-------------------------------------------------------------------------------
ExternalField-molecule
    Van der Waals/kʙ        0.000000e+00 ( 0.000000e+00 +/- 0.000000e+00) [K]
Framework-molecule
    Van der Waals/kʙ        0.000000e+00 ( 0.000000e+00 +/- 0.000000e+00) [K]
    Van der Waals (Tail)/kʙ 0.000000e+00 ( 0.000000e+00 +/- 0.000000e+00) [K]
    Coulombic Real/kʙ       0.000000e+00 ( 0.000000e+00 +/- 0.000000e+00) [K]
    Coulombic Fourier/kʙ    0.000000e+00 ( 0.000000e+00 +/- 0.000000e+00) [K]
Molecule-molecule
    Van der Waals/kʙ       -1.088313e+05 (-1.129225e+05 +/- 0.000000e+00) [K]
    Van der Waals (Tail)/kʙ-4.693798e+03 (-4.842435e+03 +/- 0.000000e+00) [K]
    Coulombic Real/kʙ      -3.390837e+04 (-3.387907e+04 +/- 0.000000e+00) [K]
    Coulombic Fourier/kʙ   -8.568218e+03 (-8.027202e+03 +/- 0.000000e+00) [K]
    Molecule Intra/kʙ       0.000000e+00 ( 0.000000e+00 +/- 0.000000e+00) [K]

Current cycle: 2000 out of 5000
===============================================================================

Box:      19.36071   0.00000   0.00000  Average:  18.80014   0.00000   0.00000
           0.00000  19.36071   0.00000             0.00000  18.80014   0.00000
           0.00000   0.00000  19.36071             0.00000   0.00000  18.80014
Lengths:  19.36071  19.36071  19.36071  Average:  18.80014  18.80014  18.80014
Angles:   90.00000  90.00000  90.00000  Average:  90.00000  90.00000  90.00000
Rectangular boundary conditions

net charge:   0.00000000

component 0 (CO2) lambda:  0 occupancy:  1 (1.000000)
    net charge:   0.00000000 [e]

Amount of molecules per component :
-------------------------------------------------------------------------------
Component 0 (CO2)
    molecules:      1.000000e+02 molecules  (1.000000e+02 +/- 0.000000e+00)
    number density: 1.377959e-02 molec./A^3 (1.505570e-02 +/- 0.000000e+00)
    density:        1.006761e+03 kg/m^3     (1.099995e+03 +/- 0.000000e+00)

Average pressure tensor: 
-------------------------------------------------------------------------------
 1.3932e+02 -2.4580e+01  7.9168e+00 +/- 0.0000e+00 0.0000e+00 0.0000e+00 [bar]
-2.4580e+01  2.3984e+02 -2.2192e+01 +/- 0.0000e+00 0.0000e+00 0.0000e+00 [bar]
 7.9168e+00 -2.2192e+01  2.2873e+02 +/- 0.0000e+00 0.0000e+00 0.0000e+00 [bar]
Ideal-gas pressure:   5.196663e+02 +/ 0.000000e+00 [bar]
Excess pressure:     -3.170361e+02 +/ 0.000000e+00 [bar]
Pressure:             2.026302e+02 +/ 0.000000e+00 [bar]

Total potential energy/kʙ  -1.410404e+05 (-1.592363e+05 +/- 0.000000e+00) [K]
-------------------------------------------------------------------------------
ExternalField-molecule
    Van der Waals/kʙ        0.000000e+00 ( 0.000000e+00 +/- 0.000000e+00) [K]
Framework-molecule
    Van der Waals/kʙ        0.000000e+00 ( 0.000000e+00 +/- 0.000000e+00) [K]
    Van der Waals (Tail)/kʙ 0.000000e+00 ( 0.000000e+00 +/- 0.000000e+00) [K]
    Coulombic Real/kʙ       0.000000e+00 ( 0.000000e+00 +/- 0.000000e+00) [K]
    Coulombic Fourier/kʙ    0.000000e+00 ( 0.000000e+00 +/- 0.000000e+00) [K]
Molecule-molecule
    Van der Waals/kʙ       -1.020334e+05 (-1.126562e+05 +/- 0.000000e+00) [K]
    Van der Waals (Tail)/kʙ-4.421250e+03 (-4.832187e+03 +/- 0.000000e+00) [K]
    Coulombic Real/kʙ      -2.670711e+04 (-3.373565e+04 +/- 0.000000e+00) [K]
    Coulombic Fourier/kʙ   -7.878677e+03 (-8.012198e+03 +/- 0.000000e+00) [K]
    Molecule Intra/kʙ       0.000000e+00 ( 0.000000e+00 +/- 0.000000e+00) [K]

Current cycle: 2100 out of 5000
===============================================================================

Box:      19.02773   0.00000   0.00000  Average:  18.81818   0.00000   0.00000
           0.00000  19.02773   0.00000             0.00000  18.81818   0.00000
           0.00000   0.00000  19.02773             0.00000   0.00000  18.81818
Lengths:  19.02773  19.02773  19.02773  Average:  18.81818  18.81818  18.81818
Angles:   90.00000  90.00000  90.00000  Average:  90.00000  90.00000  90.00000
Rectangular boundary conditions

net charge:   0.00000000

component 0 (CO2) lambda:  0 occupancy:  1 (1.000000)
    net charge:   0.00000000 [e]

Amount of molecules per component :
-------------------------------------------------------------------------------
Component 0 (CO2)
    molecules:      1.000000e+02 molecules  (1.000000e+02 +/- 0.000000e+00)
    number density: 1.451575e-02 molec./A^3 (1.501389e-02 +/- 0.000000e+00)
    density:        1.060545e+03 kg/m^3     (1.096940e+03 +/- 0.000000e+00)

Average pressure tensor: 
-------------------------------------------------------------------------------
 1.4378e+02 -2.1122e+01  2.1438e+01 +/- 0.0000e+00 0.0000e+00 0.0000e+00 [bar]
-2.1122e+01  2.2437e+02 -1.6846e+01 +/- 0.0000e+00 0.0000e+00 0.0000e+00 [bar]
 2.1438e+01 -1.6846e+01  2.2467e+02 +/- 0.0000e+00 0.0000e+00 0.0000e+00 [bar]
Ideal-gas pressure:   5.182232e+02 +/ 0.000000e+00 [bar]
Excess pressure:     -3.206147e+02 +/ 0.000000e+00 [bar]
Pressure:             1.976084e+02 +/ 0.000000e+00 [bar]

Total potential energy/kʙ  -1.479632e+05 (-1.586494e+05 +/- 0.000000e+00) [K]
-------------------------------------------------------------------------------
ExternalField-molecule
    Van der Waals/kʙ        0.000000e+00 ( 0.000000e+00 +/- 0.000000e+00) [K]
Framework-molecule
    Van der Waals/kʙ        0.000000e+00 ( 0.000000e+00 +/- 0.000000e+00) [K]
    Van der Waals (Tail)/kʙ 0.000000e+00 ( 0.000000e+00 +/- 0.000000e+00) [K]
[...]
    Coulombic Fourier/kʙ    0.000000e+00 ( 0.000000e+00 +/- 0.000000e+00) [K]
Molecule-molecule
    Van der Waals/kʙ       -1.080233e+05 (-1.120089e+05 +/- 8.963454e+02) [K]
    Van der Waals (Tail)/kʙ-4.715920e+03 (-4.810346e+03 +/- 3.617506e+01) [K]
    Coulombic Real/kʙ      -3.119063e+04 (-3.322070e+04 +/- 1.631512e+03) [K]
    Coulombic Fourier/kʙ   -8.334069e+03 (-7.962504e+03 +/- 2.126003e+02) [K]
    Molecule Intra/kʙ       0.000000e+00 ( 0.000000e+00 +/- 0.000000e+00) [K]

Current cycle: 4700 out of 5000
===============================================================================

Box:      18.71409   0.00000   0.00000  Average:  18.83067   0.00000   0.00000
           0.00000  18.71409   0.00000             0.00000  18.83067   0.00000
           0.00000   0.00000  18.71409             0.00000   0.00000  18.83067
Lengths:  18.71409  18.71409  18.71409  Average:  18.83067  18.83067  18.83067
Angles:   90.00000  90.00000  90.00000  Average:  90.00000  90.00000  90.00000
Rectangular boundary conditions

net charge:   0.00000000

component 0 (CO2) lambda:  0 occupancy:  1 (1.000000)
    net charge:   0.00000000 [e]

Amount of molecules per component :
-------------------------------------------------------------------------------
Component 0 (CO2)
    molecules:      1.000000e+02 molecules  (1.000000e+02 +/- 0.000000e+00)
    number density: 1.525786e-02 molec./A^3 (1.498395e-02 +/- 1.035335e-04)
    density:        1.114765e+03 kg/m^3     (1.094753e+03 +/- 7.564336e+00)

Average pressure tensor: 
-------------------------------------------------------------------------------
 1.7610e+02  1.5021e+01  3.5558e+01 +/- 1.1670e+02 5.4668e+01 7.9632e+01 [bar]
 1.5021e+01  2.2476e+02 -6.1378e+00 +/- 5.4668e+01 6.3259e+01 7.1860e+01 [bar]
 3.5558e+01 -6.1378e+00  1.5399e+02 +/- 7.9632e+01 7.1860e+01 1.2458e+02 [bar]
Ideal-gas pressure:   5.171898e+02 +/ 3.573590e+00 [bar]
Excess pressure:     -3.322416e+02 +/ 2.051210e+01 [bar]
Pressure:             1.849482e+02 +/ 2.359033e+01 [bar]

Total potential energy/kʙ  -1.572502e+05 (-1.579860e+05 +/- 2.489247e+03) [K]
-------------------------------------------------------------------------------
ExternalField-molecule
    Van der Waals/kʙ        0.000000e+00 ( 0.000000e+00 +/- 0.000000e+00) [K]
Framework-molecule
    Van der Waals/kʙ        0.000000e+00 ( 0.000000e+00 +/- 0.000000e+00) [K]
    Van der Waals (Tail)/kʙ 0.000000e+00 ( 0.000000e+00 +/- 0.000000e+00) [K]
    Coulombic Real/kʙ       0.000000e+00 ( 0.000000e+00 +/- 0.000000e+00) [K]
    Coulombic Fourier/kʙ    0.000000e+00 ( 0.000000e+00 +/- 0.000000e+00) [K]
Molecule-molecule
    Van der Waals/kʙ       -1.127707e+05 (-1.120072e+05 +/- 8.962221e+02) [K]
    Van der Waals (Tail)/kʙ-4.895560e+03 (-4.809904e+03 +/- 3.617444e+01) [K]
    Coulombic Real/kʙ      -3.202244e+04 (-3.321043e+04 +/- 1.633326e+03) [K]
    Coulombic Fourier/kʙ   -7.561444e+03 (-7.958461e+03 +/- 2.112475e+02) [K]
    Molecule Intra/kʙ       0.000000e+00 ( 0.000000e+00 +/- 0.000000e+00) [K]

Current cycle: 4800 out of 5000
===============================================================================

Box:      19.04823   0.00000   0.00000  Average:  18.83112   0.00000   0.00000
           0.00000  19.04823   0.00000             0.00000  18.83112   0.00000
           0.00000   0.00000  19.04823             0.00000   0.00000  18.83112
Lengths:  19.04823  19.04823  19.04823  Average:  18.83112  18.83112  18.83112
Angles:   90.00000  90.00000  90.00000  Average:  90.00000  90.00000  90.00000
Rectangular boundary conditions

net charge:   0.00000000

component 0 (CO2) lambda:  0 occupancy:  1 (1.000000)
    net charge:   0.00000000 [e]

Amount of molecules per component :
-------------------------------------------------------------------------------
Component 0 (CO2)
    molecules:      1.000000e+02 molecules  (1.000000e+02 +/- 0.000000e+00)
    number density: 1.446892e-02 molec./A^3 (1.498276e-02 +/- 1.036096e-04)
    density:        1.057124e+03 kg/m^3     (1.094666e+03 +/- 7.569891e+00)

Average pressure tensor: 
-------------------------------------------------------------------------------
 1.7698e+02  1.9529e+01  3.1447e+01 +/- 1.0776e+02 6.1427e+01 6.6429e+01 [bar]
 1.9529e+01  2.2464e+02  4.5432e-01 +/- 6.1427e+01 6.2332e+01 7.2425e+01 [bar]
 3.1447e+01  4.5432e-01  1.5216e+02 +/- 6.6429e+01 7.2425e+01 1.2366e+02 [bar]
Ideal-gas pressure:   5.171489e+02 +/ 3.576214e+00 [bar]
Excess pressure:     -3.325557e+02 +/ 2.015092e+01 [bar]
Pressure:             1.845932e+02 +/ 2.325582e+01 [bar]

Total potential energy/kʙ  -1.554802e+05 (-1.579771e+05 +/- 2.489497e+03) [K]
-------------------------------------------------------------------------------
ExternalField-molecule
    Van der Waals/kʙ        0.000000e+00 ( 0.000000e+00 +/- 0.000000e+00) [K]
Framework-molecule
    Van der Waals/kʙ        0.000000e+00 ( 0.000000e+00 +/- 0.000000e+00) [K]
    Van der Waals (Tail)/kʙ 0.000000e+00 ( 0.000000e+00 +/- 0.000000e+00) [K]
    Coulombic Real/kʙ       0.000000e+00 ( 0.000000e+00 +/- 0.000000e+00) [K]
    Coulombic Fourier/kʙ    0.000000e+00 ( 0.000000e+00 +/- 0.000000e+00) [K]
Molecule-molecule
    Van der Waals/kʙ       -1.113806e+05 (-1.120120e+05 +/- 8.949800e+02) [K]
    Van der Waals (Tail)/kʙ-4.642425e+03 (-4.809173e+03 +/- 3.654938e+01) [K]
    Coulombic Real/kʙ      -3.164247e+04 (-3.319992e+04 +/- 1.635063e+03) [K]
    Coulombic Fourier/kʙ   -7.814650e+03 (-7.956018e+03 +/- 2.111528e+02) [K]
    Molecule Intra/kʙ       0.000000e+00 ( 0.000000e+00 +/- 0.000000e+00) [K]

Current cycle: 4900 out of 5000
===============================================================================

Box:      19.25766   0.00000   0.00000  Average:  18.83552   0.00000   0.00000
           0.00000  19.25766   0.00000             0.00000  18.83552   0.00000
           0.00000   0.00000  19.25766             0.00000   0.00000  18.83552
Lengths:  19.25766  19.25766  19.25766  Average:  18.83552  18.83552  18.83552
Angles:   90.00000  90.00000  90.00000  Average:  90.00000  90.00000  90.00000
Rectangular boundary conditions

net charge:   0.00000000

component 0 (CO2) lambda:  0 occupancy:  1 (1.000000)
    net charge:   0.00000000 [e]

Amount of molecules per component :
-------------------------------------------------------------------------------
Component 0 (CO2)
    molecules:      1.000000e+02 molecules  (1.000000e+02 +/- 0.000000e+00)
    number density: 1.400197e-02 molec./A^3 (1.497239e-02 +/- 1.159279e-04)
    density:        1.023008e+03 kg/m^3     (1.093908e+03 +/- 8.469889e+00)

Average pressure tensor: 
-------------------------------------------------------------------------------
 1.7536e+02  2.1647e+01  3.1054e+01 +/- 1.0631e+02 6.3190e+01 6.3828e+01 [bar]
 2.1647e+01  2.2513e+02 -2.9810e+00 +/- 6.3190e+01 6.2230e+01 7.1211e+01 [bar]
 3.1054e+01 -2.9810e+00  1.5421e+02 +/- 6.3828e+01 7.1211e+01 1.2420e+02 [bar]
Ideal-gas pressure:   5.167908e+02 +/ 4.001397e+00 [bar]
Excess pressure:     -3.318891e+02 +/ 1.805329e+01 [bar]
Pressure:             1.849018e+02 +/ 2.182570e+01 [bar]

Total potential energy/kʙ  -1.475086e+05 (-1.577972e+05 +/- 2.592665e+03) [K]
-------------------------------------------------------------------------------
ExternalField-molecule
    Van der Waals/kʙ        0.000000e+00 ( 0.000000e+00 +/- 0.000000e+00) [K]
Framework-molecule
    Van der Waals/kʙ        0.000000e+00 ( 0.000000e+00 +/- 0.000000e+00) [K]
    Van der Waals (Tail)/kʙ 0.000000e+00 ( 0.000000e+00 +/- 0.000000e+00) [K]
    Coulombic Real/kʙ       0.000000e+00 ( 0.000000e+00 +/- 0.000000e+00) [K]
    Coulombic Fourier/kʙ    0.000000e+00 ( 0.000000e+00 +/- 0.000000e+00) [K]
Molecule-molecule
    Van der Waals/kʙ       -1.055421e+05 (-1.119341e+05 +/- 9.336018e+02) [K]
    Van der Waals (Tail)/kʙ-4.492602e+03 (-4.805743e+03 +/- 4.081142e+01) [K]
    Coulombic Real/kʙ      -2.990126e+04 (-3.311269e+04 +/- 1.681590e+03) [K]
    Coulombic Fourier/kʙ   -7.572665e+03 (-7.944706e+03 +/- 2.141626e+02) [K]
    Molecule Intra/kʙ       0.000000e+00 ( 0.000000e+00 +/- 0.000000e+00) [K]


Energy statistics             |  Energy [K]   | Recomputed [K]|  Drift [K]    |
===============================================================================
Total potential energy/kʙ     | -1.612737e+05 | -1.612737e+05 | -7.153919e-10 |
    external field VDW/kʙ     |  0.000000e+00 |  0.000000e+00 |  0.000000e+00 |
    external field Real/kʙ    |  0.000000e+00 |  0.000000e+00 |  0.000000e+00 |
    framework-molecule VDW/kʙ |  0.000000e+00 |  0.000000e+00 |  0.000000e+00 |
    framework-molecule Real/kʙ|  0.000000e+00 |  0.000000e+00 |  0.000000e+00 |
    molecule-molecule VDW/kʙ  | -1.170484e+05 | -1.170484e+05 | -9.451049e-10 |
    molecule-molecule Real/kʙ | -3.103127e+04 | -3.103127e+04 |  2.143988e-10 |
    Van der Waals (Tail)/kʙ   | -4.748162e+03 | -4.748162e+03 |  0.000000e+00 |
    Ewald Fourier/kʙ          |  6.084965e+03 |  6.084965e+03 |  1.531420e-11 |
    Ewald self/kʙ             | -2.222923e+06 | -2.222923e+06 |  0.000000e+00 |
    Ewald exclusion/kʙ        |  2.208392e+06 |  2.208392e+06 |  0.000000e+00 |
    intra VDW/kʙ              |  0.000000e+00 |  0.000000e+00 |  0.000000e+00 |
    intra Coulombic/kʙ        |  0.000000e+00 |  0.000000e+00 |  0.000000e+00 |
    polarization/kʙ           |  0.000000e+00 |  0.000000e+00 |  0.000000e+00 |
    dU/dlambda VDW/kʙ         |  0.000000e+00 |  0.000000e+00 |  0.000000e+00 |
    dU/dlambda Real/kʙ        |  0.000000e+00 |  0.000000e+00 |  0.000000e+00 |
    dU/dlambda Ewald/kʙ       |  0.000000e+00 |  0.000000e+00 |  0.000000e+00 |
-------------------------------------------------------------------------------


Monte-Carlo moves statistics
===============================================================================

    Volume change        all:                3399
    Volume change        total:              3399
    Volume change        constructed:        3399
    Volume change        accepted:           1345
    Volume change        fraction:       0.395705
    Volume change        max-change:     0.050000

Component 0 [CO2]
    Reinsertion (CBMC)   all:              165361
    Reinsertion (CBMC)   total:            165361
    Reinsertion (CBMC)   constructed:      143018
    Reinsertion (CBMC)   accepted:           1715
    Reinsertion (CBMC)   fraction:       0.010371
    Reinsertion (CBMC)   max-change:     0.000000

    Translation          all:              165083
    Translation          total:             55020      55090      54973
    Translation          constructed:       55020      55090      54962
    Translation          accepted:          28423      24650      19752
    Translation          fraction:       0.516594   0.447450   0.359304
    Translation          max-change:     0.611111   0.750000   1.006993

    Rotation             all:              166157
    Rotation             total:             55096      55569      55492
    Rotation             constructed:       55096      55568      54999
    Rotation             accepted:          29348      26221      15194
    Rotation             fraction:       0.532670   0.471864   0.273805
    Rotation             max-change:     0.600000   0.750000   1.500000



Production run counting of the MC moves summed over systems and components
===============================================================================

Volume change                          3399 (0.6798 [%])
Reinsertion (CBMC)                   165361 (33.0722 [%])
Translation                          165083 (33.0166 [%])
Rotation                             166157 (33.2314 [%])

Production count MC-steps:           500000 [-]
               All summed:           500000 [-]
               difference:                0 [-]


Production run CPU timings of the MC moves
===============================================================================

Component 0 CO2

Rotation                             22.404836 [s]
    Ewald                            12.391970 [s]
    ExternalField-Molecule            0.005772 [s]
    Framework-Molecule                0.005850 [s]
    Molecule-Molecule                 9.105165 [s]
    Overhead                          0.896079 [s]

Reinsertion (CBMC)                   69.201804 [s]
    Ewald                            10.761902 [s]
    NonEwald                         58.282313 [s]
    Overhead                          0.157589 [s]

Translation                          22.357701 [s]
    Ewald                            12.347048 [s]
    ExternalField-Molecule            0.005888 [s]
    Framework-Molecule                0.009131 [s]
    Molecule-Molecule                 9.096610 [s]
    Overhead                          0.899024 [s]



Volume change                          9.725931 [s]
    Ewald                              4.809424 [s]
    NonEwald                           4.691393 [s]
    Tail                               0.152066 [s]

Property sampling                     0.234558 [s]
Energy/pressure sampling:             3.431711 [s]


Production run CPU timings of the MC moves summed over systems and components
===============================================================================


Translation                          22.357701 [s]
    Ewald                            12.347048 [s]
    ExternalField-Molecule            0.005888 [s]
    Framework-Molecule                0.009131 [s]
    Molecule-Molecule                 9.096610 [s]
    Overhead                          0.899024 [s]

Rotation                             22.404836 [s]
    Ewald                            12.391970 [s]
    ExternalField-Molecule            0.005772 [s]
    Framework-Molecule                0.005850 [s]
    Molecule-Molecule                 9.105165 [s]
    Overhead                          0.896079 [s]

Volume change                         9.725931 [s]
    Ewald                             4.809424 [s]
    NonEwald                          4.691393 [s]
    Tail                              0.152066 [s]
    Overhead                          0.073048 [s]

Reinsertion (CBMC)                   69.201804 [s]
    Ewald                            10.761902 [s]
    NonEwald                         58.282313 [s]
    Overhead                          0.157589 [s]

Property sampling:                    0.234558 [s]
Energy/pressure sampling:             3.431711 [s]

Production simulation time:         127.728486 [s]
                All summed:         127.356541 [s]
                  Overhead:           0.371945 [s]


Initalization simulation time:       23.498909 [s]
Equilibration simulation time:        0.000000 [s]
Production simulation time:         127.728486 [s]
Total simulation time:              151.227395 [s]


Energy averages and statistics:
===============================================================================

Framework-molecule energy:
-------------------------------------------------------------------------------



Framework-molecule energy contributions per energy type:
-------------------------------------------------------------------------------



Inter-molecular energy:
-------------------------------------------------------------------------------

    Inter-molecular energy/kʙ 0-0 [CO2-CO2]:
    ---------------------------------------------------------------------------
        Block[  0] -1.613061e+05
        Block[  1] -1.573484e+05
        Block[  2] -1.558856e+05
        Block[  3] -1.576710e+05
        Block[  4] -1.561280e+05
        -----------------------------------------------------------------------
        Average  -1.576678e+05 +/-  2.697585e+03 [K]



Inter-molecular energy contributions per energy type:
-------------------------------------------------------------------------------

    Van der Waals energy/kʙ 0-0 [CO2-CO2]:
    ---------------------------------------------------------------------------
        Block[  0] -1.128666e+05
        Block[  1] -1.125521e+05
        Block[  2] -1.110689e+05
        Block[  3] -1.116069e+05
        Block[  4] -1.111380e+05
        -----------------------------------------------------------------------
        Average  -1.118465e+05 +/-  1.020444e+03 [K]

    VDW Tail-Correction energy/kʙ 0-0 [CO2-CO2]:
    ---------------------------------------------------------------------------
        Block[  0] -4.847053e+03
        Block[  1] -4.821430e+03
        Block[  2] -4.771309e+03
        Block[  3] -4.813658e+03
        Block[  4] -4.762188e+03
        -----------------------------------------------------------------------
        Average  -4.803128e+03 +/-  4.417110e+01 [K]

    Coulomb Real energy/kʙ 0-0 [CO2-CO2]:
    ---------------------------------------------------------------------------
        Block[  0] -3.535363e+04
        Block[  1] -3.218795e+04
        Block[  2] -3.212254e+04
        Block[  3] -3.337230e+04
        Block[  4] -3.234395e+04
        -----------------------------------------------------------------------
        Average  -3.307607e+04 +/-  1.700966e+03 [K]

    Coulomb Fourier energy/kʙ 0-0 [CO2-CO2]:
    ---------------------------------------------------------------------------
        Block[  0] -8.238768e+03
        Block[  1] -7.786964e+03
        Block[  2] -7.922856e+03
        Block[  3] -7.878063e+03
        Block[  4] -7.883928e+03
        -----------------------------------------------------------------------
        Average  -7.942116e+03 +/-  2.149691e+02 [K]


Total energy/kʙ
-------------------------------------------------------------------------------
    Block[  0] -1.613061e+05
    Block[  1] -1.573484e+05
    Block[  2] -1.558856e+05
    Block[  3] -1.576710e+05
    Block[  4] -1.561280e+05
    ---------------------------------------------------------------------------
    Average  -1.576678e+05 +/-  2.697585e+03 [K]

Pressure averages and statistics:
===============================================================================

Average pressure tensor: 
-------------------------------------------------------------------------------
 1.7496e+02  2.3363e+01  2.9736e+01 +/- 1.0317e+02 6.4118e+01 6.0778e+01 [bar]
 2.3363e+01  2.2872e+02  4.2987e+00 +/- 6.4118e+01 6.5272e+01 7.4436e+01 [bar]
 2.9736e+01  4.2987e+00  1.5846e+02 +/- 6.0778e+01 7.4436e+01 1.2594e+02 [bar]

    Block[  0]  5.208711e+07
    Block[  1]  5.185056e+07
    Block[  2]  5.133540e+07
    Block[  3]  5.172708e+07
    Block[  4]  5.122263e+07
    ---------------------------------------------------------------------------
    Ideal gas pressure   5.164456e+07 +/-  2.692234e-02 [Pa]
                         5.164456e+02 +/-  4.470564e+00 [bar]


    Block[  0] -3.182708e+07
    Block[  1] -3.160951e+07
    Block[  2] -3.449321e+07
    Block[  3] -3.344703e+07
    Block[  4] -3.315657e+07
    ---------------------------------------------------------------------------
    Excess pressure  -3.290668e+07 +/-  1.484537e+06 [Pa]
                     -3.290668e+02 +/-  1.484537e+01 [bar]


    Block[  0]  2.026003e+07
    Block[  1]  2.024105e+07
    Block[  2]  1.684218e+07
    Block[  3]  1.828005e+07
    Block[  4]  1.806606e+07
    ---------------------------------------------------------------------------
    Pressure average   1.873788e+07 +/-  1.844639e+06 [Pa]
                       1.873788e+02 +/-  1.844639e+01 [bar]


Enthalpy of adsorption
===============================================================================

No fluctuating components present.


Densities
===============================================================================

Component 0 (CO2)
    Block[  0] 100
    Block[  1] 100
    Block[  2] 100
    Block[  3] 100
    Block[  4] 100
    -----------------------------------------------------------------------
    Density average   1.000000e+02 +/-  0.000000e+00 [molecules]
    Density average   1.496239e-02 +/-  1.295205e-04 [molec/A^3]
    Density average   1.093177e+03 +/-  9.462991e+00 [kg.m⁻³]

