Compiler and run-time data
===============================================================================
RASPA 3.0.4

Random seed: 638706882

Compiled as a 64-bits application
Compiler: gcc Ubuntu Clang 18.1.3 (1ubuntu1)
Compile Date = Mar 15 2025, Compile Time = 19:39:45

2025-06-03 09:35:50.128628
Simulation started on Tue, Jun 03
The start time was 09:35:00

Hostname:    c060
OS type:     Linux on x86_64
OS release:  6.8.0-58-generic
OS version:  #60-Ubuntu SMP PREEMPT_DYNAMIC Fri Mar 14 18:29:48 UTC 2025


Mutual consistent basic set of units:
===============================================================================

Unit of temperature: 1 [K]
Unit of length:      1e-10 [m]
Unit of time:        1e-12 [s]
Unit of mass:        1.6605402e-27 [kg]
Unit of charge:      1.60217733e-19 [C/particle]


Boltzmann constant (internal units):          0.8314464919307584 [-]
represents conversion from energy (internal units) to temperature (in Kelvin)

Derived units and their conversion factors:
===============================================================================

Unit of energy:                           1.6605402000000002e-23 [J]
Unit of energy:                           10.000008872307538 [J.mol⁻¹]
Unit of velocity:                         100 [m.s⁻¹]
Unit of force:                            1.6605402000000002e-13 [N]
Unit of diffusion:                        1.0000000000000002e-08 [m².s⁻¹]
Unit of acceleration:                     1.0000000000000002e-08 [m².s⁻¹]
Unit of torque:                           1.6605402000000002e-23 [N.m]
Unit of pressure:                         16605402 [Pa]
Unit of volume:                           1e-30 [m³]
Unit of density:                          1660.5402 [kg.m⁻³]
Unit of dynamic viscosity:                1.6605401999999997e-05 [N.s.m⁻²]
Unit of enthalpy:                         1.6605402000000002e-23 [J]
Unit of polarizability:                   1.5458657349975198e-35 [-]
Unit of Coulomb potential:                167101.08000665612 [K]
Unit of dielectric constant:              1.5458657349975193e-05 [s².C².kg⁻¹.m⁻³]
Unit of dipole moment:                    1.60217733e-29 [C.m]
Unit of Debye:                            4.803206799099162 [C.m]
Unit of electric potential:               0.00010364272224473431 [V]
Unit of electric field:                   1036427.222447343 [V.m⁻¹]
Unit of isothermal compressibility:       6.02213665167516e-08 [Pa⁻¹]
Unit of heat capacity:                    10.000008872307538 [J.mol⁻¹.K⁻¹]
Unit of volumetric expansion coefficient: 1 [K⁻¹]


Internal conversion factors:
===============================================================================

Energy (internal units) to Kelvin:      1.202724284692786 [-]
Kelvin to energy (internal units):      0.8314457542157567 [-]


System definitions
===============================================================================

Temperature:          250 [K]
Beta:                 0.0048108928702210625 [-]
Pressure:             6e+06 [Pa]
Helium void fraction: 1 [-]

Box:      30.00000   0.00000   0.00000
           0.00000  30.00000   0.00000
           0.00000   0.00000  30.00000
Lengths:  30.00000  30.00000  30.00000
Angles:   90.00000  90.00000  90.00000
Rectangular boundary conditions



Property measurement settings
===============================================================================




Pseudo-atoms
===============================================================================

  0 - C_co2    framework-atom: false
  1 - O_co2    framework-atom: false

  0 - C_co2    mass: 12.00000, charge:  0.70000
  1 - O_co2    mass: 15.99940, charge: -0.35000

  0 - C_co2    polarizability:  0.00000
  1 - O_co2    polarizability:  0.00000

  0 - J. J. Potoff et al., AIChE J. 2001, 47, 1676–1682.
  1 - J. J. Potoff et al., AIChE J. 2001, 47, 1676–1682.

Force field status
===============================================================================

Cutoff Framework-Molecule VDW:  10.00000 [Å]
Cutoff Molecule-Molecule VDW:   10.00000 [Å]
Cutoff Coulomb:                 10.00000 [Å]

Overlap-criteria VDW:           1.000000e+05 [K]

C_co2    - C_co2    Lennard-Jones p₀/kʙ:  27.00000 [K], p₁:  2.80000 [Å]
                                  shift:   0.00000 [K], tailcorrections: true
C_co2    - O_co2    Lennard-Jones p₀/kʙ:  46.18441 [K], p₁:  2.92500 [Å]
                                  shift:   0.00000 [K], tailcorrections: true
O_co2    - O_co2    Lennard-Jones p₀/kʙ:  79.00000 [K], p₁:  3.05000 [Å]
                                  shift:   0.00000 [K], tailcorrections: true

Ewald precision: 1e-06
Ewald alpha: 0.32079885109097883
Ewald k-vectors: 10 10 10


Component definitions
===============================================================================

Component 0 [CO2]

    Type: Adsorbate

    Critical temperature:  304.1282 [K]
    Critical pressure:     7377300 [Pa]
    Acentric factor:       0.22394 [-]

    Mol-fraction:                 1 [-]
    Swappable:                   false

    Mass:                         43.9988 [-]
    Bulk fluid density:           0 [-]
    Compressibility:              0 [-]
    Excess molecules:             0 [-]

    Number Of Atoms:    3
    CBMC starting bead: 0
      0: O_co2  position  0.00000 -0.00000  1.16000, charge -0.35000
      1: C_co2  position  0.00000 -0.00000  0.00000, charge  0.70000
      2: O_co2  position  0.00000 -0.00000 -1.16000, charge -0.35000
    Diagonalized inertia-vector:      43.05758528 43.05758528 0.00000000
    Translational degrees of freedom: 3
    Rotational degrees of freedom:    2
    Shape of the molecule is: 'Linear'
    Net-charge:        0.00000000 [e]

    Move probabilities:
    Translation:                   0.331126 [-]
    Random translation:            0.000000 [-]
    Rotation:                      0.331126 [-]
    Random rotation:               0.000000 [-]
    Volume change:                 0.006623 [-]
    Reinsertion (CBMC):            0.331126 [-]
    Identity change (CBMC):        0.000000 [-]
    Swap:                          0.000000 [-]
    Swap (CBMC):                   0.000000 [-]
    Swap (CFCMC):                  0.000000 [-]
    Swap (CB/CFCMC):               0.000000 [-]
    Gibbs volume:                  0.000000 [-]
    Gibbs swap (CBMC):             0.000000 [-]
    Gibbs swap (CFCMC):            0.000000 [-]
    Widom:                         0.000000 [-]
    Widom (CFCMC):                 0.000000 [-]
    Widom (CB/CFCMC):              0.000000 [-]
    Parallel tempering:            0.000000 [-]
    Hybrid MC:                     0.000000 [-]

    number of blocking-pockets: 0

    number of bonds: 0





Number of pseudo-atoms
===============================================================================

Component   0 (CO2)
-------------------------------------------------------------------------------
    index   0 (C_co2): 150 atoms
    index   1 (O_co2): 300 atoms

Total number of pseudo-atoms:
-------------------------------------------------------------------------------
    index   0 (C_co2): 150 atoms
    index   1 (O_co2): 300 atoms




Energy status Recomputed from scratch
===============================================================================

Total potential energy/kʙ       -4.667017e+04 [K]
    external field VDW/kʙ        0.000000e+00 [K]
    external field Real/kʙ       0.000000e+00 [K]
    framework-molecule VDW/kʙ    0.000000e+00 [K]
    framework-molecule Real/kʙ   0.000000e+00 [K]
    molecule-molecule VDW/kʙ    -3.201442e+04 [K]
    molecule-molecule Real/kʙ   -1.032970e+04 [K]
    Van der Waals (Tail)/kʙ     -2.673791e+03 [K]
    Ewald Fourier/kʙ             2.014403e+04 [K]
    Ewald self/kʙ               -3.334385e+06 [K]
    Ewald exclusion/kʙ           3.312589e+06 [K]
    intra VDW/kʙ                 0.000000e+00 [K]
    intra Coulombic/kʙ           0.000000e+00 [K]
    polarization/kʙ              0.000000e+00 [K]
    dU/dlambda VDW/kʙ            0.000000e+00 [K]
    dU/dlambda Real/kʙ           0.000000e+00 [K]
    dU/dlambda Ewald/kʙ          0.000000e+00 [K]





Initialization: Current cycle: 0 out of 1000
===============================================================================

Box:      30.00000   0.00000   0.00000
           0.00000  30.00000   0.00000
           0.00000   0.00000  30.00000
Lengths:  30.00000  30.00000  30.00000
Angles:   90.00000  90.00000  90.00000
Rectangular boundary conditions

net charge:   0.00000000

component   0 (CO2) lambda:  0 occupancy:  1 (1.000000)
    net charge:   0.00000000 [e]

Amount of molecules per component :
-------------------------------------------------------------------------------
Component 0 (CO2)
    molecules:         1.500000e+02 molecules
    number density:    5.555556e-03 molec/A^3
    density:           4.058984e+02 kg/m^3

Total potential energy/kʙ       -8.308976e+04 [K]
-------------------------------------------------------------------------------
    external field VDW/kʙ        0.000000e+00 [K]
    external field Real/kʙ       0.000000e+00 [K]
    framework-molecule VDW/kʙ    0.000000e+00 [K]
    framework-molecule Real/kʙ   0.000000e+00 [K]
    molecule-molecule VDW/kʙ    -6.305564e+04 [K]
    molecule-molecule Real/kʙ   -1.441503e+04 [K]
    Van der Waals (Tail)/kʙ     -2.673791e+03 [K]
    Ewald Fourier/kʙ             1.885098e+04 [K]
    Ewald self/kʙ               -3.334385e+06 [K]
    Ewald exclusion/kʙ           3.312589e+06 [K]
    intra VDW/kʙ                 0.000000e+00 [K]
    intra Coulombic/kʙ           0.000000e+00 [K]
    polarization/kʙ              0.000000e+00 [K]
    dU/dlambda VDW/kʙ            0.000000e+00 [K]
    dU/dlambda Real/kʙ           0.000000e+00 [K]
    dU/dlambda Ewald/kʙ          0.000000e+00 [K]


Initialization: Current cycle: 100 out of 1000
===============================================================================

Box:      28.39443   0.00000   0.00000
           0.00000  28.39443   0.00000
           0.00000   0.00000  28.39443
Lengths:  28.39443  28.39443  28.39443
Angles:   90.00000  90.00000  90.00000
Rectangular boundary conditions

net charge:   0.00000000

component   0 (CO2) lambda:  0 occupancy:  1 (1.000000)
    net charge:   0.00000000 [e]

Amount of molecules per component :
-------------------------------------------------------------------------------
Component 0 (CO2)
    molecules:         1.500000e+02 molecules
    number density:    6.552267e-03 molec/A^3
    density:           4.787198e+02 kg/m^3

Total potential energy/kʙ       -1.352045e+05 [K]
-------------------------------------------------------------------------------
    external field VDW/kʙ        0.000000e+00 [K]
    external field Real/kʙ       0.000000e+00 [K]
    framework-molecule VDW/kʙ    0.000000e+00 [K]
    framework-molecule Real/kʙ   0.000000e+00 [K]
    molecule-molecule VDW/kʙ    -9.841804e+04 [K]
    molecule-molecule Real/kʙ   -2.679733e+04 [K]
    Van der Waals (Tail)/kʙ     -3.153490e+03 [K]
    Ewald Fourier/kʙ             1.496062e+04 [K]
    Ewald self/kʙ               -3.334385e+06 [K]
    Ewald exclusion/kʙ           3.312589e+06 [K]
    intra VDW/kʙ                 0.000000e+00 [K]
    intra Coulombic/kʙ           0.000000e+00 [K]
    polarization/kʙ              0.000000e+00 [K]
    dU/dlambda VDW/kʙ            0.000000e+00 [K]
    dU/dlambda Real/kʙ           0.000000e+00 [K]
    dU/dlambda Ewald/kʙ          0.000000e+00 [K]


Initialization: Current cycle: 200 out of 1000
===============================================================================

Box:      27.80395   0.00000   0.00000
           0.00000  27.80395   0.00000
           0.00000   0.00000  27.80395
Lengths:  27.80395  27.80395  27.80395
Angles:   90.00000  90.00000  90.00000
Rectangular boundary conditions

net charge:   0.00000000

component   0 (CO2) lambda:  0 occupancy:  1 (1.000000)
    net charge:   0.00000000 [e]

Amount of molecules per component :
-------------------------------------------------------------------------------
Component 0 (CO2)
    molecules:         1.500000e+02 molecules
    number density:    6.978655e-03 molec/A^3
    density:           5.098725e+02 kg/m^3

Total potential energy/kʙ       -1.483284e+05 [K]
-------------------------------------------------------------------------------
    external field VDW/kʙ        0.000000e+00 [K]
    external field Real/kʙ       0.000000e+00 [K]
    framework-molecule VDW/kʙ    0.000000e+00 [K]
    framework-molecule Real/kʙ   0.000000e+00 [K]
    molecule-molecule VDW/kʙ    -1.071333e+05 [K]
    molecule-molecule Real/kʙ   -3.006342e+04 [K]
    Van der Waals (Tail)/kʙ     -3.358703e+03 [K]
    Ewald Fourier/kʙ             1.402330e+04 [K]
    Ewald self/kʙ               -3.334385e+06 [K]
    Ewald exclusion/kʙ           3.312589e+06 [K]
    intra VDW/kʙ                 0.000000e+00 [K]
    intra Coulombic/kʙ           0.000000e+00 [K]
    polarization/kʙ              0.000000e+00 [K]
    dU/dlambda VDW/kʙ            0.000000e+00 [K]
    dU/dlambda Real/kʙ           0.000000e+00 [K]
    dU/dlambda Ewald/kʙ          0.000000e+00 [K]


Initialization: Current cycle: 300 out of 1000
===============================================================================

Box:      27.64702   0.00000   0.00000
           0.00000  27.64702   0.00000
           0.00000   0.00000  27.64702
Lengths:  27.64702  27.64702  27.64702
Angles:   90.00000  90.00000  90.00000
Rectangular boundary conditions

net charge:   0.00000000

component   0 (CO2) lambda:  0 occupancy:  1 (1.000000)
    net charge:   0.00000000 [e]

Amount of molecules per component :
-------------------------------------------------------------------------------
Component 0 (CO2)
    molecules:         1.500000e+02 molecules
    number density:    7.098167e-03 molec/A^3
    density:           5.186042e+02 kg/m^3

Total potential energy/kʙ       -1.429868e+05 [K]
-------------------------------------------------------------------------------
    external field VDW/kʙ        0.000000e+00 [K]
    external field Real/kʙ       0.000000e+00 [K]
    framework-molecule VDW/kʙ    0.000000e+00 [K]
    framework-molecule Real/kʙ   0.000000e+00 [K]
    molecule-molecule VDW/kʙ    -1.018042e+05 [K]
    molecule-molecule Real/kʙ   -3.145512e+04 [K]
    Van der Waals (Tail)/kʙ     -3.416222e+03 [K]
    Ewald Fourier/kʙ             1.548503e+04 [K]
    Ewald self/kʙ               -3.334385e+06 [K]
    Ewald exclusion/kʙ           3.312589e+06 [K]
    intra VDW/kʙ                 0.000000e+00 [K]
    intra Coulombic/kʙ           0.000000e+00 [K]
    polarization/kʙ              0.000000e+00 [K]
    dU/dlambda VDW/kʙ            0.000000e+00 [K]
    dU/dlambda Real/kʙ           0.000000e+00 [K]
    dU/dlambda Ewald/kʙ          0.000000e+00 [K]


Initialization: Current cycle: 400 out of 1000
===============================================================================

Box:      26.18933   0.00000   0.00000
           0.00000  26.18933   0.00000
           0.00000   0.00000  26.18933
Lengths:  26.18933  26.18933  26.18933
Angles:   90.00000  90.00000  90.00000
Rectangular boundary conditions

net charge:   0.00000000

component   0 (CO2) lambda:  0 occupancy:  1 (1.000000)
    net charge:   0.00000000 [e]

Amount of molecules per component :
-------------------------------------------------------------------------------
Component 0 (CO2)
    molecules:         1.500000e+02 molecules
    number density:    8.350604e-03 molec/A^3
    density:           6.101094e+02 kg/m^3

Total potential energy/kʙ       -1.570002e+05 [K]
-------------------------------------------------------------------------------
    external field VDW/kʙ        0.000000e+00 [K]
    external field Real/kʙ       0.000000e+00 [K]
    framework-molecule VDW/kʙ    0.000000e+00 [K]
    framework-molecule Real/kʙ   0.000000e+00 [K]
    molecule-molecule VDW/kʙ    -1.126720e+05 [K]
    molecule-molecule Real/kʙ   -3.258132e+04 [K]
    Van der Waals (Tail)/kʙ     -4.018998e+03 [K]
    Ewald Fourier/kʙ             1.406841e+04 [K]
    Ewald self/kʙ               -3.334385e+06 [K]
    Ewald exclusion/kʙ           3.312589e+06 [K]
    intra VDW/kʙ                 0.000000e+00 [K]
    intra Coulombic/kʙ           0.000000e+00 [K]
    polarization/kʙ              0.000000e+00 [K]
    dU/dlambda VDW/kʙ            0.000000e+00 [K]
    dU/dlambda Real/kʙ           0.000000e+00 [K]
    dU/dlambda Ewald/kʙ          0.000000e+00 [K]


Initialization: Current cycle: 500 out of 1000
===============================================================================

Box:      24.80824   0.00000   0.00000
           0.00000  24.80824   0.00000
           0.00000   0.00000  24.80824
Lengths:  24.80824  24.80824  24.80824
Angles:   90.00000  90.00000  90.00000
Rectangular boundary conditions

net charge:   0.00000000

component   0 (CO2) lambda:  0 occupancy:  1 (1.000000)
    net charge:   0.00000000 [e]

Amount of molecules per component :
-------------------------------------------------------------------------------
Component 0 (CO2)
    molecules:         1.500000e+02 molecules
    number density:    9.824340e-03 molec/A^3
    density:           7.177831e+02 kg/m^3

Total potential energy/kʙ       -1.688961e+05 [K]
-------------------------------------------------------------------------------
    external field VDW/kʙ        0.000000e+00 [K]
    external field Real/kʙ       0.000000e+00 [K]
    framework-molecule VDW/kʙ    0.000000e+00 [K]
    framework-molecule Real/kʙ   0.000000e+00 [K]
    molecule-molecule VDW/kʙ    -1.229180e+05 [K]
    molecule-molecule Real/kʙ   -3.256086e+04 [K]
    Van der Waals (Tail)/kʙ     -4.728282e+03 [K]
    Ewald Fourier/kʙ             1.310731e+04 [K]
    Ewald self/kʙ               -3.334385e+06 [K]
    Ewald exclusion/kʙ           3.312589e+06 [K]
    intra VDW/kʙ                 0.000000e+00 [K]
    intra Coulombic/kʙ           0.000000e+00 [K]
    polarization/kʙ              0.000000e+00 [K]
    dU/dlambda VDW/kʙ            0.000000e+00 [K]
    dU/dlambda Real/kʙ           0.000000e+00 [K]
    dU/dlambda Ewald/kʙ          0.000000e+00 [K]


Initialization: Current cycle: 600 out of 1000
===============================================================================

Box:      23.31318   0.00000   0.00000
           0.00000  23.31318   0.00000
           0.00000   0.00000  23.31318
Lengths:  23.31318  23.31318  23.31318
Angles:   90.00000  90.00000  90.00000
Rectangular boundary conditions

net charge:   0.00000000

component   0 (CO2) lambda:  0 occupancy:  1 (1.000000)
    net charge:   0.00000000 [e]

Amount of molecules per component :
-------------------------------------------------------------------------------
Component 0 (CO2)
    molecules:         1.500000e+02 molecules
    number density:    1.183823e-02 molec/A^3
    density:           8.649210e+02 kg/m^3

Total potential energy/kʙ       -1.918257e+05 [K]
-------------------------------------------------------------------------------
    external field VDW/kʙ        0.000000e+00 [K]
    external field Real/kʙ       0.000000e+00 [K]
    framework-molecule VDW/kʙ    0.000000e+00 [K]
    framework-molecule Real/kʙ   0.000000e+00 [K]
    molecule-molecule VDW/kʙ    -1.399082e+05 [K]
    molecule-molecule Real/kʙ   -3.674535e+04 [K]
    Van der Waals (Tail)/kʙ     -5.697529e+03 [K]
    Ewald Fourier/kʙ             1.232157e+04 [K]
    Ewald self/kʙ               -3.334385e+06 [K]
    Ewald exclusion/kʙ           3.312589e+06 [K]
    intra VDW/kʙ                 0.000000e+00 [K]
    intra Coulombic/kʙ           0.000000e+00 [K]
    polarization/kʙ              0.000000e+00 [K]
    dU/dlambda VDW/kʙ            0.000000e+00 [K]
    dU/dlambda Real/kʙ           0.000000e+00 [K]
    dU/dlambda Ewald/kʙ          0.000000e+00 [K]


Initialization: Current cycle: 700 out of 1000
===============================================================================

Box:      22.31811   0.00000   0.00000
           0.00000  22.31811   0.00000
           0.00000   0.00000  22.31811
Lengths:  22.31811  22.31811  22.31811
Angles:   90.00000  90.00000  90.00000
Rectangular boundary conditions

net charge:   0.00000000

component   0 (CO2) lambda:  0 occupancy:  1 (1.000000)
    net charge:   0.00000000 [e]

Amount of molecules per component :
-------------------------------------------------------------------------------
Component 0 (CO2)
    molecules:         1.500000e+02 molecules
    number density:    1.349332e-02 molec/A^3
    density:           9.858454e+02 kg/m^3

Total potential energy/kʙ       -2.189984e+05 [K]
-------------------------------------------------------------------------------
    external field VDW/kʙ        0.000000e+00 [K]
    external field Real/kʙ       0.000000e+00 [K]
    framework-molecule VDW/kʙ    0.000000e+00 [K]
    framework-molecule Real/kʙ   0.000000e+00 [K]
    molecule-molecule VDW/kʙ    -1.573059e+05 [K]
    molecule-molecule Real/kʙ   -4.369470e+04 [K]
    Van der Waals (Tail)/kʙ     -6.494099e+03 [K]
    Ewald Fourier/kʙ             1.029262e+04 [K]
    Ewald self/kʙ               -3.334385e+06 [K]
    Ewald exclusion/kʙ           3.312589e+06 [K]
    intra VDW/kʙ                 0.000000e+00 [K]
    intra Coulombic/kʙ           0.000000e+00 [K]
    polarization/kʙ              0.000000e+00 [K]
    dU/dlambda VDW/kʙ            0.000000e+00 [K]
    dU/dlambda Real/kʙ           0.000000e+00 [K]
    dU/dlambda Ewald/kʙ          0.000000e+00 [K]


Initialization: Current cycle: 800 out of 1000
===============================================================================

Box:      21.76569   0.00000   0.00000
           0.00000  21.76569   0.00000
           0.00000   0.00000  21.76569
Lengths:  21.76569  21.76569  21.76569
Angles:   90.00000  90.00000  90.00000
Rectangular boundary conditions

net charge:   0.00000000

component   0 (CO2) lambda:  0 occupancy:  1 (1.000000)
    net charge:   0.00000000 [e]

Amount of molecules per component :
-------------------------------------------------------------------------------
Component 0 (CO2)
    molecules:         1.500000e+02 molecules
    number density:    1.454701e-02 molec/A^3
    density:           1.062829e+03 kg/m^3

Total potential energy/kʙ       -2.267204e+05 [K]
-------------------------------------------------------------------------------
    external field VDW/kʙ        0.000000e+00 [K]
    external field Real/kʙ       0.000000e+00 [K]
    framework-molecule VDW/kʙ    0.000000e+00 [K]
    framework-molecule Real/kʙ   0.000000e+00 [K]
    molecule-molecule VDW/kʙ    -1.578123e+05 [K]
    molecule-molecule Real/kʙ   -5.016046e+04 [K]
    Van der Waals (Tail)/kʙ     -7.001219e+03 [K]
    Ewald Fourier/kʙ             1.004990e+04 [K]
    Ewald self/kʙ               -3.334385e+06 [K]
    Ewald exclusion/kʙ           3.312589e+06 [K]
    intra VDW/kʙ                 0.000000e+00 [K]
    intra Coulombic/kʙ           0.000000e+00 [K]
    polarization/kʙ              0.000000e+00 [K]
    dU/dlambda VDW/kʙ            0.000000e+00 [K]
    dU/dlambda Real/kʙ           0.000000e+00 [K]
    dU/dlambda Ewald/kʙ          0.000000e+00 [K]


Initialization: Current cycle: 900 out of 1000
===============================================================================

Box:      21.79505   0.00000   0.00000
           0.00000  21.79505   0.00000
           0.00000   0.00000  21.79505
Lengths:  21.79505  21.79505  21.79505
Angles:   90.00000  90.00000  90.00000
Rectangular boundary conditions

net charge:   0.00000000

component   0 (CO2) lambda:  0 occupancy:  1 (1.000000)
    net charge:   0.00000000 [e]

Amount of molecules per component :
-------------------------------------------------------------------------------
Component 0 (CO2)
    molecules:         1.500000e+02 molecules
    number density:    1.448830e-02 molec/A^3
    density:           1.058540e+03 kg/m^3

Total potential energy/kʙ       -2.265319e+05 [K]
-------------------------------------------------------------------------------
    external field VDW/kʙ        0.000000e+00 [K]
    external field Real/kʙ       0.000000e+00 [K]
    framework-molecule VDW/kʙ    0.000000e+00 [K]
    framework-molecule Real/kʙ   0.000000e+00 [K]
    molecule-molecule VDW/kʙ    -1.593484e+05 [K]
    molecule-molecule Real/kʙ   -4.800580e+04 [K]
    Van der Waals (Tail)/kʙ     -6.972964e+03 [K]
    Ewald Fourier/kʙ             9.591554e+03 [K]
    Ewald self/kʙ               -3.334385e+06 [K]
    Ewald exclusion/kʙ           3.312589e+06 [K]
    intra VDW/kʙ                 0.000000e+00 [K]
    intra Coulombic/kʙ           0.000000e+00 [K]
    polarization/kʙ              0.000000e+00 [K]
    dU/dlambda VDW/kʙ            0.000000e+00 [K]
    dU/dlambda Real/kʙ           0.000000e+00 [K]
    dU/dlambda Ewald/kʙ          0.000000e+00 [K]


Current cycle: 0 out of 5000
===============================================================================

Box:      21.91465   0.00000   0.00000  Average:  21.91465   0.00000   0.00000
           0.00000  21.91465   0.00000             0.00000  21.91465   0.00000
           0.00000   0.00000  21.91465             0.00000   0.00000  21.91465
Lengths:  21.91465  21.91465  21.91465  Average:  21.91465  21.91465  21.91465
Angles:   90.00000  90.00000  90.00000  Average:  90.00000  90.00000  90.00000
Rectangular boundary conditions

net charge:   0.00000000

component 0 (CO2) lambda:  0 occupancy:  1 (1.000000)
    net charge:   0.00000000 [e]

Amount of molecules per component :
-------------------------------------------------------------------------------
Component 0 (CO2)
    molecules:      1.500000e+02 molecules  (1.500000e+02 +/- 0.000000e+00)
    number density: 1.425239e-02 molec./A^3 (1.425239e-02 +/- 0.000000e+00)
    density:        1.041304e+03 kg/m^3     (1.041304e+03 +/- 0.000000e+00)

Average pressure tensor: 
-------------------------------------------------------------------------------
 4.9194e+02  0.0000e+00  0.0000e+00 +/- 0.0000e+00 0.0000e+00 0.0000e+00 [bar]
 0.0000e+00  4.9194e+02  0.0000e+00 +/- 0.0000e+00 0.0000e+00 0.0000e+00 [bar]
 0.0000e+00  0.0000e+00  4.9194e+02 +/- 0.0000e+00 0.0000e+00 0.0000e+00 [bar]
Ideal-gas pressure:   4.919393e+02 +/ 0.000000e+00 [bar]
Excess pressure:      0.000000e+00 +/ 0.000000e+00 [bar]
Pressure:             4.919393e+02 +/ 0.000000e+00 [bar]

Total potential energy/kʙ  -2.272531e+05 (-2.272531e+05 +/- 0.000000e+00) [K]
-------------------------------------------------------------------------------
ExternalField-molecule
    Van der Waals/kʙ        0.000000e+00 ( 0.000000e+00 +/- 0.000000e+00) [K]
Framework-molecule
    Van der Waals/kʙ        0.000000e+00 ( 0.000000e+00 +/- 0.000000e+00) [K]
    Van der Waals (Tail)/kʙ 0.000000e+00 ( 0.000000e+00 +/- 0.000000e+00) [K]
    Coulombic Real/kʙ       0.000000e+00 ( 0.000000e+00 +/- 0.000000e+00) [K]
    Coulombic Fourier/kʙ    0.000000e+00 ( 0.000000e+00 +/- 0.000000e+00) [K]
Molecule-molecule
    Van der Waals/kʙ       -1.622951e+05 (-1.622951e+05 +/- 0.000000e+00) [K]
    Van der Waals (Tail)/kʙ-6.859425e+03 (-6.859425e+03 +/- 0.000000e+00) [K]
    Coulombic Real/kʙ      -4.579511e+04 (-4.579511e+04 +/- 0.000000e+00) [K]
    Coulombic Fourier/kʙ   -1.230355e+04 (-1.230355e+04 +/- 0.000000e+00) [K]
    Molecule Intra/kʙ       0.000000e+00 ( 0.000000e+00 +/- 0.000000e+00) [K]

Current cycle: 100 out of 5000
===============================================================================

Box:      21.76029   0.00000   0.00000  Average:  21.71037   0.00000   0.00000
           0.00000  21.76029   0.00000             0.00000  21.71037   0.00000
           0.00000   0.00000  21.76029             0.00000   0.00000  21.71037
Lengths:  21.76029  21.76029  21.76029  Average:  21.71037  21.71037  21.71037
Angles:   90.00000  90.00000  90.00000  Average:  90.00000  90.00000  90.00000
Rectangular boundary conditions

net charge:   0.00000000

component 0 (CO2) lambda:  0 occupancy:  1 (1.000000)
    net charge:   0.00000000 [e]

Amount of molecules per component :
-------------------------------------------------------------------------------
Component 0 (CO2)
    molecules:      1.500000e+02 molecules  (1.500000e+02 +/- 0.000000e+00)
    number density: 1.455785e-02 molec./A^3 (1.466307e-02 +/- 0.000000e+00)
    density:        1.063621e+03 kg/m^3     (1.071309e+03 +/- 0.000000e+00)

Average pressure tensor: 
-------------------------------------------------------------------------------
 1.2950e+02 -3.8823e+01 -1.7933e+02 +/- 0.0000e+00 0.0000e+00 0.0000e+00 [bar]
-3.8823e+01  4.9697e+01 -3.0541e+01 +/- 0.0000e+00 0.0000e+00 0.0000e+00 [bar]
-1.7933e+02 -3.0541e+01 -2.5639e-01 +/- 0.0000e+00 0.0000e+00 0.0000e+00 [bar]
Ideal-gas pressure:   5.061143e+02 +/ 0.000000e+00 [bar]
Excess pressure:     -4.464664e+02 +/ 0.000000e+00 [bar]
Pressure:             5.964790e+01 +/ 0.000000e+00 [bar]

Total potential energy/kʙ  -2.299136e+05 (-2.292452e+05 +/- 0.000000e+00) [K]
-------------------------------------------------------------------------------
ExternalField-molecule
    Van der Waals/kʙ        0.000000e+00 ( 0.000000e+00 +/- 0.000000e+00) [K]
Framework-molecule
    Van der Waals/kʙ        0.000000e+00 ( 0.000000e+00 +/- 0.000000e+00) [K]
    Van der Waals (Tail)/kʙ 0.000000e+00 ( 0.000000e+00 +/- 0.000000e+00) [K]
    Coulombic Real/kʙ       0.000000e+00 ( 0.000000e+00 +/- 0.000000e+00) [K]
    Coulombic Fourier/kʙ    0.000000e+00 ( 0.000000e+00 +/- 0.000000e+00) [K]
Molecule-molecule
    Van der Waals/kʙ       -1.639233e+05 (-1.641915e+05 +/- 0.000000e+00) [K]
    Van der Waals (Tail)/kʙ-7.006436e+03 (-7.057477e+03 +/- 0.000000e+00) [K]
    Coulombic Real/kʙ      -4.694814e+04 (-4.630344e+04 +/- 0.000000e+00) [K]
    Coulombic Fourier/kʙ   -1.203568e+04 (-1.169281e+04 +/- 0.000000e+00) [K]
    Molecule Intra/kʙ       0.000000e+00 ( 0.000000e+00 +/- 0.000000e+00) [K]

Current cycle: 200 out of 5000
===============================================================================

Box:      21.69666   0.00000   0.00000  Average:  21.68662   0.00000   0.00000
           0.00000  21.69666   0.00000             0.00000  21.68662   0.00000
           0.00000   0.00000  21.69666             0.00000   0.00000  21.68662
Lengths:  21.69666  21.69666  21.69666  Average:  21.68662  21.68662  21.68662
Angles:   90.00000  90.00000  90.00000  Average:  90.00000  90.00000  90.00000
Rectangular boundary conditions

net charge:   0.00000000

component 0 (CO2) lambda:  0 occupancy:  1 (1.000000)
    net charge:   0.00000000 [e]

Amount of molecules per component :
-------------------------------------------------------------------------------
Component 0 (CO2)
    molecules:      1.500000e+02 molecules  (1.500000e+02 +/- 0.000000e+00)
    number density: 1.468632e-02 molec./A^3 (1.470976e-02 +/- 0.000000e+00)
    density:        1.073007e+03 kg/m^3     (1.074720e+03 +/- 0.000000e+00)

Average pressure tensor: 
-------------------------------------------------------------------------------
 7.6273e+01  6.3021e+01 -9.4043e+01 +/- 0.0000e+00 0.0000e+00 0.0000e+00 [bar]
 6.3021e+01 -1.7387e+01 -1.2110e+02 +/- 0.0000e+00 0.0000e+00 0.0000e+00 [bar]
-9.4043e+01 -1.2110e+02  1.3937e+02 +/- 0.0000e+00 0.0000e+00 0.0000e+00 [bar]
Ideal-gas pressure:   5.077259e+02 +/ 0.000000e+00 [bar]
Excess pressure:     -4.416413e+02 +/ 0.000000e+00 [bar]
Pressure:             6.608468e+01 +/ 0.000000e+00 [bar]

Total potential energy/kʙ  -2.414708e+05 (-2.322264e+05 +/- 0.000000e+00) [K]
-------------------------------------------------------------------------------
ExternalField-molecule
    Van der Waals/kʙ        0.000000e+00 ( 0.000000e+00 +/- 0.000000e+00) [K]
Framework-molecule
    Van der Waals/kʙ        0.000000e+00 ( 0.000000e+00 +/- 0.000000e+00) [K]
    Van der Waals (Tail)/kʙ 0.000000e+00 ( 0.000000e+00 +/- 0.000000e+00) [K]
    Coulombic Real/kʙ       0.000000e+00 ( 0.000000e+00 +/- 0.000000e+00) [K]
    Coulombic Fourier/kʙ    0.000000e+00 ( 0.000000e+00 +/- 0.000000e+00) [K]
Molecule-molecule
    Van der Waals/kʙ       -1.701992e+05 (-1.655225e+05 +/- 0.000000e+00) [K]
    Van der Waals (Tail)/kʙ-7.068265e+03 (-7.085761e+03 +/- 0.000000e+00) [K]
    Coulombic Real/kʙ      -5.184968e+04 (-4.764777e+04 +/- 0.000000e+00) [K]
    Coulombic Fourier/kʙ   -1.235363e+04 (-1.197037e+04 +/- 0.000000e+00) [K]
    Molecule Intra/kʙ       0.000000e+00 ( 0.000000e+00 +/- 0.000000e+00) [K]

Current cycle: 300 out of 5000
===============================================================================

Box:      21.85748   0.00000   0.00000  Average:  21.66658   0.00000   0.00000
           0.00000  21.85748   0.00000             0.00000  21.66658   0.00000
           0.00000   0.00000  21.85748             0.00000   0.00000  21.66658
Lengths:  21.85748  21.85748  21.85748  Average:  21.66658  21.66658  21.66658
Angles:   90.00000  90.00000  90.00000  Average:  90.00000  90.00000  90.00000
Rectangular boundary conditions

net charge:   0.00000000

component 0 (CO2) lambda:  0 occupancy:  1 (1.000000)
    net charge:   0.00000000 [e]

Amount of molecules per component :
-------------------------------------------------------------------------------
Component 0 (CO2)
    molecules:      1.500000e+02 molecules  (1.500000e+02 +/- 0.000000e+00)
    number density: 1.436452e-02 molec./A^3 (1.475190e-02 +/- 0.000000e+00)
    density:        1.049496e+03 kg/m^3     (1.077799e+03 +/- 0.000000e+00)

Average pressure tensor: 
-------------------------------------------------------------------------------
 9.2637e+01  2.1576e+01  1.9642e+00 +/- 0.0000e+00 0.0000e+00 0.0000e+00 [bar]
 2.1576e+01 -2.4828e+01 -9.7479e+01 +/- 0.0000e+00 0.0000e+00 0.0000e+00 [bar]
 1.9642e+00 -9.7479e+01  9.6353e+01 +/- 0.0000e+00 0.0000e+00 0.0000e+00 [bar]
Ideal-gas pressure:   5.091805e+02 +/ 0.000000e+00 [bar]
Excess pressure:     -4.544598e+02 +/ 0.000000e+00 [bar]
Pressure:             5.472071e+01 +/ 0.000000e+00 [bar]

Total potential energy/kʙ  -2.306806e+05 (-2.338051e+05 +/- 0.000000e+00) [K]
-------------------------------------------------------------------------------
ExternalField-molecule
    Van der Waals/kʙ        0.000000e+00 ( 0.000000e+00 +/- 0.000000e+00) [K]
Framework-molecule
    Van der Waals/kʙ        0.000000e+00 ( 0.000000e+00 +/- 0.000000e+00) [K]
    Van der Waals (Tail)/kʙ 0.000000e+00 ( 0.000000e+00 +/- 0.000000e+00) [K]
    Coulombic Real/kʙ       0.000000e+00 ( 0.000000e+00 +/- 0.000000e+00) [K]
    Coulombic Fourier/kʙ    0.000000e+00 ( 0.000000e+00 +/- 0.000000e+00) [K]
Molecule-molecule
    Van der Waals/kʙ       -1.643869e+05 (-1.664349e+05 +/- 0.000000e+00) [K]
    Van der Waals (Tail)/kʙ-6.913389e+03 (-7.100757e+03 +/- 0.000000e+00) [K]
    Coulombic Real/kʙ      -4.725324e+04 (-4.829044e+04 +/- 0.000000e+00) [K]
    Coulombic Fourier/kʙ   -1.212709e+04 (-1.197897e+04 +/- 0.000000e+00) [K]
    Molecule Intra/kʙ       0.000000e+00 ( 0.000000e+00 +/- 0.000000e+00) [K]

Current cycle: 400 out of 5000
===============================================================================

Box:      21.55135   0.00000   0.00000  Average:  21.67741   0.00000   0.00000
           0.00000  21.55135   0.00000             0.00000  21.67741   0.00000
           0.00000   0.00000  21.55135             0.00000   0.00000  21.67741
Lengths:  21.55135  21.55135  21.55135  Average:  21.67741  21.67741  21.67741
Angles:   90.00000  90.00000  90.00000  Average:  90.00000  90.00000  90.00000
Rectangular boundary conditions

net charge:   0.00000000

component 0 (CO2) lambda:  0 occupancy:  1 (1.000000)
    net charge:   0.00000000 [e]

Amount of molecules per component :
-------------------------------------------------------------------------------
Component 0 (CO2)
    molecules:      1.500000e+02 molecules  (1.500000e+02 +/- 0.000000e+00)
    number density: 1.498538e-02 molec./A^3 (1.473022e-02 +/- 0.000000e+00)
    density:        1.094858e+03 kg/m^3     (1.076215e+03 +/- 0.000000e+00)

Average pressure tensor: 
-------------------------------------------------------------------------------
 5.8802e+01 -2.0568e+01 -2.4024e+01 +/- 0.0000e+00 0.0000e+00 0.0000e+00 [bar]
-2.0568e+01 -2.2543e+01 -9.8769e+01 +/- 0.0000e+00 0.0000e+00 0.0000e+00 [bar]
-2.4024e+01 -9.8769e+01  1.5434e+02 +/- 0.0000e+00 0.0000e+00 0.0000e+00 [bar]
Ideal-gas pressure:   5.084322e+02 +/ 0.000000e+00 [bar]
Excess pressure:     -4.448995e+02 +/ 0.000000e+00 [bar]
Pressure:             6.353276e+01 +/ 0.000000e+00 [bar]

Total potential energy/kʙ  -2.407311e+05 (-2.336405e+05 +/- 0.000000e+00) [K]
-------------------------------------------------------------------------------
ExternalField-molecule
    Van der Waals/kʙ        0.000000e+00 ( 0.000000e+00 +/- 0.000000e+00) [K]
Framework-molecule
    Van der Waals/kʙ        0.000000e+00 ( 0.000000e+00 +/- 0.000000e+00) [K]
    Van der Waals (Tail)/kʙ 0.000000e+00 ( 0.000000e+00 +/- 0.000000e+00) [K]
    Coulombic Real/kʙ       0.000000e+00 ( 0.000000e+00 +/- 0.000000e+00) [K]
    Coulombic Fourier/kʙ    0.000000e+00 ( 0.000000e+00 +/- 0.000000e+00) [K]
Molecule-molecule
    Van der Waals/kʙ       -1.682694e+05 (-1.660035e+05 +/- 0.000000e+00) [K]
    Van der Waals (Tail)/kʙ-7.212199e+03 (-7.092193e+03 +/- 0.000000e+00) [K]
    Coulombic Real/kʙ      -5.362701e+04 (-4.866821e+04 +/- 0.000000e+00) [K]
    Coulombic Fourier/kʙ   -1.162247e+04 (-1.187661e+04 +/- 0.000000e+00) [K]
    Molecule Intra/kʙ       0.000000e+00 ( 0.000000e+00 +/- 0.000000e+00) [K]

Current cycle: 500 out of 5000
===============================================================================

Box:      21.40181   0.00000   0.00000  Average:  21.62758   0.00000   0.00000
           0.00000  21.40181   0.00000             0.00000  21.62758   0.00000
           0.00000   0.00000  21.40181             0.00000   0.00000  21.62758
Lengths:  21.40181  21.40181  21.40181  Average:  21.62758  21.62758  21.62758
Angles:   90.00000  90.00000  90.00000  Average:  90.00000  90.00000  90.00000
Rectangular boundary conditions

net charge:   0.00000000

component 0 (CO2) lambda:  0 occupancy:  1 (1.000000)
    net charge:   0.00000000 [e]

Amount of molecules per component :
-------------------------------------------------------------------------------
Component 0 (CO2)
    molecules:      1.500000e+02 molecules  (1.500000e+02 +/- 0.000000e+00)
    number density: 1.530169e-02 molec./A^3 (1.483351e-02 +/- 0.000000e+00)
    density:        1.117968e+03 kg/m^3     (1.083762e+03 +/- 0.000000e+00)

Average pressure tensor: 
-------------------------------------------------------------------------------
 6.9038e+01  1.9742e+01  4.7827e+00 +/- 0.0000e+00 0.0000e+00 0.0000e+00 [bar]
 1.9742e+01  1.6935e+01 -8.8815e+01 +/- 0.0000e+00 0.0000e+00 0.0000e+00 [bar]
 4.7827e+00 -8.8815e+01  2.0245e+02 +/- 0.0000e+00 0.0000e+00 0.0000e+00 [bar]
Ideal-gas pressure:   5.119974e+02 +/ 0.000000e+00 [bar]
Excess pressure:     -4.158553e+02 +/ 0.000000e+00 [bar]
Pressure:             9.614211e+01 +/ 0.000000e+00 [bar]

Total potential energy/kʙ  -2.421468e+05 (-2.357896e+05 +/- 0.000000e+00) [K]
-------------------------------------------------------------------------------
ExternalField-molecule
    Van der Waals/kʙ        0.000000e+00 ( 0.000000e+00 +/- 0.000000e+00) [K]
Framework-molecule
    Van der Waals/kʙ        0.000000e+00 ( 0.000000e+00 +/- 0.000000e+00) [K]
    Van der Waals (Tail)/kʙ 0.000000e+00 ( 0.000000e+00 +/- 0.000000e+00) [K]
    Coulombic Real/kʙ       0.000000e+00 ( 0.000000e+00 +/- 0.000000e+00) [K]
    Coulombic Fourier/kʙ    0.000000e+00 ( 0.000000e+00 +/- 0.000000e+00) [K]
Molecule-molecule
    Van der Waals/kʙ       -1.725139e+05 (-1.671213e+05 +/- 0.000000e+00) [K]
    Van der Waals (Tail)/kʙ-7.364435e+03 (-7.144989e+03 +/- 0.000000e+00) [K]
    Coulombic Real/kʙ      -5.025677e+04 (-4.956685e+04 +/- 0.000000e+00) [K]
    Coulombic Fourier/kʙ   -1.201173e+04 (-1.195644e+04 +/- 0.000000e+00) [K]
    Molecule Intra/kʙ       0.000000e+00 ( 0.000000e+00 +/- 0.000000e+00) [K]

Current cycle: 600 out of 5000
===============================================================================

Box:      21.73068   0.00000   0.00000  Average:  21.59862   0.00000   0.00000
           0.00000  21.73068   0.00000             0.00000  21.59862   0.00000
           0.00000   0.00000  21.73068             0.00000   0.00000  21.59862
Lengths:  21.73068  21.73068  21.73068  Average:  21.59862  21.59862  21.59862
Angles:   90.00000  90.00000  90.00000  Average:  90.00000  90.00000  90.00000
Rectangular boundary conditions

net charge:   0.00000000

component 0 (CO2) lambda:  0 occupancy:  1 (1.000000)
    net charge:   0.00000000 [e]

Amount of molecules per component :
-------------------------------------------------------------------------------
Component 0 (CO2)
    molecules:      1.500000e+02 molecules  (1.500000e+02 +/- 0.000000e+00)
    number density: 1.461743e-02 molec./A^3 (1.489366e-02 +/- 0.000000e+00)
    density:        1.067975e+03 kg/m^3     (1.088156e+03 +/- 0.000000e+00)

Average pressure tensor: 
-------------------------------------------------------------------------------
 1.4017e+02  2.2747e+01  4.4521e+01 +/- 0.0000e+00 0.0000e+00 0.0000e+00 [bar]
 2.2747e+01  7.6626e+00 -8.9289e+01 +/- 0.0000e+00 0.0000e+00 0.0000e+00 [bar]
 4.4521e+01 -8.9289e+01  1.6042e+02 +/- 0.0000e+00 0.0000e+00 0.0000e+00 [bar]
Ideal-gas pressure:   5.140734e+02 +/ 0.000000e+00 [bar]
Excess pressure:     -4.113222e+02 +/ 0.000000e+00 [bar]
Pressure:             1.027513e+02 +/ 0.000000e+00 [bar]

Total potential energy/kʙ  -2.313732e+05 (-2.369591e+05 +/- 0.000000e+00) [K]
-------------------------------------------------------------------------------
ExternalField-molecule
    Van der Waals/kʙ        0.000000e+00 ( 0.000000e+00 +/- 0.000000e+00) [K]
Framework-molecule
    Van der Waals/kʙ        0.000000e+00 ( 0.000000e+00 +/- 0.000000e+00) [K]
    Van der Waals (Tail)/kʙ 0.000000e+00 ( 0.000000e+00 +/- 0.000000e+00) [K]
    Coulombic Real/kʙ       0.000000e+00 ( 0.000000e+00 +/- 0.000000e+00) [K]
    Coulombic Fourier/kʙ    0.000000e+00 ( 0.000000e+00 +/- 0.000000e+00) [K]
Molecule-molecule
    Van der Waals/kʙ       -1.664599e+05 (-1.681110e+05 +/- 0.000000e+00) [K]
    Van der Waals (Tail)/kʙ-7.035112e+03 (-7.170440e+03 +/- 0.000000e+00) [K]
    Coulombic Real/kʙ      -4.663333e+04 (-4.970563e+04 +/- 0.000000e+00) [K]
    Coulombic Fourier/kʙ   -1.124492e+04 (-1.197196e+04 +/- 0.000000e+00) [K]
    Molecule Intra/kʙ       0.000000e+00 ( 0.000000e+00 +/- 0.000000e+00) [K]

Current cycle: 700 out of 5000
===============================================================================

Box:      21.52257   0.00000   0.00000  Average:  21.59637   0.00000   0.00000
           0.00000  21.52257   0.00000             0.00000  21.59637   0.00000
           0.00000   0.00000  21.52257             0.00000   0.00000  21.59637
Lengths:  21.52257  21.52257  21.52257  Average:  21.59637  21.59637  21.59637
Angles:   90.00000  90.00000  90.00000  Average:  90.00000  90.00000  90.00000
Rectangular boundary conditions

net charge:   0.00000000

component 0 (CO2) lambda:  0 occupancy:  1 (1.000000)
    net charge:   0.00000000 [e]

Amount of molecules per component :
-------------------------------------------------------------------------------
Component 0 (CO2)
    molecules:      1.500000e+02 molecules  (1.500000e+02 +/- 0.000000e+00)
    number density: 1.504558e-02 molec./A^3 (1.489766e-02 +/- 0.000000e+00)
    density:        1.099256e+03 kg/m^3     (1.088448e+03 +/- 0.000000e+00)

Average pressure tensor: 
-------------------------------------------------------------------------------
 1.3355e+02  4.1689e+01  3.1610e+01 +/- 0.0000e+00 0.0000e+00 0.0000e+00 [bar]
 4.1689e+01  2.6678e+01 -6.6541e+01 +/- 0.0000e+00 0.0000e+00 0.0000e+00 [bar]
 3.1610e+01 -6.6541e+01  1.2920e+02 +/- 0.0000e+00 0.0000e+00 0.0000e+00 [bar]
Ideal-gas pressure:   5.142114e+02 +/ 0.000000e+00 [bar]
Excess pressure:     -4.177349e+02 +/ 0.000000e+00 [bar]
Pressure:             9.647650e+01 +/ 0.000000e+00 [bar]

Total potential energy/kʙ  -2.404032e+05 (-2.368096e+05 +/- 0.000000e+00) [K]
-------------------------------------------------------------------------------
ExternalField-molecule
    Van der Waals/kʙ        0.000000e+00 ( 0.000000e+00 +/- 0.000000e+00) [K]
Framework-molecule
    Van der Waals/kʙ        0.000000e+00 ( 0.000000e+00 +/- 0.000000e+00) [K]
    Van der Waals (Tail)/kʙ 0.000000e+00 ( 0.000000e+00 +/- 0.000000e+00) [K]
    Coulombic Real/kʙ       0.000000e+00 ( 0.000000e+00 +/- 0.000000e+00) [K]
    Coulombic Fourier/kʙ    0.000000e+00 ( 0.000000e+00 +/- 0.000000e+00) [K]
Molecule-molecule
    Van der Waals/kʙ       -1.710408e+05 (-1.680348e+05 +/- 0.000000e+00) [K]
    Van der Waals (Tail)/kʙ-7.241174e+03 (-7.172027e+03 +/- 0.000000e+00) [K]
    Coulombic Real/kʙ      -4.965716e+04 (-4.958479e+04 +/- 0.000000e+00) [K]
    Coulombic Fourier/kʙ   -1.246402e+04 (-1.201795e+04 +/- 0.000000e+00) [K]
    Molecule Intra/kʙ       0.000000e+00 ( 0.000000e+00 +/- 0.000000e+00) [K]

Current cycle: 800 out of 5000
===============================================================================

Box:      21.51577   0.00000   0.00000  Average:  21.59597   0.00000   0.00000
           0.00000  21.51577   0.00000             0.00000  21.59597   0.00000
           0.00000   0.00000  21.51577             0.00000   0.00000  21.59597
Lengths:  21.51577  21.51577  21.51577  Average:  21.59597  21.59597  21.59597
Angles:   90.00000  90.00000  90.00000  Average:  90.00000  90.00000  90.00000
Rectangular boundary conditions

net charge:   0.00000000

component 0 (CO2) lambda:  0 occupancy:  1 (1.000000)
    net charge:   0.00000000 [e]

Amount of molecules per component :
-------------------------------------------------------------------------------
Component 0 (CO2)
    molecules:      1.500000e+02 molecules  (1.500000e+02 +/- 0.000000e+00)
    number density: 1.505985e-02 molec./A^3 (1.489795e-02 +/- 0.000000e+00)
    density:        1.100299e+03 kg/m^3     (1.088470e+03 +/- 0.000000e+00)

Average pressure tensor: 
-------------------------------------------------------------------------------
 9.4164e+01  5.1958e+01  3.0307e+01 +/- 0.0000e+00 0.0000e+00 0.0000e+00 [bar]
 5.1958e+01  1.6078e+01 -7.6081e+01 +/- 0.0000e+00 0.0000e+00 0.0000e+00 [bar]
 3.0307e+01 -7.6081e+01  1.3663e+02 +/- 0.0000e+00 0.0000e+00 0.0000e+00 [bar]
Ideal-gas pressure:   5.142215e+02 +/ 0.000000e+00 [bar]
Excess pressure:     -4.319310e+02 +/ 0.000000e+00 [bar]
Pressure:             8.229056e+01 +/ 0.000000e+00 [bar]

Total potential energy/kʙ  -2.348817e+05 (-2.364807e+05 +/- 0.000000e+00) [K]
-------------------------------------------------------------------------------
ExternalField-molecule
    Van der Waals/kʙ        0.000000e+00 ( 0.000000e+00 +/- 0.000000e+00) [K]
Framework-molecule
    Van der Waals/kʙ        0.000000e+00 ( 0.000000e+00 +/- 0.000000e+00) [K]
    Van der Waals (Tail)/kʙ 0.000000e+00 ( 0.000000e+00 +/- 0.000000e+00) [K]
    Coulombic Real/kʙ       0.000000e+00 ( 0.000000e+00 +/- 0.000000e+00) [K]
    Coulombic Fourier/kʙ    0.000000e+00 ( 0.000000e+00 +/- 0.000000e+00) [K]
Molecule-molecule
    Van der Waals/kʙ       -1.703683e+05 (-1.680125e+05 +/- 0.000000e+00) [K]
    Van der Waals (Tail)/kʙ-7.248042e+03 (-7.172017e+03 +/- 0.000000e+00) [K]
    Coulombic Real/kʙ      -4.585078e+04 (-4.926515e+04 +/- 0.000000e+00) [K]
    Coulombic Fourier/kʙ   -1.141458e+04 (-1.203106e+04 +/- 0.000000e+00) [K]
    Molecule Intra/kʙ       0.000000e+00 ( 0.000000e+00 +/- 0.000000e+00) [K]

Current cycle: 900 out of 5000
===============================================================================

Box:      21.37746   0.00000   0.00000  Average:  21.59491   0.00000   0.00000
           0.00000  21.37746   0.00000             0.00000  21.59491   0.00000
           0.00000   0.00000  21.37746             0.00000   0.00000  21.59491
Lengths:  21.37746  21.37746  21.37746  Average:  21.59491  21.59491  21.59491
Angles:   90.00000  90.00000  90.00000  Average:  90.00000  90.00000  90.00000
Rectangular boundary conditions

net charge:   0.00000000

component 0 (CO2) lambda:  0 occupancy:  1 (1.000000)
    net charge:   0.00000000 [e]

Amount of molecules per component :
-------------------------------------------------------------------------------
Component 0 (CO2)
    molecules:      1.500000e+02 molecules  (1.500000e+02 +/- 0.000000e+00)
    number density: 1.535406e-02 molec./A^3 (1.489985e-02 +/- 0.000000e+00)
    density:        1.121794e+03 kg/m^3     (1.088608e+03 +/- 0.000000e+00)

Average pressure tensor: 
-------------------------------------------------------------------------------
 7.8919e+01  5.4336e+01  3.6028e+01 +/- 0.0000e+00 0.0000e+00 0.0000e+00 [bar]
 5.4336e+01  6.0985e+00 -4.4995e+01 +/- 0.0000e+00 0.0000e+00 0.0000e+00 [bar]
 3.6028e+01 -4.4995e+01  1.2006e+02 +/- 0.0000e+00 0.0000e+00 0.0000e+00 [bar]
Ideal-gas pressure:   5.142869e+02 +/ 0.000000e+00 [bar]
Excess pressure:     -4.459290e+02 +/ 0.000000e+00 [bar]
Pressure:             6.835792e+01 +/ 0.000000e+00 [bar]

Total potential energy/kʙ  -2.479847e+05 (-2.363108e+05 +/- 0.000000e+00) [K]
-------------------------------------------------------------------------------
ExternalField-molecule
    Van der Waals/kʙ        0.000000e+00 ( 0.000000e+00 +/- 0.000000e+00) [K]
Framework-molecule
    Van der Waals/kʙ        0.000000e+00 ( 0.000000e+00 +/- 0.000000e+00) [K]
    Van der Waals (Tail)/kʙ 0.000000e+00 ( 0.000000e+00 +/- 0.000000e+00) [K]
    Coulombic Real/kʙ       0.000000e+00 ( 0.000000e+00 +/- 0.000000e+00) [K]
    Coulombic Fourier/kʙ    0.000000e+00 ( 0.000000e+00 +/- 0.000000e+00) [K]
Molecule-molecule
    Van der Waals/kʙ       -1.751806e+05 (-1.681478e+05 +/- 0.000000e+00) [K]
    Van der Waals (Tail)/kʙ-7.389636e+03 (-7.170056e+03 +/- 0.000000e+00) [K]
    Coulombic Real/kʙ      -5.455513e+04 (-4.908276e+04 +/- 0.000000e+00) [K]
    Coulombic Fourier/kʙ   -1.085929e+04 (-1.191015e+04 +/- 0.000000e+00) [K]
    Molecule Intra/kʙ       0.000000e+00 ( 0.000000e+00 +/- 0.000000e+00) [K]

Current cycle: 1000 out of 5000
===============================================================================

Box:      21.70000   0.00000   0.00000  Average:  21.59183   0.00000   0.00000
           0.00000  21.70000   0.00000             0.00000  21.59183   0.00000
           0.00000   0.00000  21.70000             0.00000   0.00000  21.59183
Lengths:  21.70000  21.70000  21.70000  Average:  21.59183  21.59183  21.59183
Angles:   90.00000  90.00000  90.00000  Average:  90.00000  90.00000  90.00000
Rectangular boundary conditions

net charge:   0.00000000

component 0 (CO2) lambda:  0 occupancy:  1 (1.000000)
    net charge:   0.00000000 [e]

Amount of molecules per component :
-------------------------------------------------------------------------------
Component 0 (CO2)
    molecules:      1.500000e+02 molecules  (1.500000e+02 +/- 0.000000e+00)
    number density: 1.467954e-02 molec./A^3 (1.490603e-02 +/- 0.000000e+00)
    density:        1.072512e+03 kg/m^3     (1.089060e+03 +/- 0.000000e+00)

Average pressure tensor: 
-------------------------------------------------------------------------------
 1.0706e+02  4.6035e+01  4.3511e+01 +/- 0.0000e+00 0.0000e+00 0.0000e+00 [bar]
 4.6035e+01  6.4844e+00 -1.3396e+01 +/- 0.0000e+00 0.0000e+00 0.0000e+00 [bar]
 4.3511e+01 -1.3396e+01  1.2914e+02 +/- 0.0000e+00 0.0000e+00 0.0000e+00 [bar]
Ideal-gas pressure:   5.145003e+02 +/ 0.000000e+00 [bar]
Excess pressure:     -4.336066e+02 +/ 0.000000e+00 [bar]
Pressure:             8.089370e+01 +/ 0.000000e+00 [bar]

Total potential energy/kʙ  -2.343161e+05 (-2.363451e+05 +/- 0.000000e+00) [K]
-------------------------------------------------------------------------------
ExternalField-molecule
    Van der Waals/kʙ        0.000000e+00 ( 0.000000e+00 +/- 0.000000e+00) [K]
Framework-molecule
    Van der Waals/kʙ        0.000000e+00 ( 0.000000e+00 +/- 0.000000e+00) [K]
    Van der Waals (Tail)/kʙ 0.000000e+00 ( 0.000000e+00 +/- 0.000000e+00) [K]
    Coulombic Real/kʙ       0.000000e+00 ( 0.000000e+00 +/- 0.000000e+00) [K]
    Coulombic Fourier/kʙ    0.000000e+00 ( 0.000000e+00 +/- 0.000000e+00) [K]
Molecule-molecule
    Van der Waals/kʙ       -1.668051e+05 (-1.682510e+05 +/- 0.000000e+00) [K]
    Van der Waals (Tail)/kʙ-7.065002e+03 (-7.171026e+03 +/- 0.000000e+00) [K]
    Coulombic Real/kʙ      -4.829005e+04 (-4.907063e+04 +/- 0.000000e+00) [K]
    Coulombic Fourier/kʙ   -1.215590e+04 (-1.185242e+04 +/- 0.000000e+00) [K]
    Molecule Intra/kʙ       0.000000e+00 ( 0.000000e+00 +/- 0.000000e+00) [K]

Current cycle: 1100 out of 5000
===============================================================================

Box:      21.67620   0.00000   0.00000  Average:  21.59647   0.00000   0.00000
           0.00000  21.67620   0.00000             0.00000  21.59647   0.00000
           0.00000   0.00000  21.67620             0.00000   0.00000  21.59647
Lengths:  21.67620  21.67620  21.67620  Average:  21.59647  21.59647  21.59647
Angles:   90.00000  90.00000  90.00000  Average:  90.00000  90.00000  90.00000
Rectangular boundary conditions

net charge:   0.00000000

component 0 (CO2) lambda:  0 occupancy:  1 (1.000000)
    net charge:   0.00000000 [e]

Amount of molecules per component :
-------------------------------------------------------------------------------
Component 0 (CO2)
    molecules:      1.500000e+02 molecules  (1.500000e+02 +/- 0.000000e+00)
    number density: 1.472794e-02 molec./A^3 (1.489620e-02 +/- 0.000000e+00)
    density:        1.076048e+03 kg/m^3     (1.088342e+03 +/- 0.000000e+00)

Average pressure tensor: 
-------------------------------------------------------------------------------
 1.0166e+02  6.5632e+01  3.5367e+01 +/- 0.0000e+00 0.0000e+00 0.0000e+00 [bar]
 6.5632e+01  1.4596e+01 -1.2279e+01 +/- 0.0000e+00 0.0000e+00 0.0000e+00 [bar]
 3.5367e+01 -1.2279e+01  1.2020e+02 +/- 0.0000e+00 0.0000e+00 0.0000e+00 [bar]
Ideal-gas pressure:   5.141610e+02 +/ 0.000000e+00 [bar]
Excess pressure:     -4.353428e+02 +/ 0.000000e+00 [bar]
Pressure:             7.881819e+01 +/ 0.000000e+00 [bar]

Total potential energy/kʙ  -2.272878e+05 (-2.362034e+05 +/- 0.000000e+00) [K]
-------------------------------------------------------------------------------
ExternalField-molecule
    Van der Waals/kʙ        0.000000e+00 ( 0.000000e+00 +/- 0.000000e+00) [K]
Framework-molecule
    Van der Waals/kʙ        0.000000e+00 ( 0.000000e+00 +/- 0.000000e+00) [K]
    Van der Waals (Tail)/kʙ 0.000000e+00 ( 0.000000e+00 +/- 0.000000e+00) [K]
    Coulombic Real/kʙ       0.000000e+00 ( 0.000000e+00 +/- 0.000000e+00) [K]
    Coulombic Fourier/kʙ    0.000000e+00 ( 0.000000e+00 +/- 0.000000e+00) [K]
Molecule-molecule
    Van der Waals/kʙ       -1.648181e+05 (-1.681855e+05 +/- 0.000000e+00) [K]
    Van der Waals (Tail)/kʙ-7.088296e+03 (-7.167019e+03 +/- 0.000000e+00) [K]
    Coulombic Real/kʙ      -4.428240e+04 (-4.900681e+04 +/- 0.000000e+00) [K]
    Coulombic Fourier/kʙ   -1.109894e+04 (-1.184408e+04 +/- 0.000000e+00) [K]
    Molecule Intra/kʙ       0.000000e+00 ( 0.000000e+00 +/- 0.000000e+00) [K]

Current cycle: 1200 out of 5000
===============================================================================

Box:      22.03753   0.00000   0.00000  Average:  21.62029   0.00000   0.00000
           0.00000  22.03753   0.00000             0.00000  21.62029   0.00000
           0.00000   0.00000  22.03753             0.00000   0.00000  21.62029
Lengths:  22.03753  22.03753  22.03753  Average:  21.62029  21.62029  21.62029
Angles:   90.00000  90.00000  90.00000  Average:  90.00000  90.00000  90.00000
Rectangular boundary conditions

net charge:   0.00000000

component 0 (CO2) lambda:  0 occupancy:  1 (1.000000)
    net charge:   0.00000000 [e]

Amount of molecules per component :
-------------------------------------------------------------------------------
Component 0 (CO2)
    molecules:      1.500000e+02 molecules  (1.500000e+02 +/- 0.000000e+00)
    number density: 1.401530e-02 molec./A^3 (1.484813e-02 +/- 0.000000e+00)
    density:        1.023982e+03 kg/m^3     (1.084830e+03 +/- 0.000000e+00)

Average pressure tensor: 
-------------------------------------------------------------------------------
 1.0012e+02  5.4811e+01  1.3663e+01 +/- 0.0000e+00 0.0000e+00 0.0000e+00 [bar]
 5.4811e+01  1.0007e+01 -2.0436e+01 +/- 0.0000e+00 0.0000e+00 0.0000e+00 [bar]
 1.3663e+01 -2.0436e+01  1.1752e+02 +/- 0.0000e+00 0.0000e+00 0.0000e+00 [bar]
Ideal-gas pressure:   5.125018e+02 +/ 0.000000e+00 [bar]
Excess pressure:     -4.366184e+02 +/ 0.000000e+00 [bar]
Pressure:             7.588334e+01 +/ 0.000000e+00 [bar]

Total potential energy/kʙ  -2.253213e+05 (-2.353759e+05 +/- 0.000000e+00) [K]
-------------------------------------------------------------------------------
ExternalField-molecule
    Van der Waals/kʙ        0.000000e+00 ( 0.000000e+00 +/- 0.000000e+00) [K]
Framework-molecule
    Van der Waals/kʙ        0.000000e+00 ( 0.000000e+00 +/- 0.000000e+00) [K]
    Van der Waals (Tail)/kʙ 0.000000e+00 ( 0.000000e+00 +/- 0.000000e+00) [K]
    Coulombic Real/kʙ       0.000000e+00 ( 0.000000e+00 +/- 0.000000e+00) [K]
    Coulombic Fourier/kʙ    0.000000e+00 ( 0.000000e+00 +/- 0.000000e+00) [K]
Molecule-molecule
    Van der Waals/kʙ       -1.592450e+05 (-1.675892e+05 +/- 0.000000e+00) [K]
    Van der Waals (Tail)/kʙ-6.745315e+03 (-7.141619e+03 +/- 0.000000e+00) [K]
    Coulombic Real/kʙ      -4.810891e+04 (-4.883387e+04 +/- 0.000000e+00) [K]
    Coulombic Fourier/kʙ   -1.122205e+04 (-1.181120e+04 +/- 0.000000e+00) [K]
    Molecule Intra/kʙ       0.000000e+00 ( 0.000000e+00 +/- 0.000000e+00) [K]

Current cycle: 1300 out of 5000
===============================================================================

Box:      21.79423   0.00000   0.00000  Average:  21.64525   0.00000   0.00000
           0.00000  21.79423   0.00000             0.00000  21.64525   0.00000
           0.00000   0.00000  21.79423             0.00000   0.00000  21.64525
Lengths:  21.79423  21.79423  21.79423  Average:  21.64525  21.64525  21.64525
Angles:   90.00000  90.00000  90.00000  Average:  90.00000  90.00000  90.00000
Rectangular boundary conditions

net charge:   0.00000000

component 0 (CO2) lambda:  0 occupancy:  1 (1.000000)
    net charge:   0.00000000 [e]

Amount of molecules per component :
-------------------------------------------------------------------------------
Component 0 (CO2)
    molecules:      1.500000e+02 molecules  (1.500000e+02 +/- 0.000000e+00)
    number density: 1.448994e-02 molec./A^3 (1.479790e-02 +/- 0.000000e+00)
    density:        1.058660e+03 kg/m^3     (1.081160e+03 +/- 0.000000e+00)

Average pressure tensor: 
-------------------------------------------------------------------------------
 7.2123e+01  3.9962e+01  1.7699e+01 +/- 0.0000e+00 0.0000e+00 0.0000e+00 [bar]
 3.9962e+01  2.4064e+00 -1.1963e+01 +/- 0.0000e+00 0.0000e+00 0.0000e+00 [bar]
 1.7699e+01 -1.1963e+01  1.0719e+02 +/- 0.0000e+00 0.0000e+00 0.0000e+00 [bar]
Ideal-gas pressure:   5.107681e+02 +/ 0.000000e+00 [bar]
Excess pressure:     -4.501963e+02 +/ 0.000000e+00 [bar]
Pressure:             6.057184e+01 +/ 0.000000e+00 [bar]

Total potential energy/kʙ  -2.262025e+05 (-2.346693e+05 +/- 0.000000e+00) [K]
-------------------------------------------------------------------------------
ExternalField-molecule
    Van der Waals/kʙ        0.000000e+00 ( 0.000000e+00 +/- 0.000000e+00) [K]
Framework-molecule
    Van der Waals/kʙ        0.000000e+00 ( 0.000000e+00 +/- 0.000000e+00) [K]
    Van der Waals (Tail)/kʙ 0.000000e+00 ( 0.000000e+00 +/- 0.000000e+00) [K]
    Coulombic Real/kʙ       0.000000e+00 ( 0.000000e+00 +/- 0.000000e+00) [K]
    Coulombic Fourier/kʙ    0.000000e+00 ( 0.000000e+00 +/- 0.000000e+00) [K]
Molecule-molecule
    Van der Waals/kʙ       -1.653791e+05 (-1.672844e+05 +/- 0.000000e+00) [K]
    Van der Waals (Tail)/kʙ-6.973751e+03 (-7.118711e+03 +/- 0.000000e+00) [K]
    Coulombic Real/kʙ      -4.398792e+04 (-4.856073e+04 +/- 0.000000e+00) [K]
    Coulombic Fourier/kʙ   -9.861790e+03 (-1.170546e+04 +/- 0.000000e+00) [K]
    Molecule Intra/kʙ       0.000000e+00 ( 0.000000e+00 +/- 0.000000e+00) [K]

Current cycle: 1400 out of 5000
===============================================================================

Box:      22.33436   0.00000   0.00000  Average:  21.68121   0.00000   0.00000
           0.00000  22.33436   0.00000             0.00000  21.68121   0.00000
           0.00000   0.00000  22.33436             0.00000   0.00000  21.68121
Lengths:  22.33436  22.33436  22.33436  Average:  21.68121  21.68121  21.68121
Angles:   90.00000  90.00000  90.00000  Average:  90.00000  90.00000  90.00000
Rectangular boundary conditions

net charge:   0.00000000

component 0 (CO2) lambda:  0 occupancy:  1 (1.000000)
    net charge:   0.00000000 [e]

Amount of molecules per component :
-------------------------------------------------------------------------------
Component 0 (CO2)
    molecules:      1.500000e+02 molecules  (1.500000e+02 +/- 0.000000e+00)
    number density: 1.346389e-02 molec./A^3 (1.472716e-02 +/- 0.000000e+00)
    density:        9.836950e+02 kg/m^3     (1.075991e+03 +/- 0.000000e+00)

Average pressure tensor: 
-------------------------------------------------------------------------------
 5.9496e+01  2.9472e+01  1.6860e+01 +/- 0.0000e+00 0.0000e+00 0.0000e+00 [bar]
 2.9472e+01  1.0844e+01 -1.7026e+01 +/- 0.0000e+00 0.0000e+00 0.0000e+00 [bar]
 1.6860e+01 -1.7026e+01  1.0420e+02 +/- 0.0000e+00 0.0000e+00 0.0000e+00 [bar]
Ideal-gas pressure:   5.083264e+02 +/ 0.000000e+00 [bar]
Excess pressure:     -4.501450e+02 +/ 0.000000e+00 [bar]
Pressure:             5.818142e+01 +/ 0.000000e+00 [bar]

Total potential energy/kʙ  -2.111151e+05 (-2.333610e+05 +/- 0.000000e+00) [K]
-------------------------------------------------------------------------------
ExternalField-molecule
    Van der Waals/kʙ        0.000000e+00 ( 0.000000e+00 +/- 0.000000e+00) [K]
Framework-molecule
    Van der Waals/kʙ        0.000000e+00 ( 0.000000e+00 +/- 0.000000e+00) [K]
    Van der Waals (Tail)/kʙ 0.000000e+00 ( 0.000000e+00 +/- 0.000000e+00) [K]
    Coulombic Real/kʙ       0.000000e+00 ( 0.000000e+00 +/- 0.000000e+00) [K]
    Coulombic Fourier/kʙ    0.000000e+00 ( 0.000000e+00 +/- 0.000000e+00) [K]
Molecule-molecule
    Van der Waals/kʙ       -1.485399e+05 (-1.663908e+05 +/- 0.000000e+00) [K]
    Van der Waals (Tail)/kʙ-6.479934e+03 (-7.084489e+03 +/- 0.000000e+00) [K]
    Coulombic Real/kʙ      -4.402201e+04 (-4.820986e+04 +/- 0.000000e+00) [K]
    Coulombic Fourier/kʙ   -1.207324e+04 (-1.167585e+04 +/- 0.000000e+00) [K]
    Molecule Intra/kʙ       0.000000e+00 ( 0.000000e+00 +/- 0.000000e+00) [K]

Current cycle: 1500 out of 5000
===============================================================================

Box:      21.76997   0.00000   0.00000  Average:  21.70412   0.00000   0.00000
           0.00000  21.76997   0.00000             0.00000  21.70412   0.00000
           0.00000   0.00000  21.76997             0.00000   0.00000  21.70412
Lengths:  21.76997  21.76997  21.76997  Average:  21.70412  21.70412  21.70412
Angles:   90.00000  90.00000  90.00000  Average:  90.00000  90.00000  90.00000
Rectangular boundary conditions

net charge:   0.00000000

component 0 (CO2) lambda:  0 occupancy:  1 (1.000000)
    net charge:   0.00000000 [e]

Amount of molecules per component :
-------------------------------------------------------------------------------
Component 0 (CO2)
    molecules:      1.500000e+02 molecules  (1.500000e+02 +/- 0.000000e+00)
    number density: 1.453843e-02 molec./A^3 (1.468155e-02 +/- 0.000000e+00)
    density:        1.062203e+03 kg/m^3     (1.072659e+03 +/- 0.000000e+00)

Average pressure tensor: 
-------------------------------------------------------------------------------
 6.1127e+01  2.3044e+01  1.4179e+01 +/- 0.0000e+00 0.0000e+00 0.0000e+00 [bar]
 2.3044e+01  3.0950e+00 -1.2265e+01 +/- 0.0000e+00 0.0000e+00 0.0000e+00 [bar]
 1.4179e+01 -1.2265e+01  1.0029e+02 +/- 0.0000e+00 0.0000e+00 0.0000e+00 [bar]
Ideal-gas pressure:   5.067521e+02 +/ 0.000000e+00 [bar]
Excess pressure:     -4.519131e+02 +/ 0.000000e+00 [bar]
Pressure:             5.483904e+01 +/ 0.000000e+00 [bar]

Total potential energy/kʙ  -2.271653e+05 (-2.325098e+05 +/- 0.000000e+00) [K]
-------------------------------------------------------------------------------
ExternalField-molecule
    Van der Waals/kʙ        0.000000e+00 ( 0.000000e+00 +/- 0.000000e+00) [K]
Framework-molecule
    Van der Waals/kʙ        0.000000e+00 ( 0.000000e+00 +/- 0.000000e+00) [K]
    Van der Waals (Tail)/kʙ 0.000000e+00 ( 0.000000e+00 +/- 0.000000e+00) [K]
    Coulombic Real/kʙ       0.000000e+00 ( 0.000000e+00 +/- 0.000000e+00) [K]
    Coulombic Fourier/kʙ    0.000000e+00 ( 0.000000e+00 +/- 0.000000e+00) [K]
Molecule-molecule
    Van der Waals/kʙ       -1.614778e+05 (-1.658252e+05 +/- 0.000000e+00) [K]
    Van der Waals (Tail)/kʙ-6.997092e+03 (-7.064325e+03 +/- 0.000000e+00) [K]
    Coulombic Real/kʙ      -4.693018e+04 (-4.794212e+04 +/- 0.000000e+00) [K]
    Coulombic Fourier/kʙ   -1.176019e+04 (-1.167818e+04 +/- 0.000000e+00) [K]
    Molecule Intra/kʙ       0.000000e+00 ( 0.000000e+00 +/- 0.000000e+00) [K]

Current cycle: 1600 out of 5000
===============================================================================

Box:      21.78940   0.00000   0.00000  Average:  21.70608   0.00000   0.00000
           0.00000  21.78940   0.00000             0.00000  21.70608   0.00000
           0.00000   0.00000  21.78940             0.00000   0.00000  21.70608
Lengths:  21.78940  21.78940  21.78940  Average:  21.70608  21.70608  21.70608
Angles:   90.00000  90.00000  90.00000  Average:  90.00000  90.00000  90.00000
Rectangular boundary conditions

net charge:   0.00000000

component 0 (CO2) lambda:  0 occupancy:  1 (1.000000)
    net charge:   0.00000000 [e]

Amount of molecules per component :
-------------------------------------------------------------------------------
Component 0 (CO2)
    molecules:      1.500000e+02 molecules  (1.500000e+02 +/- 0.000000e+00)
    number density: 1.449957e-02 molec./A^3 (1.467703e-02 +/- 0.000000e+00)
    density:        1.059364e+03 kg/m^3     (1.072329e+03 +/- 0.000000e+00)

Average pressure tensor: 
-------------------------------------------------------------------------------
 4.8581e+01  2.9158e+01  1.6389e+01 +/- 0.0000e+00 0.0000e+00 0.0000e+00 [bar]
 2.9158e+01 -8.1027e+00 -1.1240e+01 +/- 0.0000e+00 0.0000e+00 0.0000e+00 [bar]
 1.6389e+01 -1.1240e+01  1.0055e+02 +/- 0.0000e+00 0.0000e+00 0.0000e+00 [bar]
Ideal-gas pressure:   5.065962e+02 +/ 0.000000e+00 [bar]
Excess pressure:     -4.595876e+02 +/ 0.000000e+00 [bar]
Pressure:             4.700863e+01 +/ 0.000000e+00 [bar]

Total potential energy/kʙ  -2.341824e+05 (-2.325517e+05 +/- 0.000000e+00) [K]
-------------------------------------------------------------------------------
ExternalField-molecule
    Van der Waals/kʙ        0.000000e+00 ( 0.000000e+00 +/- 0.000000e+00) [K]
Framework-molecule
    Van der Waals/kʙ        0.000000e+00 ( 0.000000e+00 +/- 0.000000e+00) [K]
    Van der Waals (Tail)/kʙ 0.000000e+00 ( 0.000000e+00 +/- 0.000000e+00) [K]
    Coulombic Real/kʙ       0.000000e+00 ( 0.000000e+00 +/- 0.000000e+00) [K]
    Coulombic Fourier/kʙ    0.000000e+00 ( 0.000000e+00 +/- 0.000000e+00) [K]
Molecule-molecule
    Van der Waals/kʙ       -1.679810e+05 (-1.658487e+05 +/- 0.000000e+00) [K]
    Van der Waals (Tail)/kʙ-6.978388e+03 (-7.062175e+03 +/- 0.000000e+00) [K]
    Coulombic Real/kʙ      -4.679425e+04 (-4.793843e+04 +/- 0.000000e+00) [K]
    Coulombic Fourier/kʙ   -1.242876e+04 (-1.170239e+04 +/- 0.000000e+00) [K]
    Molecule Intra/kʙ       0.000000e+00 ( 0.000000e+00 +/- 0.000000e+00) [K]

Current cycle: 1700 out of 5000
===============================================================================

Box:      21.83885   0.00000   0.00000  Average:  21.71217   0.00000   0.00000
           0.00000  21.83885   0.00000             0.00000  21.71217   0.00000
           0.00000   0.00000  21.83885             0.00000   0.00000  21.71217
Lengths:  21.83885  21.83885  21.83885  Average:  21.71217  21.71217  21.71217
Angles:   90.00000  90.00000  90.00000  Average:  90.00000  90.00000  90.00000
Rectangular boundary conditions

net charge:   0.00000000

component 0 (CO2) lambda:  0 occupancy:  1 (1.000000)
    net charge:   0.00000000 [e]

Amount of molecules per component :
-------------------------------------------------------------------------------
Component 0 (CO2)
    molecules:      1.500000e+02 molecules  (1.500000e+02 +/- 0.000000e+00)
    number density: 1.440131e-02 molec./A^3 (1.466431e-02 +/- 0.000000e+00)
    density:        1.052185e+03 kg/m^3     (1.071399e+03 +/- 0.000000e+00)

Average pressure tensor: 
-------------------------------------------------------------------------------
 4.7846e+01  3.3389e+01  2.3737e+01 +/- 0.0000e+00 0.0000e+00 0.0000e+00 [bar]
 3.3389e+01 -1.0035e+01 -1.1623e+01 +/- 0.0000e+00 0.0000e+00 0.0000e+00 [bar]
 2.3737e+01 -1.1623e+01  7.5623e+01 +/- 0.0000e+00 0.0000e+00 0.0000e+00 [bar]
Ideal-gas pressure:   5.061570e+02 +/ 0.000000e+00 [bar]
Excess pressure:     -4.683458e+02 +/ 0.000000e+00 [bar]
Pressure:             3.781117e+01 +/ 0.000000e+00 [bar]

Total potential energy/kʙ  -2.301658e+05 (-2.322755e+05 +/- 0.000000e+00) [K]
-------------------------------------------------------------------------------
ExternalField-molecule
    Van der Waals/kʙ        0.000000e+00 ( 0.000000e+00 +/- 0.000000e+00) [K]
Framework-molecule
    Van der Waals/kʙ        0.000000e+00 ( 0.000000e+00 +/- 0.000000e+00) [K]
    Van der Waals (Tail)/kʙ 0.000000e+00 ( 0.000000e+00 +/- 0.000000e+00) [K]
    Coulombic Real/kʙ       0.000000e+00 ( 0.000000e+00 +/- 0.000000e+00) [K]
    Coulombic Fourier/kʙ    0.000000e+00 ( 0.000000e+00 +/- 0.000000e+00) [K]
Molecule-molecule
    Van der Waals/kʙ       -1.669429e+05 (-1.657807e+05 +/- 0.000000e+00) [K]
    Van der Waals (Tail)/kʙ-6.931098e+03 (-7.055030e+03 +/- 0.000000e+00) [K]
    Coulombic Real/kʙ      -4.434523e+04 (-4.775178e+04 +/- 0.000000e+00) [K]
    Coulombic Fourier/kʙ   -1.194656e+04 (-1.168791e+04 +/- 0.000000e+00) [K]
    Molecule Intra/kʙ       0.000000e+00 ( 0.000000e+00 +/- 0.000000e+00) [K]

Current cycle: 1800 out of 5000
===============================================================================

Box:      21.77791   0.00000   0.00000  Average:  21.71356   0.00000   0.00000
           0.00000  21.77791   0.00000             0.00000  21.71356   0.00000
           0.00000   0.00000  21.77791             0.00000   0.00000  21.71356
Lengths:  21.77791  21.77791  21.77791  Average:  21.71356  21.71356  21.71356
Angles:   90.00000  90.00000  90.00000  Average:  90.00000  90.00000  90.00000
Rectangular boundary conditions

net charge:   0.00000000

component 0 (CO2) lambda:  0 occupancy:  1 (1.000000)
    net charge:   0.00000000 [e]

Amount of molecules per component :
-------------------------------------------------------------------------------
Component 0 (CO2)
    molecules:      1.500000e+02 molecules  (1.500000e+02 +/- 0.000000e+00)
    number density: 1.452254e-02 molec./A^3 (1.466109e-02 +/- 0.000000e+00)
    density:        1.061042e+03 kg/m^3     (1.071165e+03 +/- 0.000000e+00)

Average pressure tensor: 
-------------------------------------------------------------------------------
 6.3585e+01  3.9892e+01  1.8612e+01 +/- 0.0000e+00 0.0000e+00 0.0000e+00 [bar]
 3.9892e+01 -2.4158e+00 -7.0501e+00 +/- 0.0000e+00 0.0000e+00 0.0000e+00 [bar]
 1.8612e+01 -7.0501e+00  6.6812e+01 +/- 0.0000e+00 0.0000e+00 0.0000e+00 [bar]
Ideal-gas pressure:   5.060461e+02 +/ 0.000000e+00 [bar]
Excess pressure:     -4.633855e+02 +/ 0.000000e+00 [bar]
Pressure:             4.266051e+01 +/ 0.000000e+00 [bar]

Total potential energy/kʙ  -2.334512e+05 (-2.322116e+05 +/- 0.000000e+00) [K]
-------------------------------------------------------------------------------
ExternalField-molecule
    Van der Waals/kʙ        0.000000e+00 ( 0.000000e+00 +/- 0.000000e+00) [K]
Framework-molecule
    Van der Waals/kʙ        0.000000e+00 ( 0.000000e+00 +/- 0.000000e+00) [K]
    Van der Waals (Tail)/kʙ 0.000000e+00 ( 0.000000e+00 +/- 0.000000e+00) [K]
    Coulombic Real/kʙ       0.000000e+00 ( 0.000000e+00 +/- 0.000000e+00) [K]
    Coulombic Fourier/kʙ    0.000000e+00 ( 0.000000e+00 +/- 0.000000e+00) [K]
Molecule-molecule
    Van der Waals/kʙ       -1.665632e+05 (-1.656561e+05 +/- 0.000000e+00) [K]
    Van der Waals (Tail)/kʙ-6.989443e+03 (-7.054531e+03 +/- 0.000000e+00) [K]
    Coulombic Real/kʙ      -4.778479e+04 (-4.777415e+04 +/- 0.000000e+00) [K]
    Coulombic Fourier/kʙ   -1.211375e+04 (-1.172691e+04 +/- 0.000000e+00) [K]
    Molecule Intra/kʙ       0.000000e+00 ( 0.000000e+00 +/- 0.000000e+00) [K]

Current cycle: 1900 out of 5000
===============================================================================

Box:      21.97611   0.00000   0.00000  Average:  21.71063   0.00000   0.00000
           0.00000  21.97611   0.00000             0.00000  21.71063   0.00000
           0.00000   0.00000  21.97611             0.00000   0.00000  21.71063
Lengths:  21.97611  21.97611  21.97611  Average:  21.71063  21.71063  21.71063
Angles:   90.00000  90.00000  90.00000  Average:  90.00000  90.00000  90.00000
Rectangular boundary conditions

net charge:   0.00000000

component 0 (CO2) lambda:  0 occupancy:  1 (1.000000)
    net charge:   0.00000000 [e]

Amount of molecules per component :
-------------------------------------------------------------------------------
Component 0 (CO2)
    molecules:      1.500000e+02 molecules  (1.500000e+02 +/- 0.000000e+00)
    number density: 1.413315e-02 molec./A^3 (1.466673e-02 +/- 0.000000e+00)
    density:        1.032592e+03 kg/m^3     (1.071577e+03 +/- 0.000000e+00)

Average pressure tensor: 
-------------------------------------------------------------------------------
 6.0700e+01  4.8808e+01  2.1514e+01 +/- 0.0000e+00 0.0000e+00 0.0000e+00 [bar]
 4.8808e+01  5.9372e+00 -1.5493e+01 +/- 0.0000e+00 0.0000e+00 0.0000e+00 [bar]
 2.1514e+01 -1.5493e+01  6.4362e+01 +/- 0.0000e+00 0.0000e+00 0.0000e+00 [bar]
Ideal-gas pressure:   5.062407e+02 +/ 0.000000e+00 [bar]
Excess pressure:     -4.625743e+02 +/ 0.000000e+00 [bar]
Pressure:             4.366639e+01 +/ 0.000000e+00 [bar]

Total potential energy/kʙ  -2.274656e+05 (-2.322679e+05 +/- 0.000000e+00) [K]
-------------------------------------------------------------------------------
ExternalField-molecule
    Van der Waals/kʙ        0.000000e+00 ( 0.000000e+00 +/- 0.000000e+00) [K]
Framework-molecule
    Van der Waals/kʙ        0.000000e+00 ( 0.000000e+00 +/- 0.000000e+00) [K]
    Van der Waals (Tail)/kʙ 0.000000e+00 ( 0.000000e+00 +/- 0.000000e+00) [K]
    Coulombic Real/kʙ       0.000000e+00 ( 0.000000e+00 +/- 0.000000e+00) [K]
    Coulombic Fourier/kʙ    0.000000e+00 ( 0.000000e+00 +/- 0.000000e+00) [K]
Molecule-molecule
    Van der Waals/kʙ       -1.639503e+05 (-1.657805e+05 +/- 0.000000e+00) [K]
    Van der Waals (Tail)/kʙ-6.802035e+03 (-7.057605e+03 +/- 0.000000e+00) [K]
    Coulombic Real/kʙ      -4.468499e+04 (-4.769178e+04 +/- 0.000000e+00) [K]
    Coulombic Fourier/kʙ   -1.202828e+04 (-1.173804e+04 +/- 0.000000e+00) [K]
    Molecule Intra/kʙ       0.000000e+00 ( 0.000000e+00 +/- 0.000000e+00) [K]

Current cycle: 2000 out of 5000
===============================================================================

Box:      21.68526   0.00000   0.00000  Average:  21.71309   0.00000   0.00000
           0.00000  21.68526   0.00000             0.00000  21.71309   0.00000
           0.00000   0.00000  21.68526             0.00000   0.00000  21.71309
Lengths:  21.68526  21.68526  21.68526  Average:  21.71309  21.71309  21.71309
Angles:   90.00000  90.00000  90.00000  Average:  90.00000  90.00000  90.00000
Rectangular boundary conditions

net charge:   0.00000000

component 0 (CO2) lambda:  0 occupancy:  1 (1.000000)
    net charge:   0.00000000 [e]

Amount of molecules per component :
-------------------------------------------------------------------------------
Component 0 (CO2)
    molecules:      1.500000e+02 molecules  (1.500000e+02 +/- 0.000000e+00)
    number density: 1.470947e-02 molec./A^3 (1.466142e-02 +/- 0.000000e+00)
    density:        1.074699e+03 kg/m^3     (1.071188e+03 +/- 0.000000e+00)

Average pressure tensor: 
-------------------------------------------------------------------------------
 5.4013e+01  3.8550e+01  3.2789e+01 +/- 0.0000e+00 0.0000e+00 0.0000e+00 [bar]
 3.8550e+01  4.9329e+00 -1.6162e+01 +/- 0.0000e+00 0.0000e+00 0.0000e+00 [bar]
 3.2789e+01 -1.6162e+01  5.6547e+01 +/- 0.0000e+00 0.0000e+00 0.0000e+00 [bar]
Ideal-gas pressure:   5.060572e+02 +/ 0.000000e+00 [bar]
Excess pressure:     -4.675594e+02 +/ 0.000000e+00 [bar]
Pressure:             3.849779e+01 +/ 0.000000e+00 [bar]

Total potential energy/kʙ  -2.299078e+05 (-2.322042e+05 +/- 0.000000e+00) [K]
-------------------------------------------------------------------------------
ExternalField-molecule
    Van der Waals/kʙ        0.000000e+00 ( 0.000000e+00 +/- 0.000000e+00) [K]
Framework-molecule
    Van der Waals/kʙ        0.000000e+00 ( 0.000000e+00 +/- 0.000000e+00) [K]
    Van der Waals (Tail)/kʙ 0.000000e+00 ( 0.000000e+00 +/- 0.000000e+00) [K]
    Coulombic Real/kʙ       0.000000e+00 ( 0.000000e+00 +/- 0.000000e+00) [K]
    Coulombic Fourier/kʙ    0.000000e+00 ( 0.000000e+00 +/- 0.000000e+00) [K]
Molecule-molecule
    Van der Waals/kʙ       -1.616761e+05 (-1.657051e+05 +/- 0.000000e+00) [K]
    Van der Waals (Tail)/kʙ-7.079409e+03 (-7.055298e+03 +/- 0.000000e+00) [K]
    Coulombic Real/kʙ      -4.963245e+04 (-4.769663e+04 +/- 0.000000e+00) [K]
    Coulombic Fourier/kʙ   -1.151990e+04 (-1.174710e+04 +/- 0.000000e+00) [K]
    Molecule Intra/kʙ       0.000000e+00 ( 0.000000e+00 +/- 0.000000e+00) [K]

Current cycle: 2100 out of 5000
===============================================================================

Box:      21.96808   0.00000   0.00000  Average:  21.72351   0.00000   0.00000
           0.00000  21.96808   0.00000             0.00000  21.72351   0.00000
           0.00000   0.00000  21.96808             0.00000   0.00000  21.72351
Lengths:  21.96808  21.96808  21.96808  Average:  21.72351  21.72351  21.72351
Angles:   90.00000  90.00000  90.00000  Average:  90.00000  90.00000  90.00000
Rectangular boundary conditions

net charge:   0.00000000

component 0 (CO2) lambda:  0 occupancy:  1 (1.000000)
    net charge:   0.00000000 [e]

Amount of molecules per component :
-------------------------------------------------------------------------------
Component 0 (CO2)
    molecules:      1.500000e+02 molecules  (1.500000e+02 +/- 0.000000e+00)
    number density: 1.414865e-02 molec./A^3 (1.464056e-02 +/- 0.000000e+00)
    density:        1.033724e+03 kg/m^3     (1.069664e+03 +/- 0.000000e+00)

Average pressure tensor: 
-------------------------------------------------------------------------------
 5.3115e+01  4.0308e+01  2.1929e+01 +/- 0.0000e+00 0.0000e+00 0.0000e+00 [bar]
 4.0308e+01  1.2063e+01 -1.2273e+01 +/- 0.0000e+00 0.0000e+00 0.0000e+00 [bar]
 2.1929e+01 -1.2273e+01  5.5664e+01 +/- 0.0000e+00 0.0000e+00 0.0000e+00 [bar]
Ideal-gas pressure:   5.053372e+02 +/ 0.000000e+00 [bar]
Excess pressure:     -4.650564e+02 +/ 0.000000e+00 [bar]
Pressure:             4.028078e+01 +/ 0.000000e+00 [bar]

Total potential energy/kʙ  -2.211364e+05 (-2.317914e+05 +/- 0.000000e+00) [K]
-------------------------------------------------------------------------------
ExternalField-molecule
    Van der Waals/kʙ        0.000000e+00 ( 0.000000e+00 +/- 0.000000e+00) [K]
Framework-molecule
    Van der Waals/kʙ        0.000000e+00 ( 0.000000e+00 +/- 0.000000e+00) [K]
    Van der Waals (Tail)/kʙ 0.000000e+00 ( 0.000000e+00 +/- 0.000000e+00) [K]
[...]
    Coulombic Fourier/kʙ    0.000000e+00 ( 0.000000e+00 +/- 0.000000e+00) [K]
Molecule-molecule
    Van der Waals/kʙ       -1.697284e+05 (-1.635115e+05 +/- 3.640069e+03) [K]
    Van der Waals (Tail)/kʙ-7.394597e+03 (-6.973200e+03 +/- 1.483229e+02) [K]
    Coulombic Real/kʙ      -5.110272e+04 (-4.705012e+04 +/- 1.924651e+03) [K]
    Coulombic Fourier/kʙ   -1.184463e+04 (-1.162610e+04 +/- 3.261778e+02) [K]
    Molecule Intra/kʙ       0.000000e+00 ( 0.000000e+00 +/- 0.000000e+00) [K]

Current cycle: 4700 out of 5000
===============================================================================

Box:      21.78200   0.00000   0.00000  Average:  21.78835   0.00000   0.00000
           0.00000  21.78200   0.00000             0.00000  21.78835   0.00000
           0.00000   0.00000  21.78200             0.00000   0.00000  21.78835
Lengths:  21.78200  21.78200  21.78200  Average:  21.78835  21.78835  21.78835
Angles:   90.00000  90.00000  90.00000  Average:  90.00000  90.00000  90.00000
Rectangular boundary conditions

net charge:   0.00000000

component 0 (CO2) lambda:  0 occupancy:  1 (1.000000)
    net charge:   0.00000000 [e]

Amount of molecules per component :
-------------------------------------------------------------------------------
Component 0 (CO2)
    molecules:      1.500000e+02 molecules  (1.500000e+02 +/- 0.000000e+00)
    number density: 1.451436e-02 molec./A^3 (1.451075e-02 +/- 3.115985e-04)
    density:        1.060444e+03 kg/m^3     (1.060180e+03 +/- 2.276592e+01)

Average pressure tensor: 
-------------------------------------------------------------------------------
 2.3858e+01 -1.8177e+01  2.3682e+00 +/- 9.7813e+01 8.3055e+01 4.6465e+01 [bar]
-1.8177e+01 -2.0759e+01  3.3106e+00 +/- 8.3055e+01 3.0881e+01 3.8069e+01 [bar]
 2.3682e+00  3.3106e+00  4.2237e+01 +/- 4.6465e+01 3.8069e+01 6.7178e+01 [bar]
Ideal-gas pressure:   5.008569e+02 +/ 1.075521e+01 [bar]
Excess pressure:     -4.857446e+02 +/ 4.582291e+01 [bar]
Pressure:             1.511221e+01 +/ 5.190271e+01 [bar]

Total potential energy/kʙ  -2.255205e+05 (-2.293007e+05 +/- 5.916076e+03) [K]
-------------------------------------------------------------------------------
ExternalField-molecule
    Van der Waals/kʙ        0.000000e+00 ( 0.000000e+00 +/- 0.000000e+00) [K]
Framework-molecule
    Van der Waals/kʙ        0.000000e+00 ( 0.000000e+00 +/- 0.000000e+00) [K]
    Van der Waals (Tail)/kʙ 0.000000e+00 ( 0.000000e+00 +/- 0.000000e+00) [K]
    Coulombic Real/kʙ       0.000000e+00 ( 0.000000e+00 +/- 0.000000e+00) [K]
    Coulombic Fourier/kʙ    0.000000e+00 ( 0.000000e+00 +/- 0.000000e+00) [K]
Molecule-molecule
    Van der Waals/kʙ       -1.667704e+05 (-1.636283e+05 +/- 3.679439e+03) [K]
    Van der Waals (Tail)/kʙ-6.985504e+03 (-6.977533e+03 +/- 1.498494e+02) [K]
    Coulombic Real/kʙ      -4.203910e+04 (-4.707529e+04 +/- 1.925646e+03) [K]
    Coulombic Fourier/kʙ   -9.725507e+03 (-1.161956e+04 +/- 2.998123e+02) [K]
    Molecule Intra/kʙ       0.000000e+00 ( 0.000000e+00 +/- 0.000000e+00) [K]

Current cycle: 4800 out of 5000
===============================================================================

Box:      21.73300   0.00000   0.00000  Average:  21.79161   0.00000   0.00000
           0.00000  21.73300   0.00000             0.00000  21.79161   0.00000
           0.00000   0.00000  21.73300             0.00000   0.00000  21.79161
Lengths:  21.73300  21.73300  21.73300  Average:  21.79161  21.79161  21.79161
Angles:   90.00000  90.00000  90.00000  Average:  90.00000  90.00000  90.00000
Rectangular boundary conditions

net charge:   0.00000000

component 0 (CO2) lambda:  0 occupancy:  1 (1.000000)
    net charge:   0.00000000 [e]

Amount of molecules per component :
-------------------------------------------------------------------------------
Component 0 (CO2)
    molecules:      1.500000e+02 molecules  (1.500000e+02 +/- 0.000000e+00)
    number density: 1.461275e-02 molec./A^3 (1.450424e-02 +/- 3.067744e-04)
    density:        1.067633e+03 kg/m^3     (1.059705e+03 +/- 2.241346e+01)

Average pressure tensor: 
-------------------------------------------------------------------------------
 1.6120e+01 -1.7008e+01 -1.6692e-01 +/- 1.1204e+02 8.3363e+01 4.9910e+01 [bar]
-1.7008e+01 -2.1509e+01  3.1387e+00 +/- 8.3363e+01 3.1286e+01 3.7137e+01 [bar]
-1.6692e-01  3.1387e+00  3.7542e+01 +/- 4.9910e+01 3.7137e+01 7.0291e+01 [bar]
Ideal-gas pressure:   5.006321e+02 +/ 1.058870e+01 [bar]
Excess pressure:     -4.899145e+02 +/ 5.365247e+01 [bar]
Pressure:             1.071755e+01 +/ 5.922805e+01 [bar]

Total potential energy/kʙ  -2.295337e+05 (-2.291833e+05 +/- 5.808359e+03) [K]
-------------------------------------------------------------------------------
ExternalField-molecule
    Van der Waals/kʙ        0.000000e+00 ( 0.000000e+00 +/- 0.000000e+00) [K]
Framework-molecule
    Van der Waals/kʙ        0.000000e+00 ( 0.000000e+00 +/- 0.000000e+00) [K]
    Van der Waals (Tail)/kʙ 0.000000e+00 ( 0.000000e+00 +/- 0.000000e+00) [K]
    Coulombic Real/kʙ       0.000000e+00 ( 0.000000e+00 +/- 0.000000e+00) [K]
    Coulombic Fourier/kʙ    0.000000e+00 ( 0.000000e+00 +/- 0.000000e+00) [K]
Molecule-molecule
    Van der Waals/kʙ       -1.620101e+05 (-1.635712e+05 +/- 3.650197e+03) [K]
    Van der Waals (Tail)/kʙ-7.032860e+03 (-6.973916e+03 +/- 1.483598e+02) [K]
    Coulombic Real/kʙ      -4.851922e+04 (-4.703252e+04 +/- 1.855964e+03) [K]
    Coulombic Fourier/kʙ   -1.197149e+04 (-1.160569e+04 +/- 2.755995e+02) [K]
    Molecule Intra/kʙ       0.000000e+00 ( 0.000000e+00 +/- 0.000000e+00) [K]

Current cycle: 4900 out of 5000
===============================================================================

Box:      21.78646   0.00000   0.00000  Average:  21.79203   0.00000   0.00000
           0.00000  21.78646   0.00000             0.00000  21.79203   0.00000
           0.00000   0.00000  21.78646             0.00000   0.00000  21.79203
Lengths:  21.78646  21.78646  21.78646  Average:  21.79203  21.79203  21.79203
Angles:   90.00000  90.00000  90.00000  Average:  90.00000  90.00000  90.00000
Rectangular boundary conditions

net charge:   0.00000000

component 0 (CO2) lambda:  0 occupancy:  1 (1.000000)
    net charge:   0.00000000 [e]

Amount of molecules per component :
-------------------------------------------------------------------------------
Component 0 (CO2)
    molecules:      1.500000e+02 molecules  (1.500000e+02 +/- 0.000000e+00)
    number density: 1.450545e-02 molec./A^3 (1.450325e-02 +/- 3.060621e-04)
    density:        1.059793e+03 kg/m^3     (1.059632e+03 +/- 2.236142e+01)

Average pressure tensor: 
-------------------------------------------------------------------------------
 1.8151e+01 -1.6366e+01 -4.0415e+00 +/- 9.9472e+01 8.3488e+01 5.6030e+01 [bar]
-1.6366e+01 -1.7566e+01  1.8214e+00 +/- 8.3488e+01 3.0721e+01 3.8299e+01 [bar]
-4.0415e+00  1.8214e+00  3.6355e+01 +/- 5.6030e+01 3.8299e+01 7.0777e+01 [bar]
Ideal-gas pressure:   5.005979e+02 +/ 1.056412e+01 [bar]
Excess pressure:     -4.882846e+02 +/ 4.678945e+01 [bar]
Pressure:             1.231334e+01 +/ 5.344302e+01 [bar]

Total potential energy/kʙ  -2.258667e+05 (-2.291784e+05 +/- 5.794209e+03) [K]
-------------------------------------------------------------------------------
ExternalField-molecule
    Van der Waals/kʙ        0.000000e+00 ( 0.000000e+00 +/- 0.000000e+00) [K]
Framework-molecule
    Van der Waals/kʙ        0.000000e+00 ( 0.000000e+00 +/- 0.000000e+00) [K]
    Van der Waals (Tail)/kʙ 0.000000e+00 ( 0.000000e+00 +/- 0.000000e+00) [K]
    Coulombic Real/kʙ       0.000000e+00 ( 0.000000e+00 +/- 0.000000e+00) [K]
    Coulombic Fourier/kʙ    0.000000e+00 ( 0.000000e+00 +/- 0.000000e+00) [K]
Molecule-molecule
    Van der Waals/kʙ       -1.627399e+05 (-1.635742e+05 +/- 3.648609e+03) [K]
    Van der Waals (Tail)/kʙ-6.981215e+03 (-6.973571e+03 +/- 1.482713e+02) [K]
    Coulombic Real/kʙ      -4.441803e+04 (-4.702892e+04 +/- 1.841673e+03) [K]
    Coulombic Fourier/kʙ   -1.172752e+04 (-1.160178e+04 +/- 2.704234e+02) [K]
    Molecule Intra/kʙ       0.000000e+00 ( 0.000000e+00 +/- 0.000000e+00) [K]


Energy statistics             |  Energy [K]   | Recomputed [K]|  Drift [K]    |
===============================================================================
Total potential energy/kʙ     | -2.203019e+05 | -2.203019e+05 |  1.793949e-10 |
    external field VDW/kʙ     |  0.000000e+00 |  0.000000e+00 |  0.000000e+00 |
    external field Real/kʙ    |  0.000000e+00 |  0.000000e+00 |  0.000000e+00 |
    framework-molecule VDW/kʙ |  0.000000e+00 |  0.000000e+00 |  0.000000e+00 |
    framework-molecule Real/kʙ|  0.000000e+00 |  0.000000e+00 |  0.000000e+00 |
    molecule-molecule VDW/kʙ  | -1.604725e+05 | -1.604725e+05 |  1.750194e-10 |
    molecule-molecule Real/kʙ | -4.197395e+04 | -4.197395e+04 |  1.750194e-11 |
    Van der Waals (Tail)/kʙ   | -6.929328e+03 | -6.929328e+03 |  0.000000e+00 |
    Ewald Fourier/kʙ          |  1.087022e+04 |  1.087022e+04 | -1.312646e-11 |
    Ewald self/kʙ             | -3.334385e+06 | -3.334385e+06 |  0.000000e+00 |
    Ewald exclusion/kʙ        |  3.312589e+06 |  3.312589e+06 |  0.000000e+00 |
    intra VDW/kʙ              |  0.000000e+00 |  0.000000e+00 |  0.000000e+00 |
    intra Coulombic/kʙ        |  0.000000e+00 |  0.000000e+00 |  0.000000e+00 |
    polarization/kʙ           |  0.000000e+00 |  0.000000e+00 |  0.000000e+00 |
    dU/dlambda VDW/kʙ         |  0.000000e+00 |  0.000000e+00 |  0.000000e+00 |
    dU/dlambda Real/kʙ        |  0.000000e+00 |  0.000000e+00 |  0.000000e+00 |
    dU/dlambda Ewald/kʙ       |  0.000000e+00 |  0.000000e+00 |  0.000000e+00 |
-------------------------------------------------------------------------------


Monte-Carlo moves statistics
===============================================================================

    Volume change        all:                5086
    Volume change        total:              5086
    Volume change        constructed:        5086
    Volume change        accepted:           1773
    Volume change        fraction:       0.348604
    Volume change        max-change:     0.050000

Component 0 [CO2]
    Reinsertion (CBMC)   all:              247535
    Reinsertion (CBMC)   total:            247535
    Reinsertion (CBMC)   constructed:      221166
    Reinsertion (CBMC)   accepted:           3767
    Reinsertion (CBMC)   fraction:       0.015218
    Reinsertion (CBMC)   max-change:     0.000000

    Translation          all:              248188
    Translation          total:             82429      83047      82712
    Translation          constructed:       82428      83040      82712
    Translation          accepted:          34406      32017      40081
    Translation          fraction:       0.417402   0.385529   0.484585
    Translation          max-change:     0.857143   0.952381   0.701299

    Rotation             all:              249191
    Rotation             total:             82600      83027      83564
    Rotation             constructed:       82599      83009      83564
    Rotation             accepted:          37925      32779      45579
    Rotation             fraction:       0.459140   0.394799   0.545438
    Rotation             max-change:     0.793388   0.969697   0.607143



Production run counting of the MC moves summed over systems and components
===============================================================================

Volume change                          5086 (0.6781 [%])
Reinsertion (CBMC)                   247535 (33.0047 [%])
Translation                          248188 (33.0917 [%])
Rotation                             249191 (33.2255 [%])

Production count MC-steps:           750000 [-]
               All summed:           750000 [-]
               difference:                0 [-]


Production run CPU timings of the MC moves
===============================================================================

Component 0 CO2

Rotation                             35.110801 [s]
    Ewald                            18.642158 [s]
    ExternalField-Molecule            0.009756 [s]
    Framework-Molecule                0.007412 [s]
    Molecule-Molecule                14.954361 [s]
    Overhead                          1.497114 [s]

Reinsertion (CBMC)                  118.938778 [s]
    Ewald                            17.590106 [s]
    NonEwald                        101.086706 [s]
    Overhead                          0.261966 [s]

Translation                          34.880849 [s]
    Ewald                            18.574480 [s]
    ExternalField-Molecule            0.008380 [s]
    Framework-Molecule                0.014211 [s]
    Molecule-Molecule                14.915020 [s]
    Overhead                          1.368758 [s]



Volume change                         23.340607 [s]
    Ewald                             11.087867 [s]
    NonEwald                          11.462378 [s]
    Tail                               0.642067 [s]

Property sampling                     0.260496 [s]
Energy/pressure sampling:             5.122640 [s]


Production run CPU timings of the MC moves summed over systems and components
===============================================================================


Translation                          34.880849 [s]
    Ewald                            18.574480 [s]
    ExternalField-Molecule            0.008380 [s]
    Framework-Molecule                0.014211 [s]
    Molecule-Molecule                14.915020 [s]
    Overhead                          1.368758 [s]

Rotation                             35.110801 [s]
    Ewald                            18.642158 [s]
    ExternalField-Molecule            0.009756 [s]
    Framework-Molecule                0.007412 [s]
    Molecule-Molecule                14.954361 [s]
    Overhead                          1.497114 [s]

Volume change                        23.340607 [s]
    Ewald                            11.087867 [s]
    NonEwald                         11.462378 [s]
    Tail                              0.642067 [s]
    Overhead                          0.148295 [s]

Reinsertion (CBMC)                  118.938778 [s]
    Ewald                            17.590106 [s]
    NonEwald                        101.086706 [s]
    Overhead                          0.261966 [s]

Property sampling:                    0.260496 [s]
Energy/pressure sampling:             5.122640 [s]

Production simulation time:         218.267171 [s]
                All summed:         217.654171 [s]
                  Overhead:           0.613000 [s]


Initalization simulation time:       39.949705 [s]
Equilibration simulation time:        0.000000 [s]
Production simulation time:         218.267171 [s]
Total simulation time:              258.216876 [s]


Energy averages and statistics:
===============================================================================

Framework-molecule energy:
-------------------------------------------------------------------------------



Framework-molecule energy contributions per energy type:
-------------------------------------------------------------------------------



Inter-molecular energy:
-------------------------------------------------------------------------------

    Inter-molecular energy/kʙ 0-0 [CO2-CO2]:
    ---------------------------------------------------------------------------
        Block[  0] -2.363654e+05
        Block[  1] -2.280659e+05
        Block[  2] -2.236793e+05
        Block[  3] -2.275481e+05
        Block[  4] -2.298962e+05
        -----------------------------------------------------------------------
        Average  -2.291110e+05 +/-  5.765827e+03 [K]



Inter-molecular energy contributions per energy type:
-------------------------------------------------------------------------------

    Van der Waals energy/kʙ 0-0 [CO2-CO2]:
    ---------------------------------------------------------------------------
        Block[  0] -1.682655e+05
        Block[  1] -1.631851e+05
        Block[  2] -1.604425e+05
        Block[  3] -1.620227e+05
        Block[  4] -1.636719e+05
        -----------------------------------------------------------------------
        Average  -1.635175e+05 +/-  3.639004e+03 [K]

    VDW Tail-Correction energy/kʙ 0-0 [CO2-CO2]:
    ---------------------------------------------------------------------------
        Block[  0] -7.172086e+03
        Block[  1] -6.938269e+03
        Block[  2] -6.859707e+03
        Block[  3] -6.915697e+03
        Block[  4] -6.972983e+03
        -----------------------------------------------------------------------
        Average  -6.971749e+03 +/-  1.481361e+02 [K]

    Coulomb Real energy/kʙ 0-0 [CO2-CO2]:
    ---------------------------------------------------------------------------
        Block[  0] -4.907843e+04
        Block[  1] -4.629548e+04
        Block[  2] -4.511692e+04
        Block[  3] -4.704338e+04
        Block[  4] -4.755519e+04
        -----------------------------------------------------------------------
        Average  -4.701788e+04 +/-  1.827818e+03 [K]

    Coulomb Fourier energy/kʙ 0-0 [CO2-CO2]:
    ---------------------------------------------------------------------------
        Block[  0] -1.184939e+04
        Block[  1] -1.164708e+04
        Block[  2] -1.126027e+04
        Block[  3] -1.156629e+04
        Block[  4] -1.169614e+04
        -----------------------------------------------------------------------
        Average  -1.160383e+04 +/-  2.706665e+02 [K]


Total energy/kʙ
-------------------------------------------------------------------------------
    Block[  0] -2.363654e+05
    Block[  1] -2.280659e+05
    Block[  2] -2.236793e+05
    Block[  3] -2.275481e+05
    Block[  4] -2.298962e+05
    ---------------------------------------------------------------------------
    Average  -2.291110e+05 +/-  5.765827e+03 [K]

Pressure averages and statistics:
===============================================================================

Average pressure tensor: 
-------------------------------------------------------------------------------
 1.5974e+01 -1.5103e+01 -4.1393e+00 +/- 9.9086e+01 8.3865e+01 5.3658e+01 [bar]
-1.5103e+01 -1.0955e+01  1.9875e+00 +/- 8.3865e+01 3.7989e+01 3.7110e+01 [bar]
-4.1393e+00  1.9875e+00  3.1508e+01 +/- 5.3658e+01 3.7110e+01 7.5377e+01 [bar]

    Block[  0]  5.145081e+07
    Block[  1]  4.976047e+07
    Block[  2]  4.923126e+07
    Block[  3]  4.965775e+07
    Block[  4]  5.012764e+07
    ---------------------------------------------------------------------------
    Ideal gas pressure   5.004559e+07 +/-  6.339669e-02 [Pa]
                         5.004559e+02 +/-  1.052728e+01 [bar]


    Block[  0] -4.335917e+07
    Block[  1] -5.016295e+07
    Block[  2] -4.907153e+07
    Block[  3] -4.824054e+07
    Block[  4] -5.330599e+07
    ---------------------------------------------------------------------------
    Excess pressure  -4.882804e+07 +/-  4.482486e+06 [Pa]
                     -4.882804e+02 +/-  4.482486e+01 [bar]


    Block[  0]  8.091639e+06
    Block[  1] -4.024838e+05
    Block[  2]  1.597302e+05
    Block[  3]  1.417212e+06
    Block[  4] -3.178343e+06
    ---------------------------------------------------------------------------
    Pressure average   1.217551e+06 +/-  5.206770e+06 [Pa]
                       1.217551e+01 +/-  5.206770e+01 [bar]


Enthalpy of adsorption
===============================================================================

No fluctuating components present.


Densities
===============================================================================

Component 0 (CO2)
    Block[  0] 150
    Block[  1] 150
    Block[  2] 150
    Block[  3] 150
    Block[  4] 150
    -----------------------------------------------------------------------
    Density average   1.500000e+02 +/-  0.000000e+00 [molecules]
    Density average   1.449913e-02 +/-  3.049947e-04 [molec/A^3]
    Density average   1.059332e+03 +/-  2.228343e+01 [kg.m⁻³]

