Compiler and run-time data
===============================================================================
RASPA 3.0.4

Random seed: 582773409

Compiled as a 64-bits application
Compiler: gcc Ubuntu Clang 18.1.3 (1ubuntu1)
Compile Date = Mar 15 2025, Compile Time = 19:39:45

2025-06-02 13:21:36.150081
Simulation started on Mon, Jun 02
The start time was 13:21:00

Hostname:    c060
OS type:     Linux on x86_64
OS release:  6.8.0-58-generic
OS version:  #60-Ubuntu SMP PREEMPT_DYNAMIC Fri Mar 14 18:29:48 UTC 2025


Mutual consistent basic set of units:
===============================================================================

Unit of temperature: 1 [K]
Unit of length:      1e-10 [m]
Unit of time:        1e-12 [s]
Unit of mass:        1.6605402e-27 [kg]
Unit of charge:      1.60217733e-19 [C/particle]


Boltzmann constant (internal units):          0.8314464919307584 [-]
represents conversion from energy (internal units) to temperature (in Kelvin)

Derived units and their conversion factors:
===============================================================================

Unit of energy:                           1.6605402000000002e-23 [J]
Unit of energy:                           10.000008872307538 [J.mol⁻¹]
Unit of velocity:                         100 [m.s⁻¹]
Unit of force:                            1.6605402000000002e-13 [N]
Unit of diffusion:                        1.0000000000000002e-08 [m².s⁻¹]
Unit of acceleration:                     1.0000000000000002e-08 [m².s⁻¹]
Unit of torque:                           1.6605402000000002e-23 [N.m]
Unit of pressure:                         16605402 [Pa]
Unit of volume:                           1e-30 [m³]
Unit of density:                          1660.5402 [kg.m⁻³]
Unit of dynamic viscosity:                1.6605401999999997e-05 [N.s.m⁻²]
Unit of enthalpy:                         1.6605402000000002e-23 [J]
Unit of polarizability:                   1.5458657349975198e-35 [-]
Unit of Coulomb potential:                167101.08000665612 [K]
Unit of dielectric constant:              1.5458657349975193e-05 [s².C².kg⁻¹.m⁻³]
Unit of dipole moment:                    1.60217733e-29 [C.m]
Unit of Debye:                            4.803206799099162 [C.m]
Unit of electric potential:               0.00010364272224473431 [V]
Unit of electric field:                   1036427.222447343 [V.m⁻¹]
Unit of isothermal compressibility:       6.02213665167516e-08 [Pa⁻¹]
Unit of heat capacity:                    10.000008872307538 [J.mol⁻¹.K⁻¹]
Unit of volumetric expansion coefficient: 1 [K⁻¹]


Internal conversion factors:
===============================================================================

Energy (internal units) to Kelvin:      1.202724284692786 [-]
Kelvin to energy (internal units):      0.8314457542157567 [-]


System definitions
===============================================================================

Temperature:          250 [K]
Beta:                 0.0048108928702210625 [-]
Pressure:             6e+06 [Pa]
Helium void fraction: 1 [-]

Box:      30.00000   0.00000   0.00000
           0.00000  30.00000   0.00000
           0.00000   0.00000  30.00000
Lengths:  30.00000  30.00000  30.00000
Angles:   90.00000  90.00000  90.00000
Rectangular boundary conditions



Property measurement settings
===============================================================================




Pseudo-atoms
===============================================================================

  0 - C_co2    framework-atom: false
  1 - O_co2    framework-atom: false

  0 - C_co2    mass: 12.00000, charge:  0.70000
  1 - O_co2    mass: 15.99940, charge: -0.35000

  0 - C_co2    polarizability:  0.00000
  1 - O_co2    polarizability:  0.00000

  0 - J. J. Potoff et al., AIChE J. 2001, 47, 1676–1682.
  1 - J. J. Potoff et al., AIChE J. 2001, 47, 1676–1682.

Force field status
===============================================================================

Cutoff Framework-Molecule VDW:  11.00000 [Å]
Cutoff Molecule-Molecule VDW:   11.00000 [Å]
Cutoff Coulomb:                 11.00000 [Å]

Overlap-criteria VDW:           1.000000e+05 [K]

C_co2    - C_co2    Lennard-Jones p₀/kʙ:  27.00000 [K], p₁:  2.80000 [Å]
                                  shift:   0.00000 [K], tailcorrections: true
C_co2    - O_co2    Lennard-Jones p₀/kʙ:  46.18441 [K], p₁:  2.92500 [Å]
                                  shift:   0.00000 [K], tailcorrections: true
O_co2    - O_co2    Lennard-Jones p₀/kʙ:  79.00000 [K], p₁:  3.05000 [Å]
                                  shift:   0.00000 [K], tailcorrections: true

Ewald precision: 1e-06
Ewald alpha: 0.2903408740940883
Ewald k-vectors: 9 9 9


Component definitions
===============================================================================

Component 0 [CO2]

    Type: Adsorbate

    Critical temperature:  304.1282 [K]
    Critical pressure:     7377300 [Pa]
    Acentric factor:       0.22394 [-]

    Mol-fraction:                 1 [-]
    Swappable:                   false

    Mass:                         43.9988 [-]
    Bulk fluid density:           0 [-]
    Compressibility:              0 [-]
    Excess molecules:             0 [-]

    Number Of Atoms:    3
    CBMC starting bead: 0
      0: O_co2  position  0.00000 -0.00000  1.16000, charge -0.35000
      1: C_co2  position  0.00000 -0.00000  0.00000, charge  0.70000
      2: O_co2  position  0.00000 -0.00000 -1.16000, charge -0.35000
    Diagonalized inertia-vector:      43.05758528 43.05758528 0.00000000
    Translational degrees of freedom: 3
    Rotational degrees of freedom:    2
    Shape of the molecule is: 'Linear'
    Net-charge:        0.00000000 [e]

    Move probabilities:
    Translation:                   0.331126 [-]
    Random translation:            0.000000 [-]
    Rotation:                      0.331126 [-]
    Random rotation:               0.000000 [-]
    Volume change:                 0.006623 [-]
    Reinsertion (CBMC):            0.331126 [-]
    Identity change (CBMC):        0.000000 [-]
    Swap:                          0.000000 [-]
    Swap (CBMC):                   0.000000 [-]
    Swap (CFCMC):                  0.000000 [-]
    Swap (CB/CFCMC):               0.000000 [-]
    Gibbs volume:                  0.000000 [-]
    Gibbs swap (CBMC):             0.000000 [-]
    Gibbs swap (CFCMC):            0.000000 [-]
    Widom:                         0.000000 [-]
    Widom (CFCMC):                 0.000000 [-]
    Widom (CB/CFCMC):              0.000000 [-]
    Parallel tempering:            0.000000 [-]
    Hybrid MC:                     0.000000 [-]

    number of blocking-pockets: 0

    number of bonds: 0





Number of pseudo-atoms
===============================================================================

Component   0 (CO2)
-------------------------------------------------------------------------------
    index   0 (C_co2): 200 atoms
    index   1 (O_co2): 400 atoms

Total number of pseudo-atoms:
-------------------------------------------------------------------------------
    index   0 (C_co2): 200 atoms
    index   1 (O_co2): 400 atoms




Energy status Recomputed from scratch
===============================================================================

Total potential energy/kʙ       -9.294310e+04 [K]
    external field VDW/kʙ        0.000000e+00 [K]
    external field Real/kʙ       0.000000e+00 [K]
    framework-molecule VDW/kʙ    0.000000e+00 [K]
    framework-molecule Real/kʙ   0.000000e+00 [K]
    molecule-molecule VDW/kʙ    -7.299079e+04 [K]
    molecule-molecule Real/kʙ   -1.449143e+04 [K]
    Van der Waals (Tail)/kʙ     -3.571688e+03 [K]
    Ewald Fourier/kʙ             1.626391e+04 [K]
    Ewald self/kʙ               -4.023739e+06 [K]
    Ewald exclusion/kʙ           4.005586e+06 [K]
    intra VDW/kʙ                 0.000000e+00 [K]
    intra Coulombic/kʙ           0.000000e+00 [K]
    polarization/kʙ              0.000000e+00 [K]
    dU/dlambda VDW/kʙ            0.000000e+00 [K]
    dU/dlambda Real/kʙ           0.000000e+00 [K]
    dU/dlambda Ewald/kʙ          0.000000e+00 [K]





Initialization: Current cycle: 0 out of 1000
===============================================================================

Box:      30.98844   0.00000   0.00000
           0.00000  30.98844   0.00000
           0.00000   0.00000  30.98844
Lengths:  30.98844  30.98844  30.98844
Angles:   90.00000  90.00000  90.00000
Rectangular boundary conditions

net charge:   0.00000000

component   0 (CO2) lambda:  0 occupancy:  1 (1.000000)
    net charge:   0.00000000 [e]

Amount of molecules per component :
-------------------------------------------------------------------------------
Component 0 (CO2)
    molecules:         2.000000e+02 molecules
    number density:    6.720951e-03 molec/A^3
    density:           4.910442e+02 kg/m^3

Total potential energy/kʙ       -1.227573e+05 [K]
-------------------------------------------------------------------------------
    external field VDW/kʙ        0.000000e+00 [K]
    external field Real/kʙ       0.000000e+00 [K]
    framework-molecule VDW/kʙ    0.000000e+00 [K]
    framework-molecule Real/kʙ   0.000000e+00 [K]
    molecule-molecule VDW/kʙ    -1.005113e+05 [K]
    molecule-molecule Real/kʙ   -1.654221e+04 [K]
    Van der Waals (Tail)/kʙ     -3.240694e+03 [K]
    Ewald Fourier/kʙ             1.569003e+04 [K]
    Ewald self/kʙ               -4.023739e+06 [K]
    Ewald exclusion/kʙ           4.005586e+06 [K]
    intra VDW/kʙ                 0.000000e+00 [K]
    intra Coulombic/kʙ           0.000000e+00 [K]
    polarization/kʙ              0.000000e+00 [K]
    dU/dlambda VDW/kʙ            0.000000e+00 [K]
    dU/dlambda Real/kʙ           0.000000e+00 [K]
    dU/dlambda Ewald/kʙ          0.000000e+00 [K]


Initialization: Current cycle: 100 out of 1000
===============================================================================

Box:      28.66469   0.00000   0.00000
           0.00000  28.66469   0.00000
           0.00000   0.00000  28.66469
Lengths:  28.66469  28.66469  28.66469
Angles:   90.00000  90.00000  90.00000
Rectangular boundary conditions

net charge:   0.00000000

component   0 (CO2) lambda:  0 occupancy:  1 (1.000000)
    net charge:   0.00000000 [e]

Amount of molecules per component :
-------------------------------------------------------------------------------
Component 0 (CO2)
    molecules:         2.000000e+02 molecules
    number density:    8.491571e-03 molec/A^3
    density:           6.204087e+02 kg/m^3

Total potential energy/kʙ       -1.980891e+05 [K]
-------------------------------------------------------------------------------
    external field VDW/kʙ        0.000000e+00 [K]
    external field Real/kʙ       0.000000e+00 [K]
    framework-molecule VDW/kʙ    0.000000e+00 [K]
    framework-molecule Real/kʙ   0.000000e+00 [K]
    molecule-molecule VDW/kʙ    -1.493800e+05 [K]
    molecule-molecule Real/kʙ   -3.743223e+04 [K]
    Van der Waals (Tail)/kʙ     -4.094448e+03 [K]
    Ewald Fourier/kʙ             1.097067e+04 [K]
    Ewald self/kʙ               -4.023739e+06 [K]
    Ewald exclusion/kʙ           4.005586e+06 [K]
    intra VDW/kʙ                 0.000000e+00 [K]
    intra Coulombic/kʙ           0.000000e+00 [K]
    polarization/kʙ              0.000000e+00 [K]
    dU/dlambda VDW/kʙ            0.000000e+00 [K]
    dU/dlambda Real/kʙ           0.000000e+00 [K]
    dU/dlambda Ewald/kʙ          0.000000e+00 [K]


Initialization: Current cycle: 200 out of 1000
===============================================================================

Box:      26.80561   0.00000   0.00000
           0.00000  26.80561   0.00000
           0.00000   0.00000  26.80561
Lengths:  26.80561  26.80561  26.80561
Angles:   90.00000  90.00000  90.00000
Rectangular boundary conditions

net charge:   0.00000000

component   0 (CO2) lambda:  0 occupancy:  1 (1.000000)
    net charge:   0.00000000 [e]

Amount of molecules per component :
-------------------------------------------------------------------------------
Component 0 (CO2)
    molecules:         2.000000e+02 molecules
    number density:    1.038372e-02 molec/A^3
    density:           7.586522e+02 kg/m^3

Total potential energy/kʙ       -2.158025e+05 [K]
-------------------------------------------------------------------------------
    external field VDW/kʙ        0.000000e+00 [K]
    external field Real/kʙ       0.000000e+00 [K]
    framework-molecule VDW/kʙ    0.000000e+00 [K]
    framework-molecule Real/kʙ   0.000000e+00 [K]
    molecule-molecule VDW/kʙ    -1.575064e+05 [K]
    molecule-molecule Real/kʙ   -4.659738e+04 [K]
    Van der Waals (Tail)/kʙ     -5.006799e+03 [K]
    Ewald Fourier/kʙ             1.146120e+04 [K]
    Ewald self/kʙ               -4.023739e+06 [K]
    Ewald exclusion/kʙ           4.005586e+06 [K]
    intra VDW/kʙ                 0.000000e+00 [K]
    intra Coulombic/kʙ           0.000000e+00 [K]
    polarization/kʙ              0.000000e+00 [K]
    dU/dlambda VDW/kʙ            0.000000e+00 [K]
    dU/dlambda Real/kʙ           0.000000e+00 [K]
    dU/dlambda Ewald/kʙ          0.000000e+00 [K]


Initialization: Current cycle: 300 out of 1000
===============================================================================

Box:      24.82286   0.00000   0.00000
           0.00000  24.82286   0.00000
           0.00000   0.00000  24.82286
Lengths:  24.82286  24.82286  24.82286
Angles:   90.00000  90.00000  90.00000
Rectangular boundary conditions

net charge:   0.00000000

component   0 (CO2) lambda:  0 occupancy:  1 (1.000000)
    net charge:   0.00000000 [e]

Amount of molecules per component :
-------------------------------------------------------------------------------
Component 0 (CO2)
    molecules:         2.000000e+02 molecules
    number density:    1.307598e-02 molec/A^3
    density:           9.553536e+02 kg/m^3

Total potential energy/kʙ       -2.755526e+05 [K]
-------------------------------------------------------------------------------
    external field VDW/kʙ        0.000000e+00 [K]
    external field Real/kʙ       0.000000e+00 [K]
    framework-molecule VDW/kʙ    0.000000e+00 [K]
    framework-molecule Real/kʙ   0.000000e+00 [K]
    molecule-molecule VDW/kʙ    -2.008308e+05 [K]
    molecule-molecule Real/kʙ   -5.869442e+04 [K]
    Van der Waals (Tail)/kʙ     -6.304949e+03 [K]
    Ewald Fourier/kʙ             8.430715e+03 [K]
    Ewald self/kʙ               -4.023739e+06 [K]
    Ewald exclusion/kʙ           4.005586e+06 [K]
    intra VDW/kʙ                 0.000000e+00 [K]
    intra Coulombic/kʙ           0.000000e+00 [K]
    polarization/kʙ              0.000000e+00 [K]
    dU/dlambda VDW/kʙ            0.000000e+00 [K]
    dU/dlambda Real/kʙ           0.000000e+00 [K]
    dU/dlambda Ewald/kʙ          0.000000e+00 [K]


Initialization: Current cycle: 400 out of 1000
===============================================================================

Box:      24.77419   0.00000   0.00000
           0.00000  24.77419   0.00000
           0.00000   0.00000  24.77419
Lengths:  24.77419  24.77419  24.77419
Angles:   90.00000  90.00000  90.00000
Rectangular boundary conditions

net charge:   0.00000000

component   0 (CO2) lambda:  0 occupancy:  1 (1.000000)
    net charge:   0.00000000 [e]

Amount of molecules per component :
-------------------------------------------------------------------------------
Component 0 (CO2)
    molecules:         2.000000e+02 molecules
    number density:    1.315321e-02 molec/A^3
    density:           9.609962e+02 kg/m^3

Total potential energy/kʙ       -2.715466e+05 [K]
-------------------------------------------------------------------------------
    external field VDW/kʙ        0.000000e+00 [K]
    external field Real/kʙ       0.000000e+00 [K]
    framework-molecule VDW/kʙ    0.000000e+00 [K]
    framework-molecule Real/kʙ   0.000000e+00 [K]
    molecule-molecule VDW/kʙ    -1.953381e+05 [K]
    molecule-molecule Real/kʙ   -6.061012e+04 [K]
    Van der Waals (Tail)/kʙ     -6.342188e+03 [K]
    Ewald Fourier/kʙ             8.896877e+03 [K]
    Ewald self/kʙ               -4.023739e+06 [K]
    Ewald exclusion/kʙ           4.005586e+06 [K]
    intra VDW/kʙ                 0.000000e+00 [K]
    intra Coulombic/kʙ           0.000000e+00 [K]
    polarization/kʙ              0.000000e+00 [K]
    dU/dlambda VDW/kʙ            0.000000e+00 [K]
    dU/dlambda Real/kʙ           0.000000e+00 [K]
    dU/dlambda Ewald/kʙ          0.000000e+00 [K]


Initialization: Current cycle: 500 out of 1000
===============================================================================

Box:      25.10054   0.00000   0.00000
           0.00000  25.10054   0.00000
           0.00000   0.00000  25.10054
Lengths:  25.10054  25.10054  25.10054
Angles:   90.00000  90.00000  90.00000
Rectangular boundary conditions

net charge:   0.00000000

component   0 (CO2) lambda:  0 occupancy:  1 (1.000000)
    net charge:   0.00000000 [e]

Amount of molecules per component :
-------------------------------------------------------------------------------
Component 0 (CO2)
    molecules:         2.000000e+02 molecules
    number density:    1.264681e-02 molec/A^3
    density:           9.239975e+02 kg/m^3

Total potential energy/kʙ       -2.604773e+05 [K]
-------------------------------------------------------------------------------
    external field VDW/kʙ        0.000000e+00 [K]
    external field Real/kʙ       0.000000e+00 [K]
    framework-molecule VDW/kʙ    0.000000e+00 [K]
    framework-molecule Real/kʙ   0.000000e+00 [K]
    molecule-molecule VDW/kʙ    -1.936344e+05 [K]
    molecule-molecule Real/kʙ   -5.198845e+04 [K]
    Van der Waals (Tail)/kʙ     -6.098012e+03 [K]
    Ewald Fourier/kʙ             9.396730e+03 [K]
    Ewald self/kʙ               -4.023739e+06 [K]
    Ewald exclusion/kʙ           4.005586e+06 [K]
    intra VDW/kʙ                 0.000000e+00 [K]
    intra Coulombic/kʙ           0.000000e+00 [K]
    polarization/kʙ              0.000000e+00 [K]
    dU/dlambda VDW/kʙ            0.000000e+00 [K]
    dU/dlambda Real/kʙ           0.000000e+00 [K]
    dU/dlambda Ewald/kʙ          0.000000e+00 [K]


Initialization: Current cycle: 600 out of 1000
===============================================================================

Box:      25.13030   0.00000   0.00000
           0.00000  25.13030   0.00000
           0.00000   0.00000  25.13030
Lengths:  25.13030  25.13030  25.13030
Angles:   90.00000  90.00000  90.00000
Rectangular boundary conditions

net charge:   0.00000000

component   0 (CO2) lambda:  0 occupancy:  1 (1.000000)
    net charge:   0.00000000 [e]

Amount of molecules per component :
-------------------------------------------------------------------------------
Component 0 (CO2)
    molecules:         2.000000e+02 molecules
    number density:    1.260192e-02 molec/A^3
    density:           9.207181e+02 kg/m^3

Total potential energy/kʙ       -2.582502e+05 [K]
-------------------------------------------------------------------------------
    external field VDW/kʙ        0.000000e+00 [K]
    external field Real/kʙ       0.000000e+00 [K]
    framework-molecule VDW/kʙ    0.000000e+00 [K]
    framework-molecule Real/kʙ   0.000000e+00 [K]
    molecule-molecule VDW/kʙ    -1.858749e+05 [K]
    molecule-molecule Real/kʙ   -5.664578e+04 [K]
    Van der Waals (Tail)/kʙ     -6.076369e+03 [K]
    Ewald Fourier/kʙ             8.499919e+03 [K]
    Ewald self/kʙ               -4.023739e+06 [K]
    Ewald exclusion/kʙ           4.005586e+06 [K]
    intra VDW/kʙ                 0.000000e+00 [K]
    intra Coulombic/kʙ           0.000000e+00 [K]
    polarization/kʙ              0.000000e+00 [K]
    dU/dlambda VDW/kʙ            0.000000e+00 [K]
    dU/dlambda Real/kʙ           0.000000e+00 [K]
    dU/dlambda Ewald/kʙ          0.000000e+00 [K]


Initialization: Current cycle: 700 out of 1000
===============================================================================

Box:      24.40000   0.00000   0.00000
           0.00000  24.40000   0.00000
           0.00000   0.00000  24.40000
Lengths:  24.40000  24.40000  24.40000
Angles:   90.00000  90.00000  90.00000
Rectangular boundary conditions

net charge:   0.00000000

component   0 (CO2) lambda:  0 occupancy:  1 (1.000000)
    net charge:   0.00000000 [e]

Amount of molecules per component :
-------------------------------------------------------------------------------
Component 0 (CO2)
    molecules:         2.000000e+02 molecules
    number density:    1.376768e-02 molec/A^3
    density:           1.005890e+03 kg/m^3

Total potential energy/kʙ       -2.930825e+05 [K]
-------------------------------------------------------------------------------
    external field VDW/kʙ        0.000000e+00 [K]
    external field Real/kʙ       0.000000e+00 [K]
    framework-molecule VDW/kʙ    0.000000e+00 [K]
    framework-molecule Real/kʙ   0.000000e+00 [K]
    molecule-molecule VDW/kʙ    -2.058036e+05 [K]
    molecule-molecule Real/kʙ   -7.063557e+04 [K]
    Van der Waals (Tail)/kʙ     -6.638469e+03 [K]
    Ewald Fourier/kʙ             8.148257e+03 [K]
    Ewald self/kʙ               -4.023739e+06 [K]
    Ewald exclusion/kʙ           4.005586e+06 [K]
    intra VDW/kʙ                 0.000000e+00 [K]
    intra Coulombic/kʙ           0.000000e+00 [K]
    polarization/kʙ              0.000000e+00 [K]
    dU/dlambda VDW/kʙ            0.000000e+00 [K]
    dU/dlambda Real/kʙ           0.000000e+00 [K]
    dU/dlambda Ewald/kʙ          0.000000e+00 [K]


Initialization: Current cycle: 800 out of 1000
===============================================================================

Box:      24.25685   0.00000   0.00000
           0.00000  24.25685   0.00000
           0.00000   0.00000  24.25685
Lengths:  24.25685  24.25685  24.25685
Angles:   90.00000  90.00000  90.00000
Rectangular boundary conditions

net charge:   0.00000000

component   0 (CO2) lambda:  0 occupancy:  1 (1.000000)
    net charge:   0.00000000 [e]

Amount of molecules per component :
-------------------------------------------------------------------------------
Component 0 (CO2)
    molecules:         2.000000e+02 molecules
    number density:    1.401287e-02 molec/A^3
    density:           1.023804e+03 kg/m^3

Total potential energy/kʙ       -3.030705e+05 [K]
-------------------------------------------------------------------------------
    external field VDW/kʙ        0.000000e+00 [K]
    external field Real/kʙ       0.000000e+00 [K]
    framework-molecule VDW/kʙ    0.000000e+00 [K]
    framework-molecule Real/kʙ   0.000000e+00 [K]
    molecule-molecule VDW/kʙ    -2.147067e+05 [K]
    molecule-molecule Real/kʙ   -7.088571e+04 [K]
    Van der Waals (Tail)/kʙ     -6.756695e+03 [K]
    Ewald Fourier/kʙ             7.431733e+03 [K]
    Ewald self/kʙ               -4.023739e+06 [K]
    Ewald exclusion/kʙ           4.005586e+06 [K]
    intra VDW/kʙ                 0.000000e+00 [K]
    intra Coulombic/kʙ           0.000000e+00 [K]
    polarization/kʙ              0.000000e+00 [K]
    dU/dlambda VDW/kʙ            0.000000e+00 [K]
    dU/dlambda Real/kʙ           0.000000e+00 [K]
    dU/dlambda Ewald/kʙ          0.000000e+00 [K]


Initialization: Current cycle: 900 out of 1000
===============================================================================

Box:      23.95192   0.00000   0.00000
           0.00000  23.95192   0.00000
           0.00000   0.00000  23.95192
Lengths:  23.95192  23.95192  23.95192
Angles:   90.00000  90.00000  90.00000
Rectangular boundary conditions

net charge:   0.00000000

component   0 (CO2) lambda:  0 occupancy:  1 (1.000000)
    net charge:   0.00000000 [e]

Amount of molecules per component :
-------------------------------------------------------------------------------
Component 0 (CO2)
    molecules:         2.000000e+02 molecules
    number density:    1.455490e-02 molec/A^3
    density:           1.063406e+03 kg/m^3

Total potential energy/kʙ       -2.967579e+05 [K]
-------------------------------------------------------------------------------
    external field VDW/kʙ        0.000000e+00 [K]
    external field Real/kʙ       0.000000e+00 [K]
    framework-molecule VDW/kʙ    0.000000e+00 [K]
    framework-molecule Real/kʙ   0.000000e+00 [K]
    molecule-molecule VDW/kʙ    -2.129212e+05 [K]
    molecule-molecule Real/kʙ   -6.672609e+04 [K]
    Van der Waals (Tail)/kʙ     -7.018051e+03 [K]
    Ewald Fourier/kʙ             8.060484e+03 [K]
    Ewald self/kʙ               -4.023739e+06 [K]
    Ewald exclusion/kʙ           4.005586e+06 [K]
    intra VDW/kʙ                 0.000000e+00 [K]
    intra Coulombic/kʙ           0.000000e+00 [K]
    polarization/kʙ              0.000000e+00 [K]
    dU/dlambda VDW/kʙ            0.000000e+00 [K]
    dU/dlambda Real/kʙ           0.000000e+00 [K]
    dU/dlambda Ewald/kʙ          0.000000e+00 [K]


Current cycle: 0 out of 5000
===============================================================================

Box:      24.06244   0.00000   0.00000  Average:  24.06244   0.00000   0.00000
           0.00000  24.06244   0.00000             0.00000  24.06244   0.00000
           0.00000   0.00000  24.06244             0.00000   0.00000  24.06244
Lengths:  24.06244  24.06244  24.06244  Average:  24.06244  24.06244  24.06244
Angles:   90.00000  90.00000  90.00000  Average:  90.00000  90.00000  90.00000
Rectangular boundary conditions

net charge:   0.00000000

component 0 (CO2) lambda:  0 occupancy:  1 (1.000000)
    net charge:   0.00000000 [e]

Amount of molecules per component :
-------------------------------------------------------------------------------
Component 0 (CO2)
    molecules:      2.000000e+02 molecules  (2.000000e+02 +/- 0.000000e+00)
    number density: 1.435527e-02 molec./A^3 (1.435527e-02 +/- 0.000000e+00)
    density:        1.048820e+03 kg/m^3     (1.048820e+03 +/- 0.000000e+00)

Average pressure tensor: 
-------------------------------------------------------------------------------
 4.9549e+02  0.0000e+00  0.0000e+00 +/- 0.0000e+00 0.0000e+00 0.0000e+00 [bar]
 0.0000e+00  4.9549e+02  0.0000e+00 +/- 0.0000e+00 0.0000e+00 0.0000e+00 [bar]
 0.0000e+00  0.0000e+00  4.9549e+02 +/- 0.0000e+00 0.0000e+00 0.0000e+00 [bar]
Ideal-gas pressure:   4.954901e+02 +/ 0.000000e+00 [bar]
Excess pressure:      0.000000e+00 +/ 0.000000e+00 [bar]
Pressure:             4.954901e+02 +/ 0.000000e+00 [bar]

Total potential energy/kʙ  -3.051096e+05 (-3.051096e+05 +/- 0.000000e+00) [K]
-------------------------------------------------------------------------------
ExternalField-molecule
    Van der Waals/kʙ        0.000000e+00 ( 0.000000e+00 +/- 0.000000e+00) [K]
Framework-molecule
    Van der Waals/kʙ        0.000000e+00 ( 0.000000e+00 +/- 0.000000e+00) [K]
    Van der Waals (Tail)/kʙ 0.000000e+00 ( 0.000000e+00 +/- 0.000000e+00) [K]
    Coulombic Real/kʙ       0.000000e+00 ( 0.000000e+00 +/- 0.000000e+00) [K]
    Coulombic Fourier/kʙ    0.000000e+00 ( 0.000000e+00 +/- 0.000000e+00) [K]
Molecule-molecule
    Van der Waals/kʙ       -2.204233e+05 (-2.204233e+05 +/- 0.000000e+00) [K]
    Van der Waals (Tail)/kʙ-6.921792e+03 (-6.921792e+03 +/- 0.000000e+00) [K]
    Coulombic Real/kʙ      -6.754413e+04 (-6.754413e+04 +/- 0.000000e+00) [K]
    Coulombic Fourier/kʙ   -1.022040e+04 (-1.022040e+04 +/- 0.000000e+00) [K]
    Molecule Intra/kʙ       0.000000e+00 ( 0.000000e+00 +/- 0.000000e+00) [K]

Current cycle: 100 out of 5000
===============================================================================

Box:      24.08121   0.00000   0.00000  Average:  24.11409   0.00000   0.00000
           0.00000  24.08121   0.00000             0.00000  24.11409   0.00000
           0.00000   0.00000  24.08121             0.00000   0.00000  24.11409
Lengths:  24.08121  24.08121  24.08121  Average:  24.11409  24.11409  24.11409
Angles:   90.00000  90.00000  90.00000  Average:  90.00000  90.00000  90.00000
Rectangular boundary conditions

net charge:   0.00000000

component 0 (CO2) lambda:  0 occupancy:  1 (1.000000)
    net charge:   0.00000000 [e]

Amount of molecules per component :
-------------------------------------------------------------------------------
Component 0 (CO2)
    molecules:      2.000000e+02 molecules  (2.000000e+02 +/- 0.000000e+00)
    number density: 1.432172e-02 molec./A^3 (1.426492e-02 +/- 0.000000e+00)
    density:        1.046369e+03 kg/m^3     (1.042220e+03 +/- 0.000000e+00)

Average pressure tensor: 
-------------------------------------------------------------------------------
-5.5447e+00  5.2454e+01  9.7265e+01 +/- 0.0000e+00 0.0000e+00 0.0000e+00 [bar]
 5.2454e+01  2.5557e+02 -1.0331e+02 +/- 0.0000e+00 0.0000e+00 0.0000e+00 [bar]
 9.7265e+01 -1.0331e+02 -6.2193e+01 +/- 0.0000e+00 0.0000e+00 0.0000e+00 [bar]
Ideal-gas pressure:   4.923717e+02 +/ 0.000000e+00 [bar]
Excess pressure:     -4.297594e+02 +/ 0.000000e+00 [bar]
Pressure:             6.261225e+01 +/ 0.000000e+00 [bar]

Total potential energy/kʙ  -2.988587e+05 (-3.014923e+05 +/- 0.000000e+00) [K]
-------------------------------------------------------------------------------
ExternalField-molecule
    Van der Waals/kʙ        0.000000e+00 ( 0.000000e+00 +/- 0.000000e+00) [K]
Framework-molecule
    Van der Waals/kʙ        0.000000e+00 ( 0.000000e+00 +/- 0.000000e+00) [K]
    Van der Waals (Tail)/kʙ 0.000000e+00 ( 0.000000e+00 +/- 0.000000e+00) [K]
    Coulombic Real/kʙ       0.000000e+00 ( 0.000000e+00 +/- 0.000000e+00) [K]
    Coulombic Fourier/kʙ    0.000000e+00 ( 0.000000e+00 +/- 0.000000e+00) [K]
Molecule-molecule
    Van der Waals/kʙ       -2.182892e+05 (-2.161240e+05 +/- 0.000000e+00) [K]
    Van der Waals (Tail)/kʙ-6.905617e+03 (-6.880021e+03 +/- 0.000000e+00) [K]
    Coulombic Real/kʙ      -6.253720e+04 (-6.807874e+04 +/- 0.000000e+00) [K]
    Coulombic Fourier/kʙ   -1.112671e+04 (-1.040957e+04 +/- 0.000000e+00) [K]
    Molecule Intra/kʙ       0.000000e+00 ( 0.000000e+00 +/- 0.000000e+00) [K]

Current cycle: 200 out of 5000
===============================================================================

Box:      23.81241   0.00000   0.00000  Average:  24.04264   0.00000   0.00000
           0.00000  23.81241   0.00000             0.00000  24.04264   0.00000
           0.00000   0.00000  23.81241             0.00000   0.00000  24.04264
Lengths:  23.81241  23.81241  23.81241  Average:  24.04264  24.04264  24.04264
Angles:   90.00000  90.00000  90.00000  Average:  90.00000  90.00000  90.00000
Rectangular boundary conditions

net charge:   0.00000000

component 0 (CO2) lambda:  0 occupancy:  1 (1.000000)
    net charge:   0.00000000 [e]

Amount of molecules per component :
-------------------------------------------------------------------------------
Component 0 (CO2)
    molecules:      2.000000e+02 molecules  (2.000000e+02 +/- 0.000000e+00)
    number density: 1.481221e-02 molec./A^3 (1.439301e-02 +/- 0.000000e+00)
    density:        1.082206e+03 kg/m^3     (1.051578e+03 +/- 0.000000e+00)

Average pressure tensor: 
-------------------------------------------------------------------------------
-7.9886e+01 -1.0406e+01  6.5943e+01 +/- 0.0000e+00 0.0000e+00 0.0000e+00 [bar]
-1.0406e+01  3.9444e+01 -1.3280e+02 +/- 0.0000e+00 0.0000e+00 0.0000e+00 [bar]
 6.5943e+01 -1.3280e+02 -1.0250e+02 +/- 0.0000e+00 0.0000e+00 0.0000e+00 [bar]
Ideal-gas pressure:   4.967930e+02 +/ 0.000000e+00 [bar]
Excess pressure:     -5.444411e+02 +/ 0.000000e+00 [bar]
Pressure:            -4.764818e+01 +/ 0.000000e+00 [bar]

Total potential energy/kʙ  -3.105317e+05 (-3.050183e+05 +/- 0.000000e+00) [K]
-------------------------------------------------------------------------------
ExternalField-molecule
    Van der Waals/kʙ        0.000000e+00 ( 0.000000e+00 +/- 0.000000e+00) [K]
Framework-molecule
    Van der Waals/kʙ        0.000000e+00 ( 0.000000e+00 +/- 0.000000e+00) [K]
    Van der Waals (Tail)/kʙ 0.000000e+00 ( 0.000000e+00 +/- 0.000000e+00) [K]
    Coulombic Real/kʙ       0.000000e+00 ( 0.000000e+00 +/- 0.000000e+00) [K]
    Coulombic Fourier/kʙ    0.000000e+00 ( 0.000000e+00 +/- 0.000000e+00) [K]
Molecule-molecule
    Van der Waals/kʙ       -2.230599e+05 (-2.193949e+05 +/- 0.000000e+00) [K]
    Van der Waals (Tail)/kʙ-7.142122e+03 (-6.927295e+03 +/- 0.000000e+00) [K]
    Coulombic Real/kʙ      -7.006301e+04 (-6.814407e+04 +/- 0.000000e+00) [K]
    Coulombic Fourier/kʙ   -1.026664e+04 (-1.055201e+04 +/- 0.000000e+00) [K]
    Molecule Intra/kʙ       0.000000e+00 ( 0.000000e+00 +/- 0.000000e+00) [K]

Current cycle: 300 out of 5000
===============================================================================

Box:      23.96923   0.00000   0.00000  Average:  23.98929   0.00000   0.00000
           0.00000  23.96923   0.00000             0.00000  23.98929   0.00000
           0.00000   0.00000  23.96923             0.00000   0.00000  23.98929
Lengths:  23.96923  23.96923  23.96923  Average:  23.98929  23.98929  23.98929
Angles:   90.00000  90.00000  90.00000  Average:  90.00000  90.00000  90.00000
Rectangular boundary conditions

net charge:   0.00000000

component 0 (CO2) lambda:  0 occupancy:  1 (1.000000)
    net charge:   0.00000000 [e]

Amount of molecules per component :
-------------------------------------------------------------------------------
Component 0 (CO2)
    molecules:      2.000000e+02 molecules  (2.000000e+02 +/- 0.000000e+00)
    number density: 1.452338e-02 molec./A^3 (1.448980e-02 +/- 0.000000e+00)
    density:        1.061103e+03 kg/m^3     (1.058650e+03 +/- 0.000000e+00)

Average pressure tensor: 
-------------------------------------------------------------------------------
-1.3673e+01  7.0172e+01  8.1922e+01 +/- 0.0000e+00 0.0000e+00 0.0000e+00 [bar]
 7.0172e+01  1.4456e+02 -8.0980e+01 +/- 0.0000e+00 0.0000e+00 0.0000e+00 [bar]
 8.1922e+01 -8.0980e+01  1.8208e+01 +/- 0.0000e+00 0.0000e+00 0.0000e+00 [bar]
Ideal-gas pressure:   5.001337e+02 +/ 0.000000e+00 [bar]
Excess pressure:     -4.504355e+02 +/ 0.000000e+00 [bar]
Pressure:             4.969824e+01 +/ 0.000000e+00 [bar]

Total potential energy/kʙ  -3.153469e+05 (-3.067767e+05 +/- 0.000000e+00) [K]
-------------------------------------------------------------------------------
ExternalField-molecule
    Van der Waals/kʙ        0.000000e+00 ( 0.000000e+00 +/- 0.000000e+00) [K]
Framework-molecule
    Van der Waals/kʙ        0.000000e+00 ( 0.000000e+00 +/- 0.000000e+00) [K]
    Van der Waals (Tail)/kʙ 0.000000e+00 ( 0.000000e+00 +/- 0.000000e+00) [K]
    Coulombic Real/kʙ       0.000000e+00 ( 0.000000e+00 +/- 0.000000e+00) [K]
    Coulombic Fourier/kʙ    0.000000e+00 ( 0.000000e+00 +/- 0.000000e+00) [K]
Molecule-molecule
    Van der Waals/kʙ       -2.212278e+05 (-2.204428e+05 +/- 0.000000e+00) [K]
    Van der Waals (Tail)/kʙ-7.002851e+03 (-6.981224e+03 +/- 0.000000e+00) [K]
    Coulombic Real/kʙ      -7.659355e+04 (-6.882267e+04 +/- 0.000000e+00) [K]
    Coulombic Fourier/kʙ   -1.052262e+04 (-1.053000e+04 +/- 0.000000e+00) [K]
    Molecule Intra/kʙ       0.000000e+00 ( 0.000000e+00 +/- 0.000000e+00) [K]

Current cycle: 400 out of 5000
===============================================================================

Box:      23.91312   0.00000   0.00000  Average:  24.00096   0.00000   0.00000
           0.00000  23.91312   0.00000             0.00000  24.00096   0.00000
           0.00000   0.00000  23.91312             0.00000   0.00000  24.00096
Lengths:  23.91312  23.91312  23.91312  Average:  24.00096  24.00096  24.00096
Angles:   90.00000  90.00000  90.00000  Average:  90.00000  90.00000  90.00000
Rectangular boundary conditions

net charge:   0.00000000

component 0 (CO2) lambda:  0 occupancy:  1 (1.000000)
    net charge:   0.00000000 [e]

Amount of molecules per component :
-------------------------------------------------------------------------------
Component 0 (CO2)
    molecules:      2.000000e+02 molecules  (2.000000e+02 +/- 0.000000e+00)
    number density: 1.462585e-02 molec./A^3 (1.446847e-02 +/- 0.000000e+00)
    density:        1.068590e+03 kg/m^3     (1.057091e+03 +/- 0.000000e+00)

Average pressure tensor: 
-------------------------------------------------------------------------------
-2.0893e+00  8.7374e+01  8.0588e+01 +/- 0.0000e+00 0.0000e+00 0.0000e+00 [bar]
 8.7374e+01  1.7677e+02 -5.9381e+01 +/- 0.0000e+00 0.0000e+00 0.0000e+00 [bar]
 8.0588e+01 -5.9381e+01 -1.0248e+00 +/- 0.0000e+00 0.0000e+00 0.0000e+00 [bar]
Ideal-gas pressure:   4.993974e+02 +/ 0.000000e+00 [bar]
Excess pressure:     -4.415135e+02 +/ 0.000000e+00 [bar]
Pressure:             5.788389e+01 +/ 0.000000e+00 [bar]

Total potential energy/kʙ  -3.049574e+05 (-3.060501e+05 +/- 0.000000e+00) [K]
-------------------------------------------------------------------------------
ExternalField-molecule
    Van der Waals/kʙ        0.000000e+00 ( 0.000000e+00 +/- 0.000000e+00) [K]
Framework-molecule
    Van der Waals/kʙ        0.000000e+00 ( 0.000000e+00 +/- 0.000000e+00) [K]
    Van der Waals (Tail)/kʙ 0.000000e+00 ( 0.000000e+00 +/- 0.000000e+00) [K]
    Coulombic Real/kʙ       0.000000e+00 ( 0.000000e+00 +/- 0.000000e+00) [K]
    Coulombic Fourier/kʙ    0.000000e+00 ( 0.000000e+00 +/- 0.000000e+00) [K]
Molecule-molecule
    Van der Waals/kʙ       -2.263191e+05 (-2.204530e+05 +/- 0.000000e+00) [K]
    Van der Waals (Tail)/kʙ-7.052262e+03 (-6.972057e+03 +/- 0.000000e+00) [K]
    Coulombic Real/kʙ      -6.199141e+04 (-6.831127e+04 +/- 0.000000e+00) [K]
    Coulombic Fourier/kʙ   -9.594624e+03 (-1.031379e+04 +/- 0.000000e+00) [K]
    Molecule Intra/kʙ       0.000000e+00 ( 0.000000e+00 +/- 0.000000e+00) [K]

Current cycle: 500 out of 5000
===============================================================================

Box:      24.01790   0.00000   0.00000  Average:  23.99677   0.00000   0.00000
           0.00000  24.01790   0.00000             0.00000  23.99677   0.00000
           0.00000   0.00000  24.01790             0.00000   0.00000  23.99677
Lengths:  24.01790  24.01790  24.01790  Average:  23.99677  23.99677  23.99677
Angles:   90.00000  90.00000  90.00000  Average:  90.00000  90.00000  90.00000
Rectangular boundary conditions

net charge:   0.00000000

component 0 (CO2) lambda:  0 occupancy:  1 (1.000000)
    net charge:   0.00000000 [e]

Amount of molecules per component :
-------------------------------------------------------------------------------
Component 0 (CO2)
    molecules:      2.000000e+02 molecules  (2.000000e+02 +/- 0.000000e+00)
    number density: 1.443527e-02 molec./A^3 (1.447571e-02 +/- 0.000000e+00)
    density:        1.054666e+03 kg/m^3     (1.057620e+03 +/- 0.000000e+00)

Average pressure tensor: 
-------------------------------------------------------------------------------
 3.7303e+01  5.8959e+01  9.0013e+01 +/- 0.0000e+00 0.0000e+00 0.0000e+00 [bar]
 5.8959e+01  1.5668e+02 -4.7315e+01 +/- 0.0000e+00 0.0000e+00 0.0000e+00 [bar]
 9.0013e+01 -4.7315e+01  3.4130e+01 +/- 0.0000e+00 0.0000e+00 0.0000e+00 [bar]
Ideal-gas pressure:   4.996474e+02 +/ 0.000000e+00 [bar]
Excess pressure:     -4.236095e+02 +/ 0.000000e+00 [bar]
Pressure:             7.603796e+01 +/ 0.000000e+00 [bar]

Total potential energy/kʙ  -3.018757e+05 (-3.053612e+05 +/- 0.000000e+00) [K]
-------------------------------------------------------------------------------
ExternalField-molecule
    Van der Waals/kʙ        0.000000e+00 ( 0.000000e+00 +/- 0.000000e+00) [K]
Framework-molecule
    Van der Waals/kʙ        0.000000e+00 ( 0.000000e+00 +/- 0.000000e+00) [K]
    Van der Waals (Tail)/kʙ 0.000000e+00 ( 0.000000e+00 +/- 0.000000e+00) [K]
    Coulombic Real/kʙ       0.000000e+00 ( 0.000000e+00 +/- 0.000000e+00) [K]
    Coulombic Fourier/kʙ    0.000000e+00 ( 0.000000e+00 +/- 0.000000e+00) [K]
Molecule-molecule
    Van der Waals/kʙ       -2.197831e+05 (-2.202216e+05 +/- 0.000000e+00) [K]
    Van der Waals (Tail)/kʙ-6.960369e+03 (-6.976581e+03 +/- 0.000000e+00) [K]
    Coulombic Real/kʙ      -6.475006e+04 (-6.793664e+04 +/- 0.000000e+00) [K]
    Coulombic Fourier/kʙ   -1.038215e+04 (-1.022637e+04 +/- 0.000000e+00) [K]
    Molecule Intra/kʙ       0.000000e+00 ( 0.000000e+00 +/- 0.000000e+00) [K]

Current cycle: 600 out of 5000
===============================================================================

Box:      23.97162   0.00000   0.00000  Average:  24.01419   0.00000   0.00000
           0.00000  23.97162   0.00000             0.00000  24.01419   0.00000
           0.00000   0.00000  23.97162             0.00000   0.00000  24.01419
Lengths:  23.97162  23.97162  23.97162  Average:  24.01419  24.01419  24.01419
Angles:   90.00000  90.00000  90.00000  Average:  90.00000  90.00000  90.00000
Rectangular boundary conditions

net charge:   0.00000000

component 0 (CO2) lambda:  0 occupancy:  1 (1.000000)
    net charge:   0.00000000 [e]

Amount of molecules per component :
-------------------------------------------------------------------------------
Component 0 (CO2)
    molecules:      2.000000e+02 molecules  (2.000000e+02 +/- 0.000000e+00)
    number density: 1.451904e-02 molec./A^3 (1.444457e-02 +/- 0.000000e+00)
    density:        1.060786e+03 kg/m^3     (1.055345e+03 +/- 0.000000e+00)

Average pressure tensor: 
-------------------------------------------------------------------------------
 3.8376e+01  2.4283e+01  1.0419e+02 +/- 0.0000e+00 0.0000e+00 0.0000e+00 [bar]
 2.4283e+01  1.5350e+02 -3.9315e+01 +/- 0.0000e+00 0.0000e+00 0.0000e+00 [bar]
 1.0419e+02 -3.9315e+01  4.2543e+01 +/- 0.0000e+00 0.0000e+00 0.0000e+00 [bar]
Ideal-gas pressure:   4.985726e+02 +/ 0.000000e+00 [bar]
Excess pressure:     -4.204343e+02 +/ 0.000000e+00 [bar]
Pressure:             7.813831e+01 +/ 0.000000e+00 [bar]

Total potential energy/kʙ  -3.003311e+05 (-3.042373e+05 +/- 0.000000e+00) [K]
-------------------------------------------------------------------------------
ExternalField-molecule
    Van der Waals/kʙ        0.000000e+00 ( 0.000000e+00 +/- 0.000000e+00) [K]
Framework-molecule
    Van der Waals/kʙ        0.000000e+00 ( 0.000000e+00 +/- 0.000000e+00) [K]
    Van der Waals (Tail)/kʙ 0.000000e+00 ( 0.000000e+00 +/- 0.000000e+00) [K]
    Coulombic Real/kʙ       0.000000e+00 ( 0.000000e+00 +/- 0.000000e+00) [K]
    Coulombic Fourier/kʙ    0.000000e+00 ( 0.000000e+00 +/- 0.000000e+00) [K]
Molecule-molecule
    Van der Waals/kʙ       -2.139759e+05 (-2.193850e+05 +/- 0.000000e+00) [K]
    Van der Waals (Tail)/kʙ-7.000759e+03 (-6.966614e+03 +/- 0.000000e+00) [K]
    Coulombic Real/kʙ      -6.943713e+04 (-6.766149e+04 +/- 0.000000e+00) [K]
    Coulombic Fourier/kʙ   -9.917243e+03 (-1.022417e+04 +/- 0.000000e+00) [K]
    Molecule Intra/kʙ       0.000000e+00 ( 0.000000e+00 +/- 0.000000e+00) [K]

Current cycle: 700 out of 5000
===============================================================================

Box:      24.02974   0.00000   0.00000  Average:  24.00719   0.00000   0.00000
           0.00000  24.02974   0.00000             0.00000  24.00719   0.00000
           0.00000   0.00000  24.02974             0.00000   0.00000  24.00719
Lengths:  24.02974  24.02974  24.02974  Average:  24.00719  24.00719  24.00719
Angles:   90.00000  90.00000  90.00000  Average:  90.00000  90.00000  90.00000
Rectangular boundary conditions

net charge:   0.00000000

component 0 (CO2) lambda:  0 occupancy:  1 (1.000000)
    net charge:   0.00000000 [e]

Amount of molecules per component :
-------------------------------------------------------------------------------
Component 0 (CO2)
    molecules:      2.000000e+02 molecules  (2.000000e+02 +/- 0.000000e+00)
    number density: 1.441395e-02 molec./A^3 (1.445725e-02 +/- 0.000000e+00)
    density:        1.053108e+03 kg/m^3     (1.056271e+03 +/- 0.000000e+00)

Average pressure tensor: 
-------------------------------------------------------------------------------
 4.8636e+01  4.7473e+00  1.0372e+02 +/- 0.0000e+00 0.0000e+00 0.0000e+00 [bar]
 4.7473e+00  1.5392e+02 -3.0361e+01 +/- 0.0000e+00 0.0000e+00 0.0000e+00 [bar]
 1.0372e+02 -3.0361e+01  5.8689e+01 +/- 0.0000e+00 0.0000e+00 0.0000e+00 [bar]
Ideal-gas pressure:   4.990102e+02 +/ 0.000000e+00 [bar]
Excess pressure:     -4.119273e+02 +/ 0.000000e+00 [bar]
Pressure:             8.708284e+01 +/ 0.000000e+00 [bar]

Total potential energy/kʙ  -3.012835e+05 (-3.043641e+05 +/- 0.000000e+00) [K]
-------------------------------------------------------------------------------
ExternalField-molecule
    Van der Waals/kʙ        0.000000e+00 ( 0.000000e+00 +/- 0.000000e+00) [K]
Framework-molecule
    Van der Waals/kʙ        0.000000e+00 ( 0.000000e+00 +/- 0.000000e+00) [K]
    Van der Waals (Tail)/kʙ 0.000000e+00 ( 0.000000e+00 +/- 0.000000e+00) [K]
    Coulombic Real/kʙ       0.000000e+00 ( 0.000000e+00 +/- 0.000000e+00) [K]
    Coulombic Fourier/kʙ    0.000000e+00 ( 0.000000e+00 +/- 0.000000e+00) [K]
Molecule-molecule
    Van der Waals/kʙ       -2.215499e+05 (-2.198728e+05 +/- 0.000000e+00) [K]
    Van der Waals (Tail)/kʙ-6.950087e+03 (-6.971937e+03 +/- 0.000000e+00) [K]
    Coulombic Real/kʙ      -6.289459e+04 (-6.743643e+04 +/- 0.000000e+00) [K]
    Coulombic Fourier/kʙ   -9.888880e+03 (-1.008292e+04 +/- 0.000000e+00) [K]
    Molecule Intra/kʙ       0.000000e+00 ( 0.000000e+00 +/- 0.000000e+00) [K]

Current cycle: 800 out of 5000
===============================================================================

Box:      24.17583   0.00000   0.00000  Average:  24.02332   0.00000   0.00000
           0.00000  24.17583   0.00000             0.00000  24.02332   0.00000
           0.00000   0.00000  24.17583             0.00000   0.00000  24.02332
Lengths:  24.17583  24.17583  24.17583  Average:  24.02332  24.02332  24.02332
Angles:   90.00000  90.00000  90.00000  Average:  90.00000  90.00000  90.00000
Rectangular boundary conditions

net charge:   0.00000000

component 0 (CO2) lambda:  0 occupancy:  1 (1.000000)
    net charge:   0.00000000 [e]

Amount of molecules per component :
-------------------------------------------------------------------------------
Component 0 (CO2)
    molecules:      2.000000e+02 molecules  (2.000000e+02 +/- 0.000000e+00)
    number density: 1.415422e-02 molec./A^3 (1.442818e-02 +/- 0.000000e+00)
    density:        1.034132e+03 kg/m^3     (1.054148e+03 +/- 0.000000e+00)

Average pressure tensor: 
-------------------------------------------------------------------------------
 2.2203e+01  4.0207e+00  9.8252e+01 +/- 0.0000e+00 0.0000e+00 0.0000e+00 [bar]
 4.0207e+00  1.3378e+02 -2.1453e+01 +/- 0.0000e+00 0.0000e+00 0.0000e+00 [bar]
 9.8252e+01 -2.1453e+01  6.2405e+01 +/- 0.0000e+00 0.0000e+00 0.0000e+00 [bar]
Ideal-gas pressure:   4.980069e+02 +/ 0.000000e+00 [bar]
Excess pressure:     -4.252091e+02 +/ 0.000000e+00 [bar]
Pressure:             7.279780e+01 +/ 0.000000e+00 [bar]

Total potential energy/kʙ  -2.973778e+05 (-3.034856e+05 +/- 0.000000e+00) [K]
-------------------------------------------------------------------------------
ExternalField-molecule
    Van der Waals/kʙ        0.000000e+00 ( 0.000000e+00 +/- 0.000000e+00) [K]
Framework-molecule
    Van der Waals/kʙ        0.000000e+00 ( 0.000000e+00 +/- 0.000000e+00) [K]
    Van der Waals (Tail)/kʙ 0.000000e+00 ( 0.000000e+00 +/- 0.000000e+00) [K]
    Coulombic Real/kʙ       0.000000e+00 ( 0.000000e+00 +/- 0.000000e+00) [K]
    Coulombic Fourier/kʙ    0.000000e+00 ( 0.000000e+00 +/- 0.000000e+00) [K]
Molecule-molecule
    Van der Waals/kʙ       -2.183728e+05 (-2.194789e+05 +/- 0.000000e+00) [K]
    Van der Waals (Tail)/kʙ-6.824854e+03 (-6.958111e+03 +/- 0.000000e+00) [K]
    Coulombic Real/kʙ      -6.298592e+04 (-6.699110e+04 +/- 0.000000e+00) [K]
    Coulombic Fourier/kʙ   -9.194230e+03 (-1.005749e+04 +/- 0.000000e+00) [K]
    Molecule Intra/kʙ       0.000000e+00 ( 0.000000e+00 +/- 0.000000e+00) [K]

Current cycle: 900 out of 5000
===============================================================================

Box:      24.18187   0.00000   0.00000  Average:  24.03368   0.00000   0.00000
           0.00000  24.18187   0.00000             0.00000  24.03368   0.00000
           0.00000   0.00000  24.18187             0.00000   0.00000  24.03368
Lengths:  24.18187  24.18187  24.18187  Average:  24.03368  24.03368  24.03368
Angles:   90.00000  90.00000  90.00000  Average:  90.00000  90.00000  90.00000
Rectangular boundary conditions

net charge:   0.00000000

component 0 (CO2) lambda:  0 occupancy:  1 (1.000000)
    net charge:   0.00000000 [e]

Amount of molecules per component :
-------------------------------------------------------------------------------
Component 0 (CO2)
    molecules:      2.000000e+02 molecules  (2.000000e+02 +/- 0.000000e+00)
    number density: 1.414361e-02 molec./A^3 (1.440968e-02 +/- 0.000000e+00)
    density:        1.033357e+03 kg/m^3     (1.052796e+03 +/- 0.000000e+00)

Average pressure tensor: 
-------------------------------------------------------------------------------
 2.8510e+01  1.0987e+01  9.9320e+01 +/- 0.0000e+00 0.0000e+00 0.0000e+00 [bar]
 1.0987e+01  1.4148e+02 -2.0468e+01 +/- 0.0000e+00 0.0000e+00 0.0000e+00 [bar]
 9.9320e+01 -2.0468e+01  5.2005e+01 +/- 0.0000e+00 0.0000e+00 0.0000e+00 [bar]
Ideal-gas pressure:   4.973683e+02 +/ 0.000000e+00 [bar]
Excess pressure:     -4.233692e+02 +/ 0.000000e+00 [bar]
Pressure:             7.399905e+01 +/ 0.000000e+00 [bar]

Total potential energy/kʙ  -3.024021e+05 (-3.028830e+05 +/- 0.000000e+00) [K]
-------------------------------------------------------------------------------
ExternalField-molecule
    Van der Waals/kʙ        0.000000e+00 ( 0.000000e+00 +/- 0.000000e+00) [K]
Framework-molecule
    Van der Waals/kʙ        0.000000e+00 ( 0.000000e+00 +/- 0.000000e+00) [K]
    Van der Waals (Tail)/kʙ 0.000000e+00 ( 0.000000e+00 +/- 0.000000e+00) [K]
    Coulombic Real/kʙ       0.000000e+00 ( 0.000000e+00 +/- 0.000000e+00) [K]
    Coulombic Fourier/kʙ    0.000000e+00 ( 0.000000e+00 +/- 0.000000e+00) [K]
Molecule-molecule
    Van der Waals/kʙ       -2.213170e+05 (-2.191627e+05 +/- 0.000000e+00) [K]
    Van der Waals (Tail)/kʙ-6.819738e+03 (-6.950372e+03 +/- 0.000000e+00) [K]
    Coulombic Real/kʙ      -6.431066e+04 (-6.678527e+04 +/- 0.000000e+00) [K]
    Coulombic Fourier/kʙ   -9.954753e+03 (-9.984683e+03 +/- 0.000000e+00) [K]
    Molecule Intra/kʙ       0.000000e+00 ( 0.000000e+00 +/- 0.000000e+00) [K]

Current cycle: 1000 out of 5000
===============================================================================

Box:      23.84255   0.00000   0.00000  Average:  24.01853   0.00000   0.00000
           0.00000  23.84255   0.00000             0.00000  24.01853   0.00000
           0.00000   0.00000  23.84255             0.00000   0.00000  24.01853
Lengths:  23.84255  23.84255  23.84255  Average:  24.01853  24.01853  24.01853
Angles:   90.00000  90.00000  90.00000  Average:  90.00000  90.00000  90.00000
Rectangular boundary conditions

net charge:   0.00000000

component 0 (CO2) lambda:  0 occupancy:  1 (1.000000)
    net charge:   0.00000000 [e]

Amount of molecules per component :
-------------------------------------------------------------------------------
Component 0 (CO2)
    molecules:      2.000000e+02 molecules  (2.000000e+02 +/- 0.000000e+00)
    number density: 1.475612e-02 molec./A^3 (1.443717e-02 +/- 0.000000e+00)
    density:        1.078107e+03 kg/m^3     (1.054805e+03 +/- 0.000000e+00)

Average pressure tensor: 
-------------------------------------------------------------------------------
 1.7666e+01  1.7395e+01  9.7608e+01 +/- 0.0000e+00 0.0000e+00 0.0000e+00 [bar]
 1.7395e+01  1.0972e+02 -2.5643e+00 +/- 0.0000e+00 0.0000e+00 0.0000e+00 [bar]
 9.7608e+01 -2.5643e+00  6.9030e+01 +/- 0.0000e+00 0.0000e+00 0.0000e+00 [bar]
Ideal-gas pressure:   4.983172e+02 +/ 0.000000e+00 [bar]
Excess pressure:     -4.328460e+02 +/ 0.000000e+00 [bar]
Pressure:             6.547120e+01 +/ 0.000000e+00 [bar]

Total potential energy/kʙ  -3.103922e+05 (-3.037193e+05 +/- 0.000000e+00) [K]
-------------------------------------------------------------------------------
ExternalField-molecule
    Van der Waals/kʙ        0.000000e+00 ( 0.000000e+00 +/- 0.000000e+00) [K]
Framework-molecule
    Van der Waals/kʙ        0.000000e+00 ( 0.000000e+00 +/- 0.000000e+00) [K]
    Van der Waals (Tail)/kʙ 0.000000e+00 ( 0.000000e+00 +/- 0.000000e+00) [K]
    Coulombic Real/kʙ       0.000000e+00 ( 0.000000e+00 +/- 0.000000e+00) [K]
    Coulombic Fourier/kʙ    0.000000e+00 ( 0.000000e+00 +/- 0.000000e+00) [K]
Molecule-molecule
    Van der Waals/kʙ       -2.219877e+05 (-2.197450e+05 +/- 0.000000e+00) [K]
    Van der Waals (Tail)/kʙ-7.115073e+03 (-6.965181e+03 +/- 0.000000e+00) [K]
    Coulombic Real/kʙ      -7.062035e+04 (-6.696672e+04 +/- 0.000000e+00) [K]
    Coulombic Fourier/kʙ   -1.066907e+04 (-1.004240e+04 +/- 0.000000e+00) [K]
    Molecule Intra/kʙ       0.000000e+00 ( 0.000000e+00 +/- 0.000000e+00) [K]

Current cycle: 1100 out of 5000
===============================================================================

Box:      24.41319   0.00000   0.00000  Average:  24.01514   0.00000   0.00000
           0.00000  24.41319   0.00000             0.00000  24.01514   0.00000
           0.00000   0.00000  24.41319             0.00000   0.00000  24.01514
Lengths:  24.41319  24.41319  24.41319  Average:  24.01514  24.01514  24.01514
Angles:   90.00000  90.00000  90.00000  Average:  90.00000  90.00000  90.00000
Rectangular boundary conditions

net charge:   0.00000000

component 0 (CO2) lambda:  0 occupancy:  1 (1.000000)
    net charge:   0.00000000 [e]

Amount of molecules per component :
-------------------------------------------------------------------------------
Component 0 (CO2)
    molecules:      2.000000e+02 molecules  (2.000000e+02 +/- 0.000000e+00)
    number density: 1.374536e-02 molec./A^3 (1.444333e-02 +/- 0.000000e+00)
    density:        1.004260e+03 kg/m^3     (1.055255e+03 +/- 0.000000e+00)

Average pressure tensor: 
-------------------------------------------------------------------------------
 3.0790e+01  2.4081e+01  8.3847e+01 +/- 0.0000e+00 0.0000e+00 0.0000e+00 [bar]
 2.4081e+01  1.1384e+02 -1.0590e+01 +/- 0.0000e+00 0.0000e+00 0.0000e+00 [bar]
 8.3847e+01 -1.0590e+01  8.8160e+01 +/- 0.0000e+00 0.0000e+00 0.0000e+00 [bar]
Ideal-gas pressure:   4.985298e+02 +/ 0.000000e+00 [bar]
Excess pressure:     -4.209321e+02 +/ 0.000000e+00 [bar]
Pressure:             7.759773e+01 +/ 0.000000e+00 [bar]

Total potential energy/kʙ  -2.901401e+05 (-3.038942e+05 +/- 0.000000e+00) [K]
-------------------------------------------------------------------------------
ExternalField-molecule
    Van der Waals/kʙ        0.000000e+00 ( 0.000000e+00 +/- 0.000000e+00) [K]
Framework-molecule
    Van der Waals/kʙ        0.000000e+00 ( 0.000000e+00 +/- 0.000000e+00) [K]
    Van der Waals (Tail)/kʙ 0.000000e+00 ( 0.000000e+00 +/- 0.000000e+00) [K]
    Coulombic Real/kʙ       0.000000e+00 ( 0.000000e+00 +/- 0.000000e+00) [K]
    Coulombic Fourier/kʙ    0.000000e+00 ( 0.000000e+00 +/- 0.000000e+00) [K]
Molecule-molecule
    Van der Waals/kʙ       -2.110262e+05 (-2.197996e+05 +/- 0.000000e+00) [K]
    Van der Waals (Tail)/kʙ-6.627711e+03 (-6.967042e+03 +/- 0.000000e+00) [K]
    Coulombic Real/kʙ      -6.257591e+04 (-6.707509e+04 +/- 0.000000e+00) [K]
    Coulombic Fourier/kʙ   -9.910260e+03 (-1.005250e+04 +/- 0.000000e+00) [K]
    Molecule Intra/kʙ       0.000000e+00 ( 0.000000e+00 +/- 0.000000e+00) [K]

Current cycle: 1200 out of 5000
===============================================================================

Box:      23.98832   0.00000   0.00000  Average:  24.02896   0.00000   0.00000
           0.00000  23.98832   0.00000             0.00000  24.02896   0.00000
           0.00000   0.00000  23.98832             0.00000   0.00000  24.02896
Lengths:  23.98832  23.98832  23.98832  Average:  24.02896  24.02896  24.02896
Angles:   90.00000  90.00000  90.00000  Average:  90.00000  90.00000  90.00000
Rectangular boundary conditions

net charge:   0.00000000

component 0 (CO2) lambda:  0 occupancy:  1 (1.000000)
    net charge:   0.00000000 [e]

Amount of molecules per component :
-------------------------------------------------------------------------------
Component 0 (CO2)
    molecules:      2.000000e+02 molecules  (2.000000e+02 +/- 0.000000e+00)
    number density: 1.448873e-02 molec./A^3 (1.441869e-02 +/- 0.000000e+00)
    density:        1.058572e+03 kg/m^3     (1.053454e+03 +/- 0.000000e+00)

Average pressure tensor: 
-------------------------------------------------------------------------------
 1.6780e+01  3.1064e+01  9.1676e+01 +/- 0.0000e+00 0.0000e+00 0.0000e+00 [bar]
 3.1064e+01  1.0663e+02 -6.0643e+00 +/- 0.0000e+00 0.0000e+00 0.0000e+00 [bar]
 9.1676e+01 -6.0643e+00  8.6213e+01 +/- 0.0000e+00 0.0000e+00 0.0000e+00 [bar]
Ideal-gas pressure:   4.976791e+02 +/ 0.000000e+00 [bar]
Excess pressure:     -4.278039e+02 +/ 0.000000e+00 [bar]
Pressure:             6.987515e+01 +/ 0.000000e+00 [bar]

Total potential energy/kʙ  -3.058288e+05 (-3.033650e+05 +/- 0.000000e+00) [K]
-------------------------------------------------------------------------------
ExternalField-molecule
    Van der Waals/kʙ        0.000000e+00 ( 0.000000e+00 +/- 0.000000e+00) [K]
Framework-molecule
    Van der Waals/kʙ        0.000000e+00 ( 0.000000e+00 +/- 0.000000e+00) [K]
    Van der Waals (Tail)/kʙ 0.000000e+00 ( 0.000000e+00 +/- 0.000000e+00) [K]
    Coulombic Real/kʙ       0.000000e+00 ( 0.000000e+00 +/- 0.000000e+00) [K]
    Coulombic Fourier/kʙ    0.000000e+00 ( 0.000000e+00 +/- 0.000000e+00) [K]
Molecule-molecule
    Van der Waals/kʙ       -2.233217e+05 (-2.194205e+05 +/- 0.000000e+00) [K]
    Van der Waals (Tail)/kʙ-6.986146e+03 (-6.954165e+03 +/- 0.000000e+00) [K]
    Coulombic Real/kʙ      -6.584636e+04 (-6.698586e+04 +/- 0.000000e+00) [K]
    Coulombic Fourier/kʙ   -9.674579e+03 (-1.000447e+04 +/- 0.000000e+00) [K]
    Molecule Intra/kʙ       0.000000e+00 ( 0.000000e+00 +/- 0.000000e+00) [K]

Current cycle: 1300 out of 5000
===============================================================================

Box:      24.28139   0.00000   0.00000  Average:  24.03700   0.00000   0.00000
           0.00000  24.28139   0.00000             0.00000  24.03700   0.00000
           0.00000   0.00000  24.28139             0.00000   0.00000  24.03700
Lengths:  24.28139  24.28139  24.28139  Average:  24.03700  24.03700  24.03700
Angles:   90.00000  90.00000  90.00000  Average:  90.00000  90.00000  90.00000
Rectangular boundary conditions

net charge:   0.00000000

component 0 (CO2) lambda:  0 occupancy:  1 (1.000000)
    net charge:   0.00000000 [e]

Amount of molecules per component :
-------------------------------------------------------------------------------
Component 0 (CO2)
    molecules:      2.000000e+02 molecules  (2.000000e+02 +/- 0.000000e+00)
    number density: 1.397041e-02 molec./A^3 (1.440422e-02 +/- 0.000000e+00)
    density:        1.020702e+03 kg/m^3     (1.052397e+03 +/- 0.000000e+00)

Average pressure tensor: 
-------------------------------------------------------------------------------
 3.6640e+01  3.9228e+01  7.3465e+01 +/- 0.0000e+00 0.0000e+00 0.0000e+00 [bar]
 3.9228e+01  1.1057e+02  7.4671e+00 +/- 0.0000e+00 0.0000e+00 0.0000e+00 [bar]
 7.3465e+01  7.4671e+00  7.3645e+01 +/- 0.0000e+00 0.0000e+00 0.0000e+00 [bar]
Ideal-gas pressure:   4.971798e+02 +/ 0.000000e+00 [bar]
Excess pressure:     -4.235631e+02 +/ 0.000000e+00 [bar]
Pressure:             7.361669e+01 +/ 0.000000e+00 [bar]

Total potential energy/kʙ  -3.027305e+05 (-3.032887e+05 +/- 0.000000e+00) [K]
-------------------------------------------------------------------------------
ExternalField-molecule
    Van der Waals/kʙ        0.000000e+00 ( 0.000000e+00 +/- 0.000000e+00) [K]
Framework-molecule
    Van der Waals/kʙ        0.000000e+00 ( 0.000000e+00 +/- 0.000000e+00) [K]
    Van der Waals (Tail)/kʙ 0.000000e+00 ( 0.000000e+00 +/- 0.000000e+00) [K]
    Coulombic Real/kʙ       0.000000e+00 ( 0.000000e+00 +/- 0.000000e+00) [K]
    Coulombic Fourier/kʙ    0.000000e+00 ( 0.000000e+00 +/- 0.000000e+00) [K]
Molecule-molecule
    Van der Waals/kʙ       -2.163868e+05 (-2.190506e+05 +/- 0.000000e+00) [K]
    Van der Waals (Tail)/kʙ-6.736223e+03 (-6.947681e+03 +/- 0.000000e+00) [K]
    Coulombic Real/kʙ      -6.952503e+04 (-6.728365e+04 +/- 0.000000e+00) [K]
    Coulombic Fourier/kʙ   -1.008242e+04 (-1.000677e+04 +/- 0.000000e+00) [K]
    Molecule Intra/kʙ       0.000000e+00 ( 0.000000e+00 +/- 0.000000e+00) [K]

Current cycle: 1400 out of 5000
===============================================================================

Box:      23.96556   0.00000   0.00000  Average:  24.04218   0.00000   0.00000
           0.00000  23.96556   0.00000             0.00000  24.04218   0.00000
           0.00000   0.00000  23.96556             0.00000   0.00000  24.04218
Lengths:  23.96556  23.96556  23.96556  Average:  24.04218  24.04218  24.04218
Angles:   90.00000  90.00000  90.00000  Average:  90.00000  90.00000  90.00000
Rectangular boundary conditions

net charge:   0.00000000

component 0 (CO2) lambda:  0 occupancy:  1 (1.000000)
    net charge:   0.00000000 [e]

Amount of molecules per component :
-------------------------------------------------------------------------------
Component 0 (CO2)
    molecules:      2.000000e+02 molecules  (2.000000e+02 +/- 0.000000e+00)
    number density: 1.453006e-02 molec./A^3 (1.439496e-02 +/- 0.000000e+00)
    density:        1.061591e+03 kg/m^3     (1.051721e+03 +/- 0.000000e+00)

Average pressure tensor: 
-------------------------------------------------------------------------------
 2.2343e+01  3.1093e+01  5.7415e+01 +/- 0.0000e+00 0.0000e+00 0.0000e+00 [bar]
 3.1093e+01  1.0449e+02 -1.1220e+00 +/- 0.0000e+00 0.0000e+00 0.0000e+00 [bar]
 5.7415e+01 -1.1220e+00  6.4737e+01 +/- 0.0000e+00 0.0000e+00 0.0000e+00 [bar]
Ideal-gas pressure:   4.968603e+02 +/ 0.000000e+00 [bar]
Excess pressure:     -4.330040e+02 +/ 0.000000e+00 [bar]
Pressure:             6.385626e+01 +/ 0.000000e+00 [bar]

Total potential energy/kʙ  -3.109565e+05 (-3.030791e+05 +/- 0.000000e+00) [K]
-------------------------------------------------------------------------------
ExternalField-molecule
    Van der Waals/kʙ        0.000000e+00 ( 0.000000e+00 +/- 0.000000e+00) [K]
Framework-molecule
    Van der Waals/kʙ        0.000000e+00 ( 0.000000e+00 +/- 0.000000e+00) [K]
    Van der Waals (Tail)/kʙ 0.000000e+00 ( 0.000000e+00 +/- 0.000000e+00) [K]
    Coulombic Real/kʙ       0.000000e+00 ( 0.000000e+00 +/- 0.000000e+00) [K]
    Coulombic Fourier/kʙ    0.000000e+00 ( 0.000000e+00 +/- 0.000000e+00) [K]
Molecule-molecule
    Van der Waals/kʙ       -2.234406e+05 (-2.188510e+05 +/- 0.000000e+00) [K]
    Van der Waals (Tail)/kʙ-7.006073e+03 (-6.943014e+03 +/- 0.000000e+00) [K]
    Coulombic Real/kʙ      -7.007006e+04 (-6.727381e+04 +/- 0.000000e+00) [K]
    Coulombic Fourier/kʙ   -1.043986e+04 (-1.001125e+04 +/- 0.000000e+00) [K]
    Molecule Intra/kʙ       0.000000e+00 ( 0.000000e+00 +/- 0.000000e+00) [K]

Current cycle: 1500 out of 5000
===============================================================================

Box:      23.98367   0.00000   0.00000  Average:  24.03745   0.00000   0.00000
           0.00000  23.98367   0.00000             0.00000  24.03745   0.00000
           0.00000   0.00000  23.98367             0.00000   0.00000  24.03745
Lengths:  23.98367  23.98367  23.98367  Average:  24.03745  24.03745  24.03745
Angles:   90.00000  90.00000  90.00000  Average:  90.00000  90.00000  90.00000
Rectangular boundary conditions

net charge:   0.00000000

component 0 (CO2) lambda:  0 occupancy:  1 (1.000000)
    net charge:   0.00000000 [e]

Amount of molecules per component :
-------------------------------------------------------------------------------
Component 0 (CO2)
    molecules:      2.000000e+02 molecules  (2.000000e+02 +/- 0.000000e+00)
    number density: 1.449717e-02 molec./A^3 (1.440336e-02 +/- 0.000000e+00)
    density:        1.059188e+03 kg/m^3     (1.052334e+03 +/- 0.000000e+00)

Average pressure tensor: 
-------------------------------------------------------------------------------
 2.7410e+01  2.3033e+01  4.2869e+01 +/- 0.0000e+00 0.0000e+00 0.0000e+00 [bar]
 2.3033e+01  1.1269e+02 -8.8966e-01 +/- 0.0000e+00 0.0000e+00 0.0000e+00 [bar]
 4.2869e+01 -8.8966e-01  6.7794e+01 +/- 0.0000e+00 0.0000e+00 0.0000e+00 [bar]
Ideal-gas pressure:   4.971501e+02 +/ 0.000000e+00 [bar]
Excess pressure:     -4.278517e+02 +/ 0.000000e+00 [bar]
Pressure:             6.929838e+01 +/ 0.000000e+00 [bar]

Total potential energy/kʙ  -3.014971e+05 (-3.031625e+05 +/- 0.000000e+00) [K]
-------------------------------------------------------------------------------
ExternalField-molecule
    Van der Waals/kʙ        0.000000e+00 ( 0.000000e+00 +/- 0.000000e+00) [K]
Framework-molecule
    Van der Waals/kʙ        0.000000e+00 ( 0.000000e+00 +/- 0.000000e+00) [K]
    Van der Waals (Tail)/kʙ 0.000000e+00 ( 0.000000e+00 +/- 0.000000e+00) [K]
    Coulombic Real/kʙ       0.000000e+00 ( 0.000000e+00 +/- 0.000000e+00) [K]
    Coulombic Fourier/kʙ    0.000000e+00 ( 0.000000e+00 +/- 0.000000e+00) [K]
Molecule-molecule
    Van der Waals/kʙ       -2.133090e+05 (-2.188959e+05 +/- 0.000000e+00) [K]
    Van der Waals (Tail)/kʙ-6.990216e+03 (-6.947511e+03 +/- 0.000000e+00) [K]
    Coulombic Real/kʙ      -7.119973e+04 (-6.731765e+04 +/- 0.000000e+00) [K]
    Coulombic Fourier/kʙ   -9.998099e+03 (-1.000142e+04 +/- 0.000000e+00) [K]
    Molecule Intra/kʙ       0.000000e+00 ( 0.000000e+00 +/- 0.000000e+00) [K]

Current cycle: 1600 out of 5000
===============================================================================

Box:      23.98473   0.00000   0.00000  Average:  24.03642   0.00000   0.00000
           0.00000  23.98473   0.00000             0.00000  24.03642   0.00000
           0.00000   0.00000  23.98473             0.00000   0.00000  24.03642
Lengths:  23.98473  23.98473  23.98473  Average:  24.03642  24.03642  24.03642
Angles:   90.00000  90.00000  90.00000  Average:  90.00000  90.00000  90.00000
Rectangular boundary conditions

net charge:   0.00000000

component 0 (CO2) lambda:  0 occupancy:  1 (1.000000)
    net charge:   0.00000000 [e]

Amount of molecules per component :
-------------------------------------------------------------------------------
Component 0 (CO2)
    molecules:      2.000000e+02 molecules  (2.000000e+02 +/- 0.000000e+00)
    number density: 1.449524e-02 molec./A^3 (1.440512e-02 +/- 0.000000e+00)
    density:        1.059047e+03 kg/m^3     (1.052462e+03 +/- 0.000000e+00)

Average pressure tensor: 
-------------------------------------------------------------------------------
 4.1850e+01  2.3816e+01  3.2125e+01 +/- 0.0000e+00 0.0000e+00 0.0000e+00 [bar]
 2.3816e+01  1.1331e+02 -7.7512e+00 +/- 0.0000e+00 0.0000e+00 0.0000e+00 [bar]
 3.2125e+01 -7.7512e+00  6.5019e+01 +/- 0.0000e+00 0.0000e+00 0.0000e+00 [bar]
Ideal-gas pressure:   4.972107e+02 +/ 0.000000e+00 [bar]
Excess pressure:     -4.238180e+02 +/ 0.000000e+00 [bar]
Pressure:             7.339266e+01 +/ 0.000000e+00 [bar]

Total potential energy/kʙ  -3.053590e+05 (-3.032271e+05 +/- 0.000000e+00) [K]
-------------------------------------------------------------------------------
ExternalField-molecule
    Van der Waals/kʙ        0.000000e+00 ( 0.000000e+00 +/- 0.000000e+00) [K]
Framework-molecule
    Van der Waals/kʙ        0.000000e+00 ( 0.000000e+00 +/- 0.000000e+00) [K]
    Van der Waals (Tail)/kʙ 0.000000e+00 ( 0.000000e+00 +/- 0.000000e+00) [K]
    Coulombic Real/kʙ       0.000000e+00 ( 0.000000e+00 +/- 0.000000e+00) [K]
    Coulombic Fourier/kʙ    0.000000e+00 ( 0.000000e+00 +/- 0.000000e+00) [K]
Molecule-molecule
    Van der Waals/kʙ       -2.169019e+05 (-2.188244e+05 +/- 0.000000e+00) [K]
    Van der Waals (Tail)/kʙ-6.989284e+03 (-6.948844e+03 +/- 0.000000e+00) [K]
    Coulombic Real/kʙ      -7.146623e+04 (-6.746364e+04 +/- 0.000000e+00) [K]
    Coulombic Fourier/kʙ   -1.000153e+04 (-9.990205e+03 +/- 0.000000e+00) [K]
    Molecule Intra/kʙ       0.000000e+00 ( 0.000000e+00 +/- 0.000000e+00) [K]

Current cycle: 1700 out of 5000
===============================================================================

Box:      24.21868   0.00000   0.00000  Average:  24.03994   0.00000   0.00000
           0.00000  24.21868   0.00000             0.00000  24.03994   0.00000
           0.00000   0.00000  24.21868             0.00000   0.00000  24.03994
Lengths:  24.21868  24.21868  24.21868  Average:  24.03994  24.03994  24.03994
Angles:   90.00000  90.00000  90.00000  Average:  90.00000  90.00000  90.00000
Rectangular boundary conditions

net charge:   0.00000000

component 0 (CO2) lambda:  0 occupancy:  1 (1.000000)
    net charge:   0.00000000 [e]

Amount of molecules per component :
-------------------------------------------------------------------------------
Component 0 (CO2)
    molecules:      2.000000e+02 molecules  (2.000000e+02 +/- 0.000000e+00)
    number density: 1.407921e-02 molec./A^3 (1.439876e-02 +/- 0.000000e+00)
    density:        1.028652e+03 kg/m^3     (1.051998e+03 +/- 0.000000e+00)

Average pressure tensor: 
-------------------------------------------------------------------------------
 4.8473e+01  2.3742e+01  3.5867e+01 +/- 0.0000e+00 0.0000e+00 0.0000e+00 [bar]
 2.3742e+01  1.0049e+02 -3.2171e+00 +/- 0.0000e+00 0.0000e+00 0.0000e+00 [bar]
 3.5867e+01 -3.2171e+00  8.3130e+01 +/- 0.0000e+00 0.0000e+00 0.0000e+00 [bar]
Ideal-gas pressure:   4.969912e+02 +/ 0.000000e+00 [bar]
Excess pressure:     -4.196272e+02 +/ 0.000000e+00 [bar]
Pressure:             7.736404e+01 +/ 0.000000e+00 [bar]

Total potential energy/kʙ  -2.969865e+05 (-3.029247e+05 +/- 0.000000e+00) [K]
-------------------------------------------------------------------------------
ExternalField-molecule
    Van der Waals/kʙ        0.000000e+00 ( 0.000000e+00 +/- 0.000000e+00) [K]
Framework-molecule
    Van der Waals/kʙ        0.000000e+00 ( 0.000000e+00 +/- 0.000000e+00) [K]
    Van der Waals (Tail)/kʙ 0.000000e+00 ( 0.000000e+00 +/- 0.000000e+00) [K]
    Coulombic Real/kʙ       0.000000e+00 ( 0.000000e+00 +/- 0.000000e+00) [K]
    Coulombic Fourier/kʙ    0.000000e+00 ( 0.000000e+00 +/- 0.000000e+00) [K]
Molecule-molecule
    Van der Waals/kʙ       -2.178682e+05 (-2.186544e+05 +/- 0.000000e+00) [K]
    Van der Waals (Tail)/kʙ-6.788686e+03 (-6.945574e+03 +/- 0.000000e+00) [K]
    Coulombic Real/kʙ      -6.238345e+04 (-6.735603e+04 +/- 0.000000e+00) [K]
    Coulombic Fourier/kʙ   -9.946224e+03 (-9.968698e+03 +/- 0.000000e+00) [K]
    Molecule Intra/kʙ       0.000000e+00 ( 0.000000e+00 +/- 0.000000e+00) [K]

Current cycle: 1800 out of 5000
===============================================================================

Box:      23.78704   0.00000   0.00000  Average:  24.04021   0.00000   0.00000
           0.00000  23.78704   0.00000             0.00000  24.04021   0.00000
           0.00000   0.00000  23.78704             0.00000   0.00000  24.04021
Lengths:  23.78704  23.78704  23.78704  Average:  24.04021  24.04021  24.04021
Angles:   90.00000  90.00000  90.00000  Average:  90.00000  90.00000  90.00000
Rectangular boundary conditions

net charge:   0.00000000

component 0 (CO2) lambda:  0 occupancy:  1 (1.000000)
    net charge:   0.00000000 [e]

Amount of molecules per component :
-------------------------------------------------------------------------------
Component 0 (CO2)
    molecules:      2.000000e+02 molecules  (2.000000e+02 +/- 0.000000e+00)
    number density: 1.485966e-02 molec./A^3 (1.439820e-02 +/- 0.000000e+00)
    density:        1.085672e+03 kg/m^3     (1.051957e+03 +/- 0.000000e+00)

Average pressure tensor: 
-------------------------------------------------------------------------------
 4.7337e+01  3.3753e+01  3.5597e+01 +/- 0.0000e+00 0.0000e+00 0.0000e+00 [bar]
 3.3753e+01  9.3238e+01 -6.7997e+00 +/- 0.0000e+00 0.0000e+00 0.0000e+00 [bar]
 3.5597e+01 -6.7997e+00  7.1139e+01 +/- 0.0000e+00 0.0000e+00 0.0000e+00 [bar]
Ideal-gas pressure:   4.969719e+02 +/ 0.000000e+00 [bar]
Excess pressure:     -4.264005e+02 +/ 0.000000e+00 [bar]
Pressure:             7.057136e+01 +/ 0.000000e+00 [bar]

Total potential energy/kʙ  -3.109493e+05 (-3.029199e+05 +/- 0.000000e+00) [K]
-------------------------------------------------------------------------------
ExternalField-molecule
    Van der Waals/kʙ        0.000000e+00 ( 0.000000e+00 +/- 0.000000e+00) [K]
Framework-molecule
    Van der Waals/kʙ        0.000000e+00 ( 0.000000e+00 +/- 0.000000e+00) [K]
    Van der Waals (Tail)/kʙ 0.000000e+00 ( 0.000000e+00 +/- 0.000000e+00) [K]
    Coulombic Real/kʙ       0.000000e+00 ( 0.000000e+00 +/- 0.000000e+00) [K]
    Coulombic Fourier/kʙ    0.000000e+00 ( 0.000000e+00 +/- 0.000000e+00) [K]
Molecule-molecule
    Van der Waals/kʙ       -2.253057e+05 (-2.185902e+05 +/- 0.000000e+00) [K]
    Van der Waals (Tail)/kʙ-7.165001e+03 (-6.946001e+03 +/- 0.000000e+00) [K]
    Coulombic Real/kʙ      -6.812841e+04 (-6.737905e+04 +/- 0.000000e+00) [K]
    Coulombic Fourier/kʙ   -1.035017e+04 (-1.000462e+04 +/- 0.000000e+00) [K]
    Molecule Intra/kʙ       0.000000e+00 ( 0.000000e+00 +/- 0.000000e+00) [K]

Current cycle: 1900 out of 5000
===============================================================================

Box:      24.14812   0.00000   0.00000  Average:  24.03871   0.00000   0.00000
           0.00000  24.14812   0.00000             0.00000  24.03871   0.00000
           0.00000   0.00000  24.14812             0.00000   0.00000  24.03871
Lengths:  24.14812  24.14812  24.14812  Average:  24.03871  24.03871  24.03871
Angles:   90.00000  90.00000  90.00000  Average:  90.00000  90.00000  90.00000
Rectangular boundary conditions

net charge:   0.00000000

component 0 (CO2) lambda:  0 occupancy:  1 (1.000000)
    net charge:   0.00000000 [e]

Amount of molecules per component :
-------------------------------------------------------------------------------
Component 0 (CO2)
    molecules:      2.000000e+02 molecules  (2.000000e+02 +/- 0.000000e+00)
    number density: 1.420300e-02 molec./A^3 (1.440092e-02 +/- 0.000000e+00)
    density:        1.037695e+03 kg/m^3     (1.052156e+03 +/- 0.000000e+00)

Average pressure tensor: 
-------------------------------------------------------------------------------
 5.3587e+01  2.6774e+01  3.9033e+01 +/- 0.0000e+00 0.0000e+00 0.0000e+00 [bar]
 2.6774e+01  9.2910e+01 -8.3070e+00 +/- 0.0000e+00 0.0000e+00 0.0000e+00 [bar]
 3.9033e+01 -8.3070e+00  6.4597e+01 +/- 0.0000e+00 0.0000e+00 0.0000e+00 [bar]
Ideal-gas pressure:   4.970658e+02 +/ 0.000000e+00 [bar]
Excess pressure:     -4.267011e+02 +/ 0.000000e+00 [bar]
Pressure:             7.036464e+01 +/ 0.000000e+00 [bar]

Total potential energy/kʙ  -2.914410e+05 (-3.026817e+05 +/- 0.000000e+00) [K]
-------------------------------------------------------------------------------
ExternalField-molecule
    Van der Waals/kʙ        0.000000e+00 ( 0.000000e+00 +/- 0.000000e+00) [K]
Framework-molecule
    Van der Waals/kʙ        0.000000e+00 ( 0.000000e+00 +/- 0.000000e+00) [K]
    Van der Waals (Tail)/kʙ 0.000000e+00 ( 0.000000e+00 +/- 0.000000e+00) [K]
    Coulombic Real/kʙ       0.000000e+00 ( 0.000000e+00 +/- 0.000000e+00) [K]
    Coulombic Fourier/kʙ    0.000000e+00 ( 0.000000e+00 +/- 0.000000e+00) [K]
Molecule-molecule
    Van der Waals/kʙ       -2.110206e+05 (-2.185539e+05 +/- 0.000000e+00) [K]
    Van der Waals (Tail)/kʙ-6.848371e+03 (-6.946586e+03 +/- 0.000000e+00) [K]
    Coulombic Real/kʙ      -6.389815e+04 (-6.717908e+04 +/- 0.000000e+00) [K]
    Coulombic Fourier/kʙ   -9.673833e+03 (-1.000212e+04 +/- 0.000000e+00) [K]
    Molecule Intra/kʙ       0.000000e+00 ( 0.000000e+00 +/- 0.000000e+00) [K]

Current cycle: 2000 out of 5000
===============================================================================

Box:      24.23439   0.00000   0.00000  Average:  24.04113   0.00000   0.00000
           0.00000  24.23439   0.00000             0.00000  24.04113   0.00000
           0.00000   0.00000  24.23439             0.00000   0.00000  24.04113
Lengths:  24.23439  24.23439  24.23439  Average:  24.04113  24.04113  24.04113
Angles:   90.00000  90.00000  90.00000  Average:  90.00000  90.00000  90.00000
Rectangular boundary conditions

net charge:   0.00000000

component 0 (CO2) lambda:  0 occupancy:  1 (1.000000)
    net charge:   0.00000000 [e]

Amount of molecules per component :
-------------------------------------------------------------------------------
Component 0 (CO2)
    molecules:      2.000000e+02 molecules  (2.000000e+02 +/- 0.000000e+00)
    number density: 1.405186e-02 molec./A^3 (1.439651e-02 +/- 0.000000e+00)
    density:        1.026653e+03 kg/m^3     (1.051834e+03 +/- 0.000000e+00)

Average pressure tensor: 
-------------------------------------------------------------------------------
 6.6636e+01  1.7624e+01  3.7285e+01 +/- 0.0000e+00 0.0000e+00 0.0000e+00 [bar]
 1.7624e+01  1.0265e+02 -1.1990e+01 +/- 0.0000e+00 0.0000e+00 0.0000e+00 [bar]
 3.7285e+01 -1.1990e+01  6.5837e+01 +/- 0.0000e+00 0.0000e+00 0.0000e+00 [bar]
Ideal-gas pressure:   4.969137e+02 +/ 0.000000e+00 [bar]
Excess pressure:     -4.185374e+02 +/ 0.000000e+00 [bar]
Pressure:             7.837628e+01 +/ 0.000000e+00 [bar]

Total potential energy/kʙ  -2.975362e+05 (-3.026592e+05 +/- 0.000000e+00) [K]
-------------------------------------------------------------------------------
ExternalField-molecule
    Van der Waals/kʙ        0.000000e+00 ( 0.000000e+00 +/- 0.000000e+00) [K]
Framework-molecule
    Van der Waals/kʙ        0.000000e+00 ( 0.000000e+00 +/- 0.000000e+00) [K]
    Van der Waals (Tail)/kʙ 0.000000e+00 ( 0.000000e+00 +/- 0.000000e+00) [K]
    Coulombic Real/kʙ       0.000000e+00 ( 0.000000e+00 +/- 0.000000e+00) [K]
    Coulombic Fourier/kʙ    0.000000e+00 ( 0.000000e+00 +/- 0.000000e+00) [K]
Molecule-molecule
    Van der Waals/kʙ       -2.164612e+05 (-2.184348e+05 +/- 0.000000e+00) [K]
    Van der Waals (Tail)/kʙ-6.775496e+03 (-6.945160e+03 +/- 0.000000e+00) [K]
    Coulombic Real/kʙ      -6.385526e+04 (-6.726343e+04 +/- 0.000000e+00) [K]
    Coulombic Fourier/kʙ   -1.044427e+04 (-1.001579e+04 +/- 0.000000e+00) [K]
    Molecule Intra/kʙ       0.000000e+00 ( 0.000000e+00 +/- 0.000000e+00) [K]

Current cycle: 2100 out of 5000
===============================================================================

Box:      23.74431   0.00000   0.00000  Average:  24.04079   0.00000   0.00000
           0.00000  23.74431   0.00000             0.00000  24.04079   0.00000
           0.00000   0.00000  23.74431             0.00000   0.00000  24.04079
Lengths:  23.74431  23.74431  23.74431  Average:  24.04079  24.04079  24.04079
Angles:   90.00000  90.00000  90.00000  Average:  90.00000  90.00000  90.00000
Rectangular boundary conditions

net charge:   0.00000000

component 0 (CO2) lambda:  0 occupancy:  1 (1.000000)
    net charge:   0.00000000 [e]

Amount of molecules per component :
-------------------------------------------------------------------------------
Component 0 (CO2)
    molecules:      2.000000e+02 molecules  (2.000000e+02 +/- 0.000000e+00)
    number density: 1.494003e-02 molec./A^3 (1.439716e-02 +/- 0.000000e+00)
    density:        1.091544e+03 kg/m^3     (1.051881e+03 +/- 0.000000e+00)

Average pressure tensor: 
-------------------------------------------------------------------------------
 7.5346e+01  1.5918e+01  4.3696e+01 +/- 0.0000e+00 0.0000e+00 0.0000e+00 [bar]
 1.5918e+01  1.0753e+02 -8.4196e+00 +/- 0.0000e+00 0.0000e+00 0.0000e+00 [bar]
 4.3696e+01 -8.4196e+00  5.6539e+01 +/- 0.0000e+00 0.0000e+00 0.0000e+00 [bar]
Ideal-gas pressure:   4.969360e+02 +/ 0.000000e+00 [bar]
Excess pressure:     -4.171319e+02 +/ 0.000000e+00 [bar]
Pressure:             7.980402e+01 +/ 0.000000e+00 [bar]

Total potential energy/kʙ  -3.152314e+05 (-3.026271e+05 +/- 0.000000e+00) [K]
-------------------------------------------------------------------------------
ExternalField-molecule
    Van der Waals/kʙ        0.000000e+00 ( 0.000000e+00 +/- 0.000000e+00) [K]
Framework-molecule
    Van der Waals/kʙ        0.000000e+00 ( 0.000000e+00 +/- 0.000000e+00) [K]
    Van der Waals (Tail)/kʙ 0.000000e+00 ( 0.000000e+00 +/- 0.000000e+00) [K]
[...]
    Coulombic Fourier/kʙ    0.000000e+00 ( 0.000000e+00 +/- 0.000000e+00) [K]
Molecule-molecule
    Van der Waals/kʙ       -2.216531e+05 (-2.181751e+05 +/- 3.195949e+03) [K]
    Van der Waals (Tail)/kʙ-7.135618e+03 (-6.935456e+03 +/- 8.665095e+01) [K]
    Coulombic Real/kʙ      -6.989781e+04 (-6.771779e+04 +/- 1.661767e+03) [K]
    Coulombic Fourier/kʙ   -9.552038e+03 (-1.005894e+04 +/- 2.445680e+02) [K]
    Molecule Intra/kʙ       0.000000e+00 ( 0.000000e+00 +/- 0.000000e+00) [K]

Current cycle: 4700 out of 5000
===============================================================================

Box:      23.37868   0.00000   0.00000  Average:  24.04294   0.00000   0.00000
           0.00000  23.37868   0.00000             0.00000  24.04294   0.00000
           0.00000   0.00000  23.37868             0.00000   0.00000  24.04294
Lengths:  23.37868  23.37868  23.37868  Average:  24.04294  24.04294  24.04294
Angles:   90.00000  90.00000  90.00000  Average:  90.00000  90.00000  90.00000
Rectangular boundary conditions

net charge:   0.00000000

component 0 (CO2) lambda:  0 occupancy:  1 (1.000000)
    net charge:   0.00000000 [e]

Amount of molecules per component :
-------------------------------------------------------------------------------
Component 0 (CO2)
    molecules:      2.000000e+02 molecules  (2.000000e+02 +/- 0.000000e+00)
    number density: 1.565201e-02 molec./A^3 (1.439725e-02 +/- 1.628197e-04)
    density:        1.143563e+03 kg/m^3     (1.051888e+03 +/- 1.189589e+01)

Average pressure tensor: 
-------------------------------------------------------------------------------
 6.6444e+01  1.9996e+01  2.9857e+01 +/- 4.5170e+01 5.2510e+01 7.0917e+01 [bar]
 1.9996e+01  7.9497e+01  8.3465e+00 +/- 5.2510e+01 8.2867e+01 6.1173e+01 [bar]
 2.9857e+01  8.3465e+00  7.7393e+01 +/- 7.0917e+01 6.1173e+01 3.4314e+01 [bar]
Ideal-gas pressure:   4.969393e+02 +/ 5.619927e+00 [bar]
Excess pressure:     -4.224945e+02 +/ 2.211491e+01 [bar]
Pressure:             7.444481e+01 +/ 2.193505e+01 [bar]

Total potential energy/kʙ  -3.289813e+05 (-3.032930e+05 +/- 3.826333e+03) [K]
-------------------------------------------------------------------------------
ExternalField-molecule
    Van der Waals/kʙ        0.000000e+00 ( 0.000000e+00 +/- 0.000000e+00) [K]
Framework-molecule
    Van der Waals/kʙ        0.000000e+00 ( 0.000000e+00 +/- 0.000000e+00) [K]
    Van der Waals (Tail)/kʙ 0.000000e+00 ( 0.000000e+00 +/- 0.000000e+00) [K]
    Coulombic Real/kʙ       0.000000e+00 ( 0.000000e+00 +/- 0.000000e+00) [K]
    Coulombic Fourier/kʙ    0.000000e+00 ( 0.000000e+00 +/- 0.000000e+00) [K]
Molecule-molecule
    Van der Waals/kʙ       -2.386671e+05 (-2.184762e+05 +/- 3.016018e+03) [K]
    Van der Waals (Tail)/kʙ-7.547055e+03 (-6.943477e+03 +/- 7.413451e+01) [K]
    Coulombic Real/kʙ      -7.219399e+04 (-6.780680e+04 +/- 1.329296e+03) [K]
    Coulombic Fourier/kʙ   -1.057317e+04 (-1.006646e+04 +/- 2.165286e+02) [K]
    Molecule Intra/kʙ       0.000000e+00 ( 0.000000e+00 +/- 0.000000e+00) [K]

Current cycle: 4800 out of 5000
===============================================================================

Box:      23.73524   0.00000   0.00000  Average:  24.03489   0.00000   0.00000
           0.00000  23.73524   0.00000             0.00000  24.03489   0.00000
           0.00000   0.00000  23.73524             0.00000   0.00000  24.03489
Lengths:  23.73524  23.73524  23.73524  Average:  24.03489  24.03489  24.03489
Angles:   90.00000  90.00000  90.00000  Average:  90.00000  90.00000  90.00000
Rectangular boundary conditions

net charge:   0.00000000

component 0 (CO2) lambda:  0 occupancy:  1 (1.000000)
    net charge:   0.00000000 [e]

Amount of molecules per component :
-------------------------------------------------------------------------------
Component 0 (CO2)
    molecules:      2.000000e+02 molecules  (2.000000e+02 +/- 0.000000e+00)
    number density: 1.495717e-02 molec./A^3 (1.441208e-02 +/- 1.653845e-04)
    density:        1.092796e+03 kg/m^3     (1.052971e+03 +/- 1.208327e+01)

Average pressure tensor: 
-------------------------------------------------------------------------------
 6.7985e+01  2.1722e+01  2.8249e+01 +/- 4.4923e+01 5.3886e+01 6.5707e+01 [bar]
 2.1722e+01  8.3262e+01  1.1455e+01 +/- 5.3886e+01 6.1438e+01 5.7059e+01 [bar]
 2.8249e+01  1.1455e+01  7.3026e+01 +/- 6.5707e+01 5.7059e+01 1.8866e+01 [bar]
Ideal-gas pressure:   4.974509e+02 +/ 5.708454e+00 [bar]
Excess pressure:     -4.226932e+02 +/ 2.107824e+01 [bar]
Pressure:             7.475775e+01 +/ 1.941986e+01 [bar]

Total potential energy/kʙ  -3.152465e+05 (-3.036021e+05 +/- 3.781398e+03) [K]
-------------------------------------------------------------------------------
ExternalField-molecule
    Van der Waals/kʙ        0.000000e+00 ( 0.000000e+00 +/- 0.000000e+00) [K]
Framework-molecule
    Van der Waals/kʙ        0.000000e+00 ( 0.000000e+00 +/- 0.000000e+00) [K]
    Van der Waals (Tail)/kʙ 0.000000e+00 ( 0.000000e+00 +/- 0.000000e+00) [K]
    Coulombic Real/kʙ       0.000000e+00 ( 0.000000e+00 +/- 0.000000e+00) [K]
    Coulombic Fourier/kʙ    0.000000e+00 ( 0.000000e+00 +/- 0.000000e+00) [K]
Molecule-molecule
    Van der Waals/kʙ       -2.295562e+05 (-2.187206e+05 +/- 3.162982e+03) [K]
    Van der Waals (Tail)/kʙ-7.212015e+03 (-6.950545e+03 +/- 7.474737e+01) [K]
    Coulombic Real/kʙ      -6.864320e+04 (-6.785423e+04 +/- 1.206851e+03) [K]
    Coulombic Fourier/kʙ   -9.835107e+03 (-1.007677e+04 +/- 1.971296e+02) [K]
    Molecule Intra/kʙ       0.000000e+00 ( 0.000000e+00 +/- 0.000000e+00) [K]

Current cycle: 4900 out of 5000
===============================================================================

Box:      24.15174   0.00000   0.00000  Average:  24.03145   0.00000   0.00000
           0.00000  24.15174   0.00000             0.00000  24.03145   0.00000
           0.00000   0.00000  24.15174             0.00000   0.00000  24.03145
Lengths:  24.15174  24.15174  24.15174  Average:  24.03145  24.03145  24.03145
Angles:   90.00000  90.00000  90.00000  Average:  90.00000  90.00000  90.00000
Rectangular boundary conditions

net charge:   0.00000000

component 0 (CO2) lambda:  0 occupancy:  1 (1.000000)
    net charge:   0.00000000 [e]

Amount of molecules per component :
-------------------------------------------------------------------------------
Component 0 (CO2)
    molecules:      2.000000e+02 molecules  (2.000000e+02 +/- 0.000000e+00)
    number density: 1.419662e-02 molec./A^3 (1.441827e-02 +/- 1.692474e-04)
    density:        1.037229e+03 kg/m^3     (1.053424e+03 +/- 1.236551e+01)

Average pressure tensor: 
-------------------------------------------------------------------------------
 6.5917e+01  2.0728e+01  2.7498e+01 +/- 4.5245e+01 5.0069e+01 6.3408e+01 [bar]
 2.0728e+01  8.6723e+01  1.0749e+01 +/- 5.0069e+01 4.5529e+01 5.7277e+01 [bar]
 2.7498e+01  1.0749e+01  7.2475e+01 +/- 6.3408e+01 5.7277e+01 1.6844e+01 [bar]
Ideal-gas pressure:   4.976648e+02 +/ 5.841788e+00 [bar]
Excess pressure:     -4.226265e+02 +/ 1.972229e+01 [bar]
Pressure:             7.503836e+01 +/ 1.765451e+01 [bar]

Total potential energy/kʙ  -3.016874e+05 (-3.036879e+05 +/- 3.810646e+03) [K]
-------------------------------------------------------------------------------
ExternalField-molecule
    Van der Waals/kʙ        0.000000e+00 ( 0.000000e+00 +/- 0.000000e+00) [K]
Framework-molecule
    Van der Waals/kʙ        0.000000e+00 ( 0.000000e+00 +/- 0.000000e+00) [K]
    Van der Waals (Tail)/kʙ 0.000000e+00 ( 0.000000e+00 +/- 0.000000e+00) [K]
    Coulombic Real/kʙ       0.000000e+00 ( 0.000000e+00 +/- 0.000000e+00) [K]
    Coulombic Fourier/kʙ    0.000000e+00 ( 0.000000e+00 +/- 0.000000e+00) [K]
Molecule-molecule
    Van der Waals/kʙ       -2.182985e+05 (-2.188045e+05 +/- 3.215916e+03) [K]
    Van der Waals (Tail)/kʙ-6.845294e+03 (-6.952846e+03 +/- 7.599796e+01) [K]
    Coulombic Real/kʙ      -6.688580e+04 (-6.785276e+04 +/- 1.187974e+03) [K]
    Coulombic Fourier/kʙ   -9.657846e+03 (-1.007780e+04 +/- 1.943683e+02) [K]
    Molecule Intra/kʙ       0.000000e+00 ( 0.000000e+00 +/- 0.000000e+00) [K]


Energy statistics             |  Energy [K]   | Recomputed [K]|  Drift [K]    |
===============================================================================
Total potential energy/kʙ     | -3.144047e+05 | -3.144047e+05 |  0.000000e+00 |
    external field VDW/kʙ     |  0.000000e+00 |  0.000000e+00 |  0.000000e+00 |
    external field Real/kʙ    |  0.000000e+00 |  0.000000e+00 |  0.000000e+00 |
    framework-molecule VDW/kʙ |  0.000000e+00 |  0.000000e+00 |  0.000000e+00 |
    framework-molecule Real/kʙ|  0.000000e+00 |  0.000000e+00 |  0.000000e+00 |
    molecule-molecule VDW/kʙ  | -2.225428e+05 | -2.225428e+05 |  0.000000e+00 |
    molecule-molecule Real/kʙ | -7.447583e+04 | -7.447583e+04 |  0.000000e+00 |
    Van der Waals (Tail)/kʙ   | -7.064231e+03 | -7.064231e+03 |  0.000000e+00 |
    Ewald Fourier/kʙ          |  7.831238e+03 |  7.831238e+03 |  0.000000e+00 |
    Ewald self/kʙ             | -4.023739e+06 | -4.023739e+06 |  0.000000e+00 |
    Ewald exclusion/kʙ        |  4.005586e+06 |  4.005586e+06 |  0.000000e+00 |
    intra VDW/kʙ              |  0.000000e+00 |  0.000000e+00 |  0.000000e+00 |
    intra Coulombic/kʙ        |  0.000000e+00 |  0.000000e+00 |  0.000000e+00 |
    polarization/kʙ           |  0.000000e+00 |  0.000000e+00 |  0.000000e+00 |
    dU/dlambda VDW/kʙ         |  0.000000e+00 |  0.000000e+00 |  0.000000e+00 |
    dU/dlambda Real/kʙ        |  0.000000e+00 |  0.000000e+00 |  0.000000e+00 |
    dU/dlambda Ewald/kʙ       |  0.000000e+00 |  0.000000e+00 |  0.000000e+00 |
-------------------------------------------------------------------------------


Monte-Carlo moves statistics
===============================================================================

    Volume change        all:                6621
    Volume change        total:              6621
    Volume change        constructed:        6621
    Volume change        accepted:           2083
    Volume change        fraction:       0.314605
    Volume change        max-change:     0.050000

Component 0 [CO2]
    Reinsertion (CBMC)   all:              331168
    Reinsertion (CBMC)   total:            331168
    Reinsertion (CBMC)   constructed:      297591
    Reinsertion (CBMC)   accepted:           5589
    Reinsertion (CBMC)   fraction:       0.016877
    Reinsertion (CBMC)   max-change:     0.000000

    Translation          all:              331553
    Translation          total:            110125     110827     110601
    Translation          constructed:      110125     110827     110536
    Translation          accepted:          50147      56813      39765
    Translation          fraction:       0.455364   0.512628   0.359536
    Translation          max-change:     0.764706   0.640000   1.037037

    Rotation             all:              330658
    Rotation             total:            110289     110096     110273
    Rotation             constructed:      110289     110081     110271
    Rotation             accepted:          50277      44446      46330
    Rotation             fraction:       0.455866   0.403702   0.420139
    Rotation             max-change:     0.800000   0.960000   0.882353



Production run counting of the MC moves summed over systems and components
===============================================================================

Volume change                          6621 (0.6621 [%])
Reinsertion (CBMC)                   331168 (33.1168 [%])
Translation                          331553 (33.1553 [%])
Rotation                             330658 (33.0658 [%])

Production count MC-steps:          1000000 [-]
               All summed:          1000000 [-]
               difference:                0 [-]


Production run CPU timings of the MC moves
===============================================================================

Component 0 CO2

Rotation                             45.968334 [s]
    Ewald                            18.566753 [s]
    ExternalField-Molecule            0.012695 [s]
    Framework-Molecule                0.012048 [s]
    Molecule-Molecule                25.985512 [s]
    Overhead                          1.391326 [s]

Reinsertion (CBMC)                  194.159502 [s]
    Ewald                            16.778158 [s]
    NonEwald                        177.062401 [s]
    Overhead                          0.318943 [s]

Translation                          46.230435 [s]
    Ewald                            18.608590 [s]
    ExternalField-Molecule            0.011332 [s]
    Framework-Molecule                0.020947 [s]
    Molecule-Molecule                26.183901 [s]
    Overhead                          1.405665 [s]



Volume change                         42.427240 [s]
    Ewald                             14.410502 [s]
    NonEwald                          26.199613 [s]
    Tail                               1.591978 [s]

Property sampling                     0.290850 [s]
Energy/pressure sampling:             6.464532 [s]


Production run CPU timings of the MC moves summed over systems and components
===============================================================================


Translation                          46.230435 [s]
    Ewald                            18.608590 [s]
    ExternalField-Molecule            0.011332 [s]
    Framework-Molecule                0.020947 [s]
    Molecule-Molecule                26.183901 [s]
    Overhead                          1.405665 [s]

Rotation                             45.968334 [s]
    Ewald                            18.566753 [s]
    ExternalField-Molecule            0.012695 [s]
    Framework-Molecule                0.012048 [s]
    Molecule-Molecule                25.985512 [s]
    Overhead                          1.391326 [s]

Volume change                        42.427240 [s]
    Ewald                            14.410502 [s]
    NonEwald                         26.199613 [s]
    Tail                              1.591978 [s]
    Overhead                          0.225147 [s]

Reinsertion (CBMC)                  194.159502 [s]
    Ewald                            16.778158 [s]
    NonEwald                        177.062401 [s]
    Overhead                          0.318943 [s]

Property sampling:                    0.290850 [s]
Energy/pressure sampling:             6.464532 [s]

Production simulation time:         336.256357 [s]
                All summed:         335.540893 [s]
                  Overhead:           0.715464 [s]


Initalization simulation time:       63.936807 [s]
Equilibration simulation time:        0.000000 [s]
Production simulation time:         336.256357 [s]
Total simulation time:              400.193164 [s]


Energy averages and statistics:
===============================================================================

Framework-molecule energy:
-------------------------------------------------------------------------------



Framework-molecule energy contributions per energy type:
-------------------------------------------------------------------------------



Inter-molecular energy:
-------------------------------------------------------------------------------

    Inter-molecular energy/kʙ 0-0 [CO2-CO2]:
    ---------------------------------------------------------------------------
        Block[  0] -3.036525e+05
        Block[  1] -3.017170e+05
        Block[  2] -3.082990e+05
        Block[  3] -3.002634e+05
        Block[  4] -3.047299e+05
        -----------------------------------------------------------------------
        Average  -3.037324e+05 +/-  3.824004e+03 [K]



Inter-molecular energy contributions per energy type:
-------------------------------------------------------------------------------

    Van der Waals energy/kʙ 0-0 [CO2-CO2]:
    ---------------------------------------------------------------------------
        Block[  0] -2.197225e+05
        Block[  1] -2.171668e+05
        Block[  2] -2.215922e+05
        Block[  3] -2.152274e+05
        Block[  4] -2.203430e+05
        -----------------------------------------------------------------------
        Average  -2.188104e+05 +/-  3.192901e+03 [K]

    VDW Tail-Correction energy/kʙ 0-0 [CO2-CO2]:
    ---------------------------------------------------------------------------
        Block[  0] -6.963682e+03
        Block[  1] -6.928335e+03
        Block[  2] -7.028272e+03
        Block[  3] -6.864819e+03
        Block[  4] -6.977394e+03
        -----------------------------------------------------------------------
        Average  -6.952500e+03 +/-  7.540831e+01 [K]

    Coulomb Real energy/kʙ 0-0 [CO2-CO2]:
    ---------------------------------------------------------------------------
        Block[  0] -6.693019e+04
        Block[  1] -6.763075e+04
        Block[  2] -6.932392e+04
        Block[  3] -6.816855e+04
        Block[  4] -6.738637e+04
        -----------------------------------------------------------------------
        Average  -6.788795e+04 +/-  1.140491e+03 [K]

    Coulomb Fourier energy/kʙ 0-0 [CO2-CO2]:
    ---------------------------------------------------------------------------
        Block[  0] -1.003613e+04
        Block[  1] -9.991169e+03
        Block[  2] -1.035467e+04
        Block[  3] -1.000256e+04
        Block[  4] -1.002310e+04
        -----------------------------------------------------------------------
        Average  -1.008153e+04 +/-  1.907988e+02 [K]


Total energy/kʙ
-------------------------------------------------------------------------------
    Block[  0] -3.036525e+05
    Block[  1] -3.017170e+05
    Block[  2] -3.082990e+05
    Block[  3] -3.002634e+05
    Block[  4] -3.047299e+05
    ---------------------------------------------------------------------------
    Average  -3.037324e+05 +/-  3.824004e+03 [K]

Pressure averages and statistics:
===============================================================================

Average pressure tensor: 
-------------------------------------------------------------------------------
 6.1972e+01  2.2037e+01  2.5632e+01 +/- 4.7668e+01 5.0827e+01 6.0802e+01 [bar]
 2.2037e+01  8.7010e+01  1.1218e+01 +/- 5.0827e+01 4.1230e+01 5.6792e+01 [bar]
 2.5632e+01  1.1218e+01  6.8748e+01 +/- 6.0802e+01 5.6792e+01 1.3011e+01 [bar]

    Block[  0]  4.983062e+07
    Block[  1]  4.955331e+07
    Block[  2]  5.034880e+07
    Block[  3]  4.910748e+07
    Block[  4]  4.998567e+07
    ---------------------------------------------------------------------------
    Ideal gas pressure   4.976518e+07 +/-  3.488633e-02 [Pa]
                         4.976518e+02 +/-  5.793015e+00 [bar]


    Block[  0] -4.330203e+07
    Block[  1] -4.039717e+07
    Block[  2] -4.201776e+07
    Block[  3] -4.138088e+07
    Block[  4] -4.543961e+07
    ---------------------------------------------------------------------------
    Excess pressure  -4.250749e+07 +/-  2.419357e+06 [Pa]
                     -4.250749e+02 +/-  2.419357e+01 [bar]


    Block[  0]  6.528586e+06
    Block[  1]  9.156140e+06
    Block[  2]  8.331039e+06
    Block[  3]  7.726598e+06
    Block[  4]  4.546057e+06
    ---------------------------------------------------------------------------
    Pressure average   7.257684e+06 +/-  2.226052e+06 [Pa]
                       7.257684e+01 +/-  2.226052e+01 [bar]


Enthalpy of adsorption
===============================================================================

No fluctuating components present.


Densities
===============================================================================

Component 0 (CO2)
    Block[  0] 200
    Block[  1] 200
    Block[  2] 200
    Block[  3] 200
    Block[  4] 200
    -----------------------------------------------------------------------
    Density average   2.000000e+02 +/-  0.000000e+00 [molecules]
    Density average   1.441789e-02 +/-  1.678344e-04 [molec/A^3]
    Density average   1.053396e+03 +/-  1.226227e+01 [kg.m⁻³]

