Compiler and run-time data
===============================================================================
RASPA 3.0.4

Random seed: 2895168290

Compiled as a 64-bits application
Compiler: gcc Ubuntu Clang 18.1.3 (1ubuntu1)
Compile Date = Mar 15 2025, Compile Time = 19:39:45

2025-06-03 11:00:36.156407
Simulation started on Tue, Jun 03
The start time was 11:00:00

Hostname:    c060
OS type:     Linux on x86_64
OS release:  6.8.0-58-generic
OS version:  #60-Ubuntu SMP PREEMPT_DYNAMIC Fri Mar 14 18:29:48 UTC 2025


Mutual consistent basic set of units:
===============================================================================

Unit of temperature: 1 [K]
Unit of length:      1e-10 [m]
Unit of time:        1e-12 [s]
Unit of mass:        1.6605402e-27 [kg]
Unit of charge:      1.60217733e-19 [C/particle]


Boltzmann constant (internal units):          0.8314464919307584 [-]
represents conversion from energy (internal units) to temperature (in Kelvin)

Derived units and their conversion factors:
===============================================================================

Unit of energy:                           1.6605402000000002e-23 [J]
Unit of energy:                           10.000008872307538 [J.mol⁻¹]
Unit of velocity:                         100 [m.s⁻¹]
Unit of force:                            1.6605402000000002e-13 [N]
Unit of diffusion:                        1.0000000000000002e-08 [m².s⁻¹]
Unit of acceleration:                     1.0000000000000002e-08 [m².s⁻¹]
Unit of torque:                           1.6605402000000002e-23 [N.m]
Unit of pressure:                         16605402 [Pa]
Unit of volume:                           1e-30 [m³]
Unit of density:                          1660.5402 [kg.m⁻³]
Unit of dynamic viscosity:                1.6605401999999997e-05 [N.s.m⁻²]
Unit of enthalpy:                         1.6605402000000002e-23 [J]
Unit of polarizability:                   1.5458657349975198e-35 [-]
Unit of Coulomb potential:                167101.08000665612 [K]
Unit of dielectric constant:              1.5458657349975193e-05 [s².C².kg⁻¹.m⁻³]
Unit of dipole moment:                    1.60217733e-29 [C.m]
Unit of Debye:                            4.803206799099162 [C.m]
Unit of electric potential:               0.00010364272224473431 [V]
Unit of electric field:                   1036427.222447343 [V.m⁻¹]
Unit of isothermal compressibility:       6.02213665167516e-08 [Pa⁻¹]
Unit of heat capacity:                    10.000008872307538 [J.mol⁻¹.K⁻¹]
Unit of volumetric expansion coefficient: 1 [K⁻¹]


Internal conversion factors:
===============================================================================

Energy (internal units) to Kelvin:      1.202724284692786 [-]
Kelvin to energy (internal units):      0.8314457542157567 [-]


System definitions
===============================================================================

Temperature:          230 [K]
Beta:                 0.005229231380675068 [-]
Pressure:             0 [Pa]
Helium void fraction: 1 [-]

Box:      30.00000   0.00000   0.00000
           0.00000  30.00000   0.00000
           0.00000   0.00000  30.00000
Lengths:  30.00000  30.00000  30.00000
Angles:   90.00000  90.00000  90.00000
Rectangular boundary conditions



Property measurement settings
===============================================================================




Pseudo-atoms
===============================================================================

  0 - C_co2    framework-atom: false
  1 - O_co2    framework-atom: false

  0 - C_co2    mass: 12.00000, charge:  0.70000
  1 - O_co2    mass: 15.99940, charge: -0.35000

  0 - C_co2    polarizability:  0.00000
  1 - O_co2    polarizability:  0.00000

  0 - J. J. Potoff et al., AIChE J. 2001, 47, 1676–1682.
  1 - J. J. Potoff et al., AIChE J. 2001, 47, 1676–1682.

Force field status
===============================================================================

Cutoff Framework-Molecule VDW:  12.00000 [Å]
Cutoff Molecule-Molecule VDW:   12.00000 [Å]
Cutoff Coulomb:                 12.00000 [Å]

Overlap-criteria VDW:           1.000000e+05 [K]

C_co2    - C_co2    Lennard-Jones p₀/kʙ:  27.00000 [K], p₁:  2.80000 [Å]
                                  shift:   0.00000 [K], tailcorrections: true
C_co2    - O_co2    Lennard-Jones p₀/kʙ:  46.18441 [K], p₁:  2.92500 [Å]
                                  shift:   0.00000 [K], tailcorrections: true
O_co2    - O_co2    Lennard-Jones p₀/kʙ:  79.00000 [K], p₁:  3.05000 [Å]
                                  shift:   0.00000 [K], tailcorrections: true

Ewald precision: 1e-06
Ewald alpha: 0.26505830360350674
Ewald k-vectors: 8 8 8


Component definitions
===============================================================================

Component 0 [CO2]

    Type: Adsorbate

    Critical temperature:  304.1282 [K]
    Critical pressure:     7377300 [Pa]
    Acentric factor:       0.22394 [-]

    Mol-fraction:                 1 [-]
    Swappable:                   true

    Mass:                         43.9988 [-]
    Fugacity coefficient:         -nan [-]
    Bulk fluid density:           0 [-]
    Compressibility:              1 [-]
    Excess molecules:             0 [-]

    Number Of Atoms:    3
    CBMC starting bead: 0
      0: O_co2  position  0.00000 -0.00000  1.16000, charge -0.35000
      1: C_co2  position  0.00000 -0.00000  0.00000, charge  0.70000
      2: O_co2  position  0.00000 -0.00000 -1.16000, charge -0.35000
    Diagonalized inertia-vector:      43.05758528 43.05758528 0.00000000
    Translational degrees of freedom: 3
    Rotational degrees of freedom:    2
    Shape of the molecule is: 'Linear'
    Net-charge:        0.00000000 [e]

    Move probabilities:
    Translation:                   0.199203 [-]
    Random translation:            0.000000 [-]
    Rotation:                      0.199203 [-]
    Random rotation:               0.000000 [-]
    Volume change:                 0.000000 [-]
    Reinsertion (CBMC):            0.199203 [-]
    Identity change (CBMC):        0.000000 [-]
    Swap:                          0.000000 [-]
    Swap (CBMC):                   0.000000 [-]
    Swap (CFCMC):                  0.000000 [-]
    Swap (CB/CFCMC):               0.000000 [-]
    Gibbs volume:                  0.003984 [-]
    Gibbs swap (CBMC):             0.398406 [-]
    Gibbs swap (CFCMC):            0.000000 [-]
    Widom:                         0.000000 [-]
    Widom (CFCMC):                 0.000000 [-]
    Widom (CB/CFCMC):              0.000000 [-]
    Parallel tempering:            0.000000 [-]
    Hybrid MC:                     0.000000 [-]

    number of blocking-pockets: 0

    number of bonds: 0





Number of pseudo-atoms
===============================================================================

Component   0 (CO2)
-------------------------------------------------------------------------------
    index   0 (C_co2): 40 atoms
    index   1 (O_co2): 80 atoms

Total number of pseudo-atoms:
-------------------------------------------------------------------------------
    index   0 (C_co2): 40 atoms
    index   1 (O_co2): 80 atoms




Energy status Recomputed from scratch
===============================================================================

Total potential energy/kʙ       -5.881918e+03 [K]
    external field VDW/kʙ        0.000000e+00 [K]
    external field Real/kʙ       0.000000e+00 [K]
    framework-molecule VDW/kʙ    0.000000e+00 [K]
    framework-molecule Real/kʙ   0.000000e+00 [K]
    molecule-molecule VDW/kʙ    -4.635624e+03 [K]
    molecule-molecule Real/kʙ   -1.123125e+03 [K]
    Van der Waals (Tail)/kʙ     -1.100506e+02 [K]
    Ewald Fourier/kʙ             2.339107e+03 [K]
    Ewald self/kʙ               -7.346713e+05 [K]
    Ewald exclusion/kʙ           7.323191e+05 [K]
    intra VDW/kʙ                 0.000000e+00 [K]
    intra Coulombic/kʙ           0.000000e+00 [K]
    polarization/kʙ              0.000000e+00 [K]
    dU/dlambda VDW/kʙ            0.000000e+00 [K]
    dU/dlambda Real/kʙ           0.000000e+00 [K]
    dU/dlambda Ewald/kʙ          0.000000e+00 [K]





Initialization: Current cycle: 0 out of 2000
===============================================================================

Box:      30.00000   0.00000   0.00000
           0.00000  30.00000   0.00000
           0.00000   0.00000  30.00000
Lengths:  30.00000  30.00000  30.00000
Angles:   90.00000  90.00000  90.00000
Rectangular boundary conditions

net charge:   0.00000000

component   0 (CO2) lambda:  0 occupancy:  1 (1.000000)
    net charge:   0.00000000 [e]

Amount of molecules per component :
-------------------------------------------------------------------------------
Component 0 (CO2)
    molecules:         3.100000e+01 molecules
    number density:    1.148148e-03 molec/A^3
    density:           8.388567e+01 kg/m^3

Total potential energy/kʙ       -5.627838e+03 [K]
-------------------------------------------------------------------------------
    external field VDW/kʙ        0.000000e+00 [K]
    external field Real/kʙ       0.000000e+00 [K]
    framework-molecule VDW/kʙ    0.000000e+00 [K]
    framework-molecule Real/kʙ   0.000000e+00 [K]
    molecule-molecule VDW/kʙ    -2.858038e+03 [K]
    molecule-molecule Real/kʙ   -2.743560e+03 [K]
    Van der Waals (Tail)/kʙ     -6.609914e+01 [K]
    Ewald Fourier/kʙ             1.862834e+03 [K]
    Ewald self/kʙ               -5.693702e+05 [K]
    Ewald exclusion/kʙ           5.675473e+05 [K]
    intra VDW/kʙ                 0.000000e+00 [K]
    intra Coulombic/kʙ           0.000000e+00 [K]
    polarization/kʙ              0.000000e+00 [K]
    dU/dlambda VDW/kʙ            0.000000e+00 [K]
    dU/dlambda Real/kʙ           0.000000e+00 [K]
    dU/dlambda Ewald/kʙ          0.000000e+00 [K]


Initialization: Current cycle: 100 out of 2000
===============================================================================

Box:      31.17166   0.00000   0.00000
           0.00000  31.17166   0.00000
           0.00000   0.00000  31.17166
Lengths:  31.17166  31.17166  31.17166
Angles:   90.00000  90.00000  90.00000
Rectangular boundary conditions

net charge:   0.00000000

component   0 (CO2) lambda:  0 occupancy:  1 (1.000000)
    net charge:   0.00000000 [e]

Amount of molecules per component :
-------------------------------------------------------------------------------
Component 0 (CO2)
    molecules:         3.000000e+00 molecules
    number density:    9.904699e-05 molec/A^3
    density:           7.236543e+00 kg/m^3

Total potential energy/kʙ       -4.527264e+00 [K]
-------------------------------------------------------------------------------
    external field VDW/kʙ        0.000000e+00 [K]
    external field Real/kʙ       0.000000e+00 [K]
    framework-molecule VDW/kʙ    0.000000e+00 [K]
    framework-molecule Real/kʙ   0.000000e+00 [K]
    molecule-molecule VDW/kʙ    -3.584137e+00 [K]
    molecule-molecule Real/kʙ   -3.816175e-01 [K]
    Van der Waals (Tail)/kʙ     -5.518217e-01 [K]
    Ewald Fourier/kʙ             1.764072e+02 [K]
    Ewald self/kʙ               -5.510035e+04 [K]
    Ewald exclusion/kʙ           5.492393e+04 [K]
    intra VDW/kʙ                 0.000000e+00 [K]
    intra Coulombic/kʙ           0.000000e+00 [K]
    polarization/kʙ              0.000000e+00 [K]
    dU/dlambda VDW/kʙ            0.000000e+00 [K]
    dU/dlambda Real/kʙ           0.000000e+00 [K]
    dU/dlambda Ewald/kʙ          0.000000e+00 [K]


Initialization: Current cycle: 200 out of 2000
===============================================================================

Box:      31.49825   0.00000   0.00000
           0.00000  31.49825   0.00000
           0.00000   0.00000  31.49825
Lengths:  31.49825  31.49825  31.49825
Angles:   90.00000  90.00000  90.00000
Rectangular boundary conditions

net charge:   0.00000000

component   0 (CO2) lambda:  0 occupancy:  1 (1.000000)
    net charge:   0.00000000 [e]

Amount of molecules per component :
-------------------------------------------------------------------------------
Component 0 (CO2)
    molecules:         3.000000e+00 molecules
    number density:    9.599796e-05 molec/A^3
    density:           7.013775e+00 kg/m^3

Total potential energy/kʙ       -4.346130e+00 [K]
-------------------------------------------------------------------------------
    external field VDW/kʙ        0.000000e+00 [K]
    external field Real/kʙ       0.000000e+00 [K]
    framework-molecule VDW/kʙ    0.000000e+00 [K]
    framework-molecule Real/kʙ   0.000000e+00 [K]
    molecule-molecule VDW/kʙ    -1.982385e+00 [K]
    molecule-molecule Real/kʙ   -5.021254e-01 [K]
    Van der Waals (Tail)/kʙ     -5.348346e-01 [K]
    Ewald Fourier/kʙ             1.750901e+02 [K]
    Ewald self/kʙ               -5.510035e+04 [K]
    Ewald exclusion/kʙ           5.492393e+04 [K]
    intra VDW/kʙ                 0.000000e+00 [K]
    intra Coulombic/kʙ           0.000000e+00 [K]
    polarization/kʙ              0.000000e+00 [K]
    dU/dlambda VDW/kʙ            0.000000e+00 [K]
    dU/dlambda Real/kʙ           0.000000e+00 [K]
    dU/dlambda Ewald/kʙ          0.000000e+00 [K]


Initialization: Current cycle: 300 out of 2000
===============================================================================

Box:      32.05246   0.00000   0.00000
           0.00000  32.05246   0.00000
           0.00000   0.00000  32.05246
Lengths:  32.05246  32.05246  32.05246
Angles:   90.00000  90.00000  90.00000
Rectangular boundary conditions

net charge:   0.00000000

component   0 (CO2) lambda:  0 occupancy:  1 (1.000000)
    net charge:   0.00000000 [e]

Amount of molecules per component :
-------------------------------------------------------------------------------
Component 0 (CO2)
    molecules:         2.000000e+00 molecules
    number density:    6.073595e-05 molec/A^3
    density:           4.437472e+00 kg/m^3

Total potential energy/kʙ       -1.044779e+01 [K]
-------------------------------------------------------------------------------
    external field VDW/kʙ        0.000000e+00 [K]
    external field Real/kʙ       0.000000e+00 [K]
    framework-molecule VDW/kʙ    0.000000e+00 [K]
    framework-molecule Real/kʙ   0.000000e+00 [K]
    molecule-molecule VDW/kʙ    -5.387968e+00 [K]
    molecule-molecule Real/kʙ    4.665547e-01 [K]
    Van der Waals (Tail)/kʙ     -2.255859e-01 [K]
    Ewald Fourier/kʙ             1.123105e+02 [K]
    Ewald self/kʙ               -3.673356e+04 [K]
    Ewald exclusion/kʙ           3.661595e+04 [K]
    intra VDW/kʙ                 0.000000e+00 [K]
    intra Coulombic/kʙ           0.000000e+00 [K]
    polarization/kʙ              0.000000e+00 [K]
    dU/dlambda VDW/kʙ            0.000000e+00 [K]
    dU/dlambda Real/kʙ           0.000000e+00 [K]
    dU/dlambda Ewald/kʙ          0.000000e+00 [K]


Initialization: Current cycle: 400 out of 2000
===============================================================================

Box:      32.66924   0.00000   0.00000
           0.00000  32.66924   0.00000
           0.00000   0.00000  32.66924
Lengths:  32.66924  32.66924  32.66924
Angles:   90.00000  90.00000  90.00000
Rectangular boundary conditions

net charge:   0.00000000

component   0 (CO2) lambda:  0 occupancy:  1 (1.000000)
    net charge:   0.00000000 [e]

Amount of molecules per component :
-------------------------------------------------------------------------------
Component 0 (CO2)
    molecules:         5.000000e+00 molecules
    number density:    1.434012e-04 molec/A^3
    density:           1.047714e+01 kg/m^3

Total potential energy/kʙ       -3.518197e+00 [K]
-------------------------------------------------------------------------------
    external field VDW/kʙ        0.000000e+00 [K]
    external field Real/kʙ       0.000000e+00 [K]
    framework-molecule VDW/kʙ    0.000000e+00 [K]
    framework-molecule Real/kʙ   0.000000e+00 [K]
    molecule-molecule VDW/kʙ    -1.489951e+00 [K]
    molecule-molecule Real/kʙ    5.827783e-01 [K]
    Van der Waals (Tail)/kʙ     -1.331555e+00 [K]
    Ewald Fourier/kʙ             2.927487e+02 [K]
    Ewald self/kʙ               -9.183391e+04 [K]
    Ewald exclusion/kʙ           9.153988e+04 [K]
    intra VDW/kʙ                 0.000000e+00 [K]
    intra Coulombic/kʙ           0.000000e+00 [K]
    polarization/kʙ              0.000000e+00 [K]
    dU/dlambda VDW/kʙ            0.000000e+00 [K]
    dU/dlambda Real/kʙ           0.000000e+00 [K]
    dU/dlambda Ewald/kʙ          0.000000e+00 [K]


Initialization: Current cycle: 500 out of 2000
===============================================================================

Box:      33.09701   0.00000   0.00000
           0.00000  33.09701   0.00000
           0.00000   0.00000  33.09701
Lengths:  33.09701  33.09701  33.09701
Angles:   90.00000  90.00000  90.00000
Rectangular boundary conditions

net charge:   0.00000000

component   0 (CO2) lambda:  0 occupancy:  1 (1.000000)
    net charge:   0.00000000 [e]

Amount of molecules per component :
-------------------------------------------------------------------------------
Component 0 (CO2)
    molecules:         3.000000e+00 molecules
    number density:    8.274754e-05 molec/A^3
    density:           6.045677e+00 kg/m^3

Total potential energy/kʙ       -4.098544e-01 [K]
-------------------------------------------------------------------------------
    external field VDW/kʙ        0.000000e+00 [K]
    external field Real/kʙ       0.000000e+00 [K]
    framework-molecule VDW/kʙ    0.000000e+00 [K]
    framework-molecule Real/kʙ   0.000000e+00 [K]
    molecule-molecule VDW/kʙ     0.000000e+00 [K]
    molecule-molecule Real/kʙ   -1.068234e-15 [K]
    Van der Waals (Tail)/kʙ     -4.610123e-01 [K]
    Ewald Fourier/kʙ             1.764681e+02 [K]
    Ewald self/kʙ               -5.510035e+04 [K]
    Ewald exclusion/kʙ           5.492393e+04 [K]
    intra VDW/kʙ                 0.000000e+00 [K]
    intra Coulombic/kʙ           0.000000e+00 [K]
    polarization/kʙ              0.000000e+00 [K]
    dU/dlambda VDW/kʙ            0.000000e+00 [K]
    dU/dlambda Real/kʙ           0.000000e+00 [K]
    dU/dlambda Ewald/kʙ          0.000000e+00 [K]


Initialization: Current cycle: 600 out of 2000
===============================================================================

Box:      33.36280   0.00000   0.00000
           0.00000  33.36280   0.00000
           0.00000   0.00000  33.36280
Lengths:  33.36280  33.36280  33.36280
Angles:   90.00000  90.00000  90.00000
Rectangular boundary conditions

net charge:   0.00000000

component   0 (CO2) lambda:  0 occupancy:  1 (1.000000)
    net charge:   0.00000000 [e]

Amount of molecules per component :
-------------------------------------------------------------------------------
Component 0 (CO2)
    molecules:         9.000000e+00 molecules
    number density:    2.423567e-04 molec/A^3
    density:           1.770699e+01 kg/m^3

Total potential energy/kʙ       -8.743785e+01 [K]
-------------------------------------------------------------------------------
    external field VDW/kʙ        0.000000e+00 [K]
    external field Real/kʙ       0.000000e+00 [K]
    framework-molecule VDW/kʙ    0.000000e+00 [K]
    framework-molecule Real/kʙ   0.000000e+00 [K]
    molecule-molecule VDW/kʙ    -7.772347e+01 [K]
    molecule-molecule Real/kʙ    2.683727e+01 [K]
    Van der Waals (Tail)/kʙ     -4.050734e+00 [K]
    Ewald Fourier/kʙ             4.967499e+02 [K]
    Ewald self/kʙ               -1.653010e+05 [K]
    Ewald exclusion/kʙ           1.647718e+05 [K]
    intra VDW/kʙ                 0.000000e+00 [K]
    intra Coulombic/kʙ           0.000000e+00 [K]
    polarization/kʙ              0.000000e+00 [K]
    dU/dlambda VDW/kʙ            0.000000e+00 [K]
    dU/dlambda Real/kʙ           0.000000e+00 [K]
    dU/dlambda Ewald/kʙ          0.000000e+00 [K]


Initialization: Current cycle: 700 out of 2000
===============================================================================

Box:      33.28055   0.00000   0.00000
           0.00000  33.28055   0.00000
           0.00000   0.00000  33.28055
Lengths:  33.28055  33.28055  33.28055
Angles:   90.00000  90.00000  90.00000
Rectangular boundary conditions

net charge:   0.00000000

component   0 (CO2) lambda:  0 occupancy:  1 (1.000000)
    net charge:   0.00000000 [e]

Amount of molecules per component :
-------------------------------------------------------------------------------
Component 0 (CO2)
    molecules:         4.000000e+00 molecules
    number density:    1.085147e-04 molec/A^3
    density:           7.928270e+00 kg/m^3

Total potential energy/kʙ       -7.545065e+01 [K]
-------------------------------------------------------------------------------
    external field VDW/kʙ        0.000000e+00 [K]
    external field Real/kʙ       0.000000e+00 [K]
    framework-molecule VDW/kʙ    0.000000e+00 [K]
    framework-molecule Real/kʙ   0.000000e+00 [K]
    molecule-molecule VDW/kʙ    -4.603671e+01 [K]
    molecule-molecule Real/kʙ   -3.152104e+00 [K]
    Van der Waals (Tail)/kʙ     -8.060923e-01 [K]
    Ewald Fourier/kʙ             2.097668e+02 [K]
    Ewald self/kʙ               -7.346713e+04 [K]
    Ewald exclusion/kʙ           7.323191e+04 [K]
    intra VDW/kʙ                 0.000000e+00 [K]
    intra Coulombic/kʙ           0.000000e+00 [K]
    polarization/kʙ              0.000000e+00 [K]
    dU/dlambda VDW/kʙ            0.000000e+00 [K]
    dU/dlambda Real/kʙ           0.000000e+00 [K]
    dU/dlambda Ewald/kʙ          0.000000e+00 [K]


Initialization: Current cycle: 800 out of 2000
===============================================================================

Box:      33.32529   0.00000   0.00000
           0.00000  33.32529   0.00000
           0.00000   0.00000  33.32529
Lengths:  33.32529  33.32529  33.32529
Angles:   90.00000  90.00000  90.00000
Rectangular boundary conditions

net charge:   0.00000000

component   0 (CO2) lambda:  0 occupancy:  1 (1.000000)
    net charge:   0.00000000 [e]

Amount of molecules per component :
-------------------------------------------------------------------------------
Component 0 (CO2)
    molecules:         1.300000e+01 molecules
    number density:    3.512543e-04 molec/A^3
    density:           2.566324e+01 kg/m^3

Total potential energy/kʙ       -4.500548e+02 [K]
-------------------------------------------------------------------------------
    external field VDW/kʙ        0.000000e+00 [K]
    external field Real/kʙ       0.000000e+00 [K]
    framework-molecule VDW/kʙ    0.000000e+00 [K]
    framework-molecule Real/kʙ   0.000000e+00 [K]
    molecule-molecule VDW/kʙ    -2.672350e+02 [K]
    molecule-molecule Real/kʙ   -1.601230e+02 [K]
    Van der Waals (Tail)/kʙ     -8.480105e+00 [K]
    Ewald Fourier/kʙ             7.502567e+02 [K]
    Ewald self/kʙ               -2.387682e+05 [K]
    Ewald exclusion/kʙ           2.380037e+05 [K]
    intra VDW/kʙ                 0.000000e+00 [K]
    intra Coulombic/kʙ           0.000000e+00 [K]
    polarization/kʙ              0.000000e+00 [K]
    dU/dlambda VDW/kʙ            0.000000e+00 [K]
    dU/dlambda Real/kʙ           0.000000e+00 [K]
    dU/dlambda Ewald/kʙ          0.000000e+00 [K]


Initialization: Current cycle: 900 out of 2000
===============================================================================

Box:      33.58383   0.00000   0.00000
           0.00000  33.58383   0.00000
           0.00000   0.00000  33.58383
Lengths:  33.58383  33.58383  33.58383
Angles:   90.00000  90.00000  90.00000
Rectangular boundary conditions

net charge:   0.00000000

component   0 (CO2) lambda:  0 occupancy:  1 (1.000000)
    net charge:   0.00000000 [e]

Amount of molecules per component :
-------------------------------------------------------------------------------
Component 0 (CO2)
    molecules:         7.000000e+00 molecules
    number density:    1.848024e-04 molec/A^3
    density:           1.350198e+01 kg/m^3

Total potential energy/kʙ       -1.104809e+00 [K]
-------------------------------------------------------------------------------
    external field VDW/kʙ        0.000000e+00 [K]
    external field Real/kʙ       0.000000e+00 [K]
    framework-molecule VDW/kʙ    0.000000e+00 [K]
    framework-molecule Real/kʙ   0.000000e+00 [K]
    molecule-molecule VDW/kʙ    -3.203383e+02 [K]
    molecule-molecule Real/kʙ    2.697155e+02 [K]
    Van der Waals (Tail)/kʙ     -2.402380e+00 [K]
    Ewald Fourier/kʙ             4.635598e+02 [K]
    Ewald self/kʙ               -1.285675e+05 [K]
    Ewald exclusion/kʙ           1.281558e+05 [K]
    intra VDW/kʙ                 0.000000e+00 [K]
    intra Coulombic/kʙ           0.000000e+00 [K]
    polarization/kʙ              0.000000e+00 [K]
    dU/dlambda VDW/kʙ            0.000000e+00 [K]
    dU/dlambda Real/kʙ           0.000000e+00 [K]
    dU/dlambda Ewald/kʙ          0.000000e+00 [K]


Initialization: Current cycle: 1000 out of 2000
===============================================================================

Box:      33.48696   0.00000   0.00000
           0.00000  33.48696   0.00000
           0.00000   0.00000  33.48696
Lengths:  33.48696  33.48696  33.48696
Angles:   90.00000  90.00000  90.00000
Rectangular boundary conditions

net charge:   0.00000000

component   0 (CO2) lambda:  0 occupancy:  1 (1.000000)
    net charge:   0.00000000 [e]

Amount of molecules per component :
-------------------------------------------------------------------------------
Component 0 (CO2)
    molecules:         9.000000e+00 molecules
    number density:    2.396709e-04 molec/A^3
    density:           1.751076e+01 kg/m^3

Total potential energy/kʙ       -4.925812e+01 [K]
-------------------------------------------------------------------------------
    external field VDW/kʙ        0.000000e+00 [K]
    external field Real/kʙ       0.000000e+00 [K]
    framework-molecule VDW/kʙ    0.000000e+00 [K]
    framework-molecule Real/kʙ   0.000000e+00 [K]
    molecule-molecule VDW/kʙ    -6.170213e+01 [K]
    molecule-molecule Real/kʙ    3.834525e+01 [K]
    Van der Waals (Tail)/kʙ     -4.005844e+00 [K]
    Ewald Fourier/kʙ             5.073554e+02 [K]
    Ewald self/kʙ               -1.653010e+05 [K]
    Ewald exclusion/kʙ           1.647718e+05 [K]
    intra VDW/kʙ                 0.000000e+00 [K]
    intra Coulombic/kʙ           0.000000e+00 [K]
    polarization/kʙ              0.000000e+00 [K]
    dU/dlambda VDW/kʙ            0.000000e+00 [K]
    dU/dlambda Real/kʙ           0.000000e+00 [K]
    dU/dlambda Ewald/kʙ          0.000000e+00 [K]


Initialization: Current cycle: 1100 out of 2000
===============================================================================

Box:      33.50891   0.00000   0.00000
           0.00000  33.50891   0.00000
           0.00000   0.00000  33.50891
Lengths:  33.50891  33.50891  33.50891
Angles:   90.00000  90.00000  90.00000
Rectangular boundary conditions

net charge:   0.00000000

component   0 (CO2) lambda:  0 occupancy:  1 (1.000000)
    net charge:   0.00000000 [e]

Amount of molecules per component :
-------------------------------------------------------------------------------
Component 0 (CO2)
    molecules:         7.000000e+00 molecules
    number density:    1.860447e-04 molec/A^3
    density:           1.359274e+01 kg/m^3

Total potential energy/kʙ       -4.942179e+01 [K]
-------------------------------------------------------------------------------
    external field VDW/kʙ        0.000000e+00 [K]
    external field Real/kʙ       0.000000e+00 [K]
    framework-molecule VDW/kʙ    0.000000e+00 [K]
    framework-molecule Real/kʙ   0.000000e+00 [K]
    molecule-molecule VDW/kʙ    -7.529007e+01 [K]
    molecule-molecule Real/kʙ    3.283897e+01 [K]
    Van der Waals (Tail)/kʙ     -2.418530e+00 [K]
    Ewald Fourier/kʙ             4.070873e+02 [K]
    Ewald self/kʙ               -1.285675e+05 [K]
    Ewald exclusion/kʙ           1.281558e+05 [K]
    intra VDW/kʙ                 0.000000e+00 [K]
    intra Coulombic/kʙ           0.000000e+00 [K]
    polarization/kʙ              0.000000e+00 [K]
    dU/dlambda VDW/kʙ            0.000000e+00 [K]
    dU/dlambda Real/kʙ           0.000000e+00 [K]
    dU/dlambda Ewald/kʙ          0.000000e+00 [K]


Initialization: Current cycle: 1200 out of 2000
===============================================================================

Box:      33.66406   0.00000   0.00000
           0.00000  33.66406   0.00000
           0.00000   0.00000  33.66406
Lengths:  33.66406  33.66406  33.66406
Angles:   90.00000  90.00000  90.00000
Rectangular boundary conditions

net charge:   0.00000000

component   0 (CO2) lambda:  0 occupancy:  1 (1.000000)
    net charge:   0.00000000 [e]

Amount of molecules per component :
-------------------------------------------------------------------------------
Component 0 (CO2)
    molecules:         4.000000e+00 molecules
    number density:    1.048480e-04 molec/A^3
    density:           7.660378e+00 kg/m^3

Total potential energy/kʙ       -4.201342e+00 [K]
-------------------------------------------------------------------------------
    external field VDW/kʙ        0.000000e+00 [K]
    external field Real/kʙ       0.000000e+00 [K]
    framework-molecule VDW/kʙ    0.000000e+00 [K]
    framework-molecule Real/kʙ   0.000000e+00 [K]
    molecule-molecule VDW/kʙ    -2.754648e+00 [K]
    molecule-molecule Real/kʙ   -3.539275e-01 [K]
    Van der Waals (Tail)/kʙ     -7.788549e-01 [K]
    Ewald Fourier/kʙ             2.349087e+02 [K]
    Ewald self/kʙ               -7.346713e+04 [K]
    Ewald exclusion/kʙ           7.323191e+04 [K]
    intra VDW/kʙ                 0.000000e+00 [K]
    intra Coulombic/kʙ           0.000000e+00 [K]
    polarization/kʙ              0.000000e+00 [K]
    dU/dlambda VDW/kʙ            0.000000e+00 [K]
    dU/dlambda Real/kʙ           0.000000e+00 [K]
    dU/dlambda Ewald/kʙ          0.000000e+00 [K]


Initialization: Current cycle: 1300 out of 2000
===============================================================================

Box:      33.56395   0.00000   0.00000
           0.00000  33.56395   0.00000
           0.00000   0.00000  33.56395
Lengths:  33.56395  33.56395  33.56395
Angles:   90.00000  90.00000  90.00000
Rectangular boundary conditions

net charge:   0.00000000

component   0 (CO2) lambda:  0 occupancy:  1 (1.000000)
    net charge:   0.00000000 [e]

Amount of molecules per component :
-------------------------------------------------------------------------------
Component 0 (CO2)
    molecules:         1.200000e+01 molecules
    number density:    3.173672e-04 molec/A^3
    density:           2.318739e+01 kg/m^3

Total potential energy/kʙ       -8.104934e+02 [K]
-------------------------------------------------------------------------------
    external field VDW/kʙ        0.000000e+00 [K]
    external field Real/kʙ       0.000000e+00 [K]
    framework-molecule VDW/kʙ    0.000000e+00 [K]
    framework-molecule Real/kʙ   0.000000e+00 [K]
    molecule-molecule VDW/kʙ    -5.761073e+02 [K]
    molecule-molecule Real/kʙ   -2.374110e+02 [K]
    Van der Waals (Tail)/kʙ     -7.072607e+00 [K]
    Ewald Fourier/kʙ             7.157652e+02 [K]
    Ewald self/kʙ               -2.204014e+05 [K]
    Ewald exclusion/kʙ           2.196957e+05 [K]
    intra VDW/kʙ                 0.000000e+00 [K]
    intra Coulombic/kʙ           0.000000e+00 [K]
    polarization/kʙ              0.000000e+00 [K]
    dU/dlambda VDW/kʙ            0.000000e+00 [K]
    dU/dlambda Real/kʙ           0.000000e+00 [K]
    dU/dlambda Ewald/kʙ          0.000000e+00 [K]


Initialization: Current cycle: 1400 out of 2000
===============================================================================

Box:      33.47124   0.00000   0.00000
           0.00000  33.47124   0.00000
           0.00000   0.00000  33.47124
Lengths:  33.47124  33.47124  33.47124
Angles:   90.00000  90.00000  90.00000
Rectangular boundary conditions

net charge:   0.00000000

component   0 (CO2) lambda:  0 occupancy:  1 (1.000000)
    net charge:   0.00000000 [e]

Amount of molecules per component :
-------------------------------------------------------------------------------
Component 0 (CO2)
    molecules:         1.000000e+01 molecules
    number density:    2.666764e-04 molec/A^3
    density:           1.948384e+01 kg/m^3

Total potential energy/kʙ       -7.421098e+02 [K]
-------------------------------------------------------------------------------
    external field VDW/kʙ        0.000000e+00 [K]
    external field Real/kʙ       0.000000e+00 [K]
    framework-molecule VDW/kʙ    0.000000e+00 [K]
    framework-molecule Real/kʙ   0.000000e+00 [K]
    molecule-molecule VDW/kʙ    -3.445272e+02 [K]
    molecule-molecule Real/kʙ   -3.295271e+02 [K]
    Van der Waals (Tail)/kʙ     -4.952459e+00 [K]
    Ewald Fourier/kʙ             5.249534e+02 [K]
    Ewald self/kʙ               -1.836678e+05 [K]
    Ewald exclusion/kʙ           1.830798e+05 [K]
    intra VDW/kʙ                 0.000000e+00 [K]
    intra Coulombic/kʙ           0.000000e+00 [K]
    polarization/kʙ              0.000000e+00 [K]
    dU/dlambda VDW/kʙ            0.000000e+00 [K]
    dU/dlambda Real/kʙ           0.000000e+00 [K]
    dU/dlambda Ewald/kʙ          0.000000e+00 [K]


Initialization: Current cycle: 1500 out of 2000
===============================================================================

Box:      33.66127   0.00000   0.00000
           0.00000  33.66127   0.00000
           0.00000   0.00000  33.66127
Lengths:  33.66127  33.66127  33.66127
Angles:   90.00000  90.00000  90.00000
Rectangular boundary conditions

net charge:   0.00000000

component   0 (CO2) lambda:  0 occupancy:  1 (1.000000)
    net charge:   0.00000000 [e]

Amount of molecules per component :
-------------------------------------------------------------------------------
Component 0 (CO2)
    molecules:         7.000000e+00 molecules
    number density:    1.835298e-04 molec/A^3
    density:           1.340900e+01 kg/m^3

Total potential energy/kʙ       -5.131061e+02 [K]
-------------------------------------------------------------------------------
    external field VDW/kʙ        0.000000e+00 [K]
    external field Real/kʙ       0.000000e+00 [K]
    framework-molecule VDW/kʙ    0.000000e+00 [K]
    framework-molecule Real/kʙ   0.000000e+00 [K]
    molecule-molecule VDW/kʙ    -2.518629e+02 [K]
    molecule-molecule Real/kʙ   -2.661486e+02 [K]
    Van der Waals (Tail)/kʙ     -2.385837e+00 [K]
    Ewald Fourier/kʙ             4.189308e+02 [K]
    Ewald self/kʙ               -1.285675e+05 [K]
    Ewald exclusion/kʙ           1.281558e+05 [K]
    intra VDW/kʙ                 0.000000e+00 [K]
    intra Coulombic/kʙ           0.000000e+00 [K]
    polarization/kʙ              0.000000e+00 [K]
    dU/dlambda VDW/kʙ            0.000000e+00 [K]
    dU/dlambda Real/kʙ           0.000000e+00 [K]
    dU/dlambda Ewald/kʙ          0.000000e+00 [K]


Initialization: Current cycle: 1600 out of 2000
===============================================================================

Box:      33.52549   0.00000   0.00000
           0.00000  33.52549   0.00000
           0.00000   0.00000  33.52549
Lengths:  33.52549  33.52549  33.52549
Angles:   90.00000  90.00000  90.00000
Rectangular boundary conditions

net charge:   0.00000000

component   0 (CO2) lambda:  0 occupancy:  1 (1.000000)
    net charge:   0.00000000 [e]

Amount of molecules per component :
-------------------------------------------------------------------------------
Component 0 (CO2)
    molecules:         6.000000e+00 molecules
    number density:    1.592304e-04 molec/A^3
    density:           1.163365e+01 kg/m^3

Total potential energy/kʙ       -5.375606e+02 [K]
-------------------------------------------------------------------------------
    external field VDW/kʙ        0.000000e+00 [K]
    external field Real/kʙ       0.000000e+00 [K]
    framework-molecule VDW/kʙ    0.000000e+00 [K]
    framework-molecule Real/kʙ   0.000000e+00 [K]
    molecule-molecule VDW/kʙ    -2.671435e+02 [K]
    molecule-molecule Real/kʙ   -2.681755e+02 [K]
    Van der Waals (Tail)/kʙ     -1.774245e+00 [K]
    Ewald Fourier/kʙ             3.523665e+02 [K]
    Ewald self/kʙ               -1.102007e+05 [K]
    Ewald exclusion/kʙ           1.098479e+05 [K]
    intra VDW/kʙ                 0.000000e+00 [K]
    intra Coulombic/kʙ           0.000000e+00 [K]
    polarization/kʙ              0.000000e+00 [K]
    dU/dlambda VDW/kʙ            0.000000e+00 [K]
    dU/dlambda Real/kʙ           0.000000e+00 [K]
    dU/dlambda Ewald/kʙ          0.000000e+00 [K]


Initialization: Current cycle: 1700 out of 2000
===============================================================================

Box:      33.66963   0.00000   0.00000
           0.00000  33.66963   0.00000
           0.00000   0.00000  33.66963
Lengths:  33.66963  33.66963  33.66963
Angles:   90.00000  90.00000  90.00000
Rectangular boundary conditions

net charge:   0.00000000

component   0 (CO2) lambda:  0 occupancy:  1 (1.000000)
    net charge:   0.00000000 [e]

Amount of molecules per component :
-------------------------------------------------------------------------------
Component 0 (CO2)
    molecules:         9.000000e+00 molecules
    number density:    2.357912e-04 molec/A^3
    density:           1.722731e+01 kg/m^3

Total potential energy/kʙ       -1.142427e+01 [K]
-------------------------------------------------------------------------------
    external field VDW/kʙ        0.000000e+00 [K]
    external field Real/kʙ       0.000000e+00 [K]
    framework-molecule VDW/kʙ    0.000000e+00 [K]
    framework-molecule Real/kʙ   0.000000e+00 [K]
    molecule-molecule VDW/kʙ    -1.744754e+01 [K]
    molecule-molecule Real/kʙ    1.433357e+01 [K]
    Van der Waals (Tail)/kʙ     -3.940999e+00 [K]
    Ewald Fourier/kʙ             5.248815e+02 [K]
    Ewald self/kʙ               -1.653010e+05 [K]
    Ewald exclusion/kʙ           1.647718e+05 [K]
    intra VDW/kʙ                 0.000000e+00 [K]
    intra Coulombic/kʙ           0.000000e+00 [K]
    polarization/kʙ              0.000000e+00 [K]
    dU/dlambda VDW/kʙ            0.000000e+00 [K]
    dU/dlambda Real/kʙ           0.000000e+00 [K]
    dU/dlambda Ewald/kʙ          0.000000e+00 [K]


Initialization: Current cycle: 1800 out of 2000
===============================================================================

Box:      33.70367   0.00000   0.00000
           0.00000  33.70367   0.00000
           0.00000   0.00000  33.70367
Lengths:  33.70367  33.70367  33.70367
Angles:   90.00000  90.00000  90.00000
Rectangular boundary conditions

net charge:   0.00000000

component   0 (CO2) lambda:  0 occupancy:  1 (1.000000)
    net charge:   0.00000000 [e]

Amount of molecules per component :
-------------------------------------------------------------------------------
Component 0 (CO2)
    molecules:         9.000000e+00 molecules
    number density:    2.350773e-04 molec/A^3
    density:           1.717515e+01 kg/m^3

Total potential energy/kʙ       -3.931392e+02 [K]
-------------------------------------------------------------------------------
    external field VDW/kʙ        0.000000e+00 [K]
    external field Real/kʙ       0.000000e+00 [K]
    framework-molecule VDW/kʙ    0.000000e+00 [K]
    framework-molecule Real/kʙ   0.000000e+00 [K]
    molecule-molecule VDW/kʙ    -3.022693e+02 [K]
    molecule-molecule Real/kʙ   -6.134935e+01 [K]
    Van der Waals (Tail)/kʙ     -3.929067e+00 [K]
    Ewald Fourier/kʙ             5.036593e+02 [K]
    Ewald self/kʙ               -1.653010e+05 [K]
    Ewald exclusion/kʙ           1.647718e+05 [K]
    intra VDW/kʙ                 0.000000e+00 [K]
    intra Coulombic/kʙ           0.000000e+00 [K]
    polarization/kʙ              0.000000e+00 [K]
    dU/dlambda VDW/kʙ            0.000000e+00 [K]
    dU/dlambda Real/kʙ           0.000000e+00 [K]
    dU/dlambda Ewald/kʙ          0.000000e+00 [K]


Initialization: Current cycle: 1900 out of 2000
===============================================================================

Box:      33.84619   0.00000   0.00000
           0.00000  33.84619   0.00000
           0.00000   0.00000  33.84619
Lengths:  33.84619  33.84619  33.84619
Angles:   90.00000  90.00000  90.00000
Rectangular boundary conditions

net charge:   0.00000000

component   0 (CO2) lambda:  0 occupancy:  1 (1.000000)
    net charge:   0.00000000 [e]

Amount of molecules per component :
-------------------------------------------------------------------------------
Component 0 (CO2)
    molecules:         9.000000e+00 molecules
    number density:    2.321204e-04 molec/A^3
    density:           1.695911e+01 kg/m^3

Total potential energy/kʙ       -4.789542e+02 [K]
-------------------------------------------------------------------------------
    external field VDW/kʙ        0.000000e+00 [K]
    external field Real/kʙ       0.000000e+00 [K]
    framework-molecule VDW/kʙ    0.000000e+00 [K]
    framework-molecule Real/kʙ   0.000000e+00 [K]
    molecule-molecule VDW/kʙ    -2.817243e+02 [K]
    molecule-molecule Real/kʙ   -1.816721e+02 [K]
    Van der Waals (Tail)/kʙ     -3.879645e+00 [K]
    Ewald Fourier/kʙ             5.175726e+02 [K]
    Ewald self/kʙ               -1.653010e+05 [K]
    Ewald exclusion/kʙ           1.647718e+05 [K]
    intra VDW/kʙ                 0.000000e+00 [K]
    intra Coulombic/kʙ           0.000000e+00 [K]
    polarization/kʙ              0.000000e+00 [K]
    dU/dlambda VDW/kʙ            0.000000e+00 [K]
    dU/dlambda Real/kʙ           0.000000e+00 [K]
    dU/dlambda Ewald/kʙ          0.000000e+00 [K]


Current cycle: 0 out of 6000
===============================================================================

Box:      33.73555   0.00000   0.00000  Average:  33.73555   0.00000   0.00000
           0.00000  33.73555   0.00000             0.00000  33.73555   0.00000
           0.00000   0.00000  33.73555             0.00000   0.00000  33.73555
Lengths:  33.73555  33.73555  33.73555  Average:  33.73555  33.73555  33.73555
Angles:   90.00000  90.00000  90.00000  Average:  90.00000  90.00000  90.00000
Rectangular boundary conditions

net charge:   0.00000000

component 0 (CO2) lambda:  0 occupancy:  1 (1.000000)
    net charge:   0.00000000 [e]

Amount of molecules per component :
-------------------------------------------------------------------------------
Component 0 (CO2)
    molecules:      1.300000e+01 molecules  (1.300000e+01 +/- 0.000000e+00)
    number density: 3.385947e-04 molec./A^3 (3.385947e-04 +/- 0.000000e+00)
    density:        2.473831e+01 kg/m^3     (2.473831e+01 +/- 0.000000e+00)

Average pressure tensor: 
-------------------------------------------------------------------------------
 1.0752e+01  0.0000e+00  0.0000e+00 +/- 0.0000e+00 0.0000e+00 0.0000e+00 [bar]
 0.0000e+00  1.0752e+01  0.0000e+00 +/- 0.0000e+00 0.0000e+00 0.0000e+00 [bar]
 0.0000e+00  0.0000e+00  1.0752e+01 +/- 0.0000e+00 0.0000e+00 0.0000e+00 [bar]
Ideal-gas pressure:   1.075206e+01 +/ 0.000000e+00 [bar]
Excess pressure:      0.000000e+00 +/ 0.000000e+00 [bar]
Pressure:             1.075206e+01 +/ 0.000000e+00 [bar]

Total potential energy/kʙ  -2.669011e+03 (-2.669011e+03 +/- 0.000000e+00) [K]
-------------------------------------------------------------------------------
ExternalField-molecule
    Van der Waals/kʙ        0.000000e+00 ( 0.000000e+00 +/- 0.000000e+00) [K]
Framework-molecule
    Van der Waals/kʙ        0.000000e+00 ( 0.000000e+00 +/- 0.000000e+00) [K]
    Van der Waals (Tail)/kʙ 0.000000e+00 ( 0.000000e+00 +/- 0.000000e+00) [K]
    Coulombic Real/kʙ       0.000000e+00 ( 0.000000e+00 +/- 0.000000e+00) [K]
    Coulombic Fourier/kʙ    0.000000e+00 ( 0.000000e+00 +/- 0.000000e+00) [K]
Molecule-molecule
    Van der Waals/kʙ       -2.476161e+03 (-2.476161e+03 +/- 0.000000e+00) [K]
    Van der Waals (Tail)/kʙ-8.174472e+00 (-8.174472e+00 +/- 0.000000e+00) [K]
    Coulombic Real/kʙ      -2.437933e+02 (-2.437933e+02 +/- 0.000000e+00) [K]
    Coulombic Fourier/kʙ    5.911817e+01 ( 5.911817e+01 +/- 0.000000e+00) [K]
    Molecule Intra/kʙ       0.000000e+00 ( 0.000000e+00 +/- 0.000000e+00) [K]

Current cycle: 100 out of 6000
===============================================================================

Box:      33.75395   0.00000   0.00000  Average:  33.75969   0.00000   0.00000
           0.00000  33.75395   0.00000             0.00000  33.75969   0.00000
           0.00000   0.00000  33.75395             0.00000   0.00000  33.75969
Lengths:  33.75395  33.75395  33.75395  Average:  33.75969  33.75969  33.75969
Angles:   90.00000  90.00000  90.00000  Average:  90.00000  90.00000  90.00000
Rectangular boundary conditions

net charge:   0.00000000

component 0 (CO2) lambda:  0 occupancy:  1 (1.000000)
    net charge:   0.00000000 [e]

Amount of molecules per component :
-------------------------------------------------------------------------------
Component 0 (CO2)
    molecules:      1.000000e+01 molecules  (1.160396e+01 +/- 0.000000e+00)
    number density: 2.600317e-04 molec./A^3 (3.015175e-04 +/- 0.000000e+00)
    density:        1.899836e+01 kg/m^3     (2.202939e+01 +/- 0.000000e+00)

Average pressure tensor: 
-------------------------------------------------------------------------------
 7.7891e+00 -1.1388e+00  6.7495e-01 +/- 0.0000e+00 0.0000e+00 0.0000e+00 [bar]
-1.1388e+00  1.0736e+01  1.0666e+00 +/- 0.0000e+00 0.0000e+00 0.0000e+00 [bar]
 6.7495e-01  1.0666e+00  8.4249e+00 +/- 0.0000e+00 0.0000e+00 0.0000e+00 [bar]
Ideal-gas pressure:   9.574676e+00 +/ 0.000000e+00 [bar]
Excess pressure:     -5.914102e-01 +/ 0.000000e+00 [bar]
Pressure:             8.983266e+00 +/ 0.000000e+00 [bar]

Total potential energy/kʙ  -2.223596e+02 (-7.254093e+02 +/- 0.000000e+00) [K]
-------------------------------------------------------------------------------
ExternalField-molecule
    Van der Waals/kʙ        0.000000e+00 ( 0.000000e+00 +/- 0.000000e+00) [K]
Framework-molecule
    Van der Waals/kʙ        0.000000e+00 ( 0.000000e+00 +/- 0.000000e+00) [K]
    Van der Waals (Tail)/kʙ 0.000000e+00 ( 0.000000e+00 +/- 0.000000e+00) [K]
    Coulombic Real/kʙ       0.000000e+00 ( 0.000000e+00 +/- 0.000000e+00) [K]
    Coulombic Fourier/kʙ    0.000000e+00 ( 0.000000e+00 +/- 0.000000e+00) [K]
Molecule-molecule
    Van der Waals/kʙ       -3.196328e+02 (-5.748716e+02 +/- 0.000000e+00) [K]
    Van der Waals (Tail)/kʙ-4.829060e+00 (-6.625543e+00 +/- 0.000000e+00) [K]
    Coulombic Real/kʙ       8.788568e+01 (-1.440037e+02 +/- 0.000000e+00) [K]
    Coulombic Fourier/kʙ    1.421658e+01 ( 9.148216e-02 +/- 0.000000e+00) [K]
    Molecule Intra/kʙ       0.000000e+00 ( 0.000000e+00 +/- 0.000000e+00) [K]

Current cycle: 200 out of 6000
===============================================================================

Box:      33.58046   0.00000   0.00000  Average:  33.74475   0.00000   0.00000
           0.00000  33.58046   0.00000             0.00000  33.74475   0.00000
           0.00000   0.00000  33.58046             0.00000   0.00000  33.74475
Lengths:  33.58046  33.58046  33.58046  Average:  33.74475  33.74475  33.74475
Angles:   90.00000  90.00000  90.00000  Average:  90.00000  90.00000  90.00000
Rectangular boundary conditions

net charge:   0.00000000

component 0 (CO2) lambda:  0 occupancy:  1 (1.000000)
    net charge:   0.00000000 [e]

Amount of molecules per component :
-------------------------------------------------------------------------------
Component 0 (CO2)
    molecules:      8.000000e+00 molecules  (1.030348e+01 +/- 0.000000e+00)
    number density: 2.112661e-04 molec./A^3 (2.680865e-04 +/- 0.000000e+00)
    density:        1.543547e+01 kg/m^3     (1.958686e+01 +/- 0.000000e+00)

Average pressure tensor: 
-------------------------------------------------------------------------------
 7.6087e+00 -7.8163e-01  4.7152e-01 +/- 0.0000e+00 0.0000e+00 0.0000e+00 [bar]
-7.8163e-01  9.1436e+00  6.5708e-01 +/- 0.0000e+00 0.0000e+00 0.0000e+00 [bar]
 4.7152e-01  6.5708e-01  7.5987e+00 +/- 0.0000e+00 0.0000e+00 0.0000e+00 [bar]
Ideal-gas pressure:   8.513075e+00 +/ 0.000000e+00 [bar]
Excess pressure:     -3.960979e-01 +/ 0.000000e+00 [bar]
Pressure:             8.116977e+00 +/ 0.000000e+00 [bar]

Total potential energy/kʙ  -9.227726e+02 (-6.023146e+02 +/- 0.000000e+00) [K]
-------------------------------------------------------------------------------
ExternalField-molecule
    Van der Waals/kʙ        0.000000e+00 ( 0.000000e+00 +/- 0.000000e+00) [K]
Framework-molecule
    Van der Waals/kʙ        0.000000e+00 ( 0.000000e+00 +/- 0.000000e+00) [K]
    Van der Waals (Tail)/kʙ 0.000000e+00 ( 0.000000e+00 +/- 0.000000e+00) [K]
    Coulombic Real/kʙ       0.000000e+00 ( 0.000000e+00 +/- 0.000000e+00) [K]
    Coulombic Fourier/kʙ    0.000000e+00 ( 0.000000e+00 +/- 0.000000e+00) [K]
Molecule-molecule
    Van der Waals/kʙ       -5.080360e+02 (-4.434814e+02 +/- 0.000000e+00) [K]
    Van der Waals (Tail)/kʙ-3.138745e+00 (-5.393281e+00 +/- 0.000000e+00) [K]
    Coulombic Real/kʙ      -3.967339e+02 (-1.538492e+02 +/- 0.000000e+00) [K]
    Coulombic Fourier/kʙ   -1.486394e+01 ( 4.093486e-01 +/- 0.000000e+00) [K]
    Molecule Intra/kʙ       0.000000e+00 ( 0.000000e+00 +/- 0.000000e+00) [K]

Current cycle: 300 out of 6000
===============================================================================

Box:      33.78940   0.00000   0.00000  Average:  33.74072   0.00000   0.00000
           0.00000  33.78940   0.00000             0.00000  33.74072   0.00000
           0.00000   0.00000  33.78940             0.00000   0.00000  33.74072
Lengths:  33.78940  33.78940  33.78940  Average:  33.74072  33.74072  33.74072
Angles:   90.00000  90.00000  90.00000  Average:  90.00000  90.00000  90.00000
Rectangular boundary conditions

net charge:   0.00000000

component 0 (CO2) lambda:  0 occupancy:  1 (1.000000)
    net charge:   0.00000000 [e]

Amount of molecules per component :
-------------------------------------------------------------------------------
Component 0 (CO2)
    molecules:      1.000000e+01 molecules  (1.045515e+01 +/- 0.000000e+00)
    number density: 2.592140e-04 molec./A^3 (2.720593e-04 +/- 0.000000e+00)
    density:        1.893862e+01 kg/m^3     (1.987711e+01 +/- 0.000000e+00)

Average pressure tensor: 
-------------------------------------------------------------------------------
 7.3709e+00 -5.3819e-01  1.9556e-01 +/- 0.0000e+00 0.0000e+00 0.0000e+00 [bar]
-5.3819e-01  8.8371e+00  3.5629e-01 +/- 0.0000e+00 0.0000e+00 0.0000e+00 [bar]
 1.9556e-01  3.5629e-01  7.8524e+00 +/- 0.0000e+00 0.0000e+00 0.0000e+00 [bar]
Ideal-gas pressure:   8.639230e+00 +/ 0.000000e+00 [bar]
Excess pressure:     -6.190964e-01 +/ 0.000000e+00 [bar]
Pressure:             8.020134e+00 +/ 0.000000e+00 [bar]

Total potential energy/kʙ  -2.875970e+02 (-5.064341e+02 +/- 0.000000e+00) [K]
-------------------------------------------------------------------------------
ExternalField-molecule
    Van der Waals/kʙ        0.000000e+00 ( 0.000000e+00 +/- 0.000000e+00) [K]
Framework-molecule
    Van der Waals/kʙ        0.000000e+00 ( 0.000000e+00 +/- 0.000000e+00) [K]
    Van der Waals (Tail)/kʙ 0.000000e+00 ( 0.000000e+00 +/- 0.000000e+00) [K]
    Coulombic Real/kʙ       0.000000e+00 ( 0.000000e+00 +/- 0.000000e+00) [K]
    Coulombic Fourier/kʙ    0.000000e+00 ( 0.000000e+00 +/- 0.000000e+00) [K]
Molecule-molecule
    Van der Waals/kʙ       -1.851147e+02 (-3.715634e+02 +/- 0.000000e+00) [K]
    Van der Waals (Tail)/kʙ-4.813874e+00 (-5.753492e+00 +/- 0.000000e+00) [K]
    Coulombic Real/kʙ      -7.149301e+01 (-1.249553e+02 +/- 0.000000e+00) [K]
    Coulombic Fourier/kʙ   -2.617543e+01 (-4.161818e+00 +/- 0.000000e+00) [K]
    Molecule Intra/kʙ       0.000000e+00 ( 0.000000e+00 +/- 0.000000e+00) [K]

Current cycle: 400 out of 6000
===============================================================================

Box:      33.67709   0.00000   0.00000  Average:  33.73479   0.00000   0.00000
           0.00000  33.67709   0.00000             0.00000  33.73479   0.00000
           0.00000   0.00000  33.67709             0.00000   0.00000  33.73479
Lengths:  33.67709  33.67709  33.67709  Average:  33.73479  33.73479  33.73479
Angles:   90.00000  90.00000  90.00000  Average:  90.00000  90.00000  90.00000
Rectangular boundary conditions

net charge:   0.00000000

component 0 (CO2) lambda:  0 occupancy:  1 (1.000000)
    net charge:   0.00000000 [e]

Amount of molecules per component :
-------------------------------------------------------------------------------
Component 0 (CO2)
    molecules:      4.000000e+00 molecules  (1.004988e+01 +/- 0.000000e+00)
    number density: 1.047265e-04 molec./A^3 (2.616532e-04 +/- 0.000000e+00)
    density:        7.651495e+00 kg/m^3     (1.911683e+01 +/- 0.000000e+00)

Average pressure tensor: 
-------------------------------------------------------------------------------
 7.6569e+00 -5.0750e-01  4.6980e-01 +/- 0.0000e+00 0.0000e+00 0.0000e+00 [bar]
-5.0750e-01  8.2738e+00  1.2113e-01 +/- 0.0000e+00 0.0000e+00 0.0000e+00 [bar]
 4.6980e-01  1.2113e-01  7.7886e+00 +/- 0.0000e+00 0.0000e+00 0.0000e+00 [bar]
Ideal-gas pressure:   8.308785e+00 +/ 0.000000e+00 [bar]
Excess pressure:     -4.023822e-01 +/ 0.000000e+00 [bar]
Pressure:             7.906403e+00 +/ 0.000000e+00 [bar]

Total potential energy/kʙ  -5.160376e+01 (-4.028872e+02 +/- 0.000000e+00) [K]
-------------------------------------------------------------------------------
ExternalField-molecule
    Van der Waals/kʙ        0.000000e+00 ( 0.000000e+00 +/- 0.000000e+00) [K]
Framework-molecule
    Van der Waals/kʙ        0.000000e+00 ( 0.000000e+00 +/- 0.000000e+00) [K]
    Van der Waals (Tail)/kʙ 0.000000e+00 ( 0.000000e+00 +/- 0.000000e+00) [K]
    Coulombic Real/kʙ       0.000000e+00 ( 0.000000e+00 +/- 0.000000e+00) [K]
    Coulombic Fourier/kʙ    0.000000e+00 ( 0.000000e+00 +/- 0.000000e+00) [K]
Molecule-molecule
    Van der Waals/kʙ       -2.475877e+01 (-2.953128e+02 +/- 0.000000e+00) [K]
    Van der Waals (Tail)/kʙ-7.779518e-01 (-5.220145e+00 +/- 0.000000e+00) [K]
    Coulombic Real/kʙ      -1.542988e+01 (-9.841225e+01 +/- 0.000000e+00) [K]
    Coulombic Fourier/kʙ   -1.063716e+01 (-3.942035e+00 +/- 0.000000e+00) [K]
    Molecule Intra/kʙ       0.000000e+00 ( 0.000000e+00 +/- 0.000000e+00) [K]

Current cycle: 500 out of 6000
===============================================================================

Box:      33.71272   0.00000   0.00000  Average:  33.71608   0.00000   0.00000
           0.00000  33.71272   0.00000             0.00000  33.71608   0.00000
           0.00000   0.00000  33.71272             0.00000   0.00000  33.71608
Lengths:  33.71272  33.71272  33.71272  Average:  33.71608  33.71608  33.71608
Angles:   90.00000  90.00000  90.00000  Average:  90.00000  90.00000  90.00000
Rectangular boundary conditions

net charge:   0.00000000

component 0 (CO2) lambda:  0 occupancy:  1 (1.000000)
    net charge:   0.00000000 [e]

Amount of molecules per component :
-------------------------------------------------------------------------------
Component 0 (CO2)
    molecules:      9.000000e+00 molecules  (9.163673e+00 +/- 0.000000e+00)
    number density: 2.348881e-04 molec./A^3 (2.387958e-04 +/- 0.000000e+00)
    density:        1.716133e+01 kg/m^3     (1.744683e+01 +/- 0.000000e+00)

Average pressure tensor: 
-------------------------------------------------------------------------------
 6.9925e+00 -3.8784e-01  3.6318e-01 +/- 0.0000e+00 0.0000e+00 0.0000e+00 [bar]
-3.8784e-01  7.4662e+00  8.0349e-02 +/- 0.0000e+00 0.0000e+00 0.0000e+00 [bar]
 3.6318e-01  8.0349e-02  7.1683e+00 +/- 0.0000e+00 0.0000e+00 0.0000e+00 [bar]
Ideal-gas pressure:   7.582951e+00 +/ 0.000000e+00 [bar]
Excess pressure:     -3.739449e-01 +/ 0.000000e+00 [bar]
Pressure:             7.209006e+00 +/ 0.000000e+00 [bar]

Total potential energy/kʙ  -5.674137e+02 (-3.619691e+02 +/- 0.000000e+00) [K]
-------------------------------------------------------------------------------
ExternalField-molecule
    Van der Waals/kʙ        0.000000e+00 ( 0.000000e+00 +/- 0.000000e+00) [K]
Framework-molecule
    Van der Waals/kʙ        0.000000e+00 ( 0.000000e+00 +/- 0.000000e+00) [K]
    Van der Waals (Tail)/kʙ 0.000000e+00 ( 0.000000e+00 +/- 0.000000e+00) [K]
    Coulombic Real/kʙ       0.000000e+00 ( 0.000000e+00 +/- 0.000000e+00) [K]
    Coulombic Fourier/kʙ    0.000000e+00 ( 0.000000e+00 +/- 0.000000e+00) [K]
Molecule-molecule
    Van der Waals/kʙ       -1.781869e+02 (-2.574362e+02 +/- 0.000000e+00) [K]
    Van der Waals (Tail)/kʙ-3.925905e+00 (-4.484705e+00 +/- 0.000000e+00) [K]
    Coulombic Real/kʙ      -4.315019e+02 (-9.712295e+01 +/- 0.000000e+00) [K]
    Coulombic Fourier/kʙ    4.620112e+01 (-2.925242e+00 +/- 0.000000e+00) [K]
    Molecule Intra/kʙ       0.000000e+00 ( 0.000000e+00 +/- 0.000000e+00) [K]

Current cycle: 600 out of 6000
===============================================================================

Box:      33.71983   0.00000   0.00000  Average:  33.71610   0.00000   0.00000
           0.00000  33.71983   0.00000             0.00000  33.71610   0.00000
           0.00000   0.00000  33.71983             0.00000   0.00000  33.71610
Lengths:  33.71983  33.71983  33.71983  Average:  33.71610  33.71610  33.71610
Angles:   90.00000  90.00000  90.00000  Average:  90.00000  90.00000  90.00000
Rectangular boundary conditions

net charge:   0.00000000

component 0 (CO2) lambda:  0 occupancy:  1 (1.000000)
    net charge:   0.00000000 [e]

Amount of molecules per component :
-------------------------------------------------------------------------------
Component 0 (CO2)
    molecules:      1.000000e+01 molecules  (8.906822e+00 +/- 0.000000e+00)
    number density: 2.608218e-04 molec./A^3 (2.321303e-04 +/- 0.000000e+00)
    density:        1.905609e+01 kg/m^3     (1.695984e+01 +/- 0.000000e+00)

Average pressure tensor: 
-------------------------------------------------------------------------------
 6.9735e+00 -4.6831e-01  1.1141e-01 +/- 0.0000e+00 0.0000e+00 0.0000e+00 [bar]
-4.6831e-01  7.3087e+00  3.3782e-01 +/- 0.0000e+00 0.0000e+00 0.0000e+00 [bar]
 1.1141e-01  3.3782e-01  7.1872e+00 +/- 0.0000e+00 0.0000e+00 0.0000e+00 [bar]
Ideal-gas pressure:   7.371288e+00 +/ 0.000000e+00 [bar]
Excess pressure:     -2.148212e-01 +/ 0.000000e+00 [bar]
Pressure:             7.156467e+00 +/ 0.000000e+00 [bar]

Total potential energy/kʙ  -3.263041e+02 (-3.296082e+02 +/- 0.000000e+00) [K]
-------------------------------------------------------------------------------
ExternalField-molecule
    Van der Waals/kʙ        0.000000e+00 ( 0.000000e+00 +/- 0.000000e+00) [K]
Framework-molecule
    Van der Waals/kʙ        0.000000e+00 ( 0.000000e+00 +/- 0.000000e+00) [K]
    Van der Waals (Tail)/kʙ 0.000000e+00 ( 0.000000e+00 +/- 0.000000e+00) [K]
    Coulombic Real/kʙ       0.000000e+00 ( 0.000000e+00 +/- 0.000000e+00) [K]
    Coulombic Fourier/kʙ    0.000000e+00 ( 0.000000e+00 +/- 0.000000e+00) [K]
Molecule-molecule
    Van der Waals/kʙ       -2.123798e+02 (-2.391056e+02 +/- 0.000000e+00) [K]
    Van der Waals (Tail)/kʙ-4.843732e+00 (-4.177913e+00 +/- 0.000000e+00) [K]
    Coulombic Real/kʙ      -5.361791e+01 (-8.142413e+01 +/- 0.000000e+00) [K]
    Coulombic Fourier/kʙ   -5.546271e+01 (-4.900623e+00 +/- 0.000000e+00) [K]
    Molecule Intra/kʙ       0.000000e+00 ( 0.000000e+00 +/- 0.000000e+00) [K]

Current cycle: 700 out of 6000
===============================================================================

Box:      33.75126   0.00000   0.00000  Average:  33.72327   0.00000   0.00000
           0.00000  33.75126   0.00000             0.00000  33.72327   0.00000
           0.00000   0.00000  33.75126             0.00000   0.00000  33.72327
Lengths:  33.75126  33.75126  33.75126  Average:  33.72327  33.72327  33.72327
Angles:   90.00000  90.00000  90.00000  Average:  90.00000  90.00000  90.00000
Rectangular boundary conditions

net charge:   0.00000000

component 0 (CO2) lambda:  0 occupancy:  1 (1.000000)
    net charge:   0.00000000 [e]

Amount of molecules per component :
-------------------------------------------------------------------------------
Component 0 (CO2)
    molecules:      9.000000e+00 molecules  (8.971469e+00 +/- 0.000000e+00)
    number density: 2.340845e-04 molec./A^3 (2.336859e-04 +/- 0.000000e+00)
    density:        1.710261e+01 kg/m^3     (1.707349e+01 +/- 0.000000e+00)

Average pressure tensor: 
-------------------------------------------------------------------------------
 7.0889e+00 -5.3696e-01  3.5388e-03 +/- 0.0000e+00 0.0000e+00 0.0000e+00 [bar]
-5.3696e-01  7.2724e+00  3.8897e-01 +/- 0.0000e+00 0.0000e+00 0.0000e+00 [bar]
 3.5388e-03  3.8897e-01  7.3436e+00 +/- 0.0000e+00 0.0000e+00 0.0000e+00 [bar]
Ideal-gas pressure:   7.420685e+00 +/ 0.000000e+00 [bar]
Excess pressure:     -1.857356e-01 +/ 0.000000e+00 [bar]
Pressure:             7.234950e+00 +/ 0.000000e+00 [bar]

Total potential energy/kʙ  -2.641757e+01 (-3.130343e+02 +/- 0.000000e+00) [K]
-------------------------------------------------------------------------------
ExternalField-molecule
    Van der Waals/kʙ        0.000000e+00 ( 0.000000e+00 +/- 0.000000e+00) [K]
Framework-molecule
    Van der Waals/kʙ        0.000000e+00 ( 0.000000e+00 +/- 0.000000e+00) [K]
    Van der Waals (Tail)/kʙ 0.000000e+00 ( 0.000000e+00 +/- 0.000000e+00) [K]
    Coulombic Real/kʙ       0.000000e+00 ( 0.000000e+00 +/- 0.000000e+00) [K]
    Coulombic Fourier/kʙ    0.000000e+00 ( 0.000000e+00 +/- 0.000000e+00) [K]
Molecule-molecule
    Van der Waals/kʙ       -1.228508e+01 (-2.224653e+02 +/- 0.000000e+00) [K]
    Van der Waals (Tail)/kʙ-3.912473e+00 (-4.228491e+00 +/- 0.000000e+00) [K]
    Coulombic Real/kʙ      -1.401175e+00 (-8.053811e+01 +/- 0.000000e+00) [K]
    Coulombic Fourier/kʙ   -8.818845e+00 (-5.802397e+00 +/- 0.000000e+00) [K]
    Molecule Intra/kʙ       0.000000e+00 ( 0.000000e+00 +/- 0.000000e+00) [K]

Current cycle: 800 out of 6000
===============================================================================

Box:      33.76263   0.00000   0.00000  Average:  33.73179   0.00000   0.00000
           0.00000  33.76263   0.00000             0.00000  33.73179   0.00000
           0.00000   0.00000  33.76263             0.00000   0.00000  33.73179
Lengths:  33.76263  33.76263  33.76263  Average:  33.73179  33.73179  33.73179
Angles:   90.00000  90.00000  90.00000  Average:  90.00000  90.00000  90.00000
Rectangular boundary conditions

net charge:   0.00000000

component 0 (CO2) lambda:  0 occupancy:  1 (1.000000)
    net charge:   0.00000000 [e]

Amount of molecules per component :
-------------------------------------------------------------------------------
Component 0 (CO2)
    molecules:      1.300000e+01 molecules  (9.471910e+00 +/- 0.000000e+00)
    number density: 3.377806e-04 molec./A^3 (2.465091e-04 +/- 0.000000e+00)
    density:        2.467883e+01 kg/m^3     (1.801038e+01 +/- 0.000000e+00)

Average pressure tensor: 
-------------------------------------------------------------------------------
 7.3494e+00 -4.8132e-01 -6.3870e-02 +/- 0.0000e+00 0.0000e+00 0.0000e+00 [bar]
-4.8132e-01  7.5064e+00  3.7843e-01 +/- 0.0000e+00 0.0000e+00 0.0000e+00 [bar]
-6.3870e-02  3.7843e-01  7.5719e+00 +/- 0.0000e+00 0.0000e+00 0.0000e+00 [bar]
Ideal-gas pressure:   7.827885e+00 +/ 0.000000e+00 [bar]
Excess pressure:     -3.520015e-01 +/ 0.000000e+00 [bar]
Pressure:             7.475884e+00 +/ 0.000000e+00 [bar]

Total potential energy/kʙ  -1.019638e+03 (-3.664487e+02 +/- 0.000000e+00) [K]
-------------------------------------------------------------------------------
ExternalField-molecule
    Van der Waals/kʙ        0.000000e+00 ( 0.000000e+00 +/- 0.000000e+00) [K]
Framework-molecule
    Van der Waals/kʙ        0.000000e+00 ( 0.000000e+00 +/- 0.000000e+00) [K]
    Van der Waals (Tail)/kʙ 0.000000e+00 ( 0.000000e+00 +/- 0.000000e+00) [K]
    Coulombic Real/kʙ       0.000000e+00 ( 0.000000e+00 +/- 0.000000e+00) [K]
    Coulombic Fourier/kʙ    0.000000e+00 ( 0.000000e+00 +/- 0.000000e+00) [K]
Molecule-molecule
    Van der Waals/kʙ       -1.017383e+03 (-2.570871e+02 +/- 0.000000e+00) [K]
    Van der Waals (Tail)/kʙ-8.154817e+00 (-4.705501e+00 +/- 0.000000e+00) [K]
    Coulombic Real/kʙ       6.067458e+00 (-9.678756e+01 +/- 0.000000e+00) [K]
    Coulombic Fourier/kʙ   -1.677507e-01 (-7.868526e+00 +/- 0.000000e+00) [K]
    Molecule Intra/kʙ       0.000000e+00 ( 0.000000e+00 +/- 0.000000e+00) [K]

Current cycle: 900 out of 6000
===============================================================================

Box:      33.79711   0.00000   0.00000  Average:  33.73955   0.00000   0.00000
           0.00000  33.79711   0.00000             0.00000  33.73955   0.00000
           0.00000   0.00000  33.79711             0.00000   0.00000  33.73955
Lengths:  33.79711  33.79711  33.79711  Average:  33.73955  33.73955  33.73955
Angles:   90.00000  90.00000  90.00000  Average:  90.00000  90.00000  90.00000
Rectangular boundary conditions

net charge:   0.00000000

component 0 (CO2) lambda:  0 occupancy:  1 (1.000000)
    net charge:   0.00000000 [e]

Amount of molecules per component :
-------------------------------------------------------------------------------
Component 0 (CO2)
    molecules:      8.000000e+00 molecules  (9.928968e+00 +/- 0.000000e+00)
    number density: 2.072294e-04 molec./A^3 (2.582092e-04 +/- 0.000000e+00)
    density:        1.514053e+01 kg/m^3     (1.886521e+01 +/- 0.000000e+00)

Average pressure tensor: 
-------------------------------------------------------------------------------
 7.8089e+00 -4.2618e-01  3.0149e-01 +/- 0.0000e+00 0.0000e+00 0.0000e+00 [bar]
-4.2618e-01  8.5261e+00  6.3020e-01 +/- 0.0000e+00 0.0000e+00 0.0000e+00 [bar]
 3.0149e-01  6.3020e-01  8.2532e+00 +/- 0.0000e+00 0.0000e+00 0.0000e+00 [bar]
Ideal-gas pressure:   8.199423e+00 +/ 0.000000e+00 [bar]
Excess pressure:     -3.360672e-03 +/ 0.000000e+00 [bar]
Pressure:             8.196063e+00 +/ 0.000000e+00 [bar]

Total potential energy/kʙ  -8.779589e+01 (-4.289417e+02 +/- 0.000000e+00) [K]
-------------------------------------------------------------------------------
ExternalField-molecule
    Van der Waals/kʙ        0.000000e+00 ( 0.000000e+00 +/- 0.000000e+00) [K]
Framework-molecule
    Van der Waals/kʙ        0.000000e+00 ( 0.000000e+00 +/- 0.000000e+00) [K]
    Van der Waals (Tail)/kʙ 0.000000e+00 ( 0.000000e+00 +/- 0.000000e+00) [K]
    Coulombic Real/kʙ       0.000000e+00 ( 0.000000e+00 +/- 0.000000e+00) [K]
    Coulombic Fourier/kʙ    0.000000e+00 ( 0.000000e+00 +/- 0.000000e+00) [K]
Molecule-molecule
    Van der Waals/kʙ       -2.013364e+02 (-2.923600e+02 +/- 0.000000e+00) [K]
    Van der Waals (Tail)/kʙ-3.078772e+00 (-5.064182e+00 +/- 0.000000e+00) [K]
    Coulombic Real/kʙ       1.010122e+02 (-1.228601e+02 +/- 0.000000e+00) [K]
    Coulombic Fourier/kʙ    1.560709e+01 (-8.657441e+00 +/- 0.000000e+00) [K]
    Molecule Intra/kʙ       0.000000e+00 ( 0.000000e+00 +/- 0.000000e+00) [K]

Current cycle: 1000 out of 6000
===============================================================================

Box:      33.72875   0.00000   0.00000  Average:  33.73783   0.00000   0.00000
           0.00000  33.72875   0.00000             0.00000  33.73783   0.00000
           0.00000   0.00000  33.72875             0.00000   0.00000  33.73783
Lengths:  33.72875  33.72875  33.72875  Average:  33.73783  33.73783  33.73783
Angles:   90.00000  90.00000  90.00000  Average:  90.00000  90.00000  90.00000
Rectangular boundary conditions

net charge:   0.00000000

component 0 (CO2) lambda:  0 occupancy:  1 (1.000000)
    net charge:   0.00000000 [e]

Amount of molecules per component :
-------------------------------------------------------------------------------
Component 0 (CO2)
    molecules:      1.400000e+01 molecules  (9.975025e+00 +/- 0.000000e+00)
    number density: 3.648608e-04 molec./A^3 (2.594803e-04 +/- 0.000000e+00)
    density:        2.665735e+01 kg/m^3     (1.895808e+01 +/- 0.000000e+00)

Average pressure tensor: 
-------------------------------------------------------------------------------
 7.7508e+00 -3.7859e-01  3.6166e-01 +/- 0.0000e+00 0.0000e+00 0.0000e+00 [bar]
-3.7859e-01  8.3734e+00  5.9535e-01 +/- 0.0000e+00 0.0000e+00 0.0000e+00 [bar]
 3.6166e-01  5.9535e-01  8.2344e+00 +/- 0.0000e+00 0.0000e+00 0.0000e+00 [bar]
Ideal-gas pressure:   8.239787e+00 +/ 0.000000e+00 [bar]
Excess pressure:     -1.202489e-01 +/ 0.000000e+00 [bar]
Pressure:             8.119539e+00 +/ 0.000000e+00 [bar]

Total potential energy/kʙ  -6.355868e+02 (-4.395839e+02 +/- 0.000000e+00) [K]
-------------------------------------------------------------------------------
ExternalField-molecule
    Van der Waals/kʙ        0.000000e+00 ( 0.000000e+00 +/- 0.000000e+00) [K]
Framework-molecule
    Van der Waals/kʙ        0.000000e+00 ( 0.000000e+00 +/- 0.000000e+00) [K]
    Van der Waals (Tail)/kʙ 0.000000e+00 ( 0.000000e+00 +/- 0.000000e+00) [K]
    Coulombic Real/kʙ       0.000000e+00 ( 0.000000e+00 +/- 0.000000e+00) [K]
    Coulombic Fourier/kʙ    0.000000e+00 ( 0.000000e+00 +/- 0.000000e+00) [K]
Molecule-molecule
    Van der Waals/kʙ       -4.025025e+02 (-2.992810e+02 +/- 0.000000e+00) [K]
    Van der Waals (Tail)/kʙ-9.486182e+00 (-5.147456e+00 +/- 0.000000e+00) [K]
    Coulombic Real/kʙ      -1.833914e+02 (-1.260286e+02 +/- 0.000000e+00) [K]
    Coulombic Fourier/kʙ   -4.020684e+01 (-9.126884e+00 +/- 0.000000e+00) [K]
    Molecule Intra/kʙ       0.000000e+00 ( 0.000000e+00 +/- 0.000000e+00) [K]

Current cycle: 1100 out of 6000
===============================================================================

Box:      33.61178   0.00000   0.00000  Average:  33.73234   0.00000   0.00000
           0.00000  33.61178   0.00000             0.00000  33.73234   0.00000
           0.00000   0.00000  33.61178             0.00000   0.00000  33.73234
Lengths:  33.61178  33.61178  33.61178  Average:  33.73234  33.73234  33.73234
Angles:   90.00000  90.00000  90.00000  Average:  90.00000  90.00000  90.00000
Rectangular boundary conditions

net charge:   0.00000000

component 0 (CO2) lambda:  0 occupancy:  1 (1.000000)
    net charge:   0.00000000 [e]

Amount of molecules per component :
-------------------------------------------------------------------------------
Component 0 (CO2)
    molecules:      1.000000e+01 molecules  (1.002816e+01 +/- 0.000000e+00)
    number density: 2.633451e-04 molec./A^3 (2.610060e-04 +/- 0.000000e+00)
    density:        1.924045e+01 kg/m^3     (1.906955e+01 +/- 0.000000e+00)

Average pressure tensor: 
-------------------------------------------------------------------------------
 7.8841e+00 -3.1656e-01  5.3169e-01 +/- 0.0000e+00 0.0000e+00 0.0000e+00 [bar]
-3.1656e-01  8.4613e+00  4.3039e-01 +/- 0.0000e+00 0.0000e+00 0.0000e+00 [bar]
 5.3169e-01  4.3039e-01  8.2994e+00 +/- 0.0000e+00 0.0000e+00 0.0000e+00 [bar]
Ideal-gas pressure:   8.288236e+00 +/ 0.000000e+00 [bar]
Excess pressure:     -7.331672e-02 +/ 0.000000e+00 [bar]
Pressure:             8.214919e+00 +/ 0.000000e+00 [bar]

Total potential energy/kʙ  -1.248518e+02 (-4.512263e+02 +/- 0.000000e+00) [K]
-------------------------------------------------------------------------------
ExternalField-molecule
    Van der Waals/kʙ        0.000000e+00 ( 0.000000e+00 +/- 0.000000e+00) [K]
Framework-molecule
    Van der Waals/kʙ        0.000000e+00 ( 0.000000e+00 +/- 0.000000e+00) [K]
    Van der Waals (Tail)/kʙ 0.000000e+00 ( 0.000000e+00 +/- 0.000000e+00) [K]
    Coulombic Real/kʙ       0.000000e+00 ( 0.000000e+00 +/- 0.000000e+00) [K]
    Coulombic Fourier/kʙ    0.000000e+00 ( 0.000000e+00 +/- 0.000000e+00) [K]
Molecule-molecule
    Van der Waals/kʙ       -3.268560e+02 (-3.040584e+02 +/- 0.000000e+00) [K]
    Van der Waals (Tail)/kʙ-4.890593e+00 (-5.198998e+00 +/- 0.000000e+00) [K]
    Coulombic Real/kʙ       1.617452e+02 (-1.342509e+02 +/- 0.000000e+00) [K]
    Coulombic Fourier/kʙ    4.514955e+01 (-7.718135e+00 +/- 0.000000e+00) [K]
    Molecule Intra/kʙ       0.000000e+00 ( 0.000000e+00 +/- 0.000000e+00) [K]

Current cycle: 1200 out of 6000
===============================================================================

Box:      33.61421   0.00000   0.00000  Average:  33.72576   0.00000   0.00000
           0.00000  33.61421   0.00000             0.00000  33.72576   0.00000
           0.00000   0.00000  33.61421             0.00000   0.00000  33.72576
Lengths:  33.61421  33.61421  33.61421  Average:  33.72576  33.72576  33.72576
Angles:   90.00000  90.00000  90.00000  Average:  90.00000  90.00000  90.00000
Rectangular boundary conditions

net charge:   0.00000000

component 0 (CO2) lambda:  0 occupancy:  1 (1.000000)
    net charge:   0.00000000 [e]

Amount of molecules per component :
-------------------------------------------------------------------------------
Component 0 (CO2)
    molecules:      1.000000e+01 molecules  (9.982515e+00 +/- 0.000000e+00)
    number density: 2.632880e-04 molec./A^3 (2.599728e-04 +/- 0.000000e+00)
    density:        1.923627e+01 kg/m^3     (1.899406e+01 +/- 0.000000e+00)

Average pressure tensor: 
-------------------------------------------------------------------------------
 7.8532e+00 -2.6046e-01  4.6431e-01 +/- 0.0000e+00 0.0000e+00 0.0000e+00 [bar]
-2.6046e-01  8.3520e+00  4.0988e-01 +/- 0.0000e+00 0.0000e+00 0.0000e+00 [bar]
 4.6431e-01  4.0988e-01  8.1780e+00 +/- 0.0000e+00 0.0000e+00 0.0000e+00 [bar]
Ideal-gas pressure:   8.255427e+00 +/ 0.000000e+00 [bar]
Excess pressure:     -1.276990e-01 +/ 0.000000e+00 [bar]
Pressure:             8.127728e+00 +/ 0.000000e+00 [bar]

Total potential energy/kʙ  -2.245524e+02 (-4.355936e+02 +/- 0.000000e+00) [K]
-------------------------------------------------------------------------------
ExternalField-molecule
    Van der Waals/kʙ        0.000000e+00 ( 0.000000e+00 +/- 0.000000e+00) [K]
Framework-molecule
    Van der Waals/kʙ        0.000000e+00 ( 0.000000e+00 +/- 0.000000e+00) [K]
    Van der Waals (Tail)/kʙ 0.000000e+00 ( 0.000000e+00 +/- 0.000000e+00) [K]
    Coulombic Real/kʙ       0.000000e+00 ( 0.000000e+00 +/- 0.000000e+00) [K]
    Coulombic Fourier/kʙ    0.000000e+00 ( 0.000000e+00 +/- 0.000000e+00) [K]
Molecule-molecule
    Van der Waals/kʙ       -1.848981e+02 (-2.999654e+02 +/- 0.000000e+00) [K]
    Van der Waals (Tail)/kʙ-4.889532e+00 (-5.147843e+00 +/- 0.000000e+00) [K]
    Coulombic Real/kʙ      -2.294706e+01 (-1.234334e+02 +/- 0.000000e+00) [K]
    Coulombic Fourier/kʙ   -1.181769e+01 (-7.047026e+00 +/- 0.000000e+00) [K]
    Molecule Intra/kʙ       0.000000e+00 ( 0.000000e+00 +/- 0.000000e+00) [K]

Current cycle: 1300 out of 6000
===============================================================================

Box:      33.74377   0.00000   0.00000  Average:  33.72255   0.00000   0.00000
           0.00000  33.74377   0.00000             0.00000  33.72255   0.00000
           0.00000   0.00000  33.74377             0.00000   0.00000  33.72255
Lengths:  33.74377  33.74377  33.74377  Average:  33.72255  33.72255  33.72255
Angles:   90.00000  90.00000  90.00000  Average:  90.00000  90.00000  90.00000
Rectangular boundary conditions

net charge:   0.00000000

component 0 (CO2) lambda:  0 occupancy:  1 (1.000000)
    net charge:   0.00000000 [e]

Amount of molecules per component :
-------------------------------------------------------------------------------
Component 0 (CO2)
    molecules:      1.400000e+01 molecules  (1.004996e+01 +/- 0.000000e+00)
    number density: 3.643739e-04 molec./A^3 (2.618230e-04 +/- 0.000000e+00)
    density:        2.662178e+01 kg/m^3     (1.912924e+01 +/- 0.000000e+00)

Average pressure tensor: 
-------------------------------------------------------------------------------
 7.7970e+00 -1.3586e-01  4.1435e-01 +/- 0.0000e+00 0.0000e+00 0.0000e+00 [bar]
-1.3586e-01  8.4750e+00  4.7608e-01 +/- 0.0000e+00 0.0000e+00 0.0000e+00 [bar]
 4.1435e-01  4.7608e-01  8.1847e+00 +/- 0.0000e+00 0.0000e+00 0.0000e+00 [bar]
Ideal-gas pressure:   8.314179e+00 +/ 0.000000e+00 [bar]
Excess pressure:     -1.619701e-01 +/ 0.000000e+00 [bar]
Pressure:             8.152209e+00 +/ 0.000000e+00 [bar]

Total potential energy/kʙ  -1.351836e+02 (-4.436523e+02 +/- 0.000000e+00) [K]
-------------------------------------------------------------------------------
ExternalField-molecule
    Van der Waals/kʙ        0.000000e+00 ( 0.000000e+00 +/- 0.000000e+00) [K]
Framework-molecule
    Van der Waals/kʙ        0.000000e+00 ( 0.000000e+00 +/- 0.000000e+00) [K]
    Van der Waals (Tail)/kʙ 0.000000e+00 ( 0.000000e+00 +/- 0.000000e+00) [K]
    Coulombic Real/kʙ       0.000000e+00 ( 0.000000e+00 +/- 0.000000e+00) [K]
    Coulombic Fourier/kʙ    0.000000e+00 ( 0.000000e+00 +/- 0.000000e+00) [K]
Molecule-molecule
    Van der Waals/kʙ       -1.024230e+02 (-3.030126e+02 +/- 0.000000e+00) [K]
    Van der Waals (Tail)/kʙ-9.473523e+00 (-5.283523e+00 +/- 0.000000e+00) [K]
    Coulombic Real/kʙ      -2.744376e+00 (-1.277795e+02 +/- 0.000000e+00) [K]
    Coulombic Fourier/kʙ   -2.054265e+01 (-7.576646e+00 +/- 0.000000e+00) [K]
    Molecule Intra/kʙ       0.000000e+00 ( 0.000000e+00 +/- 0.000000e+00) [K]

Current cycle: 1400 out of 6000
===============================================================================

Box:      33.62655   0.00000   0.00000  Average:  33.72462   0.00000   0.00000
           0.00000  33.62655   0.00000             0.00000  33.72462   0.00000
           0.00000   0.00000  33.62655             0.00000   0.00000  33.72462
Lengths:  33.62655  33.62655  33.62655  Average:  33.72462  33.72462  33.72462
Angles:   90.00000  90.00000  90.00000  Average:  90.00000  90.00000  90.00000
Rectangular boundary conditions

net charge:   0.00000000

component 0 (CO2) lambda:  0 occupancy:  1 (1.000000)
    net charge:   0.00000000 [e]

Amount of molecules per component :
-------------------------------------------------------------------------------
Component 0 (CO2)
    molecules:      1.200000e+01 molecules  (1.032976e+01 +/- 0.000000e+00)
    number density: 3.155980e-04 molec./A^3 (2.690666e-04 +/- 0.000000e+00)
    density:        2.305813e+01 kg/m^3     (1.965846e+01 +/- 0.000000e+00)

Average pressure tensor: 
-------------------------------------------------------------------------------
 7.9388e+00 -1.4114e-01  3.8133e-01 +/- 0.0000e+00 0.0000e+00 0.0000e+00 [bar]
-1.4114e-01  8.5190e+00  4.1302e-01 +/- 0.0000e+00 0.0000e+00 0.0000e+00 [bar]
 3.8133e-01  4.1302e-01  8.3234e+00 +/- 0.0000e+00 0.0000e+00 0.0000e+00 [bar]
Ideal-gas pressure:   8.544197e+00 +/ 0.000000e+00 [bar]
Excess pressure:     -2.838119e-01 +/ 0.000000e+00 [bar]
Pressure:             8.260385e+00 +/ 0.000000e+00 [bar]

Total potential energy/kʙ  -7.911216e+01 (-4.640448e+02 +/- 0.000000e+00) [K]
-------------------------------------------------------------------------------
ExternalField-molecule
    Van der Waals/kʙ        0.000000e+00 ( 0.000000e+00 +/- 0.000000e+00) [K]
Framework-molecule
    Van der Waals/kʙ        0.000000e+00 ( 0.000000e+00 +/- 0.000000e+00) [K]
    Van der Waals (Tail)/kʙ 0.000000e+00 ( 0.000000e+00 +/- 0.000000e+00) [K]
    Coulombic Real/kʙ       0.000000e+00 ( 0.000000e+00 +/- 0.000000e+00) [K]
    Coulombic Fourier/kʙ    0.000000e+00 ( 0.000000e+00 +/- 0.000000e+00) [K]
Molecule-molecule
    Van der Waals/kʙ       -5.214146e+01 (-3.150913e+02 +/- 0.000000e+00) [K]
    Van der Waals (Tail)/kʙ-7.033179e+00 (-5.567346e+00 +/- 0.000000e+00) [K]
    Coulombic Real/kʙ      -7.350444e+00 (-1.355107e+02 +/- 0.000000e+00) [K]
    Coulombic Fourier/kʙ   -1.258707e+01 (-7.875425e+00 +/- 0.000000e+00) [K]
    Molecule Intra/kʙ       0.000000e+00 ( 0.000000e+00 +/- 0.000000e+00) [K]

Current cycle: 1500 out of 6000
===============================================================================

Box:      33.65789   0.00000   0.00000  Average:  33.72558   0.00000   0.00000
           0.00000  33.65789   0.00000             0.00000  33.72558   0.00000
           0.00000   0.00000  33.65789             0.00000   0.00000  33.72558
[...]
    molecules:      8.000000e+00 molecules  (1.069339e+01 +/- 9.535167e-01)
    number density: 2.091217e-04 molec./A^3 (2.773586e-04 +/- 2.296963e-05)
    density:        1.527879e+01 kg/m^3     (2.026429e+01 +/- 1.678200e+00)

Average pressure tensor: 
-------------------------------------------------------------------------------
 7.9206e+00  5.6602e-02  9.0002e-03 +/- 4.6743e-01 3.3973e-01 4.2644e-01 [bar]
 5.6602e-02  8.3198e+00 -4.7410e-03 +/- 3.3973e-01 6.3388e-01 4.4762e-01 [bar]
 9.0002e-03 -4.7410e-03  8.1787e+00 +/- 4.2644e-01 4.4762e-01 6.2178e-01 [bar]
Ideal-gas pressure:   8.807510e+00 +/ 7.293996e-01 [bar]
Excess pressure:     -6.677935e-01 +/ 4.794430e-01 [bar]
Pressure:             8.139716e+00 +/ 5.550495e-01 [bar]

Total potential energy/kʙ  -6.725447e+01 (-4.938172e+02 +/- 7.737575e+01) [K]
-------------------------------------------------------------------------------
ExternalField-molecule
    Van der Waals/kʙ        0.000000e+00 ( 0.000000e+00 +/- 0.000000e+00) [K]
Framework-molecule
    Van der Waals/kʙ        0.000000e+00 ( 0.000000e+00 +/- 0.000000e+00) [K]
    Van der Waals (Tail)/kʙ 0.000000e+00 ( 0.000000e+00 +/- 0.000000e+00) [K]
    Coulombic Real/kʙ       0.000000e+00 ( 0.000000e+00 +/- 0.000000e+00) [K]
    Coulombic Fourier/kʙ    0.000000e+00 ( 0.000000e+00 +/- 0.000000e+00) [K]
Molecule-molecule
    Van der Waals/kʙ       -3.537834e+01 (-3.584079e+02 +/- 6.012926e+01) [K]
    Van der Waals (Tail)/kʙ-3.106886e+00 (-5.868466e+00 +/- 1.007910e+00) [K]
    Coulombic Real/kʙ      -1.257812e+01 (-1.192010e+02 +/- 2.308457e+01) [K]
    Coulombic Fourier/kʙ   -1.619113e+01 (-1.033975e+01 +/- 3.736949e+00) [K]
    Molecule Intra/kʙ       0.000000e+00 ( 0.000000e+00 +/- 0.000000e+00) [K]

Current cycle: 5800 out of 6000
===============================================================================

Box:      33.84435   0.00000   0.00000  Average:  33.77391   0.00000   0.00000
           0.00000  33.84435   0.00000             0.00000  33.77391   0.00000
           0.00000   0.00000  33.84435             0.00000   0.00000  33.77391
Lengths:  33.84435  33.84435  33.84435  Average:  33.77391  33.77391  33.77391
Angles:   90.00000  90.00000  90.00000  Average:  90.00000  90.00000  90.00000
Rectangular boundary conditions

net charge:   0.00000000

component 0 (CO2) lambda:  0 occupancy:  1 (1.000000)
    net charge:   0.00000000 [e]

Amount of molecules per component :
-------------------------------------------------------------------------------
Component 0 (CO2)
    molecules:      1.000000e+01 molecules  (1.071091e+01 +/- 9.562183e-01)
    number density: 2.579536e-04 molec./A^3 (2.777876e-04 +/- 2.303235e-05)
    density:        1.884653e+01 kg/m^3     (2.029564e+01 +/- 1.682783e+00)

Average pressure tensor: 
-------------------------------------------------------------------------------
 7.9240e+00  7.4342e-02 -6.6506e-04 +/- 4.6238e-01 3.6584e-01 4.3169e-01 [bar]
 7.4342e-02  8.3482e+00 -1.9676e-02 +/- 3.6584e-01 6.7188e-01 4.5008e-01 [bar]
-6.6506e-04 -1.9676e-02  8.1564e+00 +/- 4.3169e-01 4.5008e-01 5.8056e-01 [bar]
Ideal-gas pressure:   8.821133e+00 +/ 7.313912e-01 [bar]
Excess pressure:     -6.782670e-01 +/ 4.862681e-01 [bar]
Pressure:             8.142866e+00 +/ 5.446981e-01 [bar]

Total potential energy/kʙ  -2.065616e+02 (-4.994280e+02 +/- 8.623567e+01) [K]
-------------------------------------------------------------------------------
ExternalField-molecule
    Van der Waals/kʙ        0.000000e+00 ( 0.000000e+00 +/- 0.000000e+00) [K]
Framework-molecule
    Van der Waals/kʙ        0.000000e+00 ( 0.000000e+00 +/- 0.000000e+00) [K]
    Van der Waals (Tail)/kʙ 0.000000e+00 ( 0.000000e+00 +/- 0.000000e+00) [K]
    Coulombic Real/kʙ       0.000000e+00 ( 0.000000e+00 +/- 0.000000e+00) [K]
    Coulombic Fourier/kʙ    0.000000e+00 ( 0.000000e+00 +/- 0.000000e+00) [K]
Molecule-molecule
    Van der Waals/kʙ       -1.341777e+02 (-3.626526e+02 +/- 6.654713e+01) [K]
    Van der Waals (Tail)/kʙ-4.790466e+00 (-5.884958e+00 +/- 1.009437e+00) [K]
    Coulombic Real/kʙ      -3.673968e+01 (-1.205350e+02 +/- 2.457442e+01) [K]
    Coulombic Fourier/kʙ   -3.085374e+01 (-1.035547e+01 +/- 3.551733e+00) [K]
    Molecule Intra/kʙ       0.000000e+00 ( 0.000000e+00 +/- 0.000000e+00) [K]

Current cycle: 5900 out of 6000
===============================================================================

Box:      33.85267   0.00000   0.00000  Average:  33.77526   0.00000   0.00000
           0.00000  33.85267   0.00000             0.00000  33.77526   0.00000
           0.00000   0.00000  33.85267             0.00000   0.00000  33.77526
Lengths:  33.85267  33.85267  33.85267  Average:  33.77526  33.77526  33.77526
Angles:   90.00000  90.00000  90.00000  Average:  90.00000  90.00000  90.00000
Rectangular boundary conditions

net charge:   0.00000000

component 0 (CO2) lambda:  0 occupancy:  1 (1.000000)
    net charge:   0.00000000 [e]

Amount of molecules per component :
-------------------------------------------------------------------------------
Component 0 (CO2)
    molecules:      9.000000e+00 molecules  (1.068480e+01 +/- 8.828927e-01)
    number density: 2.319871e-04 molec./A^3 (2.770843e-04 +/- 2.108489e-05)
    density:        1.694938e+01 kg/m^3     (2.024425e+01 +/- 1.540498e+00)

Average pressure tensor: 
-------------------------------------------------------------------------------
 7.8982e+00  7.3507e-02 -4.4980e-03 +/- 4.2324e-01 3.4971e-01 4.2598e-01 [bar]
 7.3507e-02  8.3222e+00 -2.2480e-02 +/- 3.4971e-01 5.9423e-01 4.5060e-01 [bar]
-4.4980e-03 -2.2480e-02  8.1260e+00 +/- 4.2598e-01 4.5060e-01 5.5256e-01 [bar]
Ideal-gas pressure:   8.798801e+00 +/ 6.695499e-01 [bar]
Excess pressure:     -6.833203e-01 +/ 4.870464e-01 [bar]
Pressure:             8.115480e+00 +/ 4.933287e-01 [bar]

Total potential energy/kʙ  -4.648583e+01 (-4.942008e+02 +/- 7.427007e+01) [K]
-------------------------------------------------------------------------------
ExternalField-molecule
    Van der Waals/kʙ        0.000000e+00 ( 0.000000e+00 +/- 0.000000e+00) [K]
Framework-molecule
    Van der Waals/kʙ        0.000000e+00 ( 0.000000e+00 +/- 0.000000e+00) [K]
    Van der Waals (Tail)/kʙ 0.000000e+00 ( 0.000000e+00 +/- 0.000000e+00) [K]
    Coulombic Real/kʙ       0.000000e+00 ( 0.000000e+00 +/- 0.000000e+00) [K]
    Coulombic Fourier/kʙ    0.000000e+00 ( 0.000000e+00 +/- 0.000000e+00) [K]
Molecule-molecule
    Van der Waals/kʙ       -2.810889e+01 (-3.589322e+02 +/- 5.835880e+01) [K]
    Van der Waals (Tail)/kʙ-3.877418e+00 (-5.861383e+00 +/- 9.477028e-01) [K]
    Coulombic Real/kʙ      -4.848300e+00 (-1.191027e+02 +/- 2.257954e+01) [K]
    Coulombic Fourier/kʙ   -9.651217e+00 (-1.030452e+01 +/- 3.249157e+00) [K]
    Molecule Intra/kʙ       0.000000e+00 ( 0.000000e+00 +/- 0.000000e+00) [K]


Energy statistics             |  Energy [K]   | Recomputed [K]|  Drift [K]    |
===============================================================================
Total potential energy/kʙ     | -2.545040e+01 | -2.545040e+01 | -1.602351e-13 |
    external field VDW/kʙ     |  0.000000e+00 |  0.000000e+00 |  0.000000e+00 |
    external field Real/kʙ    |  0.000000e+00 |  0.000000e+00 |  0.000000e+00 |
    framework-molecule VDW/kʙ |  0.000000e+00 |  0.000000e+00 |  0.000000e+00 |
    framework-molecule Real/kʙ|  0.000000e+00 |  0.000000e+00 |  0.000000e+00 |
    molecule-molecule VDW/kʙ  | -2.657629e+01 | -2.657629e+01 |  1.281881e-14 |
    molecule-molecule Real/kʙ |  2.131230e+00 |  2.131230e+00 | -1.335292e-12 |
    Van der Waals (Tail)/kʙ   | -3.886611e+00 | -3.886611e+00 |  0.000000e+00 |
    Ewald Fourier/kʙ          |  5.321320e+02 |  5.321320e+02 |  1.162238e-12 |
    Ewald self/kʙ             | -1.653010e+05 | -1.653010e+05 |  0.000000e+00 |
    Ewald exclusion/kʙ        |  1.647718e+05 |  1.647718e+05 |  0.000000e+00 |
    intra VDW/kʙ              |  0.000000e+00 |  0.000000e+00 |  0.000000e+00 |
    intra Coulombic/kʙ        |  0.000000e+00 |  0.000000e+00 |  0.000000e+00 |
    polarization/kʙ           |  0.000000e+00 |  0.000000e+00 |  0.000000e+00 |
    dU/dlambda VDW/kʙ         |  0.000000e+00 |  0.000000e+00 |  0.000000e+00 |
    dU/dlambda Real/kʙ        |  0.000000e+00 |  0.000000e+00 |  0.000000e+00 |
    dU/dlambda Ewald/kʙ       |  0.000000e+00 |  0.000000e+00 |  0.000000e+00 |
-------------------------------------------------------------------------------


Monte-Carlo moves statistics
===============================================================================

    Gibbs volume         all:                2894
    Gibbs volume         total:              5783
    Gibbs volume         constructed:        5783
    Gibbs volume         accepted:           3716
    Gibbs volume         fraction:       0.642573
    Gibbs volume         max-change:     0.033043

Component 0 [CO2]
    Reinsertion (CBMC)   all:              149404
    Reinsertion (CBMC)   total:            149401
    Reinsertion (CBMC)   constructed:      149401
    Reinsertion (CBMC)   accepted:         124260
    Reinsertion (CBMC)   fraction:       0.831721
    Reinsertion (CBMC)   max-change:     0.000000

    Gibbs swap (CBMC)    all:              299044
    Gibbs swap (CBMC)    total:            596557
    Gibbs swap (CBMC)    constructed:      532795
    Gibbs swap (CBMC)    accepted:          12823
    Gibbs swap (CBMC)    fraction:       0.021495
    Gibbs swap (CBMC)    max-change:     0.000000

    Translation          all:              149238
    Translation          total:             49928      49808      49498
    Translation          constructed:       49922      49805      49467
    Translation          accepted:          46897      46818      45927
    Translation          fraction:       0.939293   0.939969   0.927856
    Translation          max-change:     1.500000   1.500000   1.500000

    Rotation             all:              150147
    Rotation             total:             49960      50002      50183
    Rotation             constructed:       49942      49992      50174
    Rotation             accepted:          46122      46205      46337
    Rotation             fraction:       0.923179   0.924063   0.923361
    Rotation             max-change:     1.500000   1.500000   1.500000



Production run counting of the MC moves summed over systems and components
===============================================================================

Reinsertion (CBMC)                   298918 (19.9279 [%])
Gibbs volume                           5783 (0.3855 [%])
Gibbs swap (CBMC)                    596569 (39.7713 [%])
Translation                          298986 (19.9324 [%])
Rotation                             299744 (19.9829 [%])

Production count MC-steps:          1500000 [-]
               All summed:          1500000 [-]
               difference:                0 [-]


Production run CPU timings of the MC moves
===============================================================================

Component 0 CO2

Rotation                              7.385871 [s]
    Ewald                             6.051708 [s]
    ExternalField-Molecule            0.005887 [s]
    Framework-Molecule                0.005297 [s]
    Molecule-Molecule                 0.419433 [s]
    Overhead                          0.903546 [s]

Reinsertion (CBMC)                   13.200216 [s]
    Ewald                             6.051345 [s]
    NonEwald                          6.348271 [s]
    Overhead                          0.800600 [s]

Translation                           7.355400 [s]
    Ewald                             6.014592 [s]
    ExternalField-Molecule            0.005238 [s]
    Framework-Molecule                0.012311 [s]
    Molecule-Molecule                 0.420411 [s]
    Overhead                          0.902848 [s]



Gibbs swap (CBMC)                   178.100080 [s]
    Ewald                            28.046570 [s]
    NonEwald                        147.834526 [s]
    Tail                              1.560102 [s]

Gibbs volume                         23.221172 [s]
    Ewald                             9.867939 [s]
    NonEwald                         12.422051 [s]
    Tail                              0.784276 [s]

Property sampling                     0.229925 [s]
Energy/pressure sampling:             0.218674 [s]


Production run CPU timings of the MC moves summed over systems and components
===============================================================================


Translation                          30.423302 [s]
    Ewald                            17.308555 [s]
    ExternalField-Molecule            0.010442 [s]
    Framework-Molecule                0.024881 [s]
    Molecule-Molecule                11.328316 [s]
    Overhead                          1.751108 [s]

Rotation                             30.482254 [s]
    Ewald                            17.321253 [s]
    ExternalField-Molecule            0.011910 [s]
    Framework-Molecule                0.010511 [s]
    Molecule-Molecule                11.322413 [s]
    Overhead                          1.816167 [s]

Reinsertion (CBMC)                   90.890887 [s]
    Ewald                            15.058984 [s]
    NonEwald                         74.869654 [s]
    Overhead                          0.962249 [s]

Gibbs volume                         46.403389 [s]
    Ewald                            19.719056 [s]
    NonEwald                         24.820659 [s]
    Tail                              1.568003 [s]
    Overhead                          0.295671 [s]

Gibbs swap (CBMC)                   286.924850 [s]
    Ewald                            49.987149 [s]
    NonEwald                        233.033974 [s]
    Tail                              2.687657 [s]
    Overhead                          1.216070 [s]

Property sampling:                    0.563483 [s]
Energy/pressure sampling:            11.337591 [s]

Production simulation time:         498.357555 [s]
                All summed:         497.025756 [s]
                  Overhead:           1.331799 [s]


Initalization simulation time:      161.790617 [s]
Equilibration simulation time:        0.000000 [s]
Production simulation time:         498.357555 [s]
Total simulation time:              660.148172 [s]


Energy averages and statistics:
===============================================================================

Framework-molecule energy:
-------------------------------------------------------------------------------



Framework-molecule energy contributions per energy type:
-------------------------------------------------------------------------------



Inter-molecular energy:
-------------------------------------------------------------------------------

    Inter-molecular energy/kʙ 0-0 [CO2-CO2]:
    ---------------------------------------------------------------------------
        Block[  0] -4.373523e+02
        Block[  1] -4.969324e+02
        Block[  2] -5.582882e+02
        Block[  3] -4.323571e+02
        Block[  4] -5.469148e+02
        -----------------------------------------------------------------------
        Average  -4.943690e+02 +/-  7.331390e+01 [K]



Inter-molecular energy contributions per energy type:
-------------------------------------------------------------------------------

    Van der Waals energy/kʙ 0-0 [CO2-CO2]:
    ---------------------------------------------------------------------------
        Block[  0] -3.009243e+02
        Block[  1] -3.551758e+02
        Block[  2] -4.118428e+02
        Block[  3] -3.289579e+02
        Block[  4] -4.000160e+02
        -----------------------------------------------------------------------
        Average  -3.593834e+02 +/-  5.811023e+01 [K]

    VDW Tail-Correction energy/kʙ 0-0 [CO2-CO2]:
    ---------------------------------------------------------------------------
        Block[  0] -5.149996e+00
        Block[  1] -6.089863e+00
        Block[  2] -6.585389e+00
        Block[  3] -4.982295e+00
        Block[  4] -6.405868e+00
        -----------------------------------------------------------------------
        Average  -5.842682e+00 +/-  9.101660e-01 [K]

    Coulomb Real energy/kʙ 0-0 [CO2-CO2]:
    ---------------------------------------------------------------------------
        Block[  0] -1.242707e+02
        Block[  1] -1.263581e+02
        Block[  2] -1.298960e+02
        Block[  3] -8.694739e+01
        Block[  4] -1.262740e+02
        -----------------------------------------------------------------------
        Average  -1.187492e+02 +/-  2.221330e+01 [K]

    Coulomb Fourier energy/kʙ 0-0 [CO2-CO2]:
    ---------------------------------------------------------------------------
        Block[  0] -7.007271e+00
        Block[  1] -9.308602e+00
        Block[  2] -9.963995e+00
        Block[  3] -1.146952e+01
        Block[  4] -1.421898e+01
        -----------------------------------------------------------------------
        Average  -1.039367e+01 +/-  3.320780e+00 [K]


Total energy/kʙ
-------------------------------------------------------------------------------
    Block[  0] -4.373523e+02
    Block[  1] -4.969324e+02
    Block[  2] -5.582882e+02
    Block[  3] -4.323571e+02
    Block[  4] -5.469148e+02
    ---------------------------------------------------------------------------
    Average  -4.943690e+02 +/-  7.331390e+01 [K]

Pressure averages and statistics:
===============================================================================

Average pressure tensor: 
-------------------------------------------------------------------------------
 7.8765e+00  6.1948e-02  1.1822e-03 +/- 4.0620e-01 3.1817e-01 4.0649e-01 [bar]
 6.1948e-02  8.3019e+00 -2.0106e-02 +/- 3.1817e-01 5.4729e-01 4.4956e-01 [bar]
 1.1822e-03 -2.0106e-02  8.0964e+00 +/- 4.0649e-01 4.4956e-01 5.4405e-01 [bar]

    Block[  0]  8.255339e+05
    Block[  1]  8.879631e+05
    Block[  2]  9.314276e+05
    Block[  3]  8.248904e+05
    Block[  4]  9.218983e+05
    ---------------------------------------------------------------------------
    Ideal gas pressure   8.783427e+05 +/-  3.821970e-03 [Pa]
                         8.783427e+00 +/-  6.346535e-01 [bar]


    Block[  0] -1.255926e+04
    Block[  1] -4.672611e+04
    Block[  2] -1.110494e+05
    Block[  3] -8.032417e+04
    Block[  4] -9.524543e+04
    ---------------------------------------------------------------------------
    Excess pressure  -6.918088e+04 +/-  4.913886e+04 [Pa]
                     -6.918088e-01 +/-  4.913886e-01 [bar]


    Block[  0]  8.129746e+05
    Block[  1]  8.412370e+05
    Block[  2]  8.203781e+05
    Block[  3]  7.445662e+05
    Block[  4]  8.266529e+05
    ---------------------------------------------------------------------------
    Pressure average   8.091618e+05 +/-  4.664873e+04 [Pa]
                       8.091618e+00 +/-  4.664873e-01 [bar]


Enthalpy of adsorption
===============================================================================

Component 0 [CO2]
-------------------------------------------------------------------------------
    Block[  0] -3.272736e+02
    Block[  1] -3.226858e+02
    Block[  2] -3.237556e+02
    Block[  3] -3.176187e+02
    Block[  4] -3.185917e+02
    ---------------------------------------------------------------------------
    Enthalpy of adsorption: -3.219851e+02 +/-  4.894493e+00 [K]
                            -2.677133e+00 +/-  4.069509e-02 [kJ/mol]
    Warning: need to subtract the ideal-gas energy.


Densities
===============================================================================

Component 0 (CO2)
    Block[  0] 9.9825
    Block[  1] 10.708333333333334
    Block[  2] 11.42
    Block[  3] 9.9825
    Block[  4] 11.24
    -----------------------------------------------------------------------
    Density average   1.066667e+01 +/-  8.406575e-01 [molecules]
    Density average   2.766002e-04 +/-  1.998596e-05 [molec/A^3]
    Density average   2.020888e+01 +/-  1.460209e+00 [kg.m⁻³]

