Compiler and run-time data
===============================================================================
RASPA 3.0.4

Random seed: 4239333151

Compiled as a 64-bits application
Compiler: gcc Ubuntu Clang 18.1.3 (1ubuntu1)
Compile Date = Mar 15 2025, Compile Time = 19:39:45

2025-06-03 11:00:36.152109
Simulation started on Tue, Jun 03
The start time was 11:00:00

Hostname:    c060
OS type:     Linux on x86_64
OS release:  6.8.0-58-generic
OS version:  #60-Ubuntu SMP PREEMPT_DYNAMIC Fri Mar 14 18:29:48 UTC 2025


Mutual consistent basic set of units:
===============================================================================

Unit of temperature: 1 [K]
Unit of length:      1e-10 [m]
Unit of time:        1e-12 [s]
Unit of mass:        1.6605402e-27 [kg]
Unit of charge:      1.60217733e-19 [C/particle]


Boltzmann constant (internal units):          0.8314464919307584 [-]
represents conversion from energy (internal units) to temperature (in Kelvin)

Derived units and their conversion factors:
===============================================================================

Unit of energy:                           1.6605402000000002e-23 [J]
Unit of energy:                           10.000008872307538 [J.mol⁻¹]
Unit of velocity:                         100 [m.s⁻¹]
Unit of force:                            1.6605402000000002e-13 [N]
Unit of diffusion:                        1.0000000000000002e-08 [m².s⁻¹]
Unit of acceleration:                     1.0000000000000002e-08 [m².s⁻¹]
Unit of torque:                           1.6605402000000002e-23 [N.m]
Unit of pressure:                         16605402 [Pa]
Unit of volume:                           1e-30 [m³]
Unit of density:                          1660.5402 [kg.m⁻³]
Unit of dynamic viscosity:                1.6605401999999997e-05 [N.s.m⁻²]
Unit of enthalpy:                         1.6605402000000002e-23 [J]
Unit of polarizability:                   1.5458657349975198e-35 [-]
Unit of Coulomb potential:                167101.08000665612 [K]
Unit of dielectric constant:              1.5458657349975193e-05 [s².C².kg⁻¹.m⁻³]
Unit of dipole moment:                    1.60217733e-29 [C.m]
Unit of Debye:                            4.803206799099162 [C.m]
Unit of electric potential:               0.00010364272224473431 [V]
Unit of electric field:                   1036427.222447343 [V.m⁻¹]
Unit of isothermal compressibility:       6.02213665167516e-08 [Pa⁻¹]
Unit of heat capacity:                    10.000008872307538 [J.mol⁻¹.K⁻¹]
Unit of volumetric expansion coefficient: 1 [K⁻¹]


Internal conversion factors:
===============================================================================

Energy (internal units) to Kelvin:      1.202724284692786 [-]
Kelvin to energy (internal units):      0.8314457542157567 [-]


System definitions
===============================================================================

Temperature:          240 [K]
Beta:                 0.005011346739813608 [-]
Pressure:             0 [Pa]
Helium void fraction: 1 [-]

Box:      30.00000   0.00000   0.00000
           0.00000  30.00000   0.00000
           0.00000   0.00000  30.00000
Lengths:  30.00000  30.00000  30.00000
Angles:   90.00000  90.00000  90.00000
Rectangular boundary conditions



Property measurement settings
===============================================================================




Pseudo-atoms
===============================================================================

  0 - C_co2    framework-atom: false
  1 - O_co2    framework-atom: false

  0 - C_co2    mass: 12.00000, charge:  0.70000
  1 - O_co2    mass: 15.99940, charge: -0.35000

  0 - C_co2    polarizability:  0.00000
  1 - O_co2    polarizability:  0.00000

  0 - J. J. Potoff et al., AIChE J. 2001, 47, 1676–1682.
  1 - J. J. Potoff et al., AIChE J. 2001, 47, 1676–1682.

Force field status
===============================================================================

Cutoff Framework-Molecule VDW:  10.00000 [Å]
Cutoff Molecule-Molecule VDW:   10.00000 [Å]
Cutoff Coulomb:                 10.00000 [Å]

Overlap-criteria VDW:           1.000000e+05 [K]

C_co2    - C_co2    Lennard-Jones p₀/kʙ:  27.00000 [K], p₁:  2.80000 [Å]
                                  shift:   0.00000 [K], tailcorrections: true
C_co2    - O_co2    Lennard-Jones p₀/kʙ:  46.18441 [K], p₁:  2.92500 [Å]
                                  shift:   0.00000 [K], tailcorrections: true
O_co2    - O_co2    Lennard-Jones p₀/kʙ:  79.00000 [K], p₁:  3.05000 [Å]
                                  shift:   0.00000 [K], tailcorrections: true

Ewald precision: 1e-06
Ewald alpha: 0.32079885109097883
Ewald k-vectors: 10 10 10


Component definitions
===============================================================================

Component 0 [CO2]

    Type: Adsorbate

    Critical temperature:  304.1282 [K]
    Critical pressure:     7377300 [Pa]
    Acentric factor:       0.22394 [-]

    Mol-fraction:                 1 [-]
    Swappable:                   true

    Mass:                         43.9988 [-]
    Fugacity coefficient:         -nan [-]
    Bulk fluid density:           0 [-]
    Compressibility:              1 [-]
    Excess molecules:             0 [-]

    Number Of Atoms:    3
    CBMC starting bead: 0
      0: O_co2  position  0.00000 -0.00000  1.16000, charge -0.35000
      1: C_co2  position  0.00000 -0.00000  0.00000, charge  0.70000
      2: O_co2  position  0.00000 -0.00000 -1.16000, charge -0.35000
    Diagonalized inertia-vector:      43.05758528 43.05758528 0.00000000
    Translational degrees of freedom: 3
    Rotational degrees of freedom:    2
    Shape of the molecule is: 'Linear'
    Net-charge:        0.00000000 [e]

    Move probabilities:
    Translation:                   0.199203 [-]
    Random translation:            0.000000 [-]
    Rotation:                      0.199203 [-]
    Random rotation:               0.000000 [-]
    Volume change:                 0.000000 [-]
    Reinsertion (CBMC):            0.199203 [-]
    Identity change (CBMC):        0.000000 [-]
    Swap:                          0.000000 [-]
    Swap (CBMC):                   0.000000 [-]
    Swap (CFCMC):                  0.000000 [-]
    Swap (CB/CFCMC):               0.000000 [-]
    Gibbs volume:                  0.003984 [-]
    Gibbs swap (CBMC):             0.398406 [-]
    Gibbs swap (CFCMC):            0.000000 [-]
    Widom:                         0.000000 [-]
    Widom (CFCMC):                 0.000000 [-]
    Widom (CB/CFCMC):              0.000000 [-]
    Parallel tempering:            0.000000 [-]
    Hybrid MC:                     0.000000 [-]

    number of blocking-pockets: 0

    number of bonds: 0





Number of pseudo-atoms
===============================================================================

Component   0 (CO2)
-------------------------------------------------------------------------------
    index   0 (C_co2): 210 atoms
    index   1 (O_co2): 420 atoms

Total number of pseudo-atoms:
-------------------------------------------------------------------------------
    index   0 (C_co2): 210 atoms
    index   1 (O_co2): 420 atoms




Energy status Recomputed from scratch
===============================================================================

Total potential energy/kʙ       -1.017613e+05 [K]
    external field VDW/kʙ        0.000000e+00 [K]
    external field Real/kʙ       0.000000e+00 [K]
    framework-molecule VDW/kʙ    0.000000e+00 [K]
    framework-molecule Real/kʙ   0.000000e+00 [K]
    molecule-molecule VDW/kʙ    -7.745470e+04 [K]
    molecule-molecule Real/kʙ   -1.611489e+04 [K]
    Van der Waals (Tail)/kʙ     -5.240630e+03 [K]
    Ewald Fourier/kʙ             2.756373e+04 [K]
    Ewald self/kʙ               -4.668139e+06 [K]
    Ewald exclusion/kʙ           4.637624e+06 [K]
    intra VDW/kʙ                 0.000000e+00 [K]
    intra Coulombic/kʙ           0.000000e+00 [K]
    polarization/kʙ              0.000000e+00 [K]
    dU/dlambda VDW/kʙ            0.000000e+00 [K]
    dU/dlambda Real/kʙ           0.000000e+00 [K]
    dU/dlambda Ewald/kʙ          0.000000e+00 [K]





Initialization: Current cycle: 0 out of 2000
===============================================================================

Box:      30.00000   0.00000   0.00000
           0.00000  30.00000   0.00000
           0.00000   0.00000  30.00000
Lengths:  30.00000  30.00000  30.00000
Angles:   90.00000  90.00000  90.00000
Rectangular boundary conditions

net charge:   0.00000000

component   0 (CO2) lambda:  0 occupancy:  0 (0.000000)
    net charge:   0.00000000 [e]

Amount of molecules per component :
-------------------------------------------------------------------------------
Component 0 (CO2)
    molecules:         2.170000e+02 molecules
    number density:    8.037037e-03 molec/A^3
    density:           5.871997e+02 kg/m^3

Total potential energy/kʙ       -1.499145e+05 [K]
-------------------------------------------------------------------------------
    external field VDW/kʙ        0.000000e+00 [K]
    external field Real/kʙ       0.000000e+00 [K]
    framework-molecule VDW/kʙ    0.000000e+00 [K]
    framework-molecule Real/kʙ   0.000000e+00 [K]
    molecule-molecule VDW/kʙ    -1.180556e+05 [K]
    molecule-molecule Real/kʙ   -2.101094e+04 [K]
    Van der Waals (Tail)/kʙ     -5.595828e+03 [K]
    Ewald Fourier/kʙ             2.627977e+04 [K]
    Ewald self/kʙ               -4.823743e+06 [K]
    Ewald exclusion/kʙ           4.792211e+06 [K]
    intra VDW/kʙ                 0.000000e+00 [K]
    intra Coulombic/kʙ           0.000000e+00 [K]
    polarization/kʙ              0.000000e+00 [K]
    dU/dlambda VDW/kʙ            0.000000e+00 [K]
    dU/dlambda Real/kʙ           0.000000e+00 [K]
    dU/dlambda Ewald/kʙ          0.000000e+00 [K]


Initialization: Current cycle: 100 out of 2000
===============================================================================

Box:      28.92898   0.00000   0.00000
           0.00000  28.92898   0.00000
           0.00000   0.00000  28.92898
Lengths:  28.92898  28.92898  28.92898
Angles:   90.00000  90.00000  90.00000
Rectangular boundary conditions

net charge:   0.00000000

component   0 (CO2) lambda:  0 occupancy:  0 (0.000000)
    net charge:   0.00000000 [e]

Amount of molecules per component :
-------------------------------------------------------------------------------
Component 0 (CO2)
    molecules:         2.420000e+02 molecules
    number density:    9.995769e-03 molec/A^3
    density:           7.303080e+02 kg/m^3

Total potential energy/kʙ       -2.975848e+05 [K]
-------------------------------------------------------------------------------
    external field VDW/kʙ        0.000000e+00 [K]
    external field Real/kʙ       0.000000e+00 [K]
    framework-molecule VDW/kʙ    0.000000e+00 [K]
    framework-molecule Real/kʙ   0.000000e+00 [K]
    molecule-molecule VDW/kʙ    -2.120121e+05 [K]
    molecule-molecule Real/kʙ   -6.371575e+04 [K]
    Van der Waals (Tail)/kʙ     -7.761403e+03 [K]
    Ewald Fourier/kʙ             2.106909e+04 [K]
    Ewald self/kʙ               -5.379474e+06 [K]
    Ewald exclusion/kʙ           5.344310e+06 [K]
    intra VDW/kʙ                 0.000000e+00 [K]
    intra Coulombic/kʙ           0.000000e+00 [K]
    polarization/kʙ              0.000000e+00 [K]
    dU/dlambda VDW/kʙ            0.000000e+00 [K]
    dU/dlambda Real/kʙ           0.000000e+00 [K]
    dU/dlambda Ewald/kʙ          0.000000e+00 [K]


Initialization: Current cycle: 200 out of 2000
===============================================================================

Box:      28.21543   0.00000   0.00000
           0.00000  28.21543   0.00000
           0.00000   0.00000  28.21543
Lengths:  28.21543  28.21543  28.21543
Angles:   90.00000  90.00000  90.00000
Rectangular boundary conditions

net charge:   0.00000000

component   0 (CO2) lambda:  0 occupancy:  0 (0.000000)
    net charge:   0.00000000 [e]

Amount of molecules per component :
-------------------------------------------------------------------------------
Component 0 (CO2)
    molecules:         2.440000e+02 molecules
    number density:    1.086250e-02 molec/A^3
    density:           7.936327e+02 kg/m^3

Total potential energy/kʙ       -2.926669e+05 [K]
-------------------------------------------------------------------------------
    external field VDW/kʙ        0.000000e+00 [K]
    external field Real/kʙ       0.000000e+00 [K]
    framework-molecule VDW/kʙ    0.000000e+00 [K]
    framework-molecule Real/kʙ   0.000000e+00 [K]
    molecule-molecule VDW/kʙ    -2.065384e+05 [K]
    molecule-molecule Real/kʙ   -6.228327e+04 [K]
    Van der Waals (Tail)/kʙ     -8.504097e+03 [K]
    Ewald Fourier/kʙ             2.011418e+04 [K]
    Ewald self/kʙ               -5.423933e+06 [K]
    Ewald exclusion/kʙ           5.388477e+06 [K]
    intra VDW/kʙ                 0.000000e+00 [K]
    intra Coulombic/kʙ           0.000000e+00 [K]
    polarization/kʙ              0.000000e+00 [K]
    dU/dlambda VDW/kʙ            0.000000e+00 [K]
    dU/dlambda Real/kʙ           0.000000e+00 [K]
    dU/dlambda Ewald/kʙ          0.000000e+00 [K]


Initialization: Current cycle: 300 out of 2000
===============================================================================

Box:      26.29559   0.00000   0.00000
           0.00000  26.29559   0.00000
           0.00000   0.00000  26.29559
Lengths:  26.29559  26.29559  26.29559
Angles:   90.00000  90.00000  90.00000
Rectangular boundary conditions

net charge:   0.00000000

component   0 (CO2) lambda:  0 occupancy:  0 (0.000000)
    net charge:   0.00000000 [e]

Amount of molecules per component :
-------------------------------------------------------------------------------
Component 0 (CO2)
    molecules:         2.450000e+02 molecules
    number density:    1.347465e-02 molec/A^3
    density:           9.844810e+02 kg/m^3

Total potential energy/kʙ       -3.377465e+05 [K]
-------------------------------------------------------------------------------
    external field VDW/kʙ        0.000000e+00 [K]
    external field Real/kʙ       0.000000e+00 [K]
    framework-molecule VDW/kʙ    0.000000e+00 [K]
    framework-molecule Real/kʙ   0.000000e+00 [K]
    molecule-molecule VDW/kʙ    -2.442872e+05 [K]
    molecule-molecule Real/kʙ   -6.569876e+04 [K]
    Van der Waals (Tail)/kʙ     -1.059235e+04 [K]
    Ewald Fourier/kʙ             1.843240e+04 [K]
    Ewald self/kʙ               -5.446162e+06 [K]
    Ewald exclusion/kʙ           5.410561e+06 [K]
    intra VDW/kʙ                 0.000000e+00 [K]
    intra Coulombic/kʙ           0.000000e+00 [K]
    polarization/kʙ              0.000000e+00 [K]
    dU/dlambda VDW/kʙ            0.000000e+00 [K]
    dU/dlambda Real/kʙ           0.000000e+00 [K]
    dU/dlambda Ewald/kʙ          0.000000e+00 [K]


Initialization: Current cycle: 400 out of 2000
===============================================================================

Box:      25.78998   0.00000   0.00000
           0.00000  25.78998   0.00000
           0.00000   0.00000  25.78998
Lengths:  25.78998  25.78998  25.78998
Angles:   90.00000  90.00000  90.00000
Rectangular boundary conditions

net charge:   0.00000000

component   0 (CO2) lambda:  0 occupancy:  0 (0.000000)
    net charge:   0.00000000 [e]

Amount of molecules per component :
-------------------------------------------------------------------------------
Component 0 (CO2)
    molecules:         2.360000e+02 molecules
    number density:    1.375812e-02 molec/A^3
    density:           1.005192e+03 kg/m^3

Total potential energy/kʙ       -3.393951e+05 [K]
-------------------------------------------------------------------------------
    external field VDW/kʙ        0.000000e+00 [K]
    external field Real/kʙ       0.000000e+00 [K]
    framework-molecule VDW/kʙ    0.000000e+00 [K]
    framework-molecule Real/kʙ   0.000000e+00 [K]
    molecule-molecule VDW/kʙ    -2.421381e+05 [K]
    molecule-molecule Real/kʙ   -6.890786e+04 [K]
    Van der Waals (Tail)/kʙ     -1.041789e+04 [K]
    Ewald Fourier/kʙ             1.636160e+04 [K]
    Ewald self/kʙ               -5.246099e+06 [K]
    Ewald exclusion/kʙ           5.211806e+06 [K]
    intra VDW/kʙ                 0.000000e+00 [K]
    intra Coulombic/kʙ           0.000000e+00 [K]
    polarization/kʙ              0.000000e+00 [K]
    dU/dlambda VDW/kʙ            0.000000e+00 [K]
    dU/dlambda Real/kʙ           0.000000e+00 [K]
    dU/dlambda Ewald/kʙ          0.000000e+00 [K]


Initialization: Current cycle: 500 out of 2000
===============================================================================

Box:      25.88410   0.00000   0.00000
           0.00000  25.88410   0.00000
           0.00000   0.00000  25.88410
Lengths:  25.88410  25.88410  25.88410
Angles:   90.00000  90.00000  90.00000
Rectangular boundary conditions

net charge:   0.00000000

component   0 (CO2) lambda:  0 occupancy:  0 (0.000000)
    net charge:   0.00000000 [e]

Amount of molecules per component :
-------------------------------------------------------------------------------
Component 0 (CO2)
    molecules:         2.420000e+02 molecules
    number density:    1.395456e-02 molec/A^3
    density:           1.019544e+03 kg/m^3

Total potential energy/kʙ       -3.534051e+05 [K]
-------------------------------------------------------------------------------
    external field VDW/kʙ        0.000000e+00 [K]
    external field Real/kʙ       0.000000e+00 [K]
    framework-molecule VDW/kʙ    0.000000e+00 [K]
    framework-molecule Real/kʙ   0.000000e+00 [K]
    molecule-molecule VDW/kʙ    -2.568620e+05 [K]
    molecule-molecule Real/kʙ   -6.854213e+04 [K]
    Van der Waals (Tail)/kʙ     -1.083528e+04 [K]
    Ewald Fourier/kʙ             1.799902e+04 [K]
    Ewald self/kʙ               -5.379474e+06 [K]
    Ewald exclusion/kʙ           5.344310e+06 [K]
    intra VDW/kʙ                 0.000000e+00 [K]
    intra Coulombic/kʙ           0.000000e+00 [K]
    polarization/kʙ              0.000000e+00 [K]
    dU/dlambda VDW/kʙ            0.000000e+00 [K]
    dU/dlambda Real/kʙ           0.000000e+00 [K]
    dU/dlambda Ewald/kʙ          0.000000e+00 [K]


Initialization: Current cycle: 600 out of 2000
===============================================================================

Box:      25.80566   0.00000   0.00000
           0.00000  25.80566   0.00000
           0.00000   0.00000  25.80566
Lengths:  25.80566  25.80566  25.80566
Angles:   90.00000  90.00000  90.00000
Rectangular boundary conditions

net charge:   0.00000000

component   0 (CO2) lambda:  0 occupancy:  0 (0.000000)
    net charge:   0.00000000 [e]

Amount of molecules per component :
-------------------------------------------------------------------------------
Component 0 (CO2)
    molecules:         2.370000e+02 molecules
    number density:    1.379124e-02 molec/A^3
    density:           1.007611e+03 kg/m^3

Total potential energy/kʙ       -3.475671e+05 [K]
-------------------------------------------------------------------------------
    external field VDW/kʙ        0.000000e+00 [K]
    external field Real/kʙ       0.000000e+00 [K]
    framework-molecule VDW/kʙ    0.000000e+00 [K]
    framework-molecule Real/kʙ   0.000000e+00 [K]
    molecule-molecule VDW/kʙ    -2.507479e+05 [K]
    molecule-molecule Real/kʙ   -6.820480e+04 [K]
    Van der Waals (Tail)/kʙ     -1.048722e+04 [K]
    Ewald Fourier/kʙ             1.631094e+04 [K]
    Ewald self/kʙ               -5.268328e+06 [K]
    Ewald exclusion/kʙ           5.233890e+06 [K]
    intra VDW/kʙ                 0.000000e+00 [K]
    intra Coulombic/kʙ           0.000000e+00 [K]
    polarization/kʙ              0.000000e+00 [K]
    dU/dlambda VDW/kʙ            0.000000e+00 [K]
    dU/dlambda Real/kʙ           0.000000e+00 [K]
    dU/dlambda Ewald/kʙ          0.000000e+00 [K]


Initialization: Current cycle: 700 out of 2000
===============================================================================

Box:      25.36548   0.00000   0.00000
           0.00000  25.36548   0.00000
           0.00000   0.00000  25.36548
Lengths:  25.36548  25.36548  25.36548
Angles:   90.00000  90.00000  90.00000
Rectangular boundary conditions

net charge:   0.00000000

component   0 (CO2) lambda:  0 occupancy:  0 (0.000000)
    net charge:   0.00000000 [e]

Amount of molecules per component :
-------------------------------------------------------------------------------
Component 0 (CO2)
    molecules:         2.370000e+02 molecules
    number density:    1.452175e-02 molec/A^3
    density:           1.060984e+03 kg/m^3

Total potential energy/kʙ       -3.670211e+05 [K]
-------------------------------------------------------------------------------
    external field VDW/kʙ        0.000000e+00 [K]
    external field Real/kʙ       0.000000e+00 [K]
    framework-molecule VDW/kʙ    0.000000e+00 [K]
    framework-molecule Real/kʙ   0.000000e+00 [K]
    molecule-molecule VDW/kʙ    -2.582643e+05 [K]
    molecule-molecule Real/kʙ   -7.942164e+04 [K]
    Van der Waals (Tail)/kʙ     -1.104272e+04 [K]
    Ewald Fourier/kʙ             1.614569e+04 [K]
    Ewald self/kʙ               -5.268328e+06 [K]
    Ewald exclusion/kʙ           5.233890e+06 [K]
    intra VDW/kʙ                 0.000000e+00 [K]
    intra Coulombic/kʙ           0.000000e+00 [K]
    polarization/kʙ              0.000000e+00 [K]
    dU/dlambda VDW/kʙ            0.000000e+00 [K]
    dU/dlambda Real/kʙ           0.000000e+00 [K]
    dU/dlambda Ewald/kʙ          0.000000e+00 [K]


Initialization: Current cycle: 800 out of 2000
===============================================================================

Box:      25.13134   0.00000   0.00000
           0.00000  25.13134   0.00000
           0.00000   0.00000  25.13134
Lengths:  25.13134  25.13134  25.13134
Angles:   90.00000  90.00000  90.00000
Rectangular boundary conditions

net charge:   0.00000000

component   0 (CO2) lambda:  0 occupancy:  0 (0.000000)
    net charge:   0.00000000 [e]

Amount of molecules per component :
-------------------------------------------------------------------------------
Component 0 (CO2)
    molecules:         2.410000e+02 molecules
    number density:    1.518344e-02 molec/A^3
    density:           1.109328e+03 kg/m^3

Total potential energy/kʙ       -3.783079e+05 [K]
-------------------------------------------------------------------------------
    external field VDW/kʙ        0.000000e+00 [K]
    external field Real/kʙ       0.000000e+00 [K]
    framework-molecule VDW/kʙ    0.000000e+00 [K]
    framework-molecule Real/kʙ   0.000000e+00 [K]
    molecule-molecule VDW/kʙ    -2.701408e+05 [K]
    molecule-molecule Real/kʙ   -7.773046e+04 [K]
    Van der Waals (Tail)/kʙ     -1.174076e+04 [K]
    Ewald Fourier/kʙ             1.632343e+04 [K]
    Ewald self/kʙ               -5.357245e+06 [K]
    Ewald exclusion/kʙ           5.322226e+06 [K]
    intra VDW/kʙ                 0.000000e+00 [K]
    intra Coulombic/kʙ           0.000000e+00 [K]
    polarization/kʙ              0.000000e+00 [K]
    dU/dlambda VDW/kʙ            0.000000e+00 [K]
    dU/dlambda Real/kʙ           0.000000e+00 [K]
    dU/dlambda Ewald/kʙ          0.000000e+00 [K]


Initialization: Current cycle: 900 out of 2000
===============================================================================

Box:      25.10951   0.00000   0.00000
           0.00000  25.10951   0.00000
           0.00000   0.00000  25.10951
Lengths:  25.10951  25.10951  25.10951
Angles:   90.00000  90.00000  90.00000
Rectangular boundary conditions

net charge:   0.00000000

component   0 (CO2) lambda:  0 occupancy:  0 (0.000000)
    net charge:   0.00000000 [e]

Amount of molecules per component :
-------------------------------------------------------------------------------
Component 0 (CO2)
    molecules:         2.320000e+02 molecules
    number density:    1.465458e-02 molec/A^3
    density:           1.070688e+03 kg/m^3

Total potential energy/kʙ       -3.591599e+05 [K]
-------------------------------------------------------------------------------
    external field VDW/kʙ        0.000000e+00 [K]
    external field Real/kʙ       0.000000e+00 [K]
    framework-molecule VDW/kʙ    0.000000e+00 [K]
    framework-molecule Real/kʙ   0.000000e+00 [K]
    molecule-molecule VDW/kʙ    -2.619431e+05 [K]
    molecule-molecule Real/kʙ   -6.871376e+04 [K]
    Van der Waals (Tail)/kʙ     -1.090862e+04 [K]
    Ewald Fourier/kʙ             1.611721e+04 [K]
    Ewald self/kʙ               -5.157182e+06 [K]
    Ewald exclusion/kʙ           5.123470e+06 [K]
    intra VDW/kʙ                 0.000000e+00 [K]
    intra Coulombic/kʙ           0.000000e+00 [K]
    polarization/kʙ              0.000000e+00 [K]
    dU/dlambda VDW/kʙ            0.000000e+00 [K]
    dU/dlambda Real/kʙ           0.000000e+00 [K]
    dU/dlambda Ewald/kʙ          0.000000e+00 [K]


Initialization: Current cycle: 1000 out of 2000
===============================================================================

Box:      24.93034   0.00000   0.00000
           0.00000  24.93034   0.00000
           0.00000   0.00000  24.93034
Lengths:  24.93034  24.93034  24.93034
Angles:   90.00000  90.00000  90.00000
Rectangular boundary conditions

net charge:   0.00000000

component   0 (CO2) lambda:  0 occupancy:  0 (0.000000)
    net charge:   0.00000000 [e]

Amount of molecules per component :
-------------------------------------------------------------------------------
Component 0 (CO2)
    molecules:         2.320000e+02 molecules
    number density:    1.497281e-02 molec/A^3
    density:           1.093939e+03 kg/m^3

Total potential energy/kʙ       -3.541701e+05 [K]
-------------------------------------------------------------------------------
    external field VDW/kʙ        0.000000e+00 [K]
    external field Real/kʙ       0.000000e+00 [K]
    framework-molecule VDW/kʙ    0.000000e+00 [K]
    framework-molecule Real/kʙ   0.000000e+00 [K]
    molecule-molecule VDW/kʙ    -2.594911e+05 [K]
    molecule-molecule Real/kʙ   -6.821474e+04 [K]
    Van der Waals (Tail)/kʙ     -1.114551e+04 [K]
    Ewald Fourier/kʙ             1.839283e+04 [K]
    Ewald self/kʙ               -5.157182e+06 [K]
    Ewald exclusion/kʙ           5.123470e+06 [K]
    intra VDW/kʙ                 0.000000e+00 [K]
    intra Coulombic/kʙ           0.000000e+00 [K]
    polarization/kʙ              0.000000e+00 [K]
    dU/dlambda VDW/kʙ            0.000000e+00 [K]
    dU/dlambda Real/kʙ           0.000000e+00 [K]
    dU/dlambda Ewald/kʙ          0.000000e+00 [K]


Initialization: Current cycle: 1100 out of 2000
===============================================================================

Box:      25.22943   0.00000   0.00000
           0.00000  25.22943   0.00000
           0.00000   0.00000  25.22943
Lengths:  25.22943  25.22943  25.22943
Angles:   90.00000  90.00000  90.00000
Rectangular boundary conditions

net charge:   0.00000000

component   0 (CO2) lambda:  0 occupancy:  0 (0.000000)
    net charge:   0.00000000 [e]

Amount of molecules per component :
-------------------------------------------------------------------------------
Component 0 (CO2)
    molecules:         2.380000e+02 molecules
    number density:    1.482022e-02 molec/A^3
    density:           1.082791e+03 kg/m^3

Total potential energy/kʙ       -3.775385e+05 [K]
-------------------------------------------------------------------------------
    external field VDW/kʙ        0.000000e+00 [K]
    external field Real/kʙ       0.000000e+00 [K]
    framework-molecule VDW/kʙ    0.000000e+00 [K]
    framework-molecule Real/kʙ   0.000000e+00 [K]
    molecule-molecule VDW/kʙ    -2.727022e+05 [K]
    molecule-molecule Real/kʙ   -7.636814e+04 [K]
    Van der Waals (Tail)/kʙ     -1.131723e+04 [K]
    Ewald Fourier/kʙ             1.743249e+04 [K]
    Ewald self/kʙ               -5.290557e+06 [K]
    Ewald exclusion/kʙ           5.255974e+06 [K]
    intra VDW/kʙ                 0.000000e+00 [K]
    intra Coulombic/kʙ           0.000000e+00 [K]
    polarization/kʙ              0.000000e+00 [K]
    dU/dlambda VDW/kʙ            0.000000e+00 [K]
    dU/dlambda Real/kʙ           0.000000e+00 [K]
    dU/dlambda Ewald/kʙ          0.000000e+00 [K]


Initialization: Current cycle: 1200 out of 2000
===============================================================================

Box:      24.90512   0.00000   0.00000
           0.00000  24.90512   0.00000
           0.00000   0.00000  24.90512
Lengths:  24.90512  24.90512  24.90512
Angles:   90.00000  90.00000  90.00000
Rectangular boundary conditions

net charge:   0.00000000

component   0 (CO2) lambda:  0 occupancy:  0 (0.000000)
    net charge:   0.00000000 [e]

Amount of molecules per component :
-------------------------------------------------------------------------------
Component 0 (CO2)
    molecules:         2.360000e+02 molecules
    number density:    1.527729e-02 molec/A^3
    density:           1.116185e+03 kg/m^3

Total potential energy/kʙ       -3.765179e+05 [K]
-------------------------------------------------------------------------------
    external field VDW/kʙ        0.000000e+00 [K]
    external field Real/kʙ       0.000000e+00 [K]
    framework-molecule VDW/kʙ    0.000000e+00 [K]
    framework-molecule Real/kʙ   0.000000e+00 [K]
    molecule-molecule VDW/kʙ    -2.633509e+05 [K]
    molecule-molecule Real/kʙ   -8.254582e+04 [K]
    Van der Waals (Tail)/kʙ     -1.156823e+04 [K]
    Ewald Fourier/kʙ             1.523995e+04 [K]
    Ewald self/kʙ               -5.246099e+06 [K]
    Ewald exclusion/kʙ           5.211806e+06 [K]
    intra VDW/kʙ                 0.000000e+00 [K]
    intra Coulombic/kʙ           0.000000e+00 [K]
    polarization/kʙ              0.000000e+00 [K]
    dU/dlambda VDW/kʙ            0.000000e+00 [K]
    dU/dlambda Real/kʙ           0.000000e+00 [K]
    dU/dlambda Ewald/kʙ          0.000000e+00 [K]


Initialization: Current cycle: 1300 out of 2000
===============================================================================

Box:      25.02274   0.00000   0.00000
           0.00000  25.02274   0.00000
           0.00000   0.00000  25.02274
Lengths:  25.02274  25.02274  25.02274
Angles:   90.00000  90.00000  90.00000
Rectangular boundary conditions

net charge:   0.00000000

component   0 (CO2) lambda:  0 occupancy:  0 (0.000000)
    net charge:   0.00000000 [e]

Amount of molecules per component :
-------------------------------------------------------------------------------
Component 0 (CO2)
    molecules:         2.350000e+02 molecules
    number density:    1.499903e-02 molec/A^3
    density:           1.095855e+03 kg/m^3

Total potential energy/kʙ       -3.719056e+05 [K]
-------------------------------------------------------------------------------
    external field VDW/kʙ        0.000000e+00 [K]
    external field Real/kʙ       0.000000e+00 [K]
    framework-molecule VDW/kʙ    0.000000e+00 [K]
    framework-molecule Real/kʙ   0.000000e+00 [K]
    molecule-molecule VDW/kʙ    -2.620700e+05 [K]
    molecule-molecule Real/kʙ   -7.931009e+04 [K]
    Van der Waals (Tail)/kʙ     -1.130940e+04 [K]
    Ewald Fourier/kʙ             1.493137e+04 [K]
    Ewald self/kʙ               -5.223870e+06 [K]
    Ewald exclusion/kʙ           5.189722e+06 [K]
    intra VDW/kʙ                 0.000000e+00 [K]
    intra Coulombic/kʙ           0.000000e+00 [K]
    polarization/kʙ              0.000000e+00 [K]
    dU/dlambda VDW/kʙ            0.000000e+00 [K]
    dU/dlambda Real/kʙ           0.000000e+00 [K]
    dU/dlambda Ewald/kʙ          0.000000e+00 [K]


Initialization: Current cycle: 1400 out of 2000
===============================================================================

Box:      25.01413   0.00000   0.00000
           0.00000  25.01413   0.00000
           0.00000   0.00000  25.01413
Lengths:  25.01413  25.01413  25.01413
Angles:   90.00000  90.00000  90.00000
Rectangular boundary conditions

net charge:   0.00000000

component   0 (CO2) lambda:  0 occupancy:  0 (0.000000)
    net charge:   0.00000000 [e]

Amount of molecules per component :
-------------------------------------------------------------------------------
Component 0 (CO2)
    molecules:         2.340000e+02 molecules
    number density:    1.495063e-02 molec/A^3
    density:           1.092319e+03 kg/m^3

Total potential energy/kʙ       -3.735546e+05 [K]
-------------------------------------------------------------------------------
    external field VDW/kʙ        0.000000e+00 [K]
    external field Real/kʙ       0.000000e+00 [K]
    framework-molecule VDW/kʙ    0.000000e+00 [K]
    framework-molecule Real/kʙ   0.000000e+00 [K]
    molecule-molecule VDW/kʙ    -2.646066e+05 [K]
    molecule-molecule Real/kʙ   -7.842711e+04 [K]
    Van der Waals (Tail)/kʙ     -1.122494e+04 [K]
    Ewald Fourier/kʙ             1.470625e+04 [K]
    Ewald self/kʙ               -5.201640e+06 [K]
    Ewald exclusion/kʙ           5.167638e+06 [K]
    intra VDW/kʙ                 0.000000e+00 [K]
    intra Coulombic/kʙ           0.000000e+00 [K]
    polarization/kʙ              0.000000e+00 [K]
    dU/dlambda VDW/kʙ            0.000000e+00 [K]
    dU/dlambda Real/kʙ           0.000000e+00 [K]
    dU/dlambda Ewald/kʙ          0.000000e+00 [K]


Initialization: Current cycle: 1500 out of 2000
===============================================================================

Box:      25.00568   0.00000   0.00000
           0.00000  25.00568   0.00000
           0.00000   0.00000  25.00568
Lengths:  25.00568  25.00568  25.00568
Angles:   90.00000  90.00000  90.00000
Rectangular boundary conditions

net charge:   0.00000000

component   0 (CO2) lambda:  0 occupancy:  0 (0.000000)
    net charge:   0.00000000 [e]

Amount of molecules per component :
-------------------------------------------------------------------------------
Component 0 (CO2)
    molecules:         2.360000e+02 molecules
    number density:    1.509372e-02 molec/A^3
    density:           1.102773e+03 kg/m^3

Total potential energy/kʙ       -3.746237e+05 [K]
-------------------------------------------------------------------------------
    external field VDW/kʙ        0.000000e+00 [K]
    external field Real/kʙ       0.000000e+00 [K]
    framework-molecule VDW/kʙ    0.000000e+00 [K]
    framework-molecule Real/kʙ   0.000000e+00 [K]
    molecule-molecule VDW/kʙ    -2.675215e+05 [K]
    molecule-molecule Real/kʙ   -7.595896e+04 [K]
    Van der Waals (Tail)/kʙ     -1.142923e+04 [K]
    Ewald Fourier/kʙ             1.457887e+04 [K]
    Ewald self/kʙ               -5.246099e+06 [K]
    Ewald exclusion/kʙ           5.211806e+06 [K]
    intra VDW/kʙ                 0.000000e+00 [K]
    intra Coulombic/kʙ           0.000000e+00 [K]
    polarization/kʙ              0.000000e+00 [K]
    dU/dlambda VDW/kʙ            0.000000e+00 [K]
    dU/dlambda Real/kʙ           0.000000e+00 [K]
    dU/dlambda Ewald/kʙ          0.000000e+00 [K]


Initialization: Current cycle: 1600 out of 2000
===============================================================================

Box:      25.05427   0.00000   0.00000
           0.00000  25.05427   0.00000
           0.00000   0.00000  25.05427
Lengths:  25.05427  25.05427  25.05427
Angles:   90.00000  90.00000  90.00000
Rectangular boundary conditions

net charge:   0.00000000

component   0 (CO2) lambda:  0 occupancy:  0 (0.000000)
    net charge:   0.00000000 [e]

Amount of molecules per component :
-------------------------------------------------------------------------------
Component 0 (CO2)
    molecules:         2.320000e+02 molecules
    number density:    1.475173e-02 molec/A^3
    density:           1.077787e+03 kg/m^3

Total potential energy/kʙ       -3.661572e+05 [K]
-------------------------------------------------------------------------------
    external field VDW/kʙ        0.000000e+00 [K]
    external field Real/kʙ       0.000000e+00 [K]
    framework-molecule VDW/kʙ    0.000000e+00 [K]
    framework-molecule Real/kʙ   0.000000e+00 [K]
    molecule-molecule VDW/kʙ    -2.626015e+05 [K]
    molecule-molecule Real/kʙ   -7.411886e+04 [K]
    Van der Waals (Tail)/kʙ     -1.098094e+04 [K]
    Ewald Fourier/kʙ             1.525559e+04 [K]
    Ewald self/kʙ               -5.157182e+06 [K]
    Ewald exclusion/kʙ           5.123470e+06 [K]
    intra VDW/kʙ                 0.000000e+00 [K]
    intra Coulombic/kʙ           0.000000e+00 [K]
    polarization/kʙ              0.000000e+00 [K]
    dU/dlambda VDW/kʙ            0.000000e+00 [K]
    dU/dlambda Real/kʙ           0.000000e+00 [K]
    dU/dlambda Ewald/kʙ          0.000000e+00 [K]


Initialization: Current cycle: 1700 out of 2000
===============================================================================

Box:      25.12634   0.00000   0.00000
           0.00000  25.12634   0.00000
           0.00000   0.00000  25.12634
Lengths:  25.12634  25.12634  25.12634
Angles:   90.00000  90.00000  90.00000
Rectangular boundary conditions

net charge:   0.00000000

component   0 (CO2) lambda:  0 occupancy:  0 (0.000000)
    net charge:   0.00000000 [e]

Amount of molecules per component :
-------------------------------------------------------------------------------
Component 0 (CO2)
    molecules:         2.290000e+02 molecules
    number density:    1.443603e-02 molec/A^3
    density:           1.054721e+03 kg/m^3

Total potential energy/kʙ       -3.525489e+05 [K]
-------------------------------------------------------------------------------
    external field VDW/kʙ        0.000000e+00 [K]
    external field Real/kʙ       0.000000e+00 [K]
    framework-molecule VDW/kʙ    0.000000e+00 [K]
    framework-molecule Real/kʙ   0.000000e+00 [K]
    molecule-molecule VDW/kʙ    -2.553090e+05 [K]
    molecule-molecule Real/kʙ   -6.949079e+04 [K]
    Van der Waals (Tail)/kʙ     -1.060699e+04 [K]
    Ewald Fourier/kʙ             1.613352e+04 [K]
    Ewald self/kʙ               -5.090494e+06 [K]
    Ewald exclusion/kʙ           5.057219e+06 [K]
    intra VDW/kʙ                 0.000000e+00 [K]
    intra Coulombic/kʙ           0.000000e+00 [K]
    polarization/kʙ              0.000000e+00 [K]
    dU/dlambda VDW/kʙ            0.000000e+00 [K]
    dU/dlambda Real/kʙ           0.000000e+00 [K]
    dU/dlambda Ewald/kʙ          0.000000e+00 [K]


Initialization: Current cycle: 1800 out of 2000
===============================================================================

Box:      25.08681   0.00000   0.00000
           0.00000  25.08681   0.00000
           0.00000   0.00000  25.08681
Lengths:  25.08681  25.08681  25.08681
Angles:   90.00000  90.00000  90.00000
Rectangular boundary conditions

net charge:   0.00000000

component   0 (CO2) lambda:  0 occupancy:  0 (0.000000)
    net charge:   0.00000000 [e]

Amount of molecules per component :
-------------------------------------------------------------------------------
Component 0 (CO2)
    molecules:         2.340000e+02 molecules
    number density:    1.482108e-02 molec/A^3
    density:           1.082853e+03 kg/m^3

Total potential energy/kʙ       -3.698671e+05 [K]
-------------------------------------------------------------------------------
    external field VDW/kʙ        0.000000e+00 [K]
    external field Real/kʙ       0.000000e+00 [K]
    framework-molecule VDW/kʙ    0.000000e+00 [K]
    framework-molecule Real/kʙ   0.000000e+00 [K]
    molecule-molecule VDW/kʙ    -2.616315e+05 [K]
    molecule-molecule Real/kʙ   -7.889712e+04 [K]
    Van der Waals (Tail)/kʙ     -1.112767e+04 [K]
    Ewald Fourier/kʙ             1.579145e+04 [K]
    Ewald self/kʙ               -5.201640e+06 [K]
    Ewald exclusion/kʙ           5.167638e+06 [K]
    intra VDW/kʙ                 0.000000e+00 [K]
    intra Coulombic/kʙ           0.000000e+00 [K]
    polarization/kʙ              0.000000e+00 [K]
    dU/dlambda VDW/kʙ            0.000000e+00 [K]
    dU/dlambda Real/kʙ           0.000000e+00 [K]
    dU/dlambda Ewald/kʙ          0.000000e+00 [K]


Initialization: Current cycle: 1900 out of 2000
===============================================================================

Box:      24.87479   0.00000   0.00000
           0.00000  24.87479   0.00000
           0.00000   0.00000  24.87479
Lengths:  24.87479  24.87479  24.87479
Angles:   90.00000  90.00000  90.00000
Rectangular boundary conditions

net charge:   0.00000000

component   0 (CO2) lambda:  0 occupancy:  0 (0.000000)
    net charge:   0.00000000 [e]

Amount of molecules per component :
-------------------------------------------------------------------------------
Component 0 (CO2)
    molecules:         2.360000e+02 molecules
    number density:    1.533323e-02 molec/A^3
    density:           1.120272e+03 kg/m^3

Total potential energy/kʙ       -3.905723e+05 [K]
-------------------------------------------------------------------------------
    external field VDW/kʙ        0.000000e+00 [K]
    external field Real/kʙ       0.000000e+00 [K]
    framework-molecule VDW/kʙ    0.000000e+00 [K]
    framework-molecule Real/kʙ   0.000000e+00 [K]
    molecule-molecule VDW/kʙ    -2.687332e+05 [K]
    molecule-molecule Real/kʙ   -9.013218e+04 [K]
    Van der Waals (Tail)/kʙ     -1.161059e+04 [K]
    Ewald Fourier/kʙ             1.419654e+04 [K]
    Ewald self/kʙ               -5.246099e+06 [K]
    Ewald exclusion/kʙ           5.211806e+06 [K]
    intra VDW/kʙ                 0.000000e+00 [K]
    intra Coulombic/kʙ           0.000000e+00 [K]
    polarization/kʙ              0.000000e+00 [K]
    dU/dlambda VDW/kʙ            0.000000e+00 [K]
    dU/dlambda Real/kʙ           0.000000e+00 [K]
    dU/dlambda Ewald/kʙ          0.000000e+00 [K]


Current cycle: 0 out of 6000
===============================================================================

Box:      24.89017   0.00000   0.00000  Average:  24.89017   0.00000   0.00000
           0.00000  24.89017   0.00000             0.00000  24.89017   0.00000
           0.00000   0.00000  24.89017             0.00000   0.00000  24.89017
Lengths:  24.89017  24.89017  24.89017  Average:  24.89017  24.89017  24.89017
Angles:   90.00000  90.00000  90.00000  Average:  90.00000  90.00000  90.00000
Rectangular boundary conditions

net charge:   0.00000000

component 0 (CO2) lambda:  0 occupancy:  0 (0.000000)
    net charge:   0.00000000 [e]

Amount of molecules per component :
-------------------------------------------------------------------------------
Component 0 (CO2)
    molecules:      2.350000e+02 molecules  (2.350000e+02 +/- 0.000000e+00)
    number density: 1.523997e-02 molec./A^3 (1.523997e-02 +/- 0.000000e+00)
    density:        1.113459e+03 kg/m^3     (1.113459e+03 +/- 0.000000e+00)

Average pressure tensor: 
-------------------------------------------------------------------------------
 5.0499e+02  0.0000e+00  0.0000e+00 +/- 0.0000e+00 0.0000e+00 0.0000e+00 [bar]
 0.0000e+00  5.0499e+02  0.0000e+00 +/- 0.0000e+00 0.0000e+00 0.0000e+00 [bar]
 0.0000e+00  0.0000e+00  5.0499e+02 +/- 0.0000e+00 0.0000e+00 0.0000e+00 [bar]
Ideal-gas pressure:   5.049858e+02 +/ 0.000000e+00 [bar]
Excess pressure:      0.000000e+00 +/ 0.000000e+00 [bar]
Pressure:             5.049858e+02 +/ 0.000000e+00 [bar]

Total potential energy/kʙ  -3.920893e+05 (-3.920893e+05 +/- 0.000000e+00) [K]
-------------------------------------------------------------------------------
ExternalField-molecule
    Van der Waals/kʙ        0.000000e+00 ( 0.000000e+00 +/- 0.000000e+00) [K]
Framework-molecule
    Van der Waals/kʙ        0.000000e+00 ( 0.000000e+00 +/- 0.000000e+00) [K]
    Van der Waals (Tail)/kʙ 0.000000e+00 ( 0.000000e+00 +/- 0.000000e+00) [K]
    Coulombic Real/kʙ       0.000000e+00 ( 0.000000e+00 +/- 0.000000e+00) [K]
    Coulombic Fourier/kʙ    0.000000e+00 ( 0.000000e+00 +/- 0.000000e+00) [K]
Molecule-molecule
    Van der Waals/kʙ       -2.776804e+05 (-2.776804e+05 +/- 0.000000e+00) [K]
    Van der Waals (Tail)/kʙ-1.149108e+04 (-1.149108e+04 +/- 0.000000e+00) [K]
    Coulombic Real/kʙ      -8.375324e+04 (-8.375324e+04 +/- 0.000000e+00) [K]
    Coulombic Fourier/kʙ   -1.916451e+04 (-1.916451e+04 +/- 0.000000e+00) [K]
    Molecule Intra/kʙ       0.000000e+00 ( 0.000000e+00 +/- 0.000000e+00) [K]

Current cycle: 100 out of 6000
===============================================================================

Box:      24.85410   0.00000   0.00000  Average:  24.88903   0.00000   0.00000
           0.00000  24.85410   0.00000             0.00000  24.88903   0.00000
           0.00000   0.00000  24.85410             0.00000   0.00000  24.88903
Lengths:  24.85410  24.85410  24.85410  Average:  24.88903  24.88903  24.88903
Angles:   90.00000  90.00000  90.00000  Average:  90.00000  90.00000  90.00000
Rectangular boundary conditions

net charge:   0.00000000

component 0 (CO2) lambda:  0 occupancy:  0 (0.000000)
    net charge:   0.00000000 [e]

Amount of molecules per component :
-------------------------------------------------------------------------------
Component 0 (CO2)
    molecules:      2.300000e+02 molecules  (2.357426e+02 +/- 0.000000e+00)
    number density: 1.498075e-02 molec./A^3 (1.529086e-02 +/- 0.000000e+00)
    density:        1.094519e+03 kg/m^3     (1.117176e+03 +/- 0.000000e+00)

Average pressure tensor: 
-------------------------------------------------------------------------------
-1.3391e+02  6.2750e+01 -3.2619e+02 +/- 0.0000e+00 0.0000e+00 0.0000e+00 [bar]
 6.2750e+01 -3.3885e+02  7.7952e+01 +/- 0.0000e+00 0.0000e+00 0.0000e+00 [bar]
-3.2619e+02  7.7952e+01  3.1970e+02 +/- 0.0000e+00 0.0000e+00 0.0000e+00 [bar]
Ideal-gas pressure:   5.066718e+02 +/ 0.000000e+00 [bar]
Excess pressure:     -5.576911e+02 +/ 0.000000e+00 [bar]
Pressure:            -5.101932e+01 +/ 0.000000e+00 [bar]

Total potential energy/kʙ  -3.693836e+05 (-3.881928e+05 +/- 0.000000e+00) [K]
-------------------------------------------------------------------------------
ExternalField-molecule
    Van der Waals/kʙ        0.000000e+00 ( 0.000000e+00 +/- 0.000000e+00) [K]
Framework-molecule
    Van der Waals/kʙ        0.000000e+00 ( 0.000000e+00 +/- 0.000000e+00) [K]
    Van der Waals (Tail)/kʙ 0.000000e+00 ( 0.000000e+00 +/- 0.000000e+00) [K]
    Coulombic Real/kʙ       0.000000e+00 ( 0.000000e+00 +/- 0.000000e+00) [K]
    Coulombic Fourier/kʙ    0.000000e+00 ( 0.000000e+00 +/- 0.000000e+00) [K]
Molecule-molecule
    Van der Waals/kʙ       -2.584964e+05 (-2.719386e+05 +/- 0.000000e+00) [K]
    Van der Waals (Tail)/kʙ-1.105529e+04 (-1.146845e+04 +/- 0.000000e+00) [K]
    Coulombic Real/kʙ      -8.150062e+04 (-8.536019e+04 +/- 0.000000e+00) [K]
    Coulombic Fourier/kʙ   -1.833131e+04 (-1.942552e+04 +/- 0.000000e+00) [K]
    Molecule Intra/kʙ       0.000000e+00 ( 0.000000e+00 +/- 0.000000e+00) [K]

Current cycle: 200 out of 6000
===============================================================================

Box:      25.15394   0.00000   0.00000  Average:  24.87696   0.00000   0.00000
           0.00000  25.15394   0.00000             0.00000  24.87696   0.00000
           0.00000   0.00000  25.15394             0.00000   0.00000  24.87696
Lengths:  25.15394  25.15394  25.15394  Average:  24.87696  24.87696  24.87696
Angles:   90.00000  90.00000  90.00000  Average:  90.00000  90.00000  90.00000
Rectangular boundary conditions

net charge:   0.00000000

component 0 (CO2) lambda:  0 occupancy:  0 (0.000000)
    net charge:   0.00000000 [e]

Amount of molecules per component :
-------------------------------------------------------------------------------
Component 0 (CO2)
    molecules:      2.350000e+02 molecules  (2.344179e+02 +/- 0.000000e+00)
    number density: 1.476555e-02 molec./A^3 (1.522744e-02 +/- 0.000000e+00)
    density:        1.078797e+03 kg/m^3     (1.112543e+03 +/- 0.000000e+00)

Average pressure tensor: 
-------------------------------------------------------------------------------
-8.1612e+00  7.0889e+01 -1.5446e+02 +/- 0.0000e+00 0.0000e+00 0.0000e+00 [bar]
 7.0889e+01 -2.4336e+02 -7.9413e+00 +/- 0.0000e+00 0.0000e+00 0.0000e+00 [bar]
-1.5446e+02 -7.9413e+00  4.0030e+02 +/- 0.0000e+00 0.0000e+00 0.0000e+00 [bar]
Ideal-gas pressure:   5.045705e+02 +/ 0.000000e+00 [bar]
Excess pressure:     -4.549776e+02 +/ 0.000000e+00 [bar]
Pressure:             4.959297e+01 +/ 0.000000e+00 [bar]

Total potential energy/kʙ  -3.735837e+05 (-3.825508e+05 +/- 0.000000e+00) [K]
-------------------------------------------------------------------------------
ExternalField-molecule
    Van der Waals/kʙ        0.000000e+00 ( 0.000000e+00 +/- 0.000000e+00) [K]
Framework-molecule
    Van der Waals/kʙ        0.000000e+00 ( 0.000000e+00 +/- 0.000000e+00) [K]
    Van der Waals (Tail)/kʙ 0.000000e+00 ( 0.000000e+00 +/- 0.000000e+00) [K]
    Coulombic Real/kʙ       0.000000e+00 ( 0.000000e+00 +/- 0.000000e+00) [K]
    Coulombic Fourier/kʙ    0.000000e+00 ( 0.000000e+00 +/- 0.000000e+00) [K]
Molecule-molecule
    Van der Waals/kʙ       -2.706520e+05 (-2.700799e+05 +/- 0.000000e+00) [K]
    Van der Waals (Tail)/kʙ-1.113336e+04 (-1.140896e+04 +/- 0.000000e+00) [K]
    Coulombic Real/kʙ      -7.221689e+04 (-8.189007e+04 +/- 0.000000e+00) [K]
    Coulombic Fourier/kʙ   -1.958141e+04 (-1.917179e+04 +/- 0.000000e+00) [K]
    Molecule Intra/kʙ       0.000000e+00 ( 0.000000e+00 +/- 0.000000e+00) [K]

Current cycle: 300 out of 6000
===============================================================================

Box:      24.94236   0.00000   0.00000  Average:  24.91603   0.00000   0.00000
           0.00000  24.94236   0.00000             0.00000  24.91603   0.00000
           0.00000   0.00000  24.94236             0.00000   0.00000  24.91603
Lengths:  24.94236  24.94236  24.94236  Average:  24.91603  24.91603  24.91603
Angles:   90.00000  90.00000  90.00000  Average:  90.00000  90.00000  90.00000
Rectangular boundary conditions

net charge:   0.00000000

component 0 (CO2) lambda:  0 occupancy:  0 (0.000000)
    net charge:   0.00000000 [e]

Amount of molecules per component :
-------------------------------------------------------------------------------
Component 0 (CO2)
    molecules:      2.330000e+02 molecules  (2.350033e+02 +/- 0.000000e+00)
    number density: 1.501563e-02 molec./A^3 (1.519385e-02 +/- 0.000000e+00)
    density:        1.097067e+03 kg/m^3     (1.110089e+03 +/- 0.000000e+00)

Average pressure tensor: 
-------------------------------------------------------------------------------
-1.4189e+02  8.4623e+01 -1.2798e+02 +/- 0.0000e+00 0.0000e+00 0.0000e+00 [bar]
 8.4623e+01 -1.2285e+02 -5.5874e+01 +/- 0.0000e+00 0.0000e+00 0.0000e+00 [bar]
-1.2798e+02 -5.5874e+01  2.8079e+02 +/- 0.0000e+00 0.0000e+00 0.0000e+00 [bar]
Ideal-gas pressure:   5.034574e+02 +/ 0.000000e+00 [bar]
Excess pressure:     -4.981049e+02 +/ 0.000000e+00 [bar]
Pressure:             5.352466e+00 +/ 0.000000e+00 [bar]

Total potential energy/kʙ  -3.696049e+05 (-3.802739e+05 +/- 0.000000e+00) [K]
-------------------------------------------------------------------------------
ExternalField-molecule
    Van der Waals/kʙ        0.000000e+00 ( 0.000000e+00 +/- 0.000000e+00) [K]
Framework-molecule
    Van der Waals/kʙ        0.000000e+00 ( 0.000000e+00 +/- 0.000000e+00) [K]
    Van der Waals (Tail)/kʙ 0.000000e+00 ( 0.000000e+00 +/- 0.000000e+00) [K]
    Coulombic Real/kʙ       0.000000e+00 ( 0.000000e+00 +/- 0.000000e+00) [K]
    Coulombic Fourier/kʙ    0.000000e+00 ( 0.000000e+00 +/- 0.000000e+00) [K]
Molecule-molecule
    Van der Waals/kʙ       -2.621216e+05 (-2.696404e+05 +/- 0.000000e+00) [K]
    Van der Waals (Tail)/kʙ-1.122556e+04 (-1.141264e+04 +/- 0.000000e+00) [K]
    Coulombic Real/kʙ      -7.790586e+04 (-8.006329e+04 +/- 0.000000e+00) [K]
    Coulombic Fourier/kʙ   -1.835184e+04 (-1.915755e+04 +/- 0.000000e+00) [K]
    Molecule Intra/kʙ       0.000000e+00 ( 0.000000e+00 +/- 0.000000e+00) [K]

Current cycle: 400 out of 6000
===============================================================================

Box:      24.89202   0.00000   0.00000  Average:  24.90647   0.00000   0.00000
           0.00000  24.89202   0.00000             0.00000  24.90647   0.00000
           0.00000   0.00000  24.89202             0.00000   0.00000  24.90647
Lengths:  24.89202  24.89202  24.89202  Average:  24.90647  24.90647  24.90647
Angles:   90.00000  90.00000  90.00000  Average:  90.00000  90.00000  90.00000
Rectangular boundary conditions

net charge:   0.00000000

component 0 (CO2) lambda:  0 occupancy:  0 (0.000000)
    net charge:   0.00000000 [e]

Amount of molecules per component :
-------------------------------------------------------------------------------
Component 0 (CO2)
    molecules:      2.270000e+02 molecules  (2.338105e+02 +/- 0.000000e+00)
    number density: 1.471789e-02 molec./A^3 (1.513377e-02 +/- 0.000000e+00)
    density:        1.075314e+03 kg/m^3     (1.105699e+03 +/- 0.000000e+00)

Average pressure tensor: 
-------------------------------------------------------------------------------
-1.1602e+02  1.6709e+01 -1.0038e+02 +/- 0.0000e+00 0.0000e+00 0.0000e+00 [bar]
 1.6709e+01 -7.7209e+01 -7.0118e+01 +/- 0.0000e+00 0.0000e+00 0.0000e+00 [bar]
-1.0038e+02 -7.0118e+01  2.6398e+02 +/- 0.0000e+00 0.0000e+00 0.0000e+00 [bar]
Ideal-gas pressure:   5.014666e+02 +/ 0.000000e+00 [bar]
Excess pressure:     -4.778838e+02 +/ 0.000000e+00 [bar]
Pressure:             2.358278e+01 +/ 0.000000e+00 [bar]

Total potential energy/kʙ  -3.530310e+05 (-3.757822e+05 +/- 0.000000e+00) [K]
-------------------------------------------------------------------------------
ExternalField-molecule
    Van der Waals/kʙ        0.000000e+00 ( 0.000000e+00 +/- 0.000000e+00) [K]
Framework-molecule
    Van der Waals/kʙ        0.000000e+00 ( 0.000000e+00 +/- 0.000000e+00) [K]
    Van der Waals (Tail)/kʙ 0.000000e+00 ( 0.000000e+00 +/- 0.000000e+00) [K]
    Coulombic Real/kʙ       0.000000e+00 ( 0.000000e+00 +/- 0.000000e+00) [K]
    Coulombic Fourier/kʙ    0.000000e+00 ( 0.000000e+00 +/- 0.000000e+00) [K]
Molecule-molecule
    Van der Waals/kʙ       -2.556648e+05 (-2.667128e+05 +/- 0.000000e+00) [K]
    Van der Waals (Tail)/kʙ-1.071964e+04 (-1.132393e+04 +/- 0.000000e+00) [K]
    Coulombic Real/kʙ      -6.907597e+04 (-7.875938e+04 +/- 0.000000e+00) [K]
    Coulombic Fourier/kʙ   -1.757062e+04 (-1.898608e+04 +/- 0.000000e+00) [K]
    Molecule Intra/kʙ       0.000000e+00 ( 0.000000e+00 +/- 0.000000e+00) [K]

Current cycle: 500 out of 6000
===============================================================================

Box:      24.96460   0.00000   0.00000  Average:  24.90045   0.00000   0.00000
           0.00000  24.96460   0.00000             0.00000  24.90045   0.00000
           0.00000   0.00000  24.96460             0.00000   0.00000  24.90045
Lengths:  24.96460  24.96460  24.96460  Average:  24.90045  24.90045  24.90045
Angles:   90.00000  90.00000  90.00000  Average:  90.00000  90.00000  90.00000
Rectangular boundary conditions

net charge:   0.00000000

component 0 (CO2) lambda:  0 occupancy:  0 (0.000000)
    net charge:   0.00000000 [e]

Amount of molecules per component :
-------------------------------------------------------------------------------
Component 0 (CO2)
    molecules:      2.340000e+02 molecules  (2.331976e+02 +/- 0.000000e+00)
    number density: 1.503979e-02 molec./A^3 (1.510494e-02 +/- 0.000000e+00)
    density:        1.098833e+03 kg/m^3     (1.103593e+03 +/- 0.000000e+00)

Average pressure tensor: 
-------------------------------------------------------------------------------
-1.1749e+02 -2.0724e+01 -7.4968e+01 +/- 0.0000e+00 0.0000e+00 0.0000e+00 [bar]
-2.0724e+01 -2.3566e+01 -1.1301e+02 +/- 0.0000e+00 0.0000e+00 0.0000e+00 [bar]
-7.4968e+01 -1.1301e+02  2.0343e+02 +/- 0.0000e+00 0.0000e+00 0.0000e+00 [bar]
Ideal-gas pressure:   5.005114e+02 +/ 0.000000e+00 [bar]
Excess pressure:     -4.797219e+02 +/ 0.000000e+00 [bar]
Pressure:             2.078948e+01 +/ 0.000000e+00 [bar]

Total potential energy/kʙ  -3.764145e+05 (-3.743984e+05 +/- 0.000000e+00) [K]
-------------------------------------------------------------------------------
ExternalField-molecule
    Van der Waals/kʙ        0.000000e+00 ( 0.000000e+00 +/- 0.000000e+00) [K]
Framework-molecule
    Van der Waals/kʙ        0.000000e+00 ( 0.000000e+00 +/- 0.000000e+00) [K]
    Van der Waals (Tail)/kʙ 0.000000e+00 ( 0.000000e+00 +/- 0.000000e+00) [K]
    Coulombic Real/kʙ       0.000000e+00 ( 0.000000e+00 +/- 0.000000e+00) [K]
    Coulombic Fourier/kʙ    0.000000e+00 ( 0.000000e+00 +/- 0.000000e+00) [K]
Molecule-molecule
    Van der Waals/kʙ       -2.703892e+05 (-2.657591e+05 +/- 0.000000e+00) [K]
    Van der Waals (Tail)/kʙ-1.129188e+04 (-1.128277e+04 +/- 0.000000e+00) [K]
    Coulombic Real/kʙ      -7.588750e+04 (-7.840947e+04 +/- 0.000000e+00) [K]
    Coulombic Fourier/kʙ   -1.884589e+04 (-1.894711e+04 +/- 0.000000e+00) [K]
    Molecule Intra/kʙ       0.000000e+00 ( 0.000000e+00 +/- 0.000000e+00) [K]

Current cycle: 600 out of 6000
===============================================================================

Box:      24.78066   0.00000   0.00000  Average:  24.88036   0.00000   0.00000
           0.00000  24.78066   0.00000             0.00000  24.88036   0.00000
           0.00000   0.00000  24.78066             0.00000   0.00000  24.88036
Lengths:  24.78066  24.78066  24.78066  Average:  24.88036  24.88036  24.88036
Angles:   90.00000  90.00000  90.00000  Average:  90.00000  90.00000  90.00000
Rectangular boundary conditions

net charge:   0.00000000

component 0 (CO2) lambda:  0 occupancy:  0 (0.000000)
    net charge:   0.00000000 [e]

Amount of molecules per component :
-------------------------------------------------------------------------------
Component 0 (CO2)
    molecules:      2.350000e+02 molecules  (2.330316e+02 +/- 0.000000e+00)
    number density: 1.544292e-02 molec./A^3 (1.513113e-02 +/- 0.000000e+00)
    density:        1.128286e+03 kg/m^3     (1.105506e+03 +/- 0.000000e+00)

Average pressure tensor: 
-------------------------------------------------------------------------------
-1.0673e+02 -5.4066e+01 -3.0086e+01 +/- 0.0000e+00 0.0000e+00 0.0000e+00 [bar]
-5.4066e+01 -1.0024e+01 -1.0553e+02 +/- 0.0000e+00 0.0000e+00 0.0000e+00 [bar]
-3.0086e+01 -1.0553e+02  1.9740e+02 +/- 0.0000e+00 0.0000e+00 0.0000e+00 [bar]
Ideal-gas pressure:   5.013790e+02 +/ 0.000000e+00 [bar]
Excess pressure:     -4.744943e+02 +/ 0.000000e+00 [bar]
Pressure:             2.688470e+01 +/ 0.000000e+00 [bar]

Total potential energy/kʙ  -3.807726e+05 (-3.749815e+05 +/- 0.000000e+00) [K]
-------------------------------------------------------------------------------
ExternalField-molecule
    Van der Waals/kʙ        0.000000e+00 ( 0.000000e+00 +/- 0.000000e+00) [K]
Framework-molecule
    Van der Waals/kʙ        0.000000e+00 ( 0.000000e+00 +/- 0.000000e+00) [K]
    Van der Waals (Tail)/kʙ 0.000000e+00 ( 0.000000e+00 +/- 0.000000e+00) [K]
    Coulombic Real/kʙ       0.000000e+00 ( 0.000000e+00 +/- 0.000000e+00) [K]
    Coulombic Fourier/kʙ    0.000000e+00 ( 0.000000e+00 +/- 0.000000e+00) [K]
Molecule-molecule
    Van der Waals/kʙ       -2.732340e+05 (-2.663229e+05 +/- 0.000000e+00) [K]
    Van der Waals (Tail)/kʙ-1.164410e+04 (-1.129566e+04 +/- 0.000000e+00) [K]
    Coulombic Real/kʙ      -7.745518e+04 (-7.850666e+04 +/- 0.000000e+00) [K]
    Coulombic Fourier/kʙ   -1.843929e+04 (-1.885627e+04 +/- 0.000000e+00) [K]
    Molecule Intra/kʙ       0.000000e+00 ( 0.000000e+00 +/- 0.000000e+00) [K]

Current cycle: 700 out of 6000
===============================================================================

Box:      24.78465   0.00000   0.00000  Average:  24.87825   0.00000   0.00000
           0.00000  24.78465   0.00000             0.00000  24.87825   0.00000
           0.00000   0.00000  24.78465             0.00000   0.00000  24.87825
Lengths:  24.78465  24.78465  24.78465  Average:  24.87825  24.87825  24.87825
Angles:   90.00000  90.00000  90.00000  Average:  90.00000  90.00000  90.00000
Rectangular boundary conditions

net charge:   0.00000000

component 0 (CO2) lambda:  0 occupancy:  0 (0.000000)
    net charge:   0.00000000 [e]

Amount of molecules per component :
-------------------------------------------------------------------------------
Component 0 (CO2)
    molecules:      2.310000e+02 molecules  (2.328845e+02 +/- 0.000000e+00)
    number density: 1.517273e-02 molec./A^3 (1.512539e-02 +/- 0.000000e+00)
    density:        1.108546e+03 kg/m^3     (1.105087e+03 +/- 0.000000e+00)

Average pressure tensor: 
-------------------------------------------------------------------------------
-1.1043e+02 -6.6916e+01  8.1137e+00 +/- 0.0000e+00 0.0000e+00 0.0000e+00 [bar]
-6.6916e+01 -1.1027e+01 -8.5703e+01 +/- 0.0000e+00 0.0000e+00 0.0000e+00 [bar]
 8.1137e+00 -8.5703e+01  2.0055e+02 +/- 0.0000e+00 0.0000e+00 0.0000e+00 [bar]
Ideal-gas pressure:   5.011890e+02 +/ 0.000000e+00 [bar]
Excess pressure:     -4.748240e+02 +/ 0.000000e+00 [bar]
Pressure:             2.636506e+01 +/ 0.000000e+00 [bar]

Total potential energy/kʙ  -3.691432e+05 (-3.743072e+05 +/- 0.000000e+00) [K]
-------------------------------------------------------------------------------
ExternalField-molecule
    Van der Waals/kʙ        0.000000e+00 ( 0.000000e+00 +/- 0.000000e+00) [K]
Framework-molecule
    Van der Waals/kʙ        0.000000e+00 ( 0.000000e+00 +/- 0.000000e+00) [K]
    Van der Waals (Tail)/kʙ 0.000000e+00 ( 0.000000e+00 +/- 0.000000e+00) [K]
    Coulombic Real/kʙ       0.000000e+00 ( 0.000000e+00 +/- 0.000000e+00) [K]
    Coulombic Fourier/kʙ    0.000000e+00 ( 0.000000e+00 +/- 0.000000e+00) [K]
Molecule-molecule
    Van der Waals/kʙ       -2.643502e+05 (-2.663497e+05 +/- 0.000000e+00) [K]
    Van der Waals (Tail)/kʙ-1.124565e+04 (-1.128898e+04 +/- 0.000000e+00) [K]
    Coulombic Real/kʙ      -7.537343e+04 (-7.799340e+04 +/- 0.000000e+00) [K]
    Coulombic Fourier/kʙ   -1.817390e+04 (-1.867510e+04 +/- 0.000000e+00) [K]
    Molecule Intra/kʙ       0.000000e+00 ( 0.000000e+00 +/- 0.000000e+00) [K]

Current cycle: 800 out of 6000
===============================================================================

Box:      24.51292   0.00000   0.00000  Average:  24.84738   0.00000   0.00000
           0.00000  24.51292   0.00000             0.00000  24.84738   0.00000
           0.00000   0.00000  24.51292             0.00000   0.00000  24.84738
Lengths:  24.51292  24.51292  24.51292  Average:  24.84738  24.84738  24.84738
Angles:   90.00000  90.00000  90.00000  Average:  90.00000  90.00000  90.00000
Rectangular boundary conditions

net charge:   0.00000000

component 0 (CO2) lambda:  0 occupancy:  0 (0.000000)
    net charge:   0.00000000 [e]

Amount of molecules per component :
-------------------------------------------------------------------------------
Component 0 (CO2)
    molecules:      2.300000e+02 molecules  (2.322634e+02 +/- 0.000000e+00)
    number density: 1.561503e-02 molec./A^3 (1.514129e-02 +/- 0.000000e+00)
    density:        1.140861e+03 kg/m^3     (1.106249e+03 +/- 0.000000e+00)

Average pressure tensor: 
-------------------------------------------------------------------------------
-7.4715e+01 -8.0110e+01 -1.4980e+01 +/- 0.0000e+00 0.0000e+00 0.0000e+00 [bar]
-8.0110e+01  1.7113e+01 -6.4998e+01 +/- 0.0000e+00 0.0000e+00 0.0000e+00 [bar]
-1.4980e+01 -6.4998e+01  2.0088e+02 +/- 0.0000e+00 0.0000e+00 0.0000e+00 [bar]
Ideal-gas pressure:   5.017159e+02 +/ 0.000000e+00 [bar]
Excess pressure:     -4.539554e+02 +/ 0.000000e+00 [bar]
Pressure:             4.776053e+01 +/ 0.000000e+00 [bar]

Total potential energy/kʙ  -3.770280e+05 (-3.733027e+05 +/- 0.000000e+00) [K]
-------------------------------------------------------------------------------
ExternalField-molecule
    Van der Waals/kʙ        0.000000e+00 ( 0.000000e+00 +/- 0.000000e+00) [K]
Framework-molecule
    Van der Waals/kʙ        0.000000e+00 ( 0.000000e+00 +/- 0.000000e+00) [K]
    Van der Waals (Tail)/kʙ 0.000000e+00 ( 0.000000e+00 +/- 0.000000e+00) [K]
    Coulombic Real/kʙ       0.000000e+00 ( 0.000000e+00 +/- 0.000000e+00) [K]
    Coulombic Fourier/kʙ    0.000000e+00 ( 0.000000e+00 +/- 0.000000e+00) [K]
Molecule-molecule
    Van der Waals/kʙ       -2.710380e+05 (-2.661357e+05 +/- 0.000000e+00) [K]
    Van der Waals (Tail)/kʙ-1.152336e+04 (-1.128632e+04 +/- 0.000000e+00) [K]
    Coulombic Real/kʙ      -7.655953e+04 (-7.736852e+04 +/- 0.000000e+00) [K]
    Coulombic Fourier/kʙ   -1.790711e+04 (-1.851213e+04 +/- 0.000000e+00) [K]
    Molecule Intra/kʙ       0.000000e+00 ( 0.000000e+00 +/- 0.000000e+00) [K]

Current cycle: 900 out of 6000
===============================================================================

Box:      24.65375   0.00000   0.00000  Average:  24.82664   0.00000   0.00000
           0.00000  24.65375   0.00000             0.00000  24.82664   0.00000
           0.00000   0.00000  24.65375             0.00000   0.00000  24.82664
Lengths:  24.65375  24.65375  24.65375  Average:  24.82664  24.82664  24.82664
Angles:   90.00000  90.00000  90.00000  Average:  90.00000  90.00000  90.00000
Rectangular boundary conditions

net charge:   0.00000000

component 0 (CO2) lambda:  0 occupancy:  0 (0.000000)
    net charge:   0.00000000 [e]

Amount of molecules per component :
-------------------------------------------------------------------------------
Component 0 (CO2)
    molecules:      2.300000e+02 molecules  (2.320067e+02 +/- 0.000000e+00)
    number density: 1.534895e-02 molec./A^3 (1.516268e-02 +/- 0.000000e+00)
    density:        1.121421e+03 kg/m^3     (1.107811e+03 +/- 0.000000e+00)

Average pressure tensor: 
-------------------------------------------------------------------------------
-5.4454e+01 -8.0361e+01  1.2094e+01 +/- 0.0000e+00 0.0000e+00 0.0000e+00 [bar]
-8.0361e+01  2.4885e+01 -8.0302e+01 +/- 0.0000e+00 0.0000e+00 0.0000e+00 [bar]
 1.2094e+01 -8.0302e+01  1.7206e+02 +/- 0.0000e+00 0.0000e+00 0.0000e+00 [bar]
Ideal-gas pressure:   5.024245e+02 +/ 0.000000e+00 [bar]
Excess pressure:     -4.549285e+02 +/ 0.000000e+00 [bar]
Pressure:             4.749605e+01 +/ 0.000000e+00 [bar]

Total potential energy/kʙ  -3.780322e+05 (-3.734886e+05 +/- 0.000000e+00) [K]
-------------------------------------------------------------------------------
ExternalField-molecule
    Van der Waals/kʙ        0.000000e+00 ( 0.000000e+00 +/- 0.000000e+00) [K]
Framework-molecule
    Van der Waals/kʙ        0.000000e+00 ( 0.000000e+00 +/- 0.000000e+00) [K]
    Van der Waals (Tail)/kʙ 0.000000e+00 ( 0.000000e+00 +/- 0.000000e+00) [K]
    Coulombic Real/kʙ       0.000000e+00 ( 0.000000e+00 +/- 0.000000e+00) [K]
    Coulombic Fourier/kʙ    0.000000e+00 ( 0.000000e+00 +/- 0.000000e+00) [K]
Molecule-molecule
    Van der Waals/kʙ       -2.667735e+05 (-2.661322e+05 +/- 0.000000e+00) [K]
    Van der Waals (Tail)/kʙ-1.132701e+04 (-1.128295e+04 +/- 0.000000e+00) [K]
    Coulombic Real/kʙ      -8.215162e+04 (-7.759155e+04 +/- 0.000000e+00) [K]
    Coulombic Fourier/kʙ   -1.778009e+04 (-1.848197e+04 +/- 0.000000e+00) [K]
    Molecule Intra/kʙ       0.000000e+00 ( 0.000000e+00 +/- 0.000000e+00) [K]

Current cycle: 1000 out of 6000
===============================================================================

Box:      24.71019   0.00000   0.00000  Average:  24.80750   0.00000   0.00000
           0.00000  24.71019   0.00000             0.00000  24.80750   0.00000
           0.00000   0.00000  24.71019             0.00000   0.00000  24.80750
Lengths:  24.71019  24.71019  24.71019  Average:  24.80750  24.80750  24.80750
Angles:   90.00000  90.00000  90.00000  Average:  90.00000  90.00000  90.00000
Rectangular boundary conditions

net charge:   0.00000000

component 0 (CO2) lambda:  0 occupancy:  0 (0.000000)
    net charge:   0.00000000 [e]

Amount of molecules per component :
-------------------------------------------------------------------------------
Component 0 (CO2)
    molecules:      2.300000e+02 molecules  (2.316943e+02 +/- 0.000000e+00)
    number density: 1.524402e-02 molec./A^3 (1.517739e-02 +/- 0.000000e+00)
    density:        1.113754e+03 kg/m^3     (1.108886e+03 +/- 0.000000e+00)

Average pressure tensor: 
-------------------------------------------------------------------------------
-2.4653e+01 -8.7183e+01  3.6742e+01 +/- 0.0000e+00 0.0000e+00 0.0000e+00 [bar]
-8.7183e+01  3.5177e+01 -9.8023e+01 +/- 0.0000e+00 0.0000e+00 0.0000e+00 [bar]
 3.6742e+01 -9.8023e+01  1.1798e+02 +/- 0.0000e+00 0.0000e+00 0.0000e+00 [bar]
Ideal-gas pressure:   5.029120e+02 +/ 0.000000e+00 [bar]
Excess pressure:     -4.600774e+02 +/ 0.000000e+00 [bar]
Pressure:             4.283456e+01 +/ 0.000000e+00 [bar]

Total potential energy/kʙ  -3.723308e+05 (-3.738888e+05 +/- 0.000000e+00) [K]
-------------------------------------------------------------------------------
ExternalField-molecule
    Van der Waals/kʙ        0.000000e+00 ( 0.000000e+00 +/- 0.000000e+00) [K]
Framework-molecule
    Van der Waals/kʙ        0.000000e+00 ( 0.000000e+00 +/- 0.000000e+00) [K]
    Van der Waals (Tail)/kʙ 0.000000e+00 ( 0.000000e+00 +/- 0.000000e+00) [K]
    Coulombic Real/kʙ       0.000000e+00 ( 0.000000e+00 +/- 0.000000e+00) [K]
    Coulombic Fourier/kʙ    0.000000e+00 ( 0.000000e+00 +/- 0.000000e+00) [K]
Molecule-molecule
    Van der Waals/kʙ       -2.609159e+05 (-2.661753e+05 +/- 0.000000e+00) [K]
    Van der Waals (Tail)/kʙ-1.124957e+04 (-1.128070e+04 +/- 0.000000e+00) [K]
    Coulombic Real/kʙ      -8.151851e+04 (-7.797533e+04 +/- 0.000000e+00) [K]
    Coulombic Fourier/kʙ   -1.864688e+04 (-1.845743e+04 +/- 0.000000e+00) [K]
    Molecule Intra/kʙ       0.000000e+00 ( 0.000000e+00 +/- 0.000000e+00) [K]

Current cycle: 1100 out of 6000
===============================================================================

Box:      24.57411   0.00000   0.00000  Average:  24.79892   0.00000   0.00000
           0.00000  24.57411   0.00000             0.00000  24.79892   0.00000
           0.00000   0.00000  24.57411             0.00000   0.00000  24.79892
Lengths:  24.57411  24.57411  24.57411  Average:  24.79892  24.79892  24.79892
Angles:   90.00000  90.00000  90.00000  Average:  90.00000  90.00000  90.00000
Rectangular boundary conditions

net charge:   0.00000000

component 0 (CO2) lambda:  0 occupancy:  0 (0.000000)
    net charge:   0.00000000 [e]

Amount of molecules per component :
-------------------------------------------------------------------------------
Component 0 (CO2)
    molecules:      2.290000e+02 molecules  (2.313660e+02 +/- 0.000000e+00)
    number density: 1.543129e-02 molec./A^3 (1.517146e-02 +/- 0.000000e+00)
    density:        1.127437e+03 kg/m^3     (1.108453e+03 +/- 0.000000e+00)

Average pressure tensor: 
-------------------------------------------------------------------------------
-3.1762e+01 -8.6209e+01  4.2727e+01 +/- 0.0000e+00 0.0000e+00 0.0000e+00 [bar]
-8.6209e+01  3.5283e+01 -9.0749e+01 +/- 0.0000e+00 0.0000e+00 0.0000e+00 [bar]
 4.2727e+01 -9.0749e+01  9.5717e+01 +/- 0.0000e+00 0.0000e+00 0.0000e+00 [bar]
Ideal-gas pressure:   5.027155e+02 +/ 0.000000e+00 [bar]
Excess pressure:     -4.696359e+02 +/ 0.000000e+00 [bar]
Pressure:             3.307964e+01 +/ 0.000000e+00 [bar]

Total potential energy/kʙ  -3.774458e+05 (-3.735136e+05 +/- 0.000000e+00) [K]
-------------------------------------------------------------------------------
ExternalField-molecule
    Van der Waals/kʙ        0.000000e+00 ( 0.000000e+00 +/- 0.000000e+00) [K]
Framework-molecule
    Van der Waals/kʙ        0.000000e+00 ( 0.000000e+00 +/- 0.000000e+00) [K]
    Van der Waals (Tail)/kʙ 0.000000e+00 ( 0.000000e+00 +/- 0.000000e+00) [K]
    Coulombic Real/kʙ       0.000000e+00 ( 0.000000e+00 +/- 0.000000e+00) [K]
    Coulombic Fourier/kʙ    0.000000e+00 ( 0.000000e+00 +/- 0.000000e+00) [K]
Molecule-molecule
    Van der Waals/kʙ       -2.720023e+05 (-2.661017e+05 +/- 0.000000e+00) [K]
    Van der Waals (Tail)/kʙ-1.133826e+04 (-1.125941e+04 +/- 0.000000e+00) [K]
    Coulombic Real/kʙ      -7.544649e+04 (-7.769297e+04 +/- 0.000000e+00) [K]
    Coulombic Fourier/kʙ   -1.865872e+04 (-1.845948e+04 +/- 0.000000e+00) [K]
    Molecule Intra/kʙ       0.000000e+00 ( 0.000000e+00 +/- 0.000000e+00) [K]

Current cycle: 1200 out of 6000
===============================================================================

Box:      24.86186   0.00000   0.00000  Average:  24.80602   0.00000   0.00000
           0.00000  24.86186   0.00000             0.00000  24.80602   0.00000
           0.00000   0.00000  24.86186             0.00000   0.00000  24.80602
Lengths:  24.86186  24.86186  24.86186  Average:  24.80602  24.80602  24.80602
Angles:   90.00000  90.00000  90.00000  Average:  90.00000  90.00000  90.00000
Rectangular boundary conditions

net charge:   0.00000000

component 0 (CO2) lambda:  0 occupancy:  0 (0.000000)
    net charge:   0.00000000 [e]

Amount of molecules per component :
-------------------------------------------------------------------------------
Component 0 (CO2)
    molecules:      2.310000e+02 molecules  (2.314671e+02 +/- 0.000000e+00)
    number density: 1.503180e-02 molec./A^3 (1.516510e-02 +/- 0.000000e+00)
    density:        1.098249e+03 kg/m^3     (1.107988e+03 +/- 0.000000e+00)

Average pressure tensor: 
-------------------------------------------------------------------------------
-4.3255e+01 -7.9209e+01  3.7766e+01 +/- 0.0000e+00 0.0000e+00 0.0000e+00 [bar]
-7.9209e+01  1.5357e+01 -8.7883e+01 +/- 0.0000e+00 0.0000e+00 0.0000e+00 [bar]
 3.7766e+01 -8.7883e+01  9.8700e+01 +/- 0.0000e+00 0.0000e+00 0.0000e+00 [bar]
Ideal-gas pressure:   5.025047e+02 +/ 0.000000e+00 [bar]
Excess pressure:     -4.789042e+02 +/ 0.000000e+00 [bar]
Pressure:             2.360049e+01 +/ 0.000000e+00 [bar]

Total potential energy/kʙ  -3.742616e+05 (-3.735599e+05 +/- 0.000000e+00) [K]
-------------------------------------------------------------------------------
ExternalField-molecule
    Van der Waals/kʙ        0.000000e+00 ( 0.000000e+00 +/- 0.000000e+00) [K]
Framework-molecule
    Van der Waals/kʙ        0.000000e+00 ( 0.000000e+00 +/- 0.000000e+00) [K]
    Van der Waals (Tail)/kʙ 0.000000e+00 ( 0.000000e+00 +/- 0.000000e+00) [K]
    Coulombic Real/kʙ       0.000000e+00 ( 0.000000e+00 +/- 0.000000e+00) [K]
    Coulombic Fourier/kʙ    0.000000e+00 ( 0.000000e+00 +/- 0.000000e+00) [K]
Molecule-molecule
    Van der Waals/kʙ       -2.674973e+05 (-2.662924e+05 +/- 0.000000e+00) [K]
    Van der Waals (Tail)/kʙ-1.114119e+04 (-1.125655e+04 +/- 0.000000e+00) [K]
    Coulombic Real/kʙ      -7.697137e+04 (-7.754404e+04 +/- 0.000000e+00) [K]
    Coulombic Fourier/kʙ   -1.865167e+04 (-1.846693e+04 +/- 0.000000e+00) [K]
    Molecule Intra/kʙ       0.000000e+00 ( 0.000000e+00 +/- 0.000000e+00) [K]

Current cycle: 1300 out of 6000
===============================================================================

Box:      25.05921   0.00000   0.00000  Average:  24.82026   0.00000   0.00000
           0.00000  25.05921   0.00000             0.00000  24.82026   0.00000
           0.00000   0.00000  25.05921             0.00000   0.00000  24.82026
Lengths:  25.05921  25.05921  25.05921  Average:  24.82026  24.82026  24.82026
Angles:   90.00000  90.00000  90.00000  Average:  90.00000  90.00000  90.00000
Rectangular boundary conditions

net charge:   0.00000000

component 0 (CO2) lambda:  0 occupancy:  0 (0.000000)
    net charge:   0.00000000 [e]

Amount of molecules per component :
-------------------------------------------------------------------------------
Component 0 (CO2)
    molecules:      2.300000e+02 molecules  (2.315911e+02 +/- 0.000000e+00)
    number density: 1.461591e-02 molec./A^3 (1.514727e-02 +/- 0.000000e+00)
    density:        1.067863e+03 kg/m^3     (1.106685e+03 +/- 0.000000e+00)

Average pressure tensor: 
-------------------------------------------------------------------------------
-3.4827e+01 -5.6495e+01  3.3595e+01 +/- 0.0000e+00 0.0000e+00 0.0000e+00 [bar]
-5.6495e+01  3.8175e+01 -8.2002e+01 +/- 0.0000e+00 0.0000e+00 0.0000e+00 [bar]
 3.3595e+01 -8.2002e+01  1.0222e+02 +/- 0.0000e+00 0.0000e+00 0.0000e+00 [bar]
Ideal-gas pressure:   5.019140e+02 +/ 0.000000e+00 [bar]
Excess pressure:     -4.667237e+02 +/ 0.000000e+00 [bar]
Pressure:             3.519028e+01 +/ 0.000000e+00 [bar]

Total potential energy/kʙ  -3.590923e+05 (-3.731103e+05 +/- 0.000000e+00) [K]
-------------------------------------------------------------------------------
ExternalField-molecule
    Van der Waals/kʙ        0.000000e+00 ( 0.000000e+00 +/- 0.000000e+00) [K]
Framework-molecule
    Van der Waals/kʙ        0.000000e+00 ( 0.000000e+00 +/- 0.000000e+00) [K]
    Van der Waals (Tail)/kʙ 0.000000e+00 ( 0.000000e+00 +/- 0.000000e+00) [K]
    Coulombic Real/kʙ       0.000000e+00 ( 0.000000e+00 +/- 0.000000e+00) [K]
    Coulombic Fourier/kʙ    0.000000e+00 ( 0.000000e+00 +/- 0.000000e+00) [K]
Molecule-molecule
    Van der Waals/kʙ       -2.574009e+05 (-2.659561e+05 +/- 0.000000e+00) [K]
    Van der Waals (Tail)/kʙ-1.078605e+04 (-1.125331e+04 +/- 0.000000e+00) [K]
    Coulombic Real/kʙ      -7.230841e+04 (-7.741227e+04 +/- 0.000000e+00) [K]
    Coulombic Fourier/kʙ   -1.859699e+04 (-1.848866e+04 +/- 0.000000e+00) [K]
    Molecule Intra/kʙ       0.000000e+00 ( 0.000000e+00 +/- 0.000000e+00) [K]

Current cycle: 1400 out of 6000
===============================================================================

Box:      24.88925   0.00000   0.00000  Average:  24.83864   0.00000   0.00000
           0.00000  24.88925   0.00000             0.00000  24.83864   0.00000
           0.00000   0.00000  24.88925             0.00000   0.00000  24.83864
Lengths:  24.88925  24.88925  24.88925  Average:  24.83864  24.83864  24.83864
Angles:   90.00000  90.00000  90.00000  Average:  90.00000  90.00000  90.00000
Rectangular boundary conditions

net charge:   0.00000000

component 0 (CO2) lambda:  0 occupancy:  0 (0.000000)
    net charge:   0.00000000 [e]

Amount of molecules per component :
-------------------------------------------------------------------------------
Component 0 (CO2)
    molecules:      2.320000e+02 molecules  (2.319151e+02 +/- 0.000000e+00)
    number density: 1.504709e-02 molec./A^3 (1.513480e-02 +/- 0.000000e+00)
    density:        1.099366e+03 kg/m^3     (1.105774e+03 +/- 0.000000e+00)

Average pressure tensor: 
-------------------------------------------------------------------------------
-4.6185e+01 -4.5827e+01  2.0708e+01 +/- 0.0000e+00 0.0000e+00 0.0000e+00 [bar]
-4.5827e+01  1.9007e+01 -7.4126e+01 +/- 0.0000e+00 0.0000e+00 0.0000e+00 [bar]
 2.0708e+01 -7.4126e+01  8.7647e+01 +/- 0.0000e+00 0.0000e+00 0.0000e+00 [bar]
Ideal-gas pressure:   5.015007e+02 +/ 0.000000e+00 [bar]
Excess pressure:     -4.813442e+02 +/ 0.000000e+00 [bar]
Pressure:             2.015652e+01 +/ 0.000000e+00 [bar]

Total potential energy/kʙ  -3.632609e+05 (-3.730518e+05 +/- 0.000000e+00) [K]
-------------------------------------------------------------------------------
ExternalField-molecule
    Van der Waals/kʙ        0.000000e+00 ( 0.000000e+00 +/- 0.000000e+00) [K]
Framework-molecule
    Van der Waals/kʙ        0.000000e+00 ( 0.000000e+00 +/- 0.000000e+00) [K]
    Van der Waals (Tail)/kʙ 0.000000e+00 ( 0.000000e+00 +/- 0.000000e+00) [K]
    Coulombic Real/kʙ       0.000000e+00 ( 0.000000e+00 +/- 0.000000e+00) [K]
    Coulombic Fourier/kʙ    0.000000e+00 ( 0.000000e+00 +/- 0.000000e+00) [K]
Molecule-molecule
    Van der Waals/kʙ       -2.622591e+05 (-2.662517e+05 +/- 0.000000e+00) [K]
    Van der Waals (Tail)/kʙ-1.120080e+04 (-1.125656e+04 +/- 0.000000e+00) [K]
    Coulombic Real/kʙ      -7.209429e+04 (-7.706951e+04 +/- 0.000000e+00) [K]
    Coulombic Fourier/kʙ   -1.770673e+04 (-1.847405e+04 +/- 0.000000e+00) [K]
    Molecule Intra/kʙ       0.000000e+00 ( 0.000000e+00 +/- 0.000000e+00) [K]

Current cycle: 1500 out of 6000
===============================================================================

Box:      25.20558   0.00000   0.00000  Average:  24.85179   0.00000   0.00000
           0.00000  25.20558   0.00000             0.00000  24.85179   0.00000
           0.00000   0.00000  25.20558             0.00000   0.00000  24.85179
[...]
    number density: 1.553536e-02 molec./A^3 (1.489672e-02 +/- 2.460556e-04)
    density:        1.135040e+03 kg/m^3     (1.088380e+03 +/- 1.797724e+01)

Average pressure tensor: 
-------------------------------------------------------------------------------
 4.2733e+01 -3.5019e+01  2.0300e+01 +/- 8.9153e+01 4.4853e+01 4.2462e+01 [bar]
-3.5019e+01 -3.5867e+01 -3.3044e+00 +/- 4.4853e+01 4.4108e+01 8.9496e+01 [bar]
 2.0300e+01 -3.3044e+00  2.5843e+01 +/- 4.2462e+01 8.9496e+01 1.0427e+02 [bar]
Ideal-gas pressure:   4.936119e+02 +/ 8.153202e+00 [bar]
Excess pressure:     -4.827088e+02 +/ 3.781593e+01 [bar]
Pressure:             1.090317e+01 +/ 4.161327e+01 [bar]

Total potential energy/kʙ  -3.787727e+05 (-3.722308e+05 +/- 2.946875e+03) [K]
-------------------------------------------------------------------------------
ExternalField-molecule
    Van der Waals/kʙ        0.000000e+00 ( 0.000000e+00 +/- 0.000000e+00) [K]
Framework-molecule
    Van der Waals/kʙ        0.000000e+00 ( 0.000000e+00 +/- 0.000000e+00) [K]
    Van der Waals (Tail)/kʙ 0.000000e+00 ( 0.000000e+00 +/- 0.000000e+00) [K]
    Coulombic Real/kʙ       0.000000e+00 ( 0.000000e+00 +/- 0.000000e+00) [K]
    Coulombic Fourier/kʙ    0.000000e+00 ( 0.000000e+00 +/- 0.000000e+00) [K]
Molecule-molecule
    Van der Waals/kʙ       -2.677782e+05 (-2.648206e+05 +/- 1.956454e+03) [K]
    Van der Waals (Tail)/kʙ-1.146457e+04 (-1.122854e+04 +/- 5.513752e+01) [K]
    Coulombic Real/kʙ      -8.173484e+04 (-7.759773e+04 +/- 1.349294e+03) [K]
    Coulombic Fourier/kʙ   -1.779506e+04 (-1.858396e+04 +/- 2.734603e+02) [K]
    Molecule Intra/kʙ       0.000000e+00 ( 0.000000e+00 +/- 0.000000e+00) [K]

Current cycle: 5800 out of 6000
===============================================================================

Box:      24.92190   0.00000   0.00000  Average:  25.07256   0.00000   0.00000
           0.00000  24.92190   0.00000             0.00000  25.07256   0.00000
           0.00000   0.00000  24.92190             0.00000   0.00000  25.07256
Lengths:  24.92190  24.92190  24.92190  Average:  25.07256  25.07256  25.07256
Angles:   90.00000  90.00000  90.00000  Average:  90.00000  90.00000  90.00000
Rectangular boundary conditions

net charge:   0.00000000

component 0 (CO2) lambda:  0 occupancy:  0 (0.000000)
    net charge:   0.00000000 [e]

Amount of molecules per component :
-------------------------------------------------------------------------------
Component 0 (CO2)
    molecules:      2.300000e+02 molecules  (2.348312e+02 +/- 4.017491e+00)
    number density: 1.485882e-02 molec./A^3 (1.490246e-02 +/- 2.498549e-04)
    density:        1.085611e+03 kg/m^3     (1.088799e+03 +/- 1.825483e+01)

Average pressure tensor: 
-------------------------------------------------------------------------------
 4.7173e+01 -3.3360e+01  1.6176e+01 +/- 9.5321e+01 4.3702e+01 5.1787e+01 [bar]
-3.3360e+01 -3.8770e+01 -7.0939e+00 +/- 4.3702e+01 4.6338e+01 7.3955e+01 [bar]
 1.6176e+01 -7.0939e+00  2.7259e+01 +/- 5.1787e+01 7.3955e+01 1.0372e+02 [bar]
Ideal-gas pressure:   4.938020e+02 +/ 8.279094e+00 [bar]
Excess pressure:     -4.819147e+02 +/ 3.741151e+01 [bar]
Pressure:             1.188736e+01 +/ 4.158709e+01 [bar]

Total potential energy/kʙ  -3.776247e+05 (-3.723074e+05 +/- 2.461621e+03) [K]
-------------------------------------------------------------------------------
ExternalField-molecule
    Van der Waals/kʙ        0.000000e+00 ( 0.000000e+00 +/- 0.000000e+00) [K]
Framework-molecule
    Van der Waals/kʙ        0.000000e+00 ( 0.000000e+00 +/- 0.000000e+00) [K]
    Van der Waals (Tail)/kʙ 0.000000e+00 ( 0.000000e+00 +/- 0.000000e+00) [K]
    Coulombic Real/kʙ       0.000000e+00 ( 0.000000e+00 +/- 0.000000e+00) [K]
    Coulombic Fourier/kʙ    0.000000e+00 ( 0.000000e+00 +/- 0.000000e+00) [K]
Molecule-molecule
    Van der Waals/kʙ       -2.634960e+05 (-2.648186e+05 +/- 1.861875e+03) [K]
    Van der Waals (Tail)/kʙ-1.096531e+04 (-1.122834e+04 +/- 5.157241e+01) [K]
    Coulombic Real/kʙ      -8.373460e+04 (-7.768190e+04 +/- 1.070453e+03) [K]
    Coulombic Fourier/kʙ   -1.942883e+04 (-1.857849e+04 +/- 2.719386e+02) [K]
    Molecule Intra/kʙ       0.000000e+00 ( 0.000000e+00 +/- 0.000000e+00) [K]

Current cycle: 5900 out of 6000
===============================================================================

Box:      24.92644   0.00000   0.00000  Average:  25.06907   0.00000   0.00000
           0.00000  24.92644   0.00000             0.00000  25.06907   0.00000
           0.00000   0.00000  24.92644             0.00000   0.00000  25.06907
Lengths:  24.92644  24.92644  24.92644  Average:  25.06907  25.06907  25.06907
Angles:   90.00000  90.00000  90.00000  Average:  90.00000  90.00000  90.00000
Rectangular boundary conditions

net charge:   0.00000000

component 0 (CO2) lambda:  0 occupancy:  0 (0.000000)
    net charge:   0.00000000 [e]

Amount of molecules per component :
-------------------------------------------------------------------------------
Component 0 (CO2)
    molecules:      2.300000e+02 molecules  (2.347983e+02 +/- 3.967780e+00)
    number density: 1.485071e-02 molec./A^3 (1.490662e-02 +/- 2.519151e-04)
    density:        1.085018e+03 kg/m^3     (1.089103e+03 +/- 1.840535e+01)

Average pressure tensor: 
-------------------------------------------------------------------------------
 4.7942e+01 -3.3450e+01  1.2793e+01 +/- 9.3553e+01 4.3690e+01 5.7810e+01 [bar]
-3.3450e+01 -3.8428e+01 -1.0735e+01 +/- 4.3690e+01 4.5617e+01 6.2744e+01 [bar]
 1.2793e+01 -1.0735e+01  2.3146e+01 +/- 5.7810e+01 6.2744e+01 9.4537e+01 [bar]
Ideal-gas pressure:   4.939398e+02 +/ 8.347361e+00 [bar]
Excess pressure:     -4.830533e+02 +/ 3.202971e+01 [bar]
Pressure:             1.088642e+01 +/ 3.654745e+01 [bar]

Total potential energy/kʙ  -3.626109e+05 (-3.723618e+05 +/- 2.126611e+03) [K]
-------------------------------------------------------------------------------
ExternalField-molecule
    Van der Waals/kʙ        0.000000e+00 ( 0.000000e+00 +/- 0.000000e+00) [K]
Framework-molecule
    Van der Waals/kʙ        0.000000e+00 ( 0.000000e+00 +/- 0.000000e+00) [K]
    Van der Waals (Tail)/kʙ 0.000000e+00 ( 0.000000e+00 +/- 0.000000e+00) [K]
    Coulombic Real/kʙ       0.000000e+00 ( 0.000000e+00 +/- 0.000000e+00) [K]
    Coulombic Fourier/kʙ    0.000000e+00 ( 0.000000e+00 +/- 0.000000e+00) [K]
Molecule-molecule
    Van der Waals/kʙ       -2.607034e+05 (-2.648582e+05 +/- 1.701540e+03) [K]
    Van der Waals (Tail)/kʙ-1.095932e+04 (-1.122956e+04 +/- 4.486646e+01) [K]
    Coulombic Real/kʙ      -7.211709e+04 (-7.769393e+04 +/- 1.008763e+03) [K]
    Coulombic Fourier/kʙ   -1.883111e+04 (-1.858005e+04 +/- 2.545141e+02) [K]
    Molecule Intra/kʙ       0.000000e+00 ( 0.000000e+00 +/- 0.000000e+00) [K]


Energy statistics             |  Energy [K]   | Recomputed [K]|  Drift [K]    |
===============================================================================
Total potential energy/kʙ     | -3.700878e+05 | -3.703016e+05 |  2.138443e+02 |
    external field VDW/kʙ     |  0.000000e+00 |  0.000000e+00 |  0.000000e+00 |
    external field Real/kʙ    |  0.000000e+00 |  0.000000e+00 |  0.000000e+00 |
    framework-molecule VDW/kʙ |  0.000000e+00 |  0.000000e+00 |  0.000000e+00 |
    framework-molecule Real/kʙ|  0.000000e+00 |  0.000000e+00 |  0.000000e+00 |
    molecule-molecule VDW/kʙ  | -2.566699e+05 | -2.568835e+05 |  2.135755e+02 |
    molecule-molecule Real/kʙ | -8.338555e+04 | -8.338582e+04 |  2.688045e-01 |
    Van der Waals (Tail)/kʙ   | -1.118293e+04 | -1.118293e+04 |  0.000000e+00 |
    Ewald Fourier/kʙ          |  1.471689e+04 |  1.471689e+04 |  1.093871e-11 |
    Ewald self/kʙ             | -5.134953e+06 | -5.134953e+06 |  0.000000e+00 |
    Ewald exclusion/kʙ        |  5.101386e+06 |  5.101386e+06 |  0.000000e+00 |
    intra VDW/kʙ              |  0.000000e+00 |  0.000000e+00 |  0.000000e+00 |
    intra Coulombic/kʙ        |  0.000000e+00 |  0.000000e+00 |  0.000000e+00 |
    polarization/kʙ           |  0.000000e+00 |  0.000000e+00 |  0.000000e+00 |
    dU/dlambda VDW/kʙ         |  0.000000e+00 |  0.000000e+00 |  0.000000e+00 |
    dU/dlambda Real/kʙ        |  0.000000e+00 |  0.000000e+00 |  0.000000e+00 |
    dU/dlambda Ewald/kʙ       |  0.000000e+00 |  0.000000e+00 |  0.000000e+00 |
-------------------------------------------------------------------------------


Monte-Carlo moves statistics
===============================================================================

    Gibbs volume         all:                3034
    Gibbs volume         total:              5945
    Gibbs volume         constructed:        5945
    Gibbs volume         accepted:           3572
    Gibbs volume         fraction:       0.600841
    Gibbs volume         max-change:     0.041282

Component 0 [CO2]
    Reinsertion (CBMC)   all:              149765
    Reinsertion (CBMC)   total:            149765
    Reinsertion (CBMC)   constructed:      128396
    Reinsertion (CBMC)   accepted:           1285
    Reinsertion (CBMC)   fraction:       0.008580
    Reinsertion (CBMC)   max-change:     0.000000

    Gibbs swap (CBMC)    all:              298032
    Gibbs swap (CBMC)    total:            596904
    Gibbs swap (CBMC)    constructed:      552512
    Gibbs swap (CBMC)    accepted:          22993
    Gibbs swap (CBMC)    fraction:       0.038520
    Gibbs swap (CBMC)    max-change:     0.000000

    Translation          all:              149268
    Translation          total:             49702      49819      49747
    Translation          constructed:       49702      49819      49747
    Translation          accepted:          26352      23326      28520
    Translation          fraction:       0.530200   0.468215   0.573301
    Translation          max-change:     0.613079   0.658683   0.584248

    Rotation             all:              148911
    Rotation             total:             49642      49859      49410
    Rotation             constructed:       49627      49859      49394
    Rotation             accepted:          18772      30659      19262
    Rotation             fraction:       0.378148   0.614914   0.389840
    Rotation             max-change:     0.750338   0.556491   0.752125



Production run counting of the MC moves summed over systems and components
===============================================================================

Reinsertion (CBMC)                   299647 (19.9765 [%])
Gibbs volume                           5945 (0.3963 [%])
Gibbs swap (CBMC)                    596904 (39.7936 [%])
Translation                          298706 (19.9137 [%])
Rotation                             298798 (19.9199 [%])

Production count MC-steps:          1500000 [-]
               All summed:          1500000 [-]
               difference:                0 [-]


Production run CPU timings of the MC moves
===============================================================================

Component 0 CO2

Rotation                             22.658054 [s]
    Ewald                            11.215822 [s]
    ExternalField-Molecule            0.005253 [s]
    Framework-Molecule                0.005942 [s]
    Molecule-Molecule                10.491458 [s]
    Overhead                          0.939579 [s]

Reinsertion (CBMC)                   80.656851 [s]
    Ewald                             9.715381 [s]
    NonEwald                         70.761459 [s]
    Overhead                          0.180011 [s]

Translation                          22.814276 [s]
    Ewald                            11.248188 [s]
    ExternalField-Molecule            0.004854 [s]
    Framework-Molecule                0.011795 [s]
    Molecule-Molecule                10.527600 [s]
    Overhead                          1.021839 [s]



Gibbs swap (CBMC)                   114.139388 [s]
    Ewald                            23.698125 [s]
    NonEwald                         88.538466 [s]
    Tail                              1.208338 [s]

Gibbs volume                         24.410141 [s]
    Ewald                            10.576622 [s]
    NonEwald                         12.756682 [s]
    Tail                              0.915613 [s]

Property sampling                     0.329768 [s]
Energy/pressure sampling:            10.724994 [s]


Production run CPU timings of the MC moves summed over systems and components
===============================================================================


Translation                          30.317584 [s]
    Ewald                            17.249761 [s]
    ExternalField-Molecule            0.009890 [s]
    Framework-Molecule                0.023574 [s]
    Molecule-Molecule                11.130744 [s]
    Overhead                          1.903615 [s]

Rotation                             30.177915 [s]
    Ewald                            17.235808 [s]
    ExternalField-Molecule            0.010770 [s]
    Framework-Molecule                0.011649 [s]
    Molecule-Molecule                11.088828 [s]
    Overhead                          1.830860 [s]

Reinsertion (CBMC)                   95.427122 [s]
    Ewald                            15.788324 [s]
    NonEwald                         78.679403 [s]
    Overhead                          0.959395 [s]

Gibbs volume                         47.815173 [s]
    Ewald                            20.726904 [s]
    NonEwald                         24.981840 [s]
    Tail                              1.793221 [s]
    Overhead                          0.313208 [s]

Gibbs swap (CBMC)                   291.489370 [s]
    Ewald                            51.673191 [s]
    NonEwald                        235.589404 [s]
    Tail                              2.760114 [s]
    Overhead                          1.466661 [s]

Property sampling:                    0.563430 [s]
Energy/pressure sampling:            11.007119 [s]

Production simulation time:         508.143098 [s]
                All summed:         506.797713 [s]
                  Overhead:           1.345385 [s]


Initalization simulation time:      163.905088 [s]
Equilibration simulation time:        0.000000 [s]
Production simulation time:         508.143098 [s]
Total simulation time:              672.048186 [s]


Energy averages and statistics:
===============================================================================

Framework-molecule energy:
-------------------------------------------------------------------------------



Framework-molecule energy contributions per energy type:
-------------------------------------------------------------------------------



Inter-molecular energy:
-------------------------------------------------------------------------------

    Inter-molecular energy/kʙ 0-0 [CO2-CO2]:
    ---------------------------------------------------------------------------
        Block[  0] -3.735541e+05
        Block[  1] -3.733173e+05
        Block[  2] -3.729022e+05
        Block[  3] -3.724641e+05
        Block[  4] -3.697442e+05
        -----------------------------------------------------------------------
        Average  -3.723964e+05 +/-  1.911477e+03 [K]



Inter-molecular energy contributions per energy type:
-------------------------------------------------------------------------------

    Van der Waals energy/kʙ 0-0 [CO2-CO2]:
    ---------------------------------------------------------------------------
        Block[  0] -2.662824e+05
        Block[  1] -2.661912e+05
        Block[  2] -2.640539e+05
        Block[  3] -2.644874e+05
        Block[  4] -2.632082e+05
        -----------------------------------------------------------------------
        Average  -2.648446e+05 +/-  1.678405e+03 [K]

    VDW Tail-Correction energy/kʙ 0-0 [CO2-CO2]:
    ---------------------------------------------------------------------------
        Block[  0] -1.125751e+04
        Block[  1] -1.125888e+04
        Block[  2] -1.123166e+04
        Block[  3] -1.122540e+04
        Block[  4] -1.117255e+04
        -----------------------------------------------------------------------
        Average  -1.122920e+04 +/-  4.350783e+01 [K]

    Coulomb Real energy/kʙ 0-0 [CO2-CO2]:
    ---------------------------------------------------------------------------
        Block[  0] -7.754881e+04
        Block[  1] -7.716614e+04
        Block[  2] -7.880912e+04
        Block[  3] -7.813201e+04
        Block[  4] -7.705461e+04
        -----------------------------------------------------------------------
        Average  -7.774214e+04 +/-  9.064154e+02 [K]

    Coulomb Fourier energy/kʙ 0-0 [CO2-CO2]:
    ---------------------------------------------------------------------------
        Block[  0] -1.846539e+04
        Block[  1] -1.870101e+04
        Block[  2] -1.880750e+04
        Block[  3] -1.861924e+04
        Block[  4] -1.830886e+04
        -----------------------------------------------------------------------
        Average  -1.858040e+04 +/-  2.440583e+02 [K]


Total energy/kʙ
-------------------------------------------------------------------------------
    Block[  0] -3.735541e+05
    Block[  1] -3.733173e+05
    Block[  2] -3.729022e+05
    Block[  3] -3.724641e+05
    Block[  4] -3.697442e+05
    ---------------------------------------------------------------------------
    Average  -3.723964e+05 +/-  1.911477e+03 [K]

Pressure averages and statistics:
===============================================================================

Average pressure tensor: 
-------------------------------------------------------------------------------
 4.9890e+01 -3.0993e+01  1.1296e+01 +/- 9.4375e+01 4.3491e+01 5.8178e+01 [bar]
-3.0993e+01 -3.7316e+01 -9.7629e+00 +/- 4.3491e+01 4.4580e+01 6.2626e+01 [bar]
 1.1296e+01 -9.7629e+00  2.2776e+01 +/- 5.8178e+01 6.2626e+01 9.2668e+01 [bar]

    Block[  0]  5.025084e+07
    Block[  1]  4.928728e+07
    Block[  2]  4.848413e+07
    Block[  3]  4.916277e+07
    Block[  4]  4.982430e+07
    ---------------------------------------------------------------------------
    Ideal gas pressure   4.940186e+07 +/-  5.031570e-02 [Pa]
                         4.940186e+02 +/-  8.355124e+00 [bar]


    Block[  0] -4.789677e+07
    Block[  1] -5.127182e+07
    Block[  2] -4.891834e+07
    Block[  3] -4.890834e+07
    Block[  4] -4.412234e+07
    ---------------------------------------------------------------------------
    Excess pressure  -4.822352e+07 +/-  3.235578e+06 [Pa]
                     -4.822352e+02 +/-  3.235578e+01 [bar]


    Block[  0]  2.354065e+06
    Block[  1] -1.984542e+06
    Block[  2] -4.342101e+05
    Block[  3]  2.544342e+05
    Block[  4]  5.701959e+06
    ---------------------------------------------------------------------------
    Pressure average   1.178341e+06 +/-  3.688175e+06 [Pa]
                       1.178341e+01 +/-  3.688175e+01 [bar]


Enthalpy of adsorption
===============================================================================

Component 0 [CO2]
-------------------------------------------------------------------------------
    Block[  0] -2.299850e+03
    Block[  1] -1.909036e+03
    Block[  2] -2.660866e+03
    Block[  3] -2.226025e+03
    Block[  4] -2.116206e+03
    ---------------------------------------------------------------------------
    Enthalpy of adsorption: -2.242396e+03 +/-  3.432257e+02 [K]
                            -1.864432e+01 +/-  2.853738e+00 [kJ/mol]
    Warning: need to subtract the ideal-gas energy.


Densities
===============================================================================

Component 0 (CO2)
    Block[  0] 231.4675
    Block[  1] 235.98333333333335
    Block[  2] 238.71416666666667
    Block[  3] 236.1125
    Block[  4] 231.4975
    -----------------------------------------------------------------------
    Density average   2.347550e+02 +/-  3.947662e+00 [molecules]
    Density average   1.490900e-02 +/-  2.521494e-04 [molec/A^3]
    Density average   1.089277e+03 +/-  1.842247e+01 [kg.m⁻³]

