Compiler and run-time data
===============================================================================
RASPA 3.0.4

Random seed: 3231080604

Compiled as a 64-bits application
Compiler: gcc Ubuntu Clang 18.1.3 (1ubuntu1)
Compile Date = Mar 15 2025, Compile Time = 19:39:45

2025-06-02 12:44:41.149336
Simulation started on Mon, Jun 02
The start time was 12:44:00

Hostname:    c062
OS type:     Linux on x86_64
OS release:  6.8.0-58-generic
OS version:  #60-Ubuntu SMP PREEMPT_DYNAMIC Fri Mar 14 18:29:48 UTC 2025


Mutual consistent basic set of units:
===============================================================================

Unit of temperature: 1 [K]
Unit of length:      1e-10 [m]
Unit of time:        1e-12 [s]
Unit of mass:        1.6605402e-27 [kg]
Unit of charge:      1.60217733e-19 [C/particle]


Boltzmann constant (internal units):          0.8314464919307584 [-]
represents conversion from energy (internal units) to temperature (in Kelvin)

Derived units and their conversion factors:
===============================================================================

Unit of energy:                           1.6605402000000002e-23 [J]
Unit of energy:                           10.000008872307538 [J.mol⁻¹]
Unit of velocity:                         100 [m.s⁻¹]
Unit of force:                            1.6605402000000002e-13 [N]
Unit of diffusion:                        1.0000000000000002e-08 [m².s⁻¹]
Unit of acceleration:                     1.0000000000000002e-08 [m².s⁻¹]
Unit of torque:                           1.6605402000000002e-23 [N.m]
Unit of pressure:                         16605402 [Pa]
Unit of volume:                           1e-30 [m³]
Unit of density:                          1660.5402 [kg.m⁻³]
Unit of dynamic viscosity:                1.6605401999999997e-05 [N.s.m⁻²]
Unit of enthalpy:                         1.6605402000000002e-23 [J]
Unit of polarizability:                   1.5458657349975198e-35 [-]
Unit of Coulomb potential:                167101.08000665612 [K]
Unit of dielectric constant:              1.5458657349975193e-05 [s².C².kg⁻¹.m⁻³]
Unit of dipole moment:                    1.60217733e-29 [C.m]
Unit of Debye:                            4.803206799099162 [C.m]
Unit of electric potential:               0.00010364272224473431 [V]
Unit of electric field:                   1036427.222447343 [V.m⁻¹]
Unit of isothermal compressibility:       6.02213665167516e-08 [Pa⁻¹]
Unit of heat capacity:                    10.000008872307538 [J.mol⁻¹.K⁻¹]
Unit of volumetric expansion coefficient: 1 [K⁻¹]


Internal conversion factors:
===============================================================================

Energy (internal units) to Kelvin:      1.202724284692786 [-]
Kelvin to energy (internal units):      0.8314457542157567 [-]


System definitions
===============================================================================

Temperature:          250 [K]
Beta:                 0.0048108928702210625 [-]
Pressure:             1.8e+07 [Pa]
Helium void fraction: 1 [-]

Box:      30.00000   0.00000   0.00000
           0.00000  30.00000   0.00000
           0.00000   0.00000  30.00000
Lengths:  30.00000  30.00000  30.00000
Angles:   90.00000  90.00000  90.00000
Rectangular boundary conditions



Property measurement settings
===============================================================================




Pseudo-atoms
===============================================================================

  0 - C_co2    framework-atom: false
  1 - O_co2    framework-atom: false

  0 - C_co2    mass: 12.00000, charge:  0.70000
  1 - O_co2    mass: 15.99940, charge: -0.35000

  0 - C_co2    polarizability:  0.00000
  1 - O_co2    polarizability:  0.00000

  0 - J. J. Potoff et al., AIChE J. 2001, 47, 1676–1682.
  1 - J. J. Potoff et al., AIChE J. 2001, 47, 1676–1682.

Force field status
===============================================================================

Cutoff Framework-Molecule VDW:  12.00000 [Å]
Cutoff Molecule-Molecule VDW:   12.00000 [Å]
Cutoff Coulomb:                 12.00000 [Å]

Overlap-criteria VDW:           1.000000e+05 [K]

C_co2    - C_co2    Lennard-Jones p₀/kʙ:  27.00000 [K], p₁:  2.80000 [Å]
                                  shift:   0.00000 [K], tailcorrections: true
C_co2    - O_co2    Lennard-Jones p₀/kʙ:  46.18441 [K], p₁:  2.92500 [Å]
                                  shift:   0.00000 [K], tailcorrections: true
O_co2    - O_co2    Lennard-Jones p₀/kʙ:  79.00000 [K], p₁:  3.05000 [Å]
                                  shift:   0.00000 [K], tailcorrections: true

Ewald precision: 1e-06
Ewald alpha: 0.26505830360350674
Ewald k-vectors: 8 8 8


Component definitions
===============================================================================

Component 0 [CO2]

    Type: Adsorbate

    Critical temperature:  304.1282 [K]
    Critical pressure:     7377300 [Pa]
    Acentric factor:       0.22394 [-]

    Mol-fraction:                 1 [-]
    Swappable:                   false

    Mass:                         43.9988 [-]
    Bulk fluid density:           0 [-]
    Compressibility:              0 [-]
    Excess molecules:             0 [-]

    Number Of Atoms:    3
    CBMC starting bead: 0
      0: O_co2  position  0.00000 -0.00000  1.16000, charge -0.35000
      1: C_co2  position  0.00000 -0.00000  0.00000, charge  0.70000
      2: O_co2  position  0.00000 -0.00000 -1.16000, charge -0.35000
    Diagonalized inertia-vector:      43.05758528 43.05758528 0.00000000
    Translational degrees of freedom: 3
    Rotational degrees of freedom:    2
    Shape of the molecule is: 'Linear'
    Net-charge:        0.00000000 [e]

    Move probabilities:
    Translation:                   0.331126 [-]
    Random translation:            0.000000 [-]
    Rotation:                      0.331126 [-]
    Random rotation:               0.000000 [-]
    Volume change:                 0.006623 [-]
    Reinsertion (CBMC):            0.331126 [-]
    Identity change (CBMC):        0.000000 [-]
    Swap:                          0.000000 [-]
    Swap (CBMC):                   0.000000 [-]
    Swap (CFCMC):                  0.000000 [-]
    Swap (CB/CFCMC):               0.000000 [-]
    Gibbs volume:                  0.000000 [-]
    Gibbs swap (CBMC):             0.000000 [-]
    Gibbs swap (CFCMC):            0.000000 [-]
    Widom:                         0.000000 [-]
    Widom (CFCMC):                 0.000000 [-]
    Widom (CB/CFCMC):              0.000000 [-]
    Parallel tempering:            0.000000 [-]
    Hybrid MC:                     0.000000 [-]

    number of blocking-pockets: 0

    number of bonds: 0





Number of pseudo-atoms
===============================================================================

Component   0 (CO2)
-------------------------------------------------------------------------------
    index   0 (C_co2): 200 atoms
    index   1 (O_co2): 400 atoms

Total number of pseudo-atoms:
-------------------------------------------------------------------------------
    index   0 (C_co2): 200 atoms
    index   1 (O_co2): 400 atoms




Energy status Recomputed from scratch
===============================================================================

Total potential energy/kʙ       -6.015558e+04 [K]
    external field VDW/kʙ        0.000000e+00 [K]
    external field Real/kʙ       0.000000e+00 [K]
    framework-molecule VDW/kʙ    0.000000e+00 [K]
    framework-molecule Real/kʙ   0.000000e+00 [K]
    molecule-molecule VDW/kʙ    -3.563205e+04 [K]
    molecule-molecule Real/kʙ   -2.089570e+04 [K]
    Van der Waals (Tail)/kʙ     -2.751265e+03 [K]
    Ewald Fourier/kʙ             1.088457e+04 [K]
    Ewald self/kʙ               -3.673356e+06 [K]
    Ewald exclusion/kʙ           3.661595e+06 [K]
    intra VDW/kʙ                 0.000000e+00 [K]
    intra Coulombic/kʙ           0.000000e+00 [K]
    polarization/kʙ              0.000000e+00 [K]
    dU/dlambda VDW/kʙ            0.000000e+00 [K]
    dU/dlambda Real/kʙ           0.000000e+00 [K]
    dU/dlambda Ewald/kʙ          0.000000e+00 [K]





Initialization: Current cycle: 0 out of 1000
===============================================================================

Box:      30.87949   0.00000   0.00000
           0.00000  30.87949   0.00000
           0.00000   0.00000  30.87949
Lengths:  30.87949  30.87949  30.87949
Angles:   90.00000  90.00000  90.00000
Rectangular boundary conditions

net charge:   0.00000000

component   0 (CO2) lambda:  0 occupancy:  1 (1.000000)
    net charge:   0.00000000 [e]

Amount of molecules per component :
-------------------------------------------------------------------------------
Component 0 (CO2)
    molecules:         2.000000e+02 molecules
    number density:    6.792343e-03 molec/A^3
    density:           4.962602e+02 kg/m^3

Total potential energy/kʙ       -1.250396e+05 [K]
-------------------------------------------------------------------------------
    external field VDW/kʙ        0.000000e+00 [K]
    external field Real/kʙ       0.000000e+00 [K]
    framework-molecule VDW/kʙ    0.000000e+00 [K]
    framework-molecule Real/kʙ   0.000000e+00 [K]
    molecule-molecule VDW/kʙ    -9.732880e+04 [K]
    molecule-molecule Real/kʙ   -2.381352e+04 [K]
    Van der Waals (Tail)/kʙ     -2.522817e+03 [K]
    Ewald Fourier/kʙ             1.038664e+04 [K]
    Ewald self/kʙ               -3.673356e+06 [K]
    Ewald exclusion/kʙ           3.661595e+06 [K]
    intra VDW/kʙ                 0.000000e+00 [K]
    intra Coulombic/kʙ           0.000000e+00 [K]
    polarization/kʙ              0.000000e+00 [K]
    dU/dlambda VDW/kʙ            0.000000e+00 [K]
    dU/dlambda Real/kʙ           0.000000e+00 [K]
    dU/dlambda Ewald/kʙ          0.000000e+00 [K]


Initialization: Current cycle: 100 out of 1000
===============================================================================

Box:      26.89780   0.00000   0.00000
           0.00000  26.89780   0.00000
           0.00000   0.00000  26.89780
Lengths:  26.89780  26.89780  26.89780
Angles:   90.00000  90.00000  90.00000
Rectangular boundary conditions

net charge:   0.00000000

component   0 (CO2) lambda:  0 occupancy:  1 (1.000000)
    net charge:   0.00000000 [e]

Amount of molecules per component :
-------------------------------------------------------------------------------
Component 0 (CO2)
    molecules:         2.000000e+02 molecules
    number density:    1.027731e-02 molec/A^3
    density:           7.508782e+02 kg/m^3

Total potential energy/kʙ       -2.232599e+05 [K]
-------------------------------------------------------------------------------
    external field VDW/kʙ        0.000000e+00 [K]
    external field Real/kʙ       0.000000e+00 [K]
    framework-molecule VDW/kʙ    0.000000e+00 [K]
    framework-molecule Real/kʙ   0.000000e+00 [K]
    molecule-molecule VDW/kʙ    -1.634245e+05 [K]
    molecule-molecule Real/kʙ   -5.121219e+04 [K]
    Van der Waals (Tail)/kʙ     -3.817208e+03 [K]
    Ewald Fourier/kʙ             6.955086e+03 [K]
    Ewald self/kʙ               -3.673356e+06 [K]
    Ewald exclusion/kʙ           3.661595e+06 [K]
    intra VDW/kʙ                 0.000000e+00 [K]
    intra Coulombic/kʙ           0.000000e+00 [K]
    polarization/kʙ              0.000000e+00 [K]
    dU/dlambda VDW/kʙ            0.000000e+00 [K]
    dU/dlambda Real/kʙ           0.000000e+00 [K]
    dU/dlambda Ewald/kʙ          0.000000e+00 [K]


Initialization: Current cycle: 200 out of 1000
===============================================================================

Box:      25.07796   0.00000   0.00000
           0.00000  25.07796   0.00000
           0.00000   0.00000  25.07796
Lengths:  25.07796  25.07796  25.07796
Angles:   90.00000  90.00000  90.00000
Rectangular boundary conditions

net charge:   0.00000000

component   0 (CO2) lambda:  0 occupancy:  1 (1.000000)
    net charge:   0.00000000 [e]

Amount of molecules per component :
-------------------------------------------------------------------------------
Component 0 (CO2)
    molecules:         2.000000e+02 molecules
    number density:    1.268100e-02 molec/A^3
    density:           9.264957e+02 kg/m^3

Total potential energy/kʙ       -2.663436e+05 [K]
-------------------------------------------------------------------------------
    external field VDW/kʙ        0.000000e+00 [K]
    external field Real/kʙ       0.000000e+00 [K]
    framework-molecule VDW/kʙ    0.000000e+00 [K]
    framework-molecule Real/kʙ   0.000000e+00 [K]
    molecule-molecule VDW/kʙ    -1.975632e+05 [K]
    molecule-molecule Real/kʙ   -5.824236e+04 [K]
    Van der Waals (Tail)/kʙ     -4.709987e+03 [K]
    Ewald Fourier/kʙ             5.933108e+03 [K]
    Ewald self/kʙ               -3.673356e+06 [K]
    Ewald exclusion/kʙ           3.661595e+06 [K]
    intra VDW/kʙ                 0.000000e+00 [K]
    intra Coulombic/kʙ           0.000000e+00 [K]
    polarization/kʙ              0.000000e+00 [K]
    dU/dlambda VDW/kʙ            0.000000e+00 [K]
    dU/dlambda Real/kʙ           0.000000e+00 [K]
    dU/dlambda Ewald/kʙ          0.000000e+00 [K]


Initialization: Current cycle: 300 out of 1000
===============================================================================

Box:      25.19624   0.00000   0.00000
           0.00000  25.19624   0.00000
           0.00000   0.00000  25.19624
Lengths:  25.19624  25.19624  25.19624
Angles:   90.00000  90.00000  90.00000
Rectangular boundary conditions

net charge:   0.00000000

component   0 (CO2) lambda:  0 occupancy:  1 (1.000000)
    net charge:   0.00000000 [e]

Amount of molecules per component :
-------------------------------------------------------------------------------
Component 0 (CO2)
    molecules:         2.000000e+02 molecules
    number density:    1.250324e-02 molec/A^3
    density:           9.135083e+02 kg/m^3

Total potential energy/kʙ       -2.743164e+05 [K]
-------------------------------------------------------------------------------
    external field VDW/kʙ        0.000000e+00 [K]
    external field Real/kʙ       0.000000e+00 [K]
    framework-molecule VDW/kʙ    0.000000e+00 [K]
    framework-molecule Real/kʙ   0.000000e+00 [K]
    molecule-molecule VDW/kʙ    -2.016721e+05 [K]
    molecule-molecule Real/kʙ   -6.228282e+04 [K]
    Van der Waals (Tail)/kʙ     -4.643964e+03 [K]
    Ewald Fourier/kʙ             6.043615e+03 [K]
    Ewald self/kʙ               -3.673356e+06 [K]
    Ewald exclusion/kʙ           3.661595e+06 [K]
    intra VDW/kʙ                 0.000000e+00 [K]
    intra Coulombic/kʙ           0.000000e+00 [K]
    polarization/kʙ              0.000000e+00 [K]
    dU/dlambda VDW/kʙ            0.000000e+00 [K]
    dU/dlambda Real/kʙ           0.000000e+00 [K]
    dU/dlambda Ewald/kʙ          0.000000e+00 [K]


Initialization: Current cycle: 400 out of 1000
===============================================================================

Box:      24.00755   0.00000   0.00000
           0.00000  24.00755   0.00000
           0.00000   0.00000  24.00755
Lengths:  24.00755  24.00755  24.00755
Angles:   90.00000  90.00000  90.00000
Rectangular boundary conditions

net charge:   0.00000000

component   0 (CO2) lambda:  0 occupancy:  1 (1.000000)
    net charge:   0.00000000 [e]

Amount of molecules per component :
-------------------------------------------------------------------------------
Component 0 (CO2)
    molecules:         2.000000e+02 molecules
    number density:    1.445395e-02 molec/A^3
    density:           1.056030e+03 kg/m^3

Total potential energy/kʙ       -3.047972e+05 [K]
-------------------------------------------------------------------------------
    external field VDW/kʙ        0.000000e+00 [K]
    external field Real/kʙ       0.000000e+00 [K]
    framework-molecule VDW/kʙ    0.000000e+00 [K]
    framework-molecule Real/kʙ   0.000000e+00 [K]
    molecule-molecule VDW/kʙ    -2.220843e+05 [K]
    molecule-molecule Real/kʙ   -7.018270e+04 [K]
    Van der Waals (Tail)/kʙ     -5.368496e+03 [K]
    Ewald Fourier/kʙ             4.599497e+03 [K]
    Ewald self/kʙ               -3.673356e+06 [K]
    Ewald exclusion/kʙ           3.661595e+06 [K]
    intra VDW/kʙ                 0.000000e+00 [K]
    intra Coulombic/kʙ           0.000000e+00 [K]
    polarization/kʙ              0.000000e+00 [K]
    dU/dlambda VDW/kʙ            0.000000e+00 [K]
    dU/dlambda Real/kʙ           0.000000e+00 [K]
    dU/dlambda Ewald/kʙ          0.000000e+00 [K]


Initialization: Current cycle: 500 out of 1000
===============================================================================

Box:      23.74017   0.00000   0.00000
           0.00000  23.74017   0.00000
           0.00000   0.00000  23.74017
Lengths:  23.74017  23.74017  23.74017
Angles:   90.00000  90.00000  90.00000
Rectangular boundary conditions

net charge:   0.00000000

component   0 (CO2) lambda:  0 occupancy:  1 (1.000000)
    net charge:   0.00000000 [e]

Amount of molecules per component :
-------------------------------------------------------------------------------
Component 0 (CO2)
    molecules:         2.000000e+02 molecules
    number density:    1.494784e-02 molec/A^3
    density:           1.092115e+03 kg/m^3

Total potential energy/kʙ       -3.137148e+05 [K]
-------------------------------------------------------------------------------
    external field VDW/kʙ        0.000000e+00 [K]
    external field Real/kʙ       0.000000e+00 [K]
    framework-molecule VDW/kʙ    0.000000e+00 [K]
    framework-molecule Real/kʙ   0.000000e+00 [K]
    molecule-molecule VDW/kʙ    -2.257778e+05 [K]
    molecule-molecule Real/kʙ   -7.525498e+04 [K]
    Van der Waals (Tail)/kʙ     -5.551939e+03 [K]
    Ewald Fourier/kʙ             4.631001e+03 [K]
    Ewald self/kʙ               -3.673356e+06 [K]
    Ewald exclusion/kʙ           3.661595e+06 [K]
    intra VDW/kʙ                 0.000000e+00 [K]
    intra Coulombic/kʙ           0.000000e+00 [K]
    polarization/kʙ              0.000000e+00 [K]
    dU/dlambda VDW/kʙ            0.000000e+00 [K]
    dU/dlambda Real/kʙ           0.000000e+00 [K]
    dU/dlambda Ewald/kʙ          0.000000e+00 [K]


Initialization: Current cycle: 600 out of 1000
===============================================================================

Box:      23.79363   0.00000   0.00000
           0.00000  23.79363   0.00000
           0.00000   0.00000  23.79363
Lengths:  23.79363  23.79363  23.79363
Angles:   90.00000  90.00000  90.00000
Rectangular boundary conditions

net charge:   0.00000000

component   0 (CO2) lambda:  0 occupancy:  1 (1.000000)
    net charge:   0.00000000 [e]

Amount of molecules per component :
-------------------------------------------------------------------------------
Component 0 (CO2)
    molecules:         2.000000e+02 molecules
    number density:    1.484731e-02 molec/A^3
    density:           1.084770e+03 kg/m^3

Total potential energy/kʙ       -3.177842e+05 [K]
-------------------------------------------------------------------------------
    external field VDW/kʙ        0.000000e+00 [K]
    external field Real/kʙ       0.000000e+00 [K]
    framework-molecule VDW/kʙ    0.000000e+00 [K]
    framework-molecule Real/kʙ   0.000000e+00 [K]
    molecule-molecule VDW/kʙ    -2.272310e+05 [K]
    molecule-molecule Real/kʙ   -7.764112e+04 [K]
    Van der Waals (Tail)/kʙ     -5.514601e+03 [K]
    Ewald Fourier/kʙ             4.363608e+03 [K]
    Ewald self/kʙ               -3.673356e+06 [K]
    Ewald exclusion/kʙ           3.661595e+06 [K]
    intra VDW/kʙ                 0.000000e+00 [K]
    intra Coulombic/kʙ           0.000000e+00 [K]
    polarization/kʙ              0.000000e+00 [K]
    dU/dlambda VDW/kʙ            0.000000e+00 [K]
    dU/dlambda Real/kʙ           0.000000e+00 [K]
    dU/dlambda Ewald/kʙ          0.000000e+00 [K]


Initialization: Current cycle: 700 out of 1000
===============================================================================

Box:      23.87227   0.00000   0.00000
           0.00000  23.87227   0.00000
           0.00000   0.00000  23.87227
Lengths:  23.87227  23.87227  23.87227
Angles:   90.00000  90.00000  90.00000
Rectangular boundary conditions

net charge:   0.00000000

component   0 (CO2) lambda:  0 occupancy:  1 (1.000000)
    net charge:   0.00000000 [e]

Amount of molecules per component :
-------------------------------------------------------------------------------
Component 0 (CO2)
    molecules:         2.000000e+02 molecules
    number density:    1.470107e-02 molec/A^3
    density:           1.074085e+03 kg/m^3

Total potential energy/kʙ       -3.152092e+05 [K]
-------------------------------------------------------------------------------
    external field VDW/kʙ        0.000000e+00 [K]
    external field Real/kʙ       0.000000e+00 [K]
    framework-molecule VDW/kʙ    0.000000e+00 [K]
    framework-molecule Real/kʙ   0.000000e+00 [K]
    molecule-molecule VDW/kʙ    -2.258715e+05 [K]
    molecule-molecule Real/kʙ   -7.704062e+04 [K]
    Van der Waals (Tail)/kʙ     -5.460283e+03 [K]
    Ewald Fourier/kʙ             4.924331e+03 [K]
    Ewald self/kʙ               -3.673356e+06 [K]
    Ewald exclusion/kʙ           3.661595e+06 [K]
    intra VDW/kʙ                 0.000000e+00 [K]
    intra Coulombic/kʙ           0.000000e+00 [K]
    polarization/kʙ              0.000000e+00 [K]
    dU/dlambda VDW/kʙ            0.000000e+00 [K]
    dU/dlambda Real/kʙ           0.000000e+00 [K]
    dU/dlambda Ewald/kʙ          0.000000e+00 [K]


Initialization: Current cycle: 800 out of 1000
===============================================================================

Box:      23.81351   0.00000   0.00000
           0.00000  23.81351   0.00000
           0.00000   0.00000  23.81351
Lengths:  23.81351  23.81351  23.81351
Angles:   90.00000  90.00000  90.00000
Rectangular boundary conditions

net charge:   0.00000000

component   0 (CO2) lambda:  0 occupancy:  1 (1.000000)
    net charge:   0.00000000 [e]

Amount of molecules per component :
-------------------------------------------------------------------------------
Component 0 (CO2)
    molecules:         2.000000e+02 molecules
    number density:    1.481017e-02 molec/A^3
    density:           1.082056e+03 kg/m^3

Total potential energy/kʙ       -3.161537e+05 [K]
-------------------------------------------------------------------------------
    external field VDW/kʙ        0.000000e+00 [K]
    external field Real/kʙ       0.000000e+00 [K]
    framework-molecule VDW/kʙ    0.000000e+00 [K]
    framework-molecule Real/kʙ   0.000000e+00 [K]
    molecule-molecule VDW/kʙ    -2.272596e+05 [K]
    molecule-molecule Real/kʙ   -7.621717e+04 [K]
    Van der Waals (Tail)/kʙ     -5.500805e+03 [K]
    Ewald Fourier/kʙ             4.584947e+03 [K]
    Ewald self/kʙ               -3.673356e+06 [K]
    Ewald exclusion/kʙ           3.661595e+06 [K]
    intra VDW/kʙ                 0.000000e+00 [K]
    intra Coulombic/kʙ           0.000000e+00 [K]
    polarization/kʙ              0.000000e+00 [K]
    dU/dlambda VDW/kʙ            0.000000e+00 [K]
    dU/dlambda Real/kʙ           0.000000e+00 [K]
    dU/dlambda Ewald/kʙ          0.000000e+00 [K]


Initialization: Current cycle: 900 out of 1000
===============================================================================

Box:      23.67700   0.00000   0.00000
           0.00000  23.67700   0.00000
           0.00000   0.00000  23.67700
Lengths:  23.67700  23.67700  23.67700
Angles:   90.00000  90.00000  90.00000
Rectangular boundary conditions

net charge:   0.00000000

component   0 (CO2) lambda:  0 occupancy:  1 (1.000000)
    net charge:   0.00000000 [e]

Amount of molecules per component :
-------------------------------------------------------------------------------
Component 0 (CO2)
    molecules:         2.000000e+02 molecules
    number density:    1.506780e-02 molec/A^3
    density:           1.100880e+03 kg/m^3

Total potential energy/kʙ       -3.189532e+05 [K]
-------------------------------------------------------------------------------
    external field VDW/kʙ        0.000000e+00 [K]
    external field Real/kʙ       0.000000e+00 [K]
    framework-molecule VDW/kʙ    0.000000e+00 [K]
    framework-molecule Real/kʙ   0.000000e+00 [K]
    molecule-molecule VDW/kʙ    -2.317886e+05 [K]
    molecule-molecule Real/kʙ   -7.467268e+04 [K]
    Van der Waals (Tail)/kʙ     -5.596496e+03 [K]
    Ewald Fourier/kʙ             4.865683e+03 [K]
    Ewald self/kʙ               -3.673356e+06 [K]
    Ewald exclusion/kʙ           3.661595e+06 [K]
    intra VDW/kʙ                 0.000000e+00 [K]
    intra Coulombic/kʙ           0.000000e+00 [K]
    polarization/kʙ              0.000000e+00 [K]
    dU/dlambda VDW/kʙ            0.000000e+00 [K]
    dU/dlambda Real/kʙ           0.000000e+00 [K]
    dU/dlambda Ewald/kʙ          0.000000e+00 [K]


Current cycle: 0 out of 5000
===============================================================================

Box:      23.70863   0.00000   0.00000  Average:  23.70863   0.00000   0.00000
           0.00000  23.70863   0.00000             0.00000  23.70863   0.00000
           0.00000   0.00000  23.70863             0.00000   0.00000  23.70863
Lengths:  23.70863  23.70863  23.70863  Average:  23.70863  23.70863  23.70863
Angles:   90.00000  90.00000  90.00000  Average:  90.00000  90.00000  90.00000
Rectangular boundary conditions

net charge:   0.00000000

component 0 (CO2) lambda:  0 occupancy:  1 (1.000000)
    net charge:   0.00000000 [e]

Amount of molecules per component :
-------------------------------------------------------------------------------
Component 0 (CO2)
    molecules:      2.000000e+02 molecules  (2.000000e+02 +/- 0.000000e+00)
    number density: 1.500759e-02 molec./A^3 (1.500759e-02 +/- 0.000000e+00)
    density:        1.096480e+03 kg/m^3     (1.096480e+03 +/- 0.000000e+00)

Average pressure tensor: 
-------------------------------------------------------------------------------
 5.1801e+02  0.0000e+00  0.0000e+00 +/- 0.0000e+00 0.0000e+00 0.0000e+00 [bar]
 0.0000e+00  5.1801e+02  0.0000e+00 +/- 0.0000e+00 0.0000e+00 0.0000e+00 [bar]
 0.0000e+00  0.0000e+00  5.1801e+02 +/- 0.0000e+00 0.0000e+00 0.0000e+00 [bar]
Ideal-gas pressure:   5.180057e+02 +/ 0.000000e+00 [bar]
Excess pressure:      0.000000e+00 +/ 0.000000e+00 [bar]
Pressure:             5.180057e+02 +/ 0.000000e+00 [bar]

Total potential energy/kʙ  -3.271176e+05 (-3.271176e+05 +/- 0.000000e+00) [K]
-------------------------------------------------------------------------------
ExternalField-molecule
    Van der Waals/kʙ        0.000000e+00 ( 0.000000e+00 +/- 0.000000e+00) [K]
Framework-molecule
    Van der Waals/kʙ        0.000000e+00 ( 0.000000e+00 +/- 0.000000e+00) [K]
    Van der Waals (Tail)/kʙ 0.000000e+00 ( 0.000000e+00 +/- 0.000000e+00) [K]
    Coulombic Real/kʙ       0.000000e+00 ( 0.000000e+00 +/- 0.000000e+00) [K]
    Coulombic Fourier/kʙ    0.000000e+00 ( 0.000000e+00 +/- 0.000000e+00) [K]
Molecule-molecule
    Van der Waals/kʙ       -2.322099e+05 (-2.322099e+05 +/- 0.000000e+00) [K]
    Van der Waals (Tail)/kʙ-5.574130e+03 (-5.574130e+03 +/- 0.000000e+00) [K]
    Coulombic Real/kʙ      -8.179081e+04 (-8.179081e+04 +/- 0.000000e+00) [K]
    Coulombic Fourier/kʙ   -7.542735e+03 (-7.542735e+03 +/- 0.000000e+00) [K]
    Molecule Intra/kʙ       0.000000e+00 ( 0.000000e+00 +/- 0.000000e+00) [K]

Current cycle: 100 out of 5000
===============================================================================

Box:      23.56547   0.00000   0.00000  Average:  23.69850   0.00000   0.00000
           0.00000  23.56547   0.00000             0.00000  23.69850   0.00000
           0.00000   0.00000  23.56547             0.00000   0.00000  23.69850
Lengths:  23.56547  23.56547  23.56547  Average:  23.69850  23.69850  23.69850
Angles:   90.00000  90.00000  90.00000  Average:  90.00000  90.00000  90.00000
Rectangular boundary conditions

net charge:   0.00000000

component 0 (CO2) lambda:  0 occupancy:  1 (1.000000)
    net charge:   0.00000000 [e]

Amount of molecules per component :
-------------------------------------------------------------------------------
Component 0 (CO2)
    molecules:      2.000000e+02 molecules  (2.000000e+02 +/- 0.000000e+00)
    number density: 1.528275e-02 molec./A^3 (1.502846e-02 +/- 0.000000e+00)
    density:        1.116584e+03 kg/m^3     (1.098005e+03 +/- 0.000000e+00)

Average pressure tensor: 
-------------------------------------------------------------------------------
 2.0812e+02  5.3623e+00 -9.3160e+01 +/- 0.0000e+00 0.0000e+00 0.0000e+00 [bar]
 5.3623e+00  3.1936e+02 -4.3042e+01 +/- 0.0000e+00 0.0000e+00 0.0000e+00 [bar]
-9.3160e+01 -4.3042e+01  1.3068e+02 +/- 0.0000e+00 0.0000e+00 0.0000e+00 [bar]
Ideal-gas pressure:   5.187261e+02 +/ 0.000000e+00 [bar]
Excess pressure:     -2.993393e+02 +/ 0.000000e+00 [bar]
Pressure:             2.193869e+02 +/ 0.000000e+00 [bar]

Total potential energy/kʙ  -3.155202e+05 (-3.174791e+05 +/- 0.000000e+00) [K]
-------------------------------------------------------------------------------
ExternalField-molecule
    Van der Waals/kʙ        0.000000e+00 ( 0.000000e+00 +/- 0.000000e+00) [K]
Framework-molecule
    Van der Waals/kʙ        0.000000e+00 ( 0.000000e+00 +/- 0.000000e+00) [K]
    Van der Waals (Tail)/kʙ 0.000000e+00 ( 0.000000e+00 +/- 0.000000e+00) [K]
    Coulombic Real/kʙ       0.000000e+00 ( 0.000000e+00 +/- 0.000000e+00) [K]
    Coulombic Fourier/kʙ    0.000000e+00 ( 0.000000e+00 +/- 0.000000e+00) [K]
Molecule-molecule
    Van der Waals/kʙ       -2.324665e+05 (-2.286927e+05 +/- 0.000000e+00) [K]
    Van der Waals (Tail)/kʙ-5.676331e+03 (-5.581637e+03 +/- 0.000000e+00) [K]
    Coulombic Real/kʙ      -7.107697e+04 (-7.615659e+04 +/- 0.000000e+00) [K]
    Coulombic Fourier/kʙ   -6.300357e+03 (-7.048097e+03 +/- 0.000000e+00) [K]
    Molecule Intra/kʙ       0.000000e+00 ( 0.000000e+00 +/- 0.000000e+00) [K]

Current cycle: 200 out of 5000
===============================================================================

Box:      23.42224   0.00000   0.00000  Average:  23.67638   0.00000   0.00000
           0.00000  23.42224   0.00000             0.00000  23.67638   0.00000
           0.00000   0.00000  23.42224             0.00000   0.00000  23.67638
Lengths:  23.42224  23.42224  23.42224  Average:  23.67638  23.67638  23.67638
Angles:   90.00000  90.00000  90.00000  Average:  90.00000  90.00000  90.00000
Rectangular boundary conditions

net charge:   0.00000000

component 0 (CO2) lambda:  0 occupancy:  1 (1.000000)
    net charge:   0.00000000 [e]

Amount of molecules per component :
-------------------------------------------------------------------------------
Component 0 (CO2)
    molecules:      2.000000e+02 molecules  (2.000000e+02 +/- 0.000000e+00)
    number density: 1.556485e-02 molec./A^3 (1.507082e-02 +/- 0.000000e+00)
    density:        1.137194e+03 kg/m^3     (1.101100e+03 +/- 0.000000e+00)

Average pressure tensor: 
-------------------------------------------------------------------------------
 1.3614e+02 -1.7942e+00 -4.9513e+01 +/- 0.0000e+00 0.0000e+00 0.0000e+00 [bar]
-1.7942e+00  1.6157e+02 -1.4324e+02 +/- 0.0000e+00 0.0000e+00 0.0000e+00 [bar]
-4.9513e+01 -1.4324e+02  9.7086e+01 +/- 0.0000e+00 0.0000e+00 0.0000e+00 [bar]
Ideal-gas pressure:   5.201885e+02 +/ 0.000000e+00 [bar]
Excess pressure:     -3.885928e+02 +/ 0.000000e+00 [bar]
Pressure:             1.315957e+02 +/ 0.000000e+00 [bar]

Total potential energy/kʙ  -3.297894e+05 (-3.192600e+05 +/- 0.000000e+00) [K]
-------------------------------------------------------------------------------
ExternalField-molecule
    Van der Waals/kʙ        0.000000e+00 ( 0.000000e+00 +/- 0.000000e+00) [K]
Framework-molecule
    Van der Waals/kʙ        0.000000e+00 ( 0.000000e+00 +/- 0.000000e+00) [K]
    Van der Waals (Tail)/kʙ 0.000000e+00 ( 0.000000e+00 +/- 0.000000e+00) [K]
    Coulombic Real/kʙ       0.000000e+00 ( 0.000000e+00 +/- 0.000000e+00) [K]
    Coulombic Fourier/kʙ    0.000000e+00 ( 0.000000e+00 +/- 0.000000e+00) [K]
Molecule-molecule
    Van der Waals/kʙ       -2.345267e+05 (-2.305120e+05 +/- 0.000000e+00) [K]
    Van der Waals (Tail)/kʙ-5.781107e+03 (-5.591591e+03 +/- 0.000000e+00) [K]
    Coulombic Real/kʙ      -8.217872e+04 (-7.617171e+04 +/- 0.000000e+00) [K]
    Coulombic Fourier/kʙ   -7.302874e+03 (-6.984700e+03 +/- 0.000000e+00) [K]
    Molecule Intra/kʙ       0.000000e+00 ( 0.000000e+00 +/- 0.000000e+00) [K]

Current cycle: 300 out of 5000
===============================================================================

Box:      23.65380   0.00000   0.00000  Average:  23.65804   0.00000   0.00000
           0.00000  23.65380   0.00000             0.00000  23.65804   0.00000
           0.00000   0.00000  23.65380             0.00000   0.00000  23.65804
Lengths:  23.65380  23.65380  23.65380  Average:  23.65804  23.65804  23.65804
Angles:   90.00000  90.00000  90.00000  Average:  90.00000  90.00000  90.00000
Rectangular boundary conditions

net charge:   0.00000000

component 0 (CO2) lambda:  0 occupancy:  1 (1.000000)
    net charge:   0.00000000 [e]

Amount of molecules per component :
-------------------------------------------------------------------------------
Component 0 (CO2)
    molecules:      2.000000e+02 molecules  (2.000000e+02 +/- 0.000000e+00)
    number density: 1.511219e-02 molec./A^3 (1.510604e-02 +/- 0.000000e+00)
    density:        1.104123e+03 kg/m^3     (1.103673e+03 +/- 0.000000e+00)

Average pressure tensor: 
-------------------------------------------------------------------------------
 2.1851e+02  4.3812e+01 -9.0089e+01 +/- 0.0000e+00 0.0000e+00 0.0000e+00 [bar]
 4.3812e+01  1.6667e+02 -6.3638e+01 +/- 0.0000e+00 0.0000e+00 0.0000e+00 [bar]
-9.0089e+01 -6.3638e+01  7.8906e+01 +/- 0.0000e+00 0.0000e+00 0.0000e+00 [bar]
Ideal-gas pressure:   5.214038e+02 +/ 0.000000e+00 [bar]
Excess pressure:     -3.667078e+02 +/ 0.000000e+00 [bar]
Pressure:             1.546961e+02 +/ 0.000000e+00 [bar]

Total potential energy/kʙ  -3.176712e+05 (-3.200216e+05 +/- 0.000000e+00) [K]
-------------------------------------------------------------------------------
ExternalField-molecule
    Van der Waals/kʙ        0.000000e+00 ( 0.000000e+00 +/- 0.000000e+00) [K]
Framework-molecule
    Van der Waals/kʙ        0.000000e+00 ( 0.000000e+00 +/- 0.000000e+00) [K]
    Van der Waals (Tail)/kʙ 0.000000e+00 ( 0.000000e+00 +/- 0.000000e+00) [K]
    Coulombic Real/kʙ       0.000000e+00 ( 0.000000e+00 +/- 0.000000e+00) [K]
    Coulombic Fourier/kʙ    0.000000e+00 ( 0.000000e+00 +/- 0.000000e+00) [K]
Molecule-molecule
    Van der Waals/kʙ       -2.276740e+05 (-2.310526e+05 +/- 0.000000e+00) [K]
    Van der Waals (Tail)/kʙ-5.612982e+03 (-5.601776e+03 +/- 0.000000e+00) [K]
    Coulombic Real/kʙ      -7.708756e+04 (-7.643154e+04 +/- 0.000000e+00) [K]
    Coulombic Fourier/kʙ   -7.296672e+03 (-6.935751e+03 +/- 0.000000e+00) [K]
    Molecule Intra/kʙ       0.000000e+00 ( 0.000000e+00 +/- 0.000000e+00) [K]

Current cycle: 400 out of 5000
===============================================================================

Box:      23.84503   0.00000   0.00000  Average:  23.67335   0.00000   0.00000
           0.00000  23.84503   0.00000             0.00000  23.67335   0.00000
           0.00000   0.00000  23.84503             0.00000   0.00000  23.67335
Lengths:  23.84503  23.84503  23.84503  Average:  23.67335  23.67335  23.67335
Angles:   90.00000  90.00000  90.00000  Average:  90.00000  90.00000  90.00000
Rectangular boundary conditions

net charge:   0.00000000

component 0 (CO2) lambda:  0 occupancy:  1 (1.000000)
    net charge:   0.00000000 [e]

Amount of molecules per component :
-------------------------------------------------------------------------------
Component 0 (CO2)
    molecules:      2.000000e+02 molecules  (2.000000e+02 +/- 0.000000e+00)
    number density: 1.475151e-02 molec./A^3 (1.507724e-02 +/- 0.000000e+00)
    density:        1.077771e+03 kg/m^3     (1.101569e+03 +/- 0.000000e+00)

Average pressure tensor: 
-------------------------------------------------------------------------------
 1.5870e+02  4.8922e+01 -1.0293e+02 +/- 0.0000e+00 0.0000e+00 0.0000e+00 [bar]
 4.8922e+01  1.7238e+02 -5.3158e+01 +/- 0.0000e+00 0.0000e+00 0.0000e+00 [bar]
-1.0293e+02 -5.3158e+01 -2.2363e+01 +/- 0.0000e+00 0.0000e+00 0.0000e+00 [bar]
Ideal-gas pressure:   5.204098e+02 +/ 0.000000e+00 [bar]
Excess pressure:     -4.175045e+02 +/ 0.000000e+00 [bar]
Pressure:             1.029053e+02 +/ 0.000000e+00 [bar]

Total potential energy/kʙ  -3.097998e+05 (-3.193950e+05 +/- 0.000000e+00) [K]
-------------------------------------------------------------------------------
ExternalField-molecule
    Van der Waals/kʙ        0.000000e+00 ( 0.000000e+00 +/- 0.000000e+00) [K]
Framework-molecule
    Van der Waals/kʙ        0.000000e+00 ( 0.000000e+00 +/- 0.000000e+00) [K]
    Van der Waals (Tail)/kʙ 0.000000e+00 ( 0.000000e+00 +/- 0.000000e+00) [K]
    Coulombic Real/kʙ       0.000000e+00 ( 0.000000e+00 +/- 0.000000e+00) [K]
    Coulombic Fourier/kʙ    0.000000e+00 ( 0.000000e+00 +/- 0.000000e+00) [K]
Molecule-molecule
    Van der Waals/kʙ       -2.224870e+05 (-2.306160e+05 +/- 0.000000e+00) [K]
    Van der Waals (Tail)/kʙ-5.479018e+03 (-5.586782e+03 +/- 0.000000e+00) [K]
    Coulombic Real/kʙ      -7.441391e+04 (-7.624933e+04 +/- 0.000000e+00) [K]
    Coulombic Fourier/kʙ   -7.419804e+03 (-6.942917e+03 +/- 0.000000e+00) [K]
    Molecule Intra/kʙ       0.000000e+00 ( 0.000000e+00 +/- 0.000000e+00) [K]

Current cycle: 500 out of 5000
===============================================================================

Box:      23.68775   0.00000   0.00000  Average:  23.66515   0.00000   0.00000
           0.00000  23.68775   0.00000             0.00000  23.66515   0.00000
           0.00000   0.00000  23.68775             0.00000   0.00000  23.66515
Lengths:  23.68775  23.68775  23.68775  Average:  23.66515  23.66515  23.66515
Angles:   90.00000  90.00000  90.00000  Average:  90.00000  90.00000  90.00000
Rectangular boundary conditions

net charge:   0.00000000

component 0 (CO2) lambda:  0 occupancy:  1 (1.000000)
    net charge:   0.00000000 [e]

Amount of molecules per component :
-------------------------------------------------------------------------------
Component 0 (CO2)
    molecules:      2.000000e+02 molecules  (2.000000e+02 +/- 0.000000e+00)
    number density: 1.504730e-02 molec./A^3 (1.509305e-02 +/- 0.000000e+00)
    density:        1.099381e+03 kg/m^3     (1.102724e+03 +/- 0.000000e+00)

Average pressure tensor: 
-------------------------------------------------------------------------------
 1.2016e+02  6.3501e+01 -1.6568e+02 +/- 0.0000e+00 0.0000e+00 0.0000e+00 [bar]
 6.3501e+01  2.2120e+02 -5.9345e+01 +/- 0.0000e+00 0.0000e+00 0.0000e+00 [bar]
-1.6568e+02 -5.9345e+01 -5.0784e+01 +/- 0.0000e+00 0.0000e+00 0.0000e+00 [bar]
Ideal-gas pressure:   5.209556e+02 +/ 0.000000e+00 [bar]
Excess pressure:     -4.240973e+02 +/ 0.000000e+00 [bar]
Pressure:             9.685829e+01 +/ 0.000000e+00 [bar]

Total potential energy/kʙ  -3.186146e+05 (-3.200238e+05 +/- 0.000000e+00) [K]
-------------------------------------------------------------------------------
ExternalField-molecule
    Van der Waals/kʙ        0.000000e+00 ( 0.000000e+00 +/- 0.000000e+00) [K]
Framework-molecule
    Van der Waals/kʙ        0.000000e+00 ( 0.000000e+00 +/- 0.000000e+00) [K]
    Van der Waals (Tail)/kʙ 0.000000e+00 ( 0.000000e+00 +/- 0.000000e+00) [K]
    Coulombic Real/kʙ       0.000000e+00 ( 0.000000e+00 +/- 0.000000e+00) [K]
    Coulombic Fourier/kʙ    0.000000e+00 ( 0.000000e+00 +/- 0.000000e+00) [K]
Molecule-molecule
    Van der Waals/kʙ       -2.309320e+05 (-2.306486e+05 +/- 0.000000e+00) [K]
    Van der Waals (Tail)/kʙ-5.588879e+03 (-5.593879e+03 +/- 0.000000e+00) [K]
    Coulombic Real/kʙ      -7.529169e+04 (-7.672073e+04 +/- 0.000000e+00) [K]
    Coulombic Fourier/kʙ   -6.802087e+03 (-7.060565e+03 +/- 0.000000e+00) [K]
    Molecule Intra/kʙ       0.000000e+00 ( 0.000000e+00 +/- 0.000000e+00) [K]

Current cycle: 600 out of 5000
===============================================================================

Box:      23.62652   0.00000   0.00000  Average:  23.66759   0.00000   0.00000
           0.00000  23.62652   0.00000             0.00000  23.66759   0.00000
           0.00000   0.00000  23.62652             0.00000   0.00000  23.66759
Lengths:  23.62652  23.62652  23.62652  Average:  23.66759  23.66759  23.66759
Angles:   90.00000  90.00000  90.00000  Average:  90.00000  90.00000  90.00000
Rectangular boundary conditions

net charge:   0.00000000

component 0 (CO2) lambda:  0 occupancy:  1 (1.000000)
    net charge:   0.00000000 [e]

Amount of molecules per component :
-------------------------------------------------------------------------------
Component 0 (CO2)
    molecules:      2.000000e+02 molecules  (2.000000e+02 +/- 0.000000e+00)
    number density: 1.516460e-02 molec./A^3 (1.508808e-02 +/- 0.000000e+00)
    density:        1.107952e+03 kg/m^3     (1.102361e+03 +/- 0.000000e+00)

Average pressure tensor: 
-------------------------------------------------------------------------------
 6.2683e+01  6.0946e+01 -1.5951e+02 +/- 0.0000e+00 0.0000e+00 0.0000e+00 [bar]
 6.0946e+01  2.2353e+02 -6.7930e+01 +/- 0.0000e+00 0.0000e+00 0.0000e+00 [bar]
-1.5951e+02 -6.7930e+01  4.8923e+01 +/- 0.0000e+00 0.0000e+00 0.0000e+00 [bar]
Ideal-gas pressure:   5.207842e+02 +/ 0.000000e+00 [bar]
Excess pressure:     -4.090714e+02 +/ 0.000000e+00 [bar]
Pressure:             1.117128e+02 +/ 0.000000e+00 [bar]

Total potential energy/kʙ  -3.220546e+05 (-3.202137e+05 +/- 0.000000e+00) [K]
-------------------------------------------------------------------------------
ExternalField-molecule
    Van der Waals/kʙ        0.000000e+00 ( 0.000000e+00 +/- 0.000000e+00) [K]
Framework-molecule
    Van der Waals/kʙ        0.000000e+00 ( 0.000000e+00 +/- 0.000000e+00) [K]
    Van der Waals (Tail)/kʙ 0.000000e+00 ( 0.000000e+00 +/- 0.000000e+00) [K]
    Coulombic Real/kʙ       0.000000e+00 ( 0.000000e+00 +/- 0.000000e+00) [K]
    Coulombic Fourier/kʙ    0.000000e+00 ( 0.000000e+00 +/- 0.000000e+00) [K]
Molecule-molecule
    Van der Waals/kʙ       -2.308349e+05 (-2.305781e+05 +/- 0.000000e+00) [K]
    Van der Waals (Tail)/kʙ-5.632448e+03 (-5.596397e+03 +/- 0.000000e+00) [K]
    Coulombic Real/kʙ      -7.852523e+04 (-7.697740e+04 +/- 0.000000e+00) [K]
    Coulombic Fourier/kʙ   -7.061983e+03 (-7.061847e+03 +/- 0.000000e+00) [K]
    Molecule Intra/kʙ       0.000000e+00 ( 0.000000e+00 +/- 0.000000e+00) [K]

Current cycle: 700 out of 5000
===============================================================================

Box:      23.70571   0.00000   0.00000  Average:  23.66672   0.00000   0.00000
           0.00000  23.70571   0.00000             0.00000  23.66672   0.00000
           0.00000   0.00000  23.70571             0.00000   0.00000  23.66672
Lengths:  23.70571  23.70571  23.70571  Average:  23.66672  23.66672  23.66672
Angles:   90.00000  90.00000  90.00000  Average:  90.00000  90.00000  90.00000
Rectangular boundary conditions

net charge:   0.00000000

component 0 (CO2) lambda:  0 occupancy:  1 (1.000000)
    net charge:   0.00000000 [e]

Amount of molecules per component :
-------------------------------------------------------------------------------
Component 0 (CO2)
    molecules:      2.000000e+02 molecules  (2.000000e+02 +/- 0.000000e+00)
    number density: 1.501312e-02 molec./A^3 (1.508962e-02 +/- 0.000000e+00)
    density:        1.096884e+03 kg/m^3     (1.102473e+03 +/- 0.000000e+00)

Average pressure tensor: 
-------------------------------------------------------------------------------
 1.0198e+02  2.8845e+01 -1.1880e+02 +/- 0.0000e+00 0.0000e+00 0.0000e+00 [bar]
 2.8845e+01  2.0797e+02 -5.9212e+01 +/- 0.0000e+00 0.0000e+00 0.0000e+00 [bar]
-1.1880e+02 -5.9212e+01  6.8190e+01 +/- 0.0000e+00 0.0000e+00 0.0000e+00 [bar]
Ideal-gas pressure:   5.208372e+02 +/ 0.000000e+00 [bar]
Excess pressure:     -3.947908e+02 +/ 0.000000e+00 [bar]
Pressure:             1.260464e+02 +/ 0.000000e+00 [bar]

Total potential energy/kʙ  -3.130105e+05 (-3.203556e+05 +/- 0.000000e+00) [K]
-------------------------------------------------------------------------------
ExternalField-molecule
    Van der Waals/kʙ        0.000000e+00 ( 0.000000e+00 +/- 0.000000e+00) [K]
Framework-molecule
    Van der Waals/kʙ        0.000000e+00 ( 0.000000e+00 +/- 0.000000e+00) [K]
    Van der Waals (Tail)/kʙ 0.000000e+00 ( 0.000000e+00 +/- 0.000000e+00) [K]
    Coulombic Real/kʙ       0.000000e+00 ( 0.000000e+00 +/- 0.000000e+00) [K]
    Coulombic Fourier/kʙ    0.000000e+00 ( 0.000000e+00 +/- 0.000000e+00) [K]
Molecule-molecule
    Van der Waals/kʙ       -2.274289e+05 (-2.305168e+05 +/- 0.000000e+00) [K]
    Van der Waals (Tail)/kʙ-5.576186e+03 (-5.598060e+03 +/- 0.000000e+00) [K]
    Coulombic Real/kʙ      -7.296884e+04 (-7.711274e+04 +/- 0.000000e+00) [K]
    Coulombic Fourier/kʙ   -7.036502e+03 (-7.128046e+03 +/- 0.000000e+00) [K]
    Molecule Intra/kʙ       0.000000e+00 ( 0.000000e+00 +/- 0.000000e+00) [K]

Current cycle: 800 out of 5000
===============================================================================

Box:      23.81878   0.00000   0.00000  Average:  23.67542   0.00000   0.00000
           0.00000  23.81878   0.00000             0.00000  23.67542   0.00000
           0.00000   0.00000  23.81878             0.00000   0.00000  23.67542
Lengths:  23.81878  23.81878  23.81878  Average:  23.67542  23.67542  23.67542
Angles:   90.00000  90.00000  90.00000  Average:  90.00000  90.00000  90.00000
Rectangular boundary conditions

net charge:   0.00000000

component 0 (CO2) lambda:  0 occupancy:  1 (1.000000)
    net charge:   0.00000000 [e]

Amount of molecules per component :
-------------------------------------------------------------------------------
Component 0 (CO2)
    molecules:      2.000000e+02 molecules  (2.000000e+02 +/- 0.000000e+00)
    number density: 1.480033e-02 molec./A^3 (1.507293e-02 +/- 0.000000e+00)
    density:        1.081337e+03 kg/m^3     (1.101254e+03 +/- 0.000000e+00)

Average pressure tensor: 
-------------------------------------------------------------------------------
 1.2357e+02  1.5596e+01 -7.7202e+01 +/- 0.0000e+00 0.0000e+00 0.0000e+00 [bar]
 1.5596e+01  1.9684e+02 -7.0893e+01 +/- 0.0000e+00 0.0000e+00 0.0000e+00 [bar]
-7.7202e+01 -7.0893e+01  7.3947e+01 +/- 0.0000e+00 0.0000e+00 0.0000e+00 [bar]
Ideal-gas pressure:   5.202611e+02 +/ 0.000000e+00 [bar]
Excess pressure:     -3.888083e+02 +/ 0.000000e+00 [bar]
Pressure:             1.314528e+02 +/ 0.000000e+00 [bar]

Total potential energy/kʙ  -3.110722e+05 (-3.199140e+05 +/- 0.000000e+00) [K]
-------------------------------------------------------------------------------
ExternalField-molecule
    Van der Waals/kʙ        0.000000e+00 ( 0.000000e+00 +/- 0.000000e+00) [K]
Framework-molecule
    Van der Waals/kʙ        0.000000e+00 ( 0.000000e+00 +/- 0.000000e+00) [K]
    Van der Waals (Tail)/kʙ 0.000000e+00 ( 0.000000e+00 +/- 0.000000e+00) [K]
    Coulombic Real/kʙ       0.000000e+00 ( 0.000000e+00 +/- 0.000000e+00) [K]
    Coulombic Fourier/kʙ    0.000000e+00 ( 0.000000e+00 +/- 0.000000e+00) [K]
Molecule-molecule
    Van der Waals/kʙ       -2.231772e+05 (-2.300456e+05 +/- 0.000000e+00) [K]
    Van der Waals (Tail)/kʙ-5.497150e+03 (-5.590782e+03 +/- 0.000000e+00) [K]
    Coulombic Real/kʙ      -7.545884e+04 (-7.708973e+04 +/- 0.000000e+00) [K]
    Coulombic Fourier/kʙ   -6.938986e+03 (-7.187922e+03 +/- 0.000000e+00) [K]
    Molecule Intra/kʙ       0.000000e+00 ( 0.000000e+00 +/- 0.000000e+00) [K]

Current cycle: 900 out of 5000
===============================================================================

Box:      23.70516   0.00000   0.00000  Average:  23.69313   0.00000   0.00000
           0.00000  23.70516   0.00000             0.00000  23.69313   0.00000
           0.00000   0.00000  23.70516             0.00000   0.00000  23.69313
Lengths:  23.70516  23.70516  23.70516  Average:  23.69313  23.69313  23.69313
Angles:   90.00000  90.00000  90.00000  Average:  90.00000  90.00000  90.00000
Rectangular boundary conditions

net charge:   0.00000000

component 0 (CO2) lambda:  0 occupancy:  1 (1.000000)
    net charge:   0.00000000 [e]

Amount of molecules per component :
-------------------------------------------------------------------------------
Component 0 (CO2)
    molecules:      2.000000e+02 molecules  (2.000000e+02 +/- 0.000000e+00)
    number density: 1.501417e-02 molec./A^3 (1.503952e-02 +/- 0.000000e+00)
    density:        1.096961e+03 kg/m^3     (1.098813e+03 +/- 0.000000e+00)

Average pressure tensor: 
-------------------------------------------------------------------------------
 1.1299e+02  9.7040e+00 -7.9462e+01 +/- 0.0000e+00 0.0000e+00 0.0000e+00 [bar]
 9.7040e+00  1.6568e+02 -5.9483e+01 +/- 0.0000e+00 0.0000e+00 0.0000e+00 [bar]
-7.9462e+01 -5.9483e+01  8.5079e+01 +/- 0.0000e+00 0.0000e+00 0.0000e+00 [bar]
Ideal-gas pressure:   5.191080e+02 +/ 0.000000e+00 [bar]
Excess pressure:     -3.978564e+02 +/ 0.000000e+00 [bar]
Pressure:             1.212515e+02 +/ 0.000000e+00 [bar]

Total potential energy/kʙ  -3.160089e+05 (-3.189892e+05 +/- 0.000000e+00) [K]
-------------------------------------------------------------------------------
ExternalField-molecule
    Van der Waals/kʙ        0.000000e+00 ( 0.000000e+00 +/- 0.000000e+00) [K]
Framework-molecule
    Van der Waals/kʙ        0.000000e+00 ( 0.000000e+00 +/- 0.000000e+00) [K]
    Van der Waals (Tail)/kʙ 0.000000e+00 ( 0.000000e+00 +/- 0.000000e+00) [K]
    Coulombic Real/kʙ       0.000000e+00 ( 0.000000e+00 +/- 0.000000e+00) [K]
    Coulombic Fourier/kʙ    0.000000e+00 ( 0.000000e+00 +/- 0.000000e+00) [K]
Molecule-molecule
    Van der Waals/kʙ       -2.308879e+05 (-2.295788e+05 +/- 0.000000e+00) [K]
    Van der Waals (Tail)/kʙ-5.576576e+03 (-5.577857e+03 +/- 0.000000e+00) [K]
    Coulombic Real/kʙ      -7.222749e+04 (-7.665354e+04 +/- 0.000000e+00) [K]
    Coulombic Fourier/kʙ   -7.316913e+03 (-7.178991e+03 +/- 0.000000e+00) [K]
    Molecule Intra/kʙ       0.000000e+00 ( 0.000000e+00 +/- 0.000000e+00) [K]

Current cycle: 1000 out of 5000
===============================================================================

Box:      23.86858   0.00000   0.00000  Average:  23.69179   0.00000   0.00000
           0.00000  23.86858   0.00000             0.00000  23.69179   0.00000
           0.00000   0.00000  23.86858             0.00000   0.00000  23.69179
Lengths:  23.86858  23.86858  23.86858  Average:  23.69179  23.69179  23.69179
Angles:   90.00000  90.00000  90.00000  Average:  90.00000  90.00000  90.00000
Rectangular boundary conditions

net charge:   0.00000000

component 0 (CO2) lambda:  0 occupancy:  1 (1.000000)
    net charge:   0.00000000 [e]

Amount of molecules per component :
-------------------------------------------------------------------------------
Component 0 (CO2)
    molecules:      2.000000e+02 molecules  (2.000000e+02 +/- 0.000000e+00)
    number density: 1.470788e-02 molec./A^3 (1.504204e-02 +/- 0.000000e+00)
    density:        1.074583e+03 kg/m^3     (1.098997e+03 +/- 0.000000e+00)

Average pressure tensor: 
-------------------------------------------------------------------------------
 1.2113e+02  1.9914e+01 -6.5659e+01 +/- 0.0000e+00 0.0000e+00 0.0000e+00 [bar]
 1.9914e+01  1.5662e+02 -4.8135e+01 +/- 0.0000e+00 0.0000e+00 0.0000e+00 [bar]
-6.5659e+01 -4.8135e+01  6.3594e+01 +/- 0.0000e+00 0.0000e+00 0.0000e+00 [bar]
Ideal-gas pressure:   5.191949e+02 +/ 0.000000e+00 [bar]
Excess pressure:     -4.054149e+02 +/ 0.000000e+00 [bar]
Pressure:             1.137800e+02 +/ 0.000000e+00 [bar]

Total potential energy/kʙ  -3.096691e+05 (-3.187284e+05 +/- 0.000000e+00) [K]
-------------------------------------------------------------------------------
ExternalField-molecule
    Van der Waals/kʙ        0.000000e+00 ( 0.000000e+00 +/- 0.000000e+00) [K]
Framework-molecule
    Van der Waals/kʙ        0.000000e+00 ( 0.000000e+00 +/- 0.000000e+00) [K]
    Van der Waals (Tail)/kʙ 0.000000e+00 ( 0.000000e+00 +/- 0.000000e+00) [K]
    Coulombic Real/kʙ       0.000000e+00 ( 0.000000e+00 +/- 0.000000e+00) [K]
    Coulombic Fourier/kʙ    0.000000e+00 ( 0.000000e+00 +/- 0.000000e+00) [K]
Molecule-molecule
    Van der Waals/kʙ       -2.257501e+05 (-2.296929e+05 +/- 0.000000e+00) [K]
    Van der Waals (Tail)/kʙ-5.462814e+03 (-5.575178e+03 +/- 0.000000e+00) [K]
    Coulombic Real/kʙ      -7.064953e+04 (-7.626358e+04 +/- 0.000000e+00) [K]
    Coulombic Fourier/kʙ   -7.806673e+03 (-7.196750e+03 +/- 0.000000e+00) [K]
    Molecule Intra/kʙ       0.000000e+00 ( 0.000000e+00 +/- 0.000000e+00) [K]

Current cycle: 1100 out of 5000
===============================================================================

Box:      23.97745   0.00000   0.00000  Average:  23.70052   0.00000   0.00000
           0.00000  23.97745   0.00000             0.00000  23.70052   0.00000
           0.00000   0.00000  23.97745             0.00000   0.00000  23.70052
Lengths:  23.97745  23.97745  23.97745  Average:  23.70052  23.70052  23.70052
Angles:   90.00000  90.00000  90.00000  Average:  90.00000  90.00000  90.00000
Rectangular boundary conditions

net charge:   0.00000000

component 0 (CO2) lambda:  0 occupancy:  1 (1.000000)
    net charge:   0.00000000 [e]

Amount of molecules per component :
-------------------------------------------------------------------------------
Component 0 (CO2)
    molecules:      2.000000e+02 molecules  (2.000000e+02 +/- 0.000000e+00)
    number density: 1.450846e-02 molec./A^3 (1.502546e-02 +/- 0.000000e+00)
    density:        1.060013e+03 kg/m^3     (1.097786e+03 +/- 0.000000e+00)

Average pressure tensor: 
-------------------------------------------------------------------------------
 1.4510e+02  3.9228e+01 -6.3713e+01 +/- 0.0000e+00 0.0000e+00 0.0000e+00 [bar]
 3.9228e+01  1.2204e+02 -3.8120e+01 +/- 0.0000e+00 0.0000e+00 0.0000e+00 [bar]
-6.3713e+01 -3.8120e+01  5.8536e+01 +/- 0.0000e+00 0.0000e+00 0.0000e+00 [bar]
Ideal-gas pressure:   5.186225e+02 +/ 0.000000e+00 [bar]
Excess pressure:     -4.100657e+02 +/ 0.000000e+00 [bar]
Pressure:             1.085569e+02 +/ 0.000000e+00 [bar]

Total potential energy/kʙ  -3.083539e+05 (-3.185250e+05 +/- 0.000000e+00) [K]
-------------------------------------------------------------------------------
ExternalField-molecule
    Van der Waals/kʙ        0.000000e+00 ( 0.000000e+00 +/- 0.000000e+00) [K]
Framework-molecule
    Van der Waals/kʙ        0.000000e+00 ( 0.000000e+00 +/- 0.000000e+00) [K]
    Van der Waals (Tail)/kʙ 0.000000e+00 ( 0.000000e+00 +/- 0.000000e+00) [K]
    Coulombic Real/kʙ       0.000000e+00 ( 0.000000e+00 +/- 0.000000e+00) [K]
    Coulombic Fourier/kʙ    0.000000e+00 ( 0.000000e+00 +/- 0.000000e+00) [K]
Molecule-molecule
    Van der Waals/kʙ       -2.210674e+05 (-2.293768e+05 +/- 0.000000e+00) [K]
    Van der Waals (Tail)/kʙ-5.388743e+03 (-5.569992e+03 +/- 0.000000e+00) [K]
    Coulombic Real/kʙ      -7.471654e+04 (-7.636365e+04 +/- 0.000000e+00) [K]
    Coulombic Fourier/kʙ   -7.181152e+03 (-7.214566e+03 +/- 0.000000e+00) [K]
    Molecule Intra/kʙ       0.000000e+00 ( 0.000000e+00 +/- 0.000000e+00) [K]

Current cycle: 1200 out of 5000
===============================================================================

Box:      23.50432   0.00000   0.00000  Average:  23.69193   0.00000   0.00000
           0.00000  23.50432   0.00000             0.00000  23.69193   0.00000
           0.00000   0.00000  23.50432             0.00000   0.00000  23.69193
Lengths:  23.50432  23.50432  23.50432  Average:  23.69193  23.69193  23.69193
Angles:   90.00000  90.00000  90.00000  Average:  90.00000  90.00000  90.00000
Rectangular boundary conditions

net charge:   0.00000000

component 0 (CO2) lambda:  0 occupancy:  1 (1.000000)
    net charge:   0.00000000 [e]

Amount of molecules per component :
-------------------------------------------------------------------------------
Component 0 (CO2)
    molecules:      2.000000e+02 molecules  (2.000000e+02 +/- 0.000000e+00)
    number density: 1.540236e-02 molec./A^3 (1.504202e-02 +/- 0.000000e+00)
    density:        1.125322e+03 kg/m^3     (1.098996e+03 +/- 0.000000e+00)

Average pressure tensor: 
-------------------------------------------------------------------------------
 1.6265e+02  4.2632e+01 -5.5705e+01 +/- 0.0000e+00 0.0000e+00 0.0000e+00 [bar]
 4.2632e+01  1.4889e+02 -5.5927e+00 +/- 0.0000e+00 0.0000e+00 0.0000e+00 [bar]
-5.5705e+01 -5.5927e+00  8.0267e+01 +/- 0.0000e+00 0.0000e+00 0.0000e+00 [bar]
Ideal-gas pressure:   5.191943e+02 +/ 0.000000e+00 [bar]
Excess pressure:     -3.885927e+02 +/ 0.000000e+00 [bar]
Pressure:             1.306017e+02 +/ 0.000000e+00 [bar]

Total potential energy/kʙ  -3.280910e+05 (-3.187893e+05 +/- 0.000000e+00) [K]
-------------------------------------------------------------------------------
ExternalField-molecule
    Van der Waals/kʙ        0.000000e+00 ( 0.000000e+00 +/- 0.000000e+00) [K]
Framework-molecule
    Van der Waals/kʙ        0.000000e+00 ( 0.000000e+00 +/- 0.000000e+00) [K]
    Van der Waals (Tail)/kʙ 0.000000e+00 ( 0.000000e+00 +/- 0.000000e+00) [K]
    Coulombic Real/kʙ       0.000000e+00 ( 0.000000e+00 +/- 0.000000e+00) [K]
    Coulombic Fourier/kʙ    0.000000e+00 ( 0.000000e+00 +/- 0.000000e+00) [K]
Molecule-molecule
    Van der Waals/kʙ       -2.341990e+05 (-2.297317e+05 +/- 0.000000e+00) [K]
    Van der Waals (Tail)/kʙ-5.720755e+03 (-5.580530e+03 +/- 0.000000e+00) [K]
    Coulombic Real/kʙ      -8.156926e+04 (-7.629950e+04 +/- 0.000000e+00) [K]
    Coulombic Fourier/kʙ   -6.601953e+03 (-7.177586e+03 +/- 0.000000e+00) [K]
    Molecule Intra/kʙ       0.000000e+00 ( 0.000000e+00 +/- 0.000000e+00) [K]

Current cycle: 1300 out of 5000
===============================================================================

Box:      23.84023   0.00000   0.00000  Average:  23.69295   0.00000   0.00000
           0.00000  23.84023   0.00000             0.00000  23.69295   0.00000
           0.00000   0.00000  23.84023             0.00000   0.00000  23.69295
Lengths:  23.84023  23.84023  23.84023  Average:  23.69295  23.69295  23.69295
Angles:   90.00000  90.00000  90.00000  Average:  90.00000  90.00000  90.00000
Rectangular boundary conditions

net charge:   0.00000000

component 0 (CO2) lambda:  0 occupancy:  1 (1.000000)
    net charge:   0.00000000 [e]

Amount of molecules per component :
-------------------------------------------------------------------------------
Component 0 (CO2)
    molecules:      2.000000e+02 molecules  (2.000000e+02 +/- 0.000000e+00)
    number density: 1.476042e-02 molec./A^3 (1.503999e-02 +/- 0.000000e+00)
    density:        1.078422e+03 kg/m^3     (1.098847e+03 +/- 0.000000e+00)

Average pressure tensor: 
-------------------------------------------------------------------------------
 1.9749e+02  4.6719e+01 -3.9017e+01 +/- 0.0000e+00 0.0000e+00 0.0000e+00 [bar]
 4.6719e+01  1.4652e+02 -2.8752e+00 +/- 0.0000e+00 0.0000e+00 0.0000e+00 [bar]
-3.9017e+01 -2.8752e+00  8.4084e+01 +/- 0.0000e+00 0.0000e+00 0.0000e+00 [bar]
Ideal-gas pressure:   5.191242e+02 +/ 0.000000e+00 [bar]
Excess pressure:     -3.764252e+02 +/ 0.000000e+00 [bar]
Pressure:             1.426990e+02 +/ 0.000000e+00 [bar]

Total potential energy/kʙ  -3.214043e+05 (-3.189072e+05 +/- 0.000000e+00) [K]
-------------------------------------------------------------------------------
ExternalField-molecule
    Van der Waals/kʙ        0.000000e+00 ( 0.000000e+00 +/- 0.000000e+00) [K]
Framework-molecule
    Van der Waals/kʙ        0.000000e+00 ( 0.000000e+00 +/- 0.000000e+00) [K]
    Van der Waals (Tail)/kʙ 0.000000e+00 ( 0.000000e+00 +/- 0.000000e+00) [K]
    Coulombic Real/kʙ       0.000000e+00 ( 0.000000e+00 +/- 0.000000e+00) [K]
    Coulombic Fourier/kʙ    0.000000e+00 ( 0.000000e+00 +/- 0.000000e+00) [K]
Molecule-molecule
    Van der Waals/kʙ       -2.294371e+05 (-2.295270e+05 +/- 0.000000e+00) [K]
    Van der Waals (Tail)/kʙ-5.482327e+03 (-5.578876e+03 +/- 0.000000e+00) [K]
    Coulombic Real/kʙ      -7.892710e+04 (-7.662163e+04 +/- 0.000000e+00) [K]
    Coulombic Fourier/kʙ   -7.557852e+03 (-7.179703e+03 +/- 0.000000e+00) [K]
    Molecule Intra/kʙ       0.000000e+00 ( 0.000000e+00 +/- 0.000000e+00) [K]

Current cycle: 1400 out of 5000
===============================================================================

Box:      24.06224   0.00000   0.00000  Average:  23.69789   0.00000   0.00000
           0.00000  24.06224   0.00000             0.00000  23.69789   0.00000
           0.00000   0.00000  24.06224             0.00000   0.00000  23.69789
Lengths:  24.06224  24.06224  24.06224  Average:  23.69789  23.69789  23.69789
Angles:   90.00000  90.00000  90.00000  Average:  90.00000  90.00000  90.00000
Rectangular boundary conditions

net charge:   0.00000000

component 0 (CO2) lambda:  0 occupancy:  1 (1.000000)
    net charge:   0.00000000 [e]

Amount of molecules per component :
-------------------------------------------------------------------------------
Component 0 (CO2)
    molecules:      2.000000e+02 molecules  (2.000000e+02 +/- 0.000000e+00)
    number density: 1.435562e-02 molec./A^3 (1.503069e-02 +/- 0.000000e+00)
    density:        1.048846e+03 kg/m^3     (1.098168e+03 +/- 0.000000e+00)

Average pressure tensor: 
-------------------------------------------------------------------------------
 1.7424e+02  3.5533e+01 -4.8801e+01 +/- 0.0000e+00 0.0000e+00 0.0000e+00 [bar]
 3.5533e+01  1.6423e+02  2.1555e+00 +/- 0.0000e+00 0.0000e+00 0.0000e+00 [bar]
-4.8801e+01  2.1555e+00  7.9147e+01 +/- 0.0000e+00 0.0000e+00 0.0000e+00 [bar]
Ideal-gas pressure:   5.188031e+02 +/ 0.000000e+00 [bar]
Excess pressure:     -3.795991e+02 +/ 0.000000e+00 [bar]
Pressure:             1.392040e+02 +/ 0.000000e+00 [bar]

Total potential energy/kʙ  -2.991660e+05 (-3.185295e+05 +/- 0.000000e+00) [K]
-------------------------------------------------------------------------------
ExternalField-molecule
    Van der Waals/kʙ        0.000000e+00 ( 0.000000e+00 +/- 0.000000e+00) [K]
Framework-molecule
    Van der Waals/kʙ        0.000000e+00 ( 0.000000e+00 +/- 0.000000e+00) [K]
    Van der Waals (Tail)/kʙ 0.000000e+00 ( 0.000000e+00 +/- 0.000000e+00) [K]
    Coulombic Real/kʙ       0.000000e+00 ( 0.000000e+00 +/- 0.000000e+00) [K]
    Coulombic Fourier/kʙ    0.000000e+00 ( 0.000000e+00 +/- 0.000000e+00) [K]
Molecule-molecule
    Van der Waals/kʙ       -2.141245e+05 (-2.292988e+05 +/- 0.000000e+00) [K]
    Van der Waals (Tail)/kʙ-5.331975e+03 (-5.575540e+03 +/- 0.000000e+00) [K]
    Coulombic Real/kʙ      -7.295622e+04 (-7.648679e+04 +/- 0.000000e+00) [K]
    Coulombic Fourier/kʙ   -6.753232e+03 (-7.168357e+03 +/- 0.000000e+00) [K]
    Molecule Intra/kʙ       0.000000e+00 ( 0.000000e+00 +/- 0.000000e+00) [K]

Current cycle: 1500 out of 5000
===============================================================================

Box:      23.89972   0.00000   0.00000  Average:  23.70568   0.00000   0.00000
           0.00000  23.89972   0.00000             0.00000  23.70568   0.00000
           0.00000   0.00000  23.89972             0.00000   0.00000  23.70568
Lengths:  23.89972  23.89972  23.89972  Average:  23.70568  23.70568  23.70568
Angles:   90.00000  90.00000  90.00000  Average:  90.00000  90.00000  90.00000
Rectangular boundary conditions

net charge:   0.00000000

component 0 (CO2) lambda:  0 occupancy:  1 (1.000000)
    net charge:   0.00000000 [e]

Amount of molecules per component :
-------------------------------------------------------------------------------
Component 0 (CO2)
    molecules:      2.000000e+02 molecules  (2.000000e+02 +/- 0.000000e+00)
    number density: 1.465047e-02 molec./A^3 (1.501596e-02 +/- 0.000000e+00)
    density:        1.070388e+03 kg/m^3     (1.097092e+03 +/- 0.000000e+00)

Average pressure tensor: 
-------------------------------------------------------------------------------
 1.8026e+02  2.4539e+01 -4.4229e+01 +/- 0.0000e+00 0.0000e+00 0.0000e+00 [bar]
 2.4539e+01  1.5454e+02 -3.0380e+00 +/- 0.0000e+00 0.0000e+00 0.0000e+00 [bar]
-4.4229e+01 -3.0380e+00  1.0032e+02 +/- 0.0000e+00 0.0000e+00 0.0000e+00 [bar]
Ideal-gas pressure:   5.182948e+02 +/ 0.000000e+00 [bar]
Excess pressure:     -3.732550e+02 +/ 0.000000e+00 [bar]
Pressure:             1.450398e+02 +/ 0.000000e+00 [bar]

Total potential energy/kʙ  -3.109098e+05 (-3.180133e+05 +/- 0.000000e+00) [K]
-------------------------------------------------------------------------------
ExternalField-molecule
    Van der Waals/kʙ        0.000000e+00 ( 0.000000e+00 +/- 0.000000e+00) [K]
Framework-molecule
    Van der Waals/kʙ        0.000000e+00 ( 0.000000e+00 +/- 0.000000e+00) [K]
    Van der Waals (Tail)/kʙ 0.000000e+00 ( 0.000000e+00 +/- 0.000000e+00) [K]
    Coulombic Real/kʙ       0.000000e+00 ( 0.000000e+00 +/- 0.000000e+00) [K]
    Coulombic Fourier/kʙ    0.000000e+00 ( 0.000000e+00 +/- 0.000000e+00) [K]
Molecule-molecule
    Van der Waals/kʙ       -2.266496e+05 (-2.291193e+05 +/- 0.000000e+00) [K]
    Van der Waals (Tail)/kʙ-5.441488e+03 (-5.571128e+03 +/- 0.000000e+00) [K]
    Coulombic Real/kʙ      -7.198765e+04 (-7.617698e+04 +/- 0.000000e+00) [K]
    Coulombic Fourier/kʙ   -6.831121e+03 (-7.145850e+03 +/- 0.000000e+00) [K]
    Molecule Intra/kʙ       0.000000e+00 ( 0.000000e+00 +/- 0.000000e+00) [K]

Current cycle: 1600 out of 5000
===============================================================================

Box:      23.78258   0.00000   0.00000  Average:  23.70848   0.00000   0.00000
           0.00000  23.78258   0.00000             0.00000  23.70848   0.00000
           0.00000   0.00000  23.78258             0.00000   0.00000  23.70848
Lengths:  23.78258  23.78258  23.78258  Average:  23.70848  23.70848  23.70848
Angles:   90.00000  90.00000  90.00000  Average:  90.00000  90.00000  90.00000
Rectangular boundary conditions

net charge:   0.00000000

component 0 (CO2) lambda:  0 occupancy:  1 (1.000000)
    net charge:   0.00000000 [e]

Amount of molecules per component :
-------------------------------------------------------------------------------
Component 0 (CO2)
    molecules:      2.000000e+02 molecules  (2.000000e+02 +/- 0.000000e+00)
    number density: 1.486801e-02 molec./A^3 (1.501059e-02 +/- 0.000000e+00)
    density:        1.086282e+03 kg/m^3     (1.096699e+03 +/- 0.000000e+00)

Average pressure tensor: 
-------------------------------------------------------------------------------
 1.7461e+02  1.4996e+01 -4.0312e+01 +/- 0.0000e+00 0.0000e+00 0.0000e+00 [bar]
 1.4996e+01  1.4494e+02 -7.4381e+00 +/- 0.0000e+00 0.0000e+00 0.0000e+00 [bar]
-4.0312e+01 -7.4381e+00  9.1576e+01 +/- 0.0000e+00 0.0000e+00 0.0000e+00 [bar]
Ideal-gas pressure:   5.181092e+02 +/ 0.000000e+00 [bar]
Excess pressure:     -3.810672e+02 +/ 0.000000e+00 [bar]
Pressure:             1.370420e+02 +/ 0.000000e+00 [bar]

Total potential energy/kʙ  -3.091063e+05 (-3.176783e+05 +/- 0.000000e+00) [K]
-------------------------------------------------------------------------------
ExternalField-molecule
    Van der Waals/kʙ        0.000000e+00 ( 0.000000e+00 +/- 0.000000e+00) [K]
Framework-molecule
    Van der Waals/kʙ        0.000000e+00 ( 0.000000e+00 +/- 0.000000e+00) [K]
    Van der Waals (Tail)/kʙ 0.000000e+00 ( 0.000000e+00 +/- 0.000000e+00) [K]
    Coulombic Real/kʙ       0.000000e+00 ( 0.000000e+00 +/- 0.000000e+00) [K]
    Coulombic Fourier/kʙ    0.000000e+00 ( 0.000000e+00 +/- 0.000000e+00) [K]
Molecule-molecule
    Van der Waals/kʙ       -2.229736e+05 (-2.291240e+05 +/- 0.000000e+00) [K]
    Van der Waals (Tail)/kʙ-5.522288e+03 (-5.569600e+03 +/- 0.000000e+00) [K]
    Coulombic Real/kʙ      -7.347295e+04 (-7.585966e+04 +/- 0.000000e+00) [K]
    Coulombic Fourier/kʙ   -7.137429e+03 (-7.124990e+03 +/- 0.000000e+00) [K]
    Molecule Intra/kʙ       0.000000e+00 ( 0.000000e+00 +/- 0.000000e+00) [K]

Current cycle: 1700 out of 5000
===============================================================================

Box:      23.68643   0.00000   0.00000  Average:  23.70623   0.00000   0.00000
           0.00000  23.68643   0.00000             0.00000  23.70623   0.00000
           0.00000   0.00000  23.68643             0.00000   0.00000  23.70623
Lengths:  23.68643  23.68643  23.68643  Average:  23.70623  23.70623  23.70623
Angles:   90.00000  90.00000  90.00000  Average:  90.00000  90.00000  90.00000
Rectangular boundary conditions

net charge:   0.00000000

component 0 (CO2) lambda:  0 occupancy:  1 (1.000000)
    net charge:   0.00000000 [e]

Amount of molecules per component :
-------------------------------------------------------------------------------
Component 0 (CO2)
    molecules:      2.000000e+02 molecules  (2.000000e+02 +/- 0.000000e+00)
    number density: 1.504982e-02 molec./A^3 (1.501481e-02 +/- 0.000000e+00)
    density:        1.099566e+03 kg/m^3     (1.097008e+03 +/- 0.000000e+00)

Average pressure tensor: 
-------------------------------------------------------------------------------
 1.7240e+02  1.1638e+01 -4.7224e+01 +/- 0.0000e+00 0.0000e+00 0.0000e+00 [bar]
 1.1638e+01  1.4931e+02 -1.2175e+01 +/- 0.0000e+00 0.0000e+00 0.0000e+00 [bar]
-4.7224e+01 -1.2175e+01  9.2662e+01 +/- 0.0000e+00 0.0000e+00 0.0000e+00 [bar]
Ideal-gas pressure:   5.182552e+02 +/ 0.000000e+00 [bar]
Excess pressure:     -3.801297e+02 +/ 0.000000e+00 [bar]
Pressure:             1.381255e+02 +/ 0.000000e+00 [bar]

Total potential energy/kʙ  -3.180090e+05 (-3.177210e+05 +/- 0.000000e+00) [K]
-------------------------------------------------------------------------------
ExternalField-molecule
    Van der Waals/kʙ        0.000000e+00 ( 0.000000e+00 +/- 0.000000e+00) [K]
Framework-molecule
    Van der Waals/kʙ        0.000000e+00 ( 0.000000e+00 +/- 0.000000e+00) [K]
    Van der Waals (Tail)/kʙ 0.000000e+00 ( 0.000000e+00 +/- 0.000000e+00) [K]
    Coulombic Real/kʙ       0.000000e+00 ( 0.000000e+00 +/- 0.000000e+00) [K]
    Coulombic Fourier/kʙ    0.000000e+00 ( 0.000000e+00 +/- 0.000000e+00) [K]
Molecule-molecule
    Van der Waals/kʙ       -2.297617e+05 (-2.291499e+05 +/- 0.000000e+00) [K]
    Van der Waals (Tail)/kʙ-5.589817e+03 (-5.571864e+03 +/- 0.000000e+00) [K]
    Coulombic Real/kʙ      -7.656958e+04 (-7.588856e+04 +/- 0.000000e+00) [K]
    Coulombic Fourier/kʙ   -6.087887e+03 (-7.110681e+03 +/- 0.000000e+00) [K]
    Molecule Intra/kʙ       0.000000e+00 ( 0.000000e+00 +/- 0.000000e+00) [K]

Current cycle: 1800 out of 5000
===============================================================================

Box:      23.82411   0.00000   0.00000  Average:  23.70149   0.00000   0.00000
           0.00000  23.82411   0.00000             0.00000  23.70149   0.00000
           0.00000   0.00000  23.82411             0.00000   0.00000  23.70149
Lengths:  23.82411  23.82411  23.82411  Average:  23.70149  23.70149  23.70149
Angles:   90.00000  90.00000  90.00000  Average:  90.00000  90.00000  90.00000
Rectangular boundary conditions

net charge:   0.00000000

component 0 (CO2) lambda:  0 occupancy:  1 (1.000000)
    net charge:   0.00000000 [e]

Amount of molecules per component :
-------------------------------------------------------------------------------
Component 0 (CO2)
    molecules:      2.000000e+02 molecules  (2.000000e+02 +/- 0.000000e+00)
    number density: 1.479039e-02 molec./A^3 (1.502384e-02 +/- 0.000000e+00)
    density:        1.080612e+03 kg/m^3     (1.097667e+03 +/- 0.000000e+00)

Average pressure tensor: 
-------------------------------------------------------------------------------
 1.6447e+02  7.9862e+00 -4.2857e+01 +/- 0.0000e+00 0.0000e+00 0.0000e+00 [bar]
 7.9862e+00  1.6314e+02 -1.3683e+01 +/- 0.0000e+00 0.0000e+00 0.0000e+00 [bar]
-4.2857e+01 -1.3683e+01  1.0832e+02 +/- 0.0000e+00 0.0000e+00 0.0000e+00 [bar]
Ideal-gas pressure:   5.185666e+02 +/ 0.000000e+00 [bar]
Excess pressure:     -3.732561e+02 +/ 0.000000e+00 [bar]
Pressure:             1.453105e+02 +/ 0.000000e+00 [bar]

Total potential energy/kʙ  -3.098784e+05 (-3.178196e+05 +/- 0.000000e+00) [K]
-------------------------------------------------------------------------------
ExternalField-molecule
    Van der Waals/kʙ        0.000000e+00 ( 0.000000e+00 +/- 0.000000e+00) [K]
Framework-molecule
    Van der Waals/kʙ        0.000000e+00 ( 0.000000e+00 +/- 0.000000e+00) [K]
    Van der Waals (Tail)/kʙ 0.000000e+00 ( 0.000000e+00 +/- 0.000000e+00) [K]
    Coulombic Real/kʙ       0.000000e+00 ( 0.000000e+00 +/- 0.000000e+00) [K]
    Coulombic Fourier/kʙ    0.000000e+00 ( 0.000000e+00 +/- 0.000000e+00) [K]
Molecule-molecule
    Van der Waals/kʙ       -2.231697e+05 (-2.292146e+05 +/- 0.000000e+00) [K]
    Van der Waals (Tail)/kʙ-5.493460e+03 (-5.575638e+03 +/- 0.000000e+00) [K]
    Coulombic Real/kʙ      -7.408982e+04 (-7.591907e+04 +/- 0.000000e+00) [K]
    Coulombic Fourier/kʙ   -7.125369e+03 (-7.110314e+03 +/- 0.000000e+00) [K]
    Molecule Intra/kʙ       0.000000e+00 ( 0.000000e+00 +/- 0.000000e+00) [K]

Current cycle: 1900 out of 5000
===============================================================================

Box:      23.73141   0.00000   0.00000  Average:  23.70009   0.00000   0.00000
           0.00000  23.73141   0.00000             0.00000  23.70009   0.00000
           0.00000   0.00000  23.73141             0.00000   0.00000  23.70009
Lengths:  23.73141  23.73141  23.73141  Average:  23.70009  23.70009  23.70009
Angles:   90.00000  90.00000  90.00000  Average:  90.00000  90.00000  90.00000
Rectangular boundary conditions

net charge:   0.00000000

component 0 (CO2) lambda:  0 occupancy:  1 (1.000000)
    net charge:   0.00000000 [e]

Amount of molecules per component :
-------------------------------------------------------------------------------
Component 0 (CO2)
    molecules:      2.000000e+02 molecules  (2.000000e+02 +/- 0.000000e+00)
    number density: 1.496440e-02 molec./A^3 (1.502642e-02 +/- 0.000000e+00)
    density:        1.093325e+03 kg/m^3     (1.097856e+03 +/- 0.000000e+00)

Average pressure tensor: 
-------------------------------------------------------------------------------
 1.5537e+02  9.2926e+00 -4.8389e+01 +/- 0.0000e+00 0.0000e+00 0.0000e+00 [bar]
 9.2926e+00  1.7188e+02 -1.8193e+01 +/- 0.0000e+00 0.0000e+00 0.0000e+00 [bar]
-4.8389e+01 -1.8193e+01  1.1160e+02 +/- 0.0000e+00 0.0000e+00 0.0000e+00 [bar]
Ideal-gas pressure:   5.186557e+02 +/ 0.000000e+00 [bar]
Excess pressure:     -3.723704e+02 +/ 0.000000e+00 [bar]
Pressure:             1.462853e+02 +/ 0.000000e+00 [bar]

Total potential energy/kʙ  -3.084502e+05 (-3.176036e+05 +/- 0.000000e+00) [K]
-------------------------------------------------------------------------------
ExternalField-molecule
    Van der Waals/kʙ        0.000000e+00 ( 0.000000e+00 +/- 0.000000e+00) [K]
Framework-molecule
    Van der Waals/kʙ        0.000000e+00 ( 0.000000e+00 +/- 0.000000e+00) [K]
    Van der Waals (Tail)/kʙ 0.000000e+00 ( 0.000000e+00 +/- 0.000000e+00) [K]
    Coulombic Real/kʙ       0.000000e+00 ( 0.000000e+00 +/- 0.000000e+00) [K]
    Coulombic Fourier/kʙ    0.000000e+00 ( 0.000000e+00 +/- 0.000000e+00) [K]
Molecule-molecule
    Van der Waals/kʙ       -2.303096e+05 (-2.292154e+05 +/- 0.000000e+00) [K]
    Van der Waals (Tail)/kʙ-5.558090e+03 (-5.576634e+03 +/- 0.000000e+00) [K]
    Coulombic Real/kʙ      -6.526930e+04 (-7.570864e+04 +/- 0.000000e+00) [K]
    Coulombic Fourier/kʙ   -7.313259e+03 (-7.103000e+03 +/- 0.000000e+00) [K]
    Molecule Intra/kʙ       0.000000e+00 ( 0.000000e+00 +/- 0.000000e+00) [K]

Current cycle: 2000 out of 5000
===============================================================================

Box:      23.74415   0.00000   0.00000  Average:  23.70289   0.00000   0.00000
           0.00000  23.74415   0.00000             0.00000  23.70289   0.00000
           0.00000   0.00000  23.74415             0.00000   0.00000  23.70289
Lengths:  23.74415  23.74415  23.74415  Average:  23.70289  23.70289  23.70289
Angles:   90.00000  90.00000  90.00000  Average:  90.00000  90.00000  90.00000
Rectangular boundary conditions

net charge:   0.00000000

component 0 (CO2) lambda:  0 occupancy:  1 (1.000000)
    net charge:   0.00000000 [e]

Amount of molecules per component :
-------------------------------------------------------------------------------
Component 0 (CO2)
    molecules:      2.000000e+02 molecules  (2.000000e+02 +/- 0.000000e+00)
    number density: 1.494033e-02 molec./A^3 (1.502107e-02 +/- 0.000000e+00)
    density:        1.091566e+03 kg/m^3     (1.097465e+03 +/- 0.000000e+00)

Average pressure tensor: 
-------------------------------------------------------------------------------
 1.6936e+02  1.0283e+01 -5.3669e+01 +/- 0.0000e+00 0.0000e+00 0.0000e+00 [bar]
 1.0283e+01  1.7745e+02 -2.1753e+01 +/- 0.0000e+00 0.0000e+00 0.0000e+00 [bar]
-5.3669e+01 -2.1753e+01  1.1960e+02 +/- 0.0000e+00 0.0000e+00 0.0000e+00 [bar]
Ideal-gas pressure:   5.184712e+02 +/ 0.000000e+00 [bar]
Excess pressure:     -3.630007e+02 +/ 0.000000e+00 [bar]
Pressure:             1.554705e+02 +/ 0.000000e+00 [bar]

Total potential energy/kʙ  -3.177795e+05 (-3.171929e+05 +/- 0.000000e+00) [K]
-------------------------------------------------------------------------------
ExternalField-molecule
    Van der Waals/kʙ        0.000000e+00 ( 0.000000e+00 +/- 0.000000e+00) [K]
Framework-molecule
    Van der Waals/kʙ        0.000000e+00 ( 0.000000e+00 +/- 0.000000e+00) [K]
    Van der Waals (Tail)/kʙ 0.000000e+00 ( 0.000000e+00 +/- 0.000000e+00) [K]
    Coulombic Real/kʙ       0.000000e+00 ( 0.000000e+00 +/- 0.000000e+00) [K]
    Coulombic Fourier/kʙ    0.000000e+00 ( 0.000000e+00 +/- 0.000000e+00) [K]
Molecule-molecule
    Van der Waals/kʙ       -2.255299e+05 (-2.289776e+05 +/- 0.000000e+00) [K]
    Van der Waals (Tail)/kʙ-5.549149e+03 (-5.575710e+03 +/- 0.000000e+00) [K]
    Coulombic Real/kʙ      -8.002622e+04 (-7.554979e+04 +/- 0.000000e+00) [K]
    Coulombic Fourier/kʙ   -6.674322e+03 (-7.089847e+03 +/- 0.000000e+00) [K]
    Molecule Intra/kʙ       0.000000e+00 ( 0.000000e+00 +/- 0.000000e+00) [K]

Current cycle: 2100 out of 5000
===============================================================================

Box:      23.60203   0.00000   0.00000  Average:  23.70308   0.00000   0.00000
           0.00000  23.60203   0.00000             0.00000  23.70308   0.00000
           0.00000   0.00000  23.60203             0.00000   0.00000  23.70308
Lengths:  23.60203  23.60203  23.60203  Average:  23.70308  23.70308  23.70308
Angles:   90.00000  90.00000  90.00000  Average:  90.00000  90.00000  90.00000
Rectangular boundary conditions

net charge:   0.00000000

component 0 (CO2) lambda:  0 occupancy:  1 (1.000000)
    net charge:   0.00000000 [e]

Amount of molecules per component :
-------------------------------------------------------------------------------
Component 0 (CO2)
    molecules:      2.000000e+02 molecules  (2.000000e+02 +/- 0.000000e+00)
    number density: 1.521185e-02 molec./A^3 (1.502066e-02 +/- 0.000000e+00)
    density:        1.111404e+03 kg/m^3     (1.097435e+03 +/- 0.000000e+00)

Average pressure tensor: 
-------------------------------------------------------------------------------
 1.7197e+02  1.3880e+01 -5.1025e+01 +/- 0.0000e+00 0.0000e+00 0.0000e+00 [bar]
 1.3880e+01  1.7123e+02 -2.5164e+01 +/- 0.0000e+00 0.0000e+00 0.0000e+00 [bar]
-5.1025e+01 -2.5164e+01  1.1649e+02 +/- 0.0000e+00 0.0000e+00 0.0000e+00 [bar]
Ideal-gas pressure:   5.184571e+02 +/ 0.000000e+00 [bar]
Excess pressure:     -3.652279e+02 +/ 0.000000e+00 [bar]
Pressure:             1.532292e+02 +/ 0.000000e+00 [bar]

Total potential energy/kʙ  -3.294343e+05 (-3.174855e+05 +/- 0.000000e+00) [K]
-------------------------------------------------------------------------------
ExternalField-molecule
    Van der Waals/kʙ        0.000000e+00 ( 0.000000e+00 +/- 0.000000e+00) [K]
Framework-molecule
    Van der Waals/kʙ        0.000000e+00 ( 0.000000e+00 +/- 0.000000e+00) [K]
    Van der Waals (Tail)/kʙ 0.000000e+00 ( 0.000000e+00 +/- 0.000000e+00) [K]
[...]
    Coulombic Fourier/kʙ    0.000000e+00 ( 0.000000e+00 +/- 0.000000e+00) [K]
Molecule-molecule
    Van der Waals/kʙ       -2.201723e+05 (-2.264751e+05 +/- 4.493425e+03) [K]
    Van der Waals (Tail)/kʙ-5.423064e+03 (-5.516049e+03 +/- 8.967826e+01) [K]
    Coulombic Real/kʙ      -6.533844e+04 (-7.407777e+04 +/- 3.014515e+03) [K]
    Coulombic Fourier/kʙ   -6.161087e+03 (-6.900742e+03 +/- 2.551134e+02) [K]
    Molecule Intra/kʙ       0.000000e+00 ( 0.000000e+00 +/- 0.000000e+00) [K]

Current cycle: 4700 out of 5000
===============================================================================

Box:      23.78313   0.00000   0.00000  Average:  23.79591   0.00000   0.00000
           0.00000  23.78313   0.00000             0.00000  23.79591   0.00000
           0.00000   0.00000  23.78313             0.00000   0.00000  23.79591
Lengths:  23.78313  23.78313  23.78313  Average:  23.79591  23.79591  23.79591
Angles:   90.00000  90.00000  90.00000  Average:  90.00000  90.00000  90.00000
Rectangular boundary conditions

net charge:   0.00000000

component 0 (CO2) lambda:  0 occupancy:  1 (1.000000)
    net charge:   0.00000000 [e]

Amount of molecules per component :
-------------------------------------------------------------------------------
Component 0 (CO2)
    molecules:      2.000000e+02 molecules  (2.000000e+02 +/- 0.000000e+00)
    number density: 1.486698e-02 molec./A^3 (1.484779e-02 +/- 2.548051e-04)
    density:        1.086207e+03 kg/m^3     (1.084805e+03 +/- 1.861650e+01)

Average pressure tensor: 
-------------------------------------------------------------------------------
 2.1511e+02 -2.2807e+00 -5.1701e+01 +/- 1.0537e+02 3.2356e+01 1.2740e+01 [bar]
-2.2807e+00  1.5199e+02 -1.0457e+01 +/- 3.2356e+01 5.0416e+01 2.8928e+01 [bar]
-5.1701e+01 -1.0457e+01  1.1996e+02 +/- 1.2740e+01 2.8928e+01 6.9200e+01 [bar]
Ideal-gas pressure:   5.124903e+02 +/ 8.794918e+00 [bar]
Excess pressure:     -3.501392e+02 +/ 4.902739e+01 [bar]
Pressure:             1.623511e+02 +/ 4.389261e+01 [bar]

Total potential energy/kʙ  -3.177692e+05 (-3.128102e+05 +/- 7.433906e+03) [K]
-------------------------------------------------------------------------------
ExternalField-molecule
    Van der Waals/kʙ        0.000000e+00 ( 0.000000e+00 +/- 0.000000e+00) [K]
Framework-molecule
    Van der Waals/kʙ        0.000000e+00 ( 0.000000e+00 +/- 0.000000e+00) [K]
    Van der Waals (Tail)/kʙ 0.000000e+00 ( 0.000000e+00 +/- 0.000000e+00) [K]
    Coulombic Real/kʙ       0.000000e+00 ( 0.000000e+00 +/- 0.000000e+00) [K]
    Coulombic Fourier/kʙ    0.000000e+00 ( 0.000000e+00 +/- 0.000000e+00) [K]
Molecule-molecule
    Van der Waals/kʙ       -2.251305e+05 (-2.263681e+05 +/- 4.402621e+03) [K]
    Van der Waals (Tail)/kʙ-5.521905e+03 (-5.513737e+03 +/- 8.939533e+01) [K]
    Coulombic Real/kʙ      -8.043673e+04 (-7.403069e+04 +/- 2.864789e+03) [K]
    Coulombic Fourier/kʙ   -6.680112e+03 (-6.897699e+03 +/- 2.520680e+02) [K]
    Molecule Intra/kʙ       0.000000e+00 ( 0.000000e+00 +/- 0.000000e+00) [K]

Current cycle: 4800 out of 5000
===============================================================================

Box:      23.74241   0.00000   0.00000  Average:  23.79684   0.00000   0.00000
           0.00000  23.74241   0.00000             0.00000  23.79684   0.00000
           0.00000   0.00000  23.74241             0.00000   0.00000  23.79684
Lengths:  23.74241  23.74241  23.74241  Average:  23.79684  23.79684  23.79684
Angles:   90.00000  90.00000  90.00000  Average:  90.00000  90.00000  90.00000
Rectangular boundary conditions

net charge:   0.00000000

component 0 (CO2) lambda:  0 occupancy:  1 (1.000000)
    net charge:   0.00000000 [e]

Amount of molecules per component :
-------------------------------------------------------------------------------
Component 0 (CO2)
    molecules:      2.000000e+02 molecules  (2.000000e+02 +/- 0.000000e+00)
    number density: 1.494361e-02 molec./A^3 (1.484601e-02 +/- 2.422242e-04)
    density:        1.091806e+03 kg/m^3     (1.084675e+03 +/- 1.769732e+01)

Average pressure tensor: 
-------------------------------------------------------------------------------
 2.2291e+02 -2.4451e+00 -5.1700e+01 +/- 1.1918e+02 3.1174e+01 1.2690e+01 [bar]
-2.4451e+00  1.5411e+02 -9.9987e+00 +/- 3.1174e+01 5.2552e+01 2.8930e+01 [bar]
-5.1700e+01 -9.9987e+00  1.1872e+02 +/- 1.2690e+01 2.8930e+01 6.9273e+01 [bar]
Ideal-gas pressure:   5.124287e+02 +/ 8.360674e+00 [bar]
Excess pressure:     -3.471828e+02 +/ 5.327176e+01 [bar]
Pressure:             1.652459e+02 +/ 4.797826e+01 [bar]

Total potential energy/kʙ  -3.196991e+05 (-3.128389e+05 +/- 6.737779e+03) [K]
-------------------------------------------------------------------------------
ExternalField-molecule
    Van der Waals/kʙ        0.000000e+00 ( 0.000000e+00 +/- 0.000000e+00) [K]
Framework-molecule
    Van der Waals/kʙ        0.000000e+00 ( 0.000000e+00 +/- 0.000000e+00) [K]
    Van der Waals (Tail)/kʙ 0.000000e+00 ( 0.000000e+00 +/- 0.000000e+00) [K]
    Coulombic Real/kʙ       0.000000e+00 ( 0.000000e+00 +/- 0.000000e+00) [K]
    Coulombic Fourier/kʙ    0.000000e+00 ( 0.000000e+00 +/- 0.000000e+00) [K]
Molecule-molecule
    Van der Waals/kʙ       -2.313771e+05 (-2.263200e+05 +/- 4.183215e+03) [K]
    Van der Waals (Tail)/kʙ-5.550367e+03 (-5.513311e+03 +/- 8.469729e+01) [K]
    Coulombic Real/kʙ      -7.631742e+04 (-7.411128e+04 +/- 2.403681e+03) [K]
    Coulombic Fourier/kʙ   -6.454192e+03 (-6.894384e+03 +/- 2.505546e+02) [K]
    Molecule Intra/kʙ       0.000000e+00 ( 0.000000e+00 +/- 0.000000e+00) [K]

Current cycle: 4900 out of 5000
===============================================================================

Box:      23.67887   0.00000   0.00000  Average:  23.79923   0.00000   0.00000
           0.00000  23.67887   0.00000             0.00000  23.79923   0.00000
           0.00000   0.00000  23.67887             0.00000   0.00000  23.79923
Lengths:  23.67887  23.67887  23.67887  Average:  23.79923  23.79923  23.79923
Angles:   90.00000  90.00000  90.00000  Average:  90.00000  90.00000  90.00000
Rectangular boundary conditions

net charge:   0.00000000

component 0 (CO2) lambda:  0 occupancy:  1 (1.000000)
    net charge:   0.00000000 [e]

Amount of molecules per component :
-------------------------------------------------------------------------------
Component 0 (CO2)
    molecules:      2.000000e+02 molecules  (2.000000e+02 +/- 0.000000e+00)
    number density: 1.506423e-02 molec./A^3 (1.484153e-02 +/- 2.392052e-04)
    density:        1.100618e+03 kg/m^3     (1.084347e+03 +/- 1.747674e+01)

Average pressure tensor: 
-------------------------------------------------------------------------------
 2.1872e+02 -2.8899e+00 -5.2123e+01 +/- 1.0108e+02 3.0017e+01 1.2516e+01 [bar]
-2.8899e+00  1.5501e+02 -7.6749e+00 +/- 3.0017e+01 5.2723e+01 3.2056e+01 [bar]
-5.2123e+01 -7.6749e+00  1.1973e+02 +/- 1.2516e+01 3.2056e+01 6.6060e+01 [bar]
Ideal-gas pressure:   5.122740e+02 +/ 8.256470e+00 [bar]
Excess pressure:     -3.477859e+02 +/ 4.986336e+01 [bar]
Pressure:             1.644880e+02 +/ 4.498961e+01 [bar]

Total potential energy/kʙ  -3.240959e+05 (-3.128809e+05 +/- 6.185799e+03) [K]
-------------------------------------------------------------------------------
ExternalField-molecule
    Van der Waals/kʙ        0.000000e+00 ( 0.000000e+00 +/- 0.000000e+00) [K]
Framework-molecule
    Van der Waals/kʙ        0.000000e+00 ( 0.000000e+00 +/- 0.000000e+00) [K]
    Van der Waals (Tail)/kʙ 0.000000e+00 ( 0.000000e+00 +/- 0.000000e+00) [K]
    Coulombic Real/kʙ       0.000000e+00 ( 0.000000e+00 +/- 0.000000e+00) [K]
    Coulombic Fourier/kʙ    0.000000e+00 ( 0.000000e+00 +/- 0.000000e+00) [K]
Molecule-molecule
    Van der Waals/kʙ       -2.329481e+05 (-2.262592e+05 +/- 4.055757e+03) [K]
    Van der Waals (Tail)/kʙ-5.595167e+03 (-5.511550e+03 +/- 8.420808e+01) [K]
    Coulombic Real/kʙ      -7.821017e+04 (-7.421758e+04 +/- 2.009830e+03) [K]
    Coulombic Fourier/kʙ   -7.342448e+03 (-6.892549e+03 +/- 2.474965e+02) [K]
    Molecule Intra/kʙ       0.000000e+00 ( 0.000000e+00 +/- 0.000000e+00) [K]


Energy statistics             |  Energy [K]   | Recomputed [K]|  Drift [K]    |
===============================================================================
Total potential energy/kʙ     | -3.091680e+05 | -3.091680e+05 | -8.291545e-10 |
    external field VDW/kʙ     |  0.000000e+00 |  0.000000e+00 |  0.000000e+00 |
    external field Real/kʙ    |  0.000000e+00 |  0.000000e+00 |  0.000000e+00 |
    framework-molecule VDW/kʙ |  0.000000e+00 |  0.000000e+00 |  0.000000e+00 |
    framework-molecule Real/kʙ|  0.000000e+00 |  0.000000e+00 |  0.000000e+00 |
    molecule-molecule VDW/kʙ  | -2.240704e+05 | -2.240704e+05 | -9.451049e-10 |
    molecule-molecule Real/kʙ | -7.308504e+04 | -7.308504e+04 |  1.312646e-10 |
    Van der Waals (Tail)/kʙ   | -5.696111e+03 | -5.696111e+03 |  0.000000e+00 |
    Ewald Fourier/kʙ          |  5.444669e+03 |  5.444669e+03 | -1.531420e-11 |
    Ewald self/kʙ             | -3.673356e+06 | -3.673356e+06 |  0.000000e+00 |
    Ewald exclusion/kʙ        |  3.661595e+06 |  3.661595e+06 |  0.000000e+00 |
    intra VDW/kʙ              |  0.000000e+00 |  0.000000e+00 |  0.000000e+00 |
    intra Coulombic/kʙ        |  0.000000e+00 |  0.000000e+00 |  0.000000e+00 |
    polarization/kʙ           |  0.000000e+00 |  0.000000e+00 |  0.000000e+00 |
    dU/dlambda VDW/kʙ         |  0.000000e+00 |  0.000000e+00 |  0.000000e+00 |
    dU/dlambda Real/kʙ        |  0.000000e+00 |  0.000000e+00 |  0.000000e+00 |
    dU/dlambda Ewald/kʙ       |  0.000000e+00 |  0.000000e+00 |  0.000000e+00 |
-------------------------------------------------------------------------------


Monte-Carlo moves statistics
===============================================================================

    Volume change        all:                6709
    Volume change        total:              6709
    Volume change        constructed:        6709
    Volume change        accepted:           1943
    Volume change        fraction:       0.289611
    Volume change        max-change:     0.050000

Component 0 [CO2]
    Reinsertion (CBMC)   all:              331122
    Reinsertion (CBMC)   total:            331122
    Reinsertion (CBMC)   constructed:      288006
    Reinsertion (CBMC)   accepted:           3315
    Reinsertion (CBMC)   fraction:       0.010011
    Reinsertion (CBMC)   max-change:     0.000000

    Translation          all:              330853
    Translation          total:            110424     110196     110233
    Translation          constructed:      110424     110195     110214
    Translation          accepted:          51113      51490      40976
    Translation          fraction:       0.462879   0.467258   0.371722
    Translation          max-change:     0.714286   0.714286   0.959436

    Rotation             all:              331316
    Rotation             total:            110712     110152     110452
    Rotation             constructed:      110712     110145     110452
    Rotation             accepted:          51884      45470      53803
    Rotation             fraction:       0.468639   0.412793   0.487117
    Rotation             max-change:     0.750000   0.905350   0.695652



Production run counting of the MC moves summed over systems and components
===============================================================================

Volume change                          6709 (0.6709 [%])
Reinsertion (CBMC)                   331122 (33.1122 [%])
Translation                          330853 (33.0853 [%])
Rotation                             331316 (33.1316 [%])

Production count MC-steps:          1000000 [-]
               All summed:          1000000 [-]
               difference:                0 [-]


Production run CPU timings of the MC moves
===============================================================================

Component 0 CO2

Rotation                             46.963705 [s]
    Ewald                            13.318559 [s]
    ExternalField-Molecule            0.010605 [s]
    Framework-Molecule                0.011748 [s]
    Molecule-Molecule                32.506850 [s]
    Overhead                          1.115943 [s]

Reinsertion (CBMC)                  220.754392 [s]
    Ewald                            11.683549 [s]
    NonEwald                        208.781546 [s]
    Overhead                          0.289297 [s]

Translation                          46.871712 [s]
    Ewald                            13.277638 [s]
    ExternalField-Molecule            0.010139 [s]
    Framework-Molecule                0.020168 [s]
    Molecule-Molecule                32.523852 [s]
    Overhead                          1.039915 [s]



Volume change                         47.702316 [s]
    Ewald                              9.780082 [s]
    NonEwald                          36.454339 [s]
    Tail                               1.261660 [s]

Property sampling                     0.284971 [s]
Energy/pressure sampling:             6.349665 [s]


Production run CPU timings of the MC moves summed over systems and components
===============================================================================


Translation                          46.871712 [s]
    Ewald                            13.277638 [s]
    ExternalField-Molecule            0.010139 [s]
    Framework-Molecule                0.020168 [s]
    Molecule-Molecule                32.523852 [s]
    Overhead                          1.039915 [s]

Rotation                             46.963705 [s]
    Ewald                            13.318559 [s]
    ExternalField-Molecule            0.010605 [s]
    Framework-Molecule                0.011748 [s]
    Molecule-Molecule                32.506850 [s]
    Overhead                          1.115943 [s]

Volume change                        47.702316 [s]
    Ewald                             9.780082 [s]
    NonEwald                         36.454339 [s]
    Tail                              1.261660 [s]
    Overhead                          0.206235 [s]

Reinsertion (CBMC)                  220.754392 [s]
    Ewald                            11.683549 [s]
    NonEwald                        208.781546 [s]
    Overhead                          0.289297 [s]

Property sampling:                    0.284971 [s]
Energy/pressure sampling:             6.349665 [s]

Production simulation time:         369.605279 [s]
                All summed:         368.926761 [s]
                  Overhead:           0.678518 [s]


Initalization simulation time:       71.943629 [s]
Equilibration simulation time:        0.000000 [s]
Production simulation time:         369.605279 [s]
Total simulation time:              441.548908 [s]


Energy averages and statistics:
===============================================================================

Framework-molecule energy:
-------------------------------------------------------------------------------



Framework-molecule energy contributions per energy type:
-------------------------------------------------------------------------------



Inter-molecular energy:
-------------------------------------------------------------------------------

    Inter-molecular energy/kʙ 0-0 [CO2-CO2]:
    ---------------------------------------------------------------------------
        Block[  0] -3.188190e+05
        Block[  1] -3.155610e+05
        Block[  2] -3.118348e+05
        Block[  3] -3.120635e+05
        Block[  4] -3.064844e+05
        -----------------------------------------------------------------------
        Average  -3.129525e+05 +/-  5.726122e+03 [K]



Inter-molecular energy contributions per energy type:
-------------------------------------------------------------------------------

    Van der Waals energy/kʙ 0-0 [CO2-CO2]:
    ---------------------------------------------------------------------------
        Block[  0] -2.297324e+05
        Block[  1] -2.282573e+05
        Block[  2] -2.250054e+05
        Block[  3] -2.265877e+05
        Block[  4] -2.220789e+05
        -----------------------------------------------------------------------
        Average  -2.263323e+05 +/-  3.681908e+03 [K]

    VDW Tail-Correction energy/kʙ 0-0 [CO2-CO2]:
    ---------------------------------------------------------------------------
        Block[  0] -5.576302e+03
        Block[  1] -5.575384e+03
        Block[  2] -5.470792e+03
        Block[  3] -5.507412e+03
        Block[  4] -5.435172e+03
        -----------------------------------------------------------------------
        Average  -5.513012e+03 +/-  7.794782e+01 [K]

    Coulomb Real energy/kʙ 0-0 [CO2-CO2]:
    ---------------------------------------------------------------------------
        Block[  0] -7.631972e+04
        Block[  1] -7.473510e+04
        Block[  2] -7.456702e+04
        Block[  3] -7.321481e+04
        Block[  4] -7.227372e+04
        -----------------------------------------------------------------------
        Average  -7.422207e+04 +/-  1.922565e+03 [K]

    Coulomb Fourier energy/kʙ 0-0 [CO2-CO2]:
    ---------------------------------------------------------------------------
        Block[  0] -7.190651e+03
        Block[  1] -6.993199e+03
        Block[  2] -6.791629e+03
        Block[  3] -6.753648e+03
        Block[  4] -6.696567e+03
        -----------------------------------------------------------------------
        Average  -6.885139e+03 +/-  2.533683e+02 [K]


Total energy/kʙ
-------------------------------------------------------------------------------
    Block[  0] -3.188190e+05
    Block[  1] -3.155610e+05
    Block[  2] -3.118348e+05
    Block[  3] -3.120635e+05
    Block[  4] -3.064844e+05
    ---------------------------------------------------------------------------
    Average  -3.129525e+05 +/-  5.726122e+03 [K]

Pressure averages and statistics:
===============================================================================

Average pressure tensor: 
-------------------------------------------------------------------------------
 2.1646e+02 -1.1764e+00 -5.0475e+01 +/- 9.1582e+01 3.1694e+01 1.3550e+01 [bar]
-1.1764e+00  1.5882e+02 -6.8388e+00 +/- 3.1694e+01 5.7283e+01 3.2504e+01 [bar]
-5.0475e+01 -6.8388e+00  1.2731e+02 +/- 1.3550e+01 3.2504e+01 5.9225e+01 [bar]

    Block[  0]  5.192064e+07
    Block[  1]  5.177388e+07
    Block[  2]  5.084121e+07
    Block[  3]  5.119967e+07
    Block[  4]  5.046052e+07
    ---------------------------------------------------------------------------
    Ideal gas pressure   5.123918e+07 +/-  4.603447e-02 [Pa]
                         5.123918e+02 +/-  7.644209e+00 [bar]


    Block[  0] -4.055444e+07
    Block[  1] -3.206505e+07
    Block[  2] -3.412248e+07
    Block[  3] -3.645745e+07
    Block[  4] -2.923170e+07
    ---------------------------------------------------------------------------
    Excess pressure  -3.448622e+07 +/-  5.351037e+06 [Pa]
                     -3.448622e+02 +/-  5.351037e+01 [bar]


    Block[  0]  1.136620e+07
    Block[  1]  1.970883e+07
    Block[  2]  1.671874e+07
    Block[  3]  1.474222e+07
    Block[  4]  2.122882e+07
    ---------------------------------------------------------------------------
    Pressure average   1.675296e+07 +/-  4.881020e+06 [Pa]
                       1.675296e+02 +/-  4.881020e+01 [bar]


Enthalpy of adsorption
===============================================================================

No fluctuating components present.


Densities
===============================================================================

Component 0 (CO2)
    Block[  0] 200
    Block[  1] 200
    Block[  2] 200
    Block[  3] 200
    Block[  4] 200
    -----------------------------------------------------------------------
    Density average   2.000000e+02 +/-  0.000000e+00 [molecules]
    Density average   1.484494e-02 +/-  2.214669e-04 [molec/A^3]
    Density average   1.084597e+03 +/-  1.618075e+01 [kg.m⁻³]

