Compiler and run-time data
===============================================================================
RASPA 3.0.4

Random seed: 2080113781

Compiled as a 64-bits application
Compiler: gcc Ubuntu Clang 18.1.3 (1ubuntu1)
Compile Date = Mar 15 2025, Compile Time = 19:39:45

2025-06-02 13:38:55.146376
Simulation started on Mon, Jun 02
The start time was 13:38:00

Hostname:    c060
OS type:     Linux on x86_64
OS release:  6.8.0-58-generic
OS version:  #60-Ubuntu SMP PREEMPT_DYNAMIC Fri Mar 14 18:29:48 UTC 2025


Mutual consistent basic set of units:
===============================================================================

Unit of temperature: 1 [K]
Unit of length:      1e-10 [m]
Unit of time:        1e-12 [s]
Unit of mass:        1.6605402e-27 [kg]
Unit of charge:      1.60217733e-19 [C/particle]


Boltzmann constant (internal units):          0.8314464919307584 [-]
represents conversion from energy (internal units) to temperature (in Kelvin)

Derived units and their conversion factors:
===============================================================================

Unit of energy:                           1.6605402000000002e-23 [J]
Unit of energy:                           10.000008872307538 [J.mol⁻¹]
Unit of velocity:                         100 [m.s⁻¹]
Unit of force:                            1.6605402000000002e-13 [N]
Unit of diffusion:                        1.0000000000000002e-08 [m².s⁻¹]
Unit of acceleration:                     1.0000000000000002e-08 [m².s⁻¹]
Unit of torque:                           1.6605402000000002e-23 [N.m]
Unit of pressure:                         16605402 [Pa]
Unit of volume:                           1e-30 [m³]
Unit of density:                          1660.5402 [kg.m⁻³]
Unit of dynamic viscosity:                1.6605401999999997e-05 [N.s.m⁻²]
Unit of enthalpy:                         1.6605402000000002e-23 [J]
Unit of polarizability:                   1.5458657349975198e-35 [-]
Unit of Coulomb potential:                167101.08000665612 [K]
Unit of dielectric constant:              1.5458657349975193e-05 [s².C².kg⁻¹.m⁻³]
Unit of dipole moment:                    1.60217733e-29 [C.m]
Unit of Debye:                            4.803206799099162 [C.m]
Unit of electric potential:               0.00010364272224473431 [V]
Unit of electric field:                   1036427.222447343 [V.m⁻¹]
Unit of isothermal compressibility:       6.02213665167516e-08 [Pa⁻¹]
Unit of heat capacity:                    10.000008872307538 [J.mol⁻¹.K⁻¹]
Unit of volumetric expansion coefficient: 1 [K⁻¹]


Internal conversion factors:
===============================================================================

Energy (internal units) to Kelvin:      1.202724284692786 [-]
Kelvin to energy (internal units):      0.8314457542157567 [-]


System definitions
===============================================================================

Temperature:          250 [K]
Beta:                 0.0048108928702210625 [-]
Pressure:             4e+06 [Pa]
Helium void fraction: 1 [-]

Box:      30.00000   0.00000   0.00000
           0.00000  30.00000   0.00000
           0.00000   0.00000  30.00000
Lengths:  30.00000  30.00000  30.00000
Angles:   90.00000  90.00000  90.00000
Rectangular boundary conditions



Property measurement settings
===============================================================================




Pseudo-atoms
===============================================================================

  0 - C_co2    framework-atom: false
  1 - O_co2    framework-atom: false

  0 - C_co2    mass: 12.00000, charge:  0.70000
  1 - O_co2    mass: 15.99940, charge: -0.35000

  0 - C_co2    polarizability:  0.00000
  1 - O_co2    polarizability:  0.00000

  0 - J. J. Potoff et al., AIChE J. 2001, 47, 1676–1682.
  1 - J. J. Potoff et al., AIChE J. 2001, 47, 1676–1682.

Force field status
===============================================================================

Cutoff Framework-Molecule VDW:  10.00000 [Å]
Cutoff Molecule-Molecule VDW:   10.00000 [Å]
Cutoff Coulomb:                 10.00000 [Å]

Overlap-criteria VDW:           1.000000e+05 [K]

C_co2    - C_co2    Lennard-Jones p₀/kʙ:  27.00000 [K], p₁:  2.80000 [Å]
                                  shift:   0.00000 [K], tailcorrections: true
C_co2    - O_co2    Lennard-Jones p₀/kʙ:  46.18441 [K], p₁:  2.92500 [Å]
                                  shift:   0.00000 [K], tailcorrections: true
O_co2    - O_co2    Lennard-Jones p₀/kʙ:  79.00000 [K], p₁:  3.05000 [Å]
                                  shift:   0.00000 [K], tailcorrections: true

Ewald precision: 1e-06
Ewald alpha: 0.32079885109097883
Ewald k-vectors: 10 10 10


Component definitions
===============================================================================

Component 0 [CO2]

    Type: Adsorbate

    Critical temperature:  304.1282 [K]
    Critical pressure:     7377300 [Pa]
    Acentric factor:       0.22394 [-]

    Mol-fraction:                 1 [-]
    Swappable:                   false

    Mass:                         43.9988 [-]
    Bulk fluid density:           0 [-]
    Compressibility:              0 [-]
    Excess molecules:             0 [-]

    Number Of Atoms:    3
    CBMC starting bead: 0
      0: O_co2  position  0.00000 -0.00000  1.16000, charge -0.35000
      1: C_co2  position  0.00000 -0.00000  0.00000, charge  0.70000
      2: O_co2  position  0.00000 -0.00000 -1.16000, charge -0.35000
    Diagonalized inertia-vector:      43.05758528 43.05758528 0.00000000
    Translational degrees of freedom: 3
    Rotational degrees of freedom:    2
    Shape of the molecule is: 'Linear'
    Net-charge:        0.00000000 [e]

    Move probabilities:
    Translation:                   0.331126 [-]
    Random translation:            0.000000 [-]
    Rotation:                      0.331126 [-]
    Random rotation:               0.000000 [-]
    Volume change:                 0.006623 [-]
    Reinsertion (CBMC):            0.331126 [-]
    Identity change (CBMC):        0.000000 [-]
    Swap:                          0.000000 [-]
    Swap (CBMC):                   0.000000 [-]
    Swap (CFCMC):                  0.000000 [-]
    Swap (CB/CFCMC):               0.000000 [-]
    Gibbs volume:                  0.000000 [-]
    Gibbs swap (CBMC):             0.000000 [-]
    Gibbs swap (CFCMC):            0.000000 [-]
    Widom:                         0.000000 [-]
    Widom (CFCMC):                 0.000000 [-]
    Widom (CB/CFCMC):              0.000000 [-]
    Parallel tempering:            0.000000 [-]
    Hybrid MC:                     0.000000 [-]

    number of blocking-pockets: 0

    number of bonds: 0





Number of pseudo-atoms
===============================================================================

Component   0 (CO2)
-------------------------------------------------------------------------------
    index   0 (C_co2): 200 atoms
    index   1 (O_co2): 400 atoms

Total number of pseudo-atoms:
-------------------------------------------------------------------------------
    index   0 (C_co2): 200 atoms
    index   1 (O_co2): 400 atoms




Energy status Recomputed from scratch
===============================================================================

Total potential energy/kʙ       -9.448652e+04 [K]
    external field VDW/kʙ        0.000000e+00 [K]
    external field Real/kʙ       0.000000e+00 [K]
    framework-molecule VDW/kʙ    0.000000e+00 [K]
    framework-molecule Real/kʙ   0.000000e+00 [K]
    molecule-molecule VDW/kʙ    -7.357158e+04 [K]
    molecule-molecule Real/kʙ   -1.358810e+04 [K]
    Van der Waals (Tail)/kʙ     -4.753406e+03 [K]
    Ewald Fourier/kʙ             2.648827e+04 [K]
    Ewald self/kʙ               -4.445846e+06 [K]
    Ewald exclusion/kʙ           4.416785e+06 [K]
    intra VDW/kʙ                 0.000000e+00 [K]
    intra Coulombic/kʙ           0.000000e+00 [K]
    polarization/kʙ              0.000000e+00 [K]
    dU/dlambda VDW/kʙ            0.000000e+00 [K]
    dU/dlambda Real/kʙ           0.000000e+00 [K]
    dU/dlambda Ewald/kʙ          0.000000e+00 [K]





Initialization: Current cycle: 0 out of 1000
===============================================================================

Box:      30.80241   0.00000   0.00000
           0.00000  30.80241   0.00000
           0.00000   0.00000  30.80241
Lengths:  30.80241  30.80241  30.80241
Angles:   90.00000  90.00000  90.00000
Rectangular boundary conditions

net charge:   0.00000000

component   0 (CO2) lambda:  0 occupancy:  1 (1.000000)
    net charge:   0.00000000 [e]

Amount of molecules per component :
-------------------------------------------------------------------------------
Component 0 (CO2)
    molecules:         2.000000e+02 molecules
    number density:    6.843463e-03 molec/A^3
    density:           4.999951e+02 kg/m^3

Total potential energy/kʙ       -1.295016e+05 [K]
-------------------------------------------------------------------------------
    external field VDW/kʙ        0.000000e+00 [K]
    external field Real/kʙ       0.000000e+00 [K]
    framework-molecule VDW/kʙ    0.000000e+00 [K]
    framework-molecule Real/kʙ   0.000000e+00 [K]
    molecule-molecule VDW/kʙ    -1.037504e+05 [K]
    molecule-molecule Real/kʙ   -1.805643e+04 [K]
    Van der Waals (Tail)/kʙ     -4.391517e+03 [K]
    Ewald Fourier/kʙ             2.575844e+04 [K]
    Ewald self/kʙ               -4.445846e+06 [K]
    Ewald exclusion/kʙ           4.416785e+06 [K]
    intra VDW/kʙ                 0.000000e+00 [K]
    intra Coulombic/kʙ           0.000000e+00 [K]
    polarization/kʙ              0.000000e+00 [K]
    dU/dlambda VDW/kʙ            0.000000e+00 [K]
    dU/dlambda Real/kʙ           0.000000e+00 [K]
    dU/dlambda Ewald/kʙ          0.000000e+00 [K]


Initialization: Current cycle: 100 out of 1000
===============================================================================

Box:      28.47358   0.00000   0.00000
           0.00000  28.47358   0.00000
           0.00000   0.00000  28.47358
Lengths:  28.47358  28.47358  28.47358
Angles:   90.00000  90.00000  90.00000
Rectangular boundary conditions

net charge:   0.00000000

component   0 (CO2) lambda:  0 occupancy:  1 (1.000000)
    net charge:   0.00000000 [e]

Amount of molecules per component :
-------------------------------------------------------------------------------
Component 0 (CO2)
    molecules:         2.000000e+02 molecules
    number density:    8.663709e-03 molec/A^3
    density:           6.329854e+02 kg/m^3

Total potential energy/kʙ       -2.013940e+05 [K]
-------------------------------------------------------------------------------
    external field VDW/kʙ        0.000000e+00 [K]
    external field Real/kʙ       0.000000e+00 [K]
    framework-molecule VDW/kʙ    0.000000e+00 [K]
    framework-molecule Real/kʙ   0.000000e+00 [K]
    molecule-molecule VDW/kʙ    -1.437841e+05 [K]
    molecule-molecule Real/kʙ   -4.157647e+04 [K]
    Van der Waals (Tail)/kʙ     -5.559587e+03 [K]
    Ewald Fourier/kʙ             1.858787e+04 [K]
    Ewald self/kʙ               -4.445846e+06 [K]
    Ewald exclusion/kʙ           4.416785e+06 [K]
    intra VDW/kʙ                 0.000000e+00 [K]
    intra Coulombic/kʙ           0.000000e+00 [K]
    polarization/kʙ              0.000000e+00 [K]
    dU/dlambda VDW/kʙ            0.000000e+00 [K]
    dU/dlambda Real/kʙ           0.000000e+00 [K]
    dU/dlambda Ewald/kʙ          0.000000e+00 [K]


Initialization: Current cycle: 200 out of 1000
===============================================================================

Box:      27.96201   0.00000   0.00000
           0.00000  27.96201   0.00000
           0.00000   0.00000  27.96201
Lengths:  27.96201  27.96201  27.96201
Angles:   90.00000  90.00000  90.00000
Rectangular boundary conditions

net charge:   0.00000000

component   0 (CO2) lambda:  0 occupancy:  1 (1.000000)
    net charge:   0.00000000 [e]

Amount of molecules per component :
-------------------------------------------------------------------------------
Component 0 (CO2)
    molecules:         2.000000e+02 molecules
    number density:    9.147975e-03 molec/A^3
    density:           6.683667e+02 kg/m^3

Total potential energy/kʙ       -2.090233e+05 [K]
-------------------------------------------------------------------------------
    external field VDW/kʙ        0.000000e+00 [K]
    external field Real/kʙ       0.000000e+00 [K]
    framework-molecule VDW/kʙ    0.000000e+00 [K]
    framework-molecule Real/kʙ   0.000000e+00 [K]
    molecule-molecule VDW/kʙ    -1.514641e+05 [K]
    molecule-molecule Real/kʙ   -3.976101e+04 [K]
    Van der Waals (Tail)/kʙ     -5.870345e+03 [K]
    Ewald Fourier/kʙ             1.713388e+04 [K]
    Ewald self/kʙ               -4.445846e+06 [K]
    Ewald exclusion/kʙ           4.416785e+06 [K]
    intra VDW/kʙ                 0.000000e+00 [K]
    intra Coulombic/kʙ           0.000000e+00 [K]
    polarization/kʙ              0.000000e+00 [K]
    dU/dlambda VDW/kʙ            0.000000e+00 [K]
    dU/dlambda Real/kʙ           0.000000e+00 [K]
    dU/dlambda Ewald/kʙ          0.000000e+00 [K]


Initialization: Current cycle: 300 out of 1000
===============================================================================

Box:      27.80565   0.00000   0.00000
           0.00000  27.80565   0.00000
           0.00000   0.00000  27.80565
Lengths:  27.80565  27.80565  27.80565
Angles:   90.00000  90.00000  90.00000
Rectangular boundary conditions

net charge:   0.00000000

component   0 (CO2) lambda:  0 occupancy:  1 (1.000000)
    net charge:   0.00000000 [e]

Amount of molecules per component :
-------------------------------------------------------------------------------
Component 0 (CO2)
    molecules:         2.000000e+02 molecules
    number density:    9.303165e-03 molec/A^3
    density:           6.797052e+02 kg/m^3

Total potential energy/kʙ       -2.079930e+05 [K]
-------------------------------------------------------------------------------
    external field VDW/kʙ        0.000000e+00 [K]
    external field Real/kʙ       0.000000e+00 [K]
    framework-molecule VDW/kʙ    0.000000e+00 [K]
    framework-molecule Real/kʙ   0.000000e+00 [K]
    molecule-molecule VDW/kʙ    -1.518001e+05 [K]
    molecule-molecule Real/kʙ   -4.007474e+04 [K]
    Van der Waals (Tail)/kʙ     -5.969932e+03 [K]
    Ewald Fourier/kʙ             1.891341e+04 [K]
    Ewald self/kʙ               -4.445846e+06 [K]
    Ewald exclusion/kʙ           4.416785e+06 [K]
    intra VDW/kʙ                 0.000000e+00 [K]
    intra Coulombic/kʙ           0.000000e+00 [K]
    polarization/kʙ              0.000000e+00 [K]
    dU/dlambda VDW/kʙ            0.000000e+00 [K]
    dU/dlambda Real/kʙ           0.000000e+00 [K]
    dU/dlambda Ewald/kʙ          0.000000e+00 [K]


Initialization: Current cycle: 400 out of 1000
===============================================================================

Box:      26.48905   0.00000   0.00000
           0.00000  26.48905   0.00000
           0.00000   0.00000  26.48905
Lengths:  26.48905  26.48905  26.48905
Angles:   90.00000  90.00000  90.00000
Rectangular boundary conditions

net charge:   0.00000000

component   0 (CO2) lambda:  0 occupancy:  1 (1.000000)
    net charge:   0.00000000 [e]

Amount of molecules per component :
-------------------------------------------------------------------------------
Component 0 (CO2)
    molecules:         2.000000e+02 molecules
    number density:    1.076046e-02 molec/A^3
    density:           7.861775e+02 kg/m^3

Total potential energy/kʙ       -2.285144e+05 [K]
-------------------------------------------------------------------------------
    external field VDW/kʙ        0.000000e+00 [K]
    external field Real/kʙ       0.000000e+00 [K]
    framework-molecule VDW/kʙ    0.000000e+00 [K]
    framework-molecule Real/kʙ   0.000000e+00 [K]
    molecule-molecule VDW/kʙ    -1.651352e+05 [K]
    molecule-molecule Real/kʙ   -4.411517e+04 [K]
    Van der Waals (Tail)/kʙ     -6.905092e+03 [K]
    Ewald Fourier/kʙ             1.670272e+04 [K]
    Ewald self/kʙ               -4.445846e+06 [K]
    Ewald exclusion/kʙ           4.416785e+06 [K]
    intra VDW/kʙ                 0.000000e+00 [K]
    intra Coulombic/kʙ           0.000000e+00 [K]
    polarization/kʙ              0.000000e+00 [K]
    dU/dlambda VDW/kʙ            0.000000e+00 [K]
    dU/dlambda Real/kʙ           0.000000e+00 [K]
    dU/dlambda Ewald/kʙ          0.000000e+00 [K]


Initialization: Current cycle: 500 out of 1000
===============================================================================

Box:      25.08949   0.00000   0.00000
           0.00000  25.08949   0.00000
           0.00000   0.00000  25.08949
Lengths:  25.08949  25.08949  25.08949
Angles:   90.00000  90.00000  90.00000
Rectangular boundary conditions

net charge:   0.00000000

component   0 (CO2) lambda:  0 occupancy:  1 (1.000000)
    net charge:   0.00000000 [e]

Amount of molecules per component :
-------------------------------------------------------------------------------
Component 0 (CO2)
    molecules:         2.000000e+02 molecules
    number density:    1.266352e-02 molec/A^3
    density:           9.252181e+02 kg/m^3

Total potential energy/kʙ       -2.610905e+05 [K]
-------------------------------------------------------------------------------
    external field VDW/kʙ        0.000000e+00 [K]
    external field Real/kʙ       0.000000e+00 [K]
    framework-molecule VDW/kʙ    0.000000e+00 [K]
    framework-molecule Real/kʙ   0.000000e+00 [K]
    molecule-molecule VDW/kʙ    -1.804783e+05 [K]
    molecule-molecule Real/kʙ   -5.834723e+04 [K]
    Van der Waals (Tail)/kʙ     -8.126302e+03 [K]
    Ewald Fourier/kʙ             1.492298e+04 [K]
    Ewald self/kʙ               -4.445846e+06 [K]
    Ewald exclusion/kʙ           4.416785e+06 [K]
    intra VDW/kʙ                 0.000000e+00 [K]
    intra Coulombic/kʙ           0.000000e+00 [K]
    polarization/kʙ              0.000000e+00 [K]
    dU/dlambda VDW/kʙ            0.000000e+00 [K]
    dU/dlambda Real/kʙ           0.000000e+00 [K]
    dU/dlambda Ewald/kʙ          0.000000e+00 [K]


Initialization: Current cycle: 600 out of 1000
===============================================================================

Box:      24.60271   0.00000   0.00000
           0.00000  24.60271   0.00000
           0.00000   0.00000  24.60271
Lengths:  24.60271  24.60271  24.60271
Angles:   90.00000  90.00000  90.00000
Rectangular boundary conditions

net charge:   0.00000000

component   0 (CO2) lambda:  0 occupancy:  1 (1.000000)
    net charge:   0.00000000 [e]

Amount of molecules per component :
-------------------------------------------------------------------------------
Component 0 (CO2)
    molecules:         2.000000e+02 molecules
    number density:    1.343016e-02 molec/A^3
    density:           9.812307e+02 kg/m^3

Total potential energy/kʙ       -2.743891e+05 [K]
-------------------------------------------------------------------------------
    external field VDW/kʙ        0.000000e+00 [K]
    external field Real/kʙ       0.000000e+00 [K]
    framework-molecule VDW/kʙ    0.000000e+00 [K]
    framework-molecule Real/kʙ   0.000000e+00 [K]
    molecule-molecule VDW/kʙ    -1.982347e+05 [K]
    molecule-molecule Real/kʙ   -5.323954e+04 [K]
    Van der Waals (Tail)/kʙ     -8.618268e+03 [K]
    Ewald Fourier/kʙ             1.476507e+04 [K]
    Ewald self/kʙ               -4.445846e+06 [K]
    Ewald exclusion/kʙ           4.416785e+06 [K]
    intra VDW/kʙ                 0.000000e+00 [K]
    intra Coulombic/kʙ           0.000000e+00 [K]
    polarization/kʙ              0.000000e+00 [K]
    dU/dlambda VDW/kʙ            0.000000e+00 [K]
    dU/dlambda Real/kʙ           0.000000e+00 [K]
    dU/dlambda Ewald/kʙ          0.000000e+00 [K]


Initialization: Current cycle: 700 out of 1000
===============================================================================

Box:      24.03756   0.00000   0.00000
           0.00000  24.03756   0.00000
           0.00000   0.00000  24.03756
Lengths:  24.03756  24.03756  24.03756
Angles:   90.00000  90.00000  90.00000
Rectangular boundary conditions

net charge:   0.00000000

component   0 (CO2) lambda:  0 occupancy:  1 (1.000000)
    net charge:   0.00000000 [e]

Amount of molecules per component :
-------------------------------------------------------------------------------
Component 0 (CO2)
    molecules:         2.000000e+02 molecules
    number density:    1.439988e-02 molec/A^3
    density:           1.052080e+03 kg/m^3

Total potential energy/kʙ       -3.050980e+05 [K]
-------------------------------------------------------------------------------
    external field VDW/kʙ        0.000000e+00 [K]
    external field Real/kʙ       0.000000e+00 [K]
    framework-molecule VDW/kʙ    0.000000e+00 [K]
    framework-molecule Real/kʙ   0.000000e+00 [K]
    molecule-molecule VDW/kʙ    -2.162266e+05 [K]
    molecule-molecule Real/kʙ   -6.361757e+04 [K]
    Van der Waals (Tail)/kʙ     -9.240542e+03 [K]
    Ewald Fourier/kʙ             1.304846e+04 [K]
    Ewald self/kʙ               -4.445846e+06 [K]
    Ewald exclusion/kʙ           4.416785e+06 [K]
    intra VDW/kʙ                 0.000000e+00 [K]
    intra Coulombic/kʙ           0.000000e+00 [K]
    polarization/kʙ              0.000000e+00 [K]
    dU/dlambda VDW/kʙ            0.000000e+00 [K]
    dU/dlambda Real/kʙ           0.000000e+00 [K]
    dU/dlambda Ewald/kʙ          0.000000e+00 [K]


Initialization: Current cycle: 800 out of 1000
===============================================================================

Box:      23.92575   0.00000   0.00000
           0.00000  23.92575   0.00000
           0.00000   0.00000  23.92575
Lengths:  23.92575  23.92575  23.92575
Angles:   90.00000  90.00000  90.00000
Rectangular boundary conditions

net charge:   0.00000000

component   0 (CO2) lambda:  0 occupancy:  1 (1.000000)
    net charge:   0.00000000 [e]

Amount of molecules per component :
-------------------------------------------------------------------------------
Component 0 (CO2)
    molecules:         2.000000e+02 molecules
    number density:    1.460270e-02 molec/A^3
    density:           1.066898e+03 kg/m^3

Total potential energy/kʙ       -3.114702e+05 [K]
-------------------------------------------------------------------------------
    external field VDW/kʙ        0.000000e+00 [K]
    external field Real/kʙ       0.000000e+00 [K]
    framework-molecule VDW/kʙ    0.000000e+00 [K]
    framework-molecule Real/kʙ   0.000000e+00 [K]
    molecule-molecule VDW/kʙ    -2.193887e+05 [K]
    molecule-molecule Real/kʙ   -6.698636e+04 [K]
    Van der Waals (Tail)/kʙ     -9.370696e+03 [K]
    Ewald Fourier/kʙ             1.333726e+04 [K]
    Ewald self/kʙ               -4.445846e+06 [K]
    Ewald exclusion/kʙ           4.416785e+06 [K]
    intra VDW/kʙ                 0.000000e+00 [K]
    intra Coulombic/kʙ           0.000000e+00 [K]
    polarization/kʙ              0.000000e+00 [K]
    dU/dlambda VDW/kʙ            0.000000e+00 [K]
    dU/dlambda Real/kʙ           0.000000e+00 [K]
    dU/dlambda Ewald/kʙ          0.000000e+00 [K]


Initialization: Current cycle: 900 out of 1000
===============================================================================

Box:      23.72555   0.00000   0.00000
           0.00000  23.72555   0.00000
           0.00000   0.00000  23.72555
Lengths:  23.72555  23.72555  23.72555
Angles:   90.00000  90.00000  90.00000
Rectangular boundary conditions

net charge:   0.00000000

component   0 (CO2) lambda:  0 occupancy:  1 (1.000000)
    net charge:   0.00000000 [e]

Amount of molecules per component :
-------------------------------------------------------------------------------
Component 0 (CO2)
    molecules:         2.000000e+02 molecules
    number density:    1.497549e-02 molec/A^3
    density:           1.094135e+03 kg/m^3

Total potential energy/kʙ       -3.153987e+05 [K]
-------------------------------------------------------------------------------
    external field VDW/kʙ        0.000000e+00 [K]
    external field Real/kʙ       0.000000e+00 [K]
    framework-molecule VDW/kʙ    0.000000e+00 [K]
    framework-molecule Real/kʙ   0.000000e+00 [K]
    molecule-molecule VDW/kʙ    -2.245243e+05 [K]
    molecule-molecule Real/kʙ   -6.618382e+04 [K]
    Van der Waals (Tail)/kʙ     -9.609921e+03 [K]
    Ewald Fourier/kʙ             1.398113e+04 [K]
    Ewald self/kʙ               -4.445846e+06 [K]
    Ewald exclusion/kʙ           4.416785e+06 [K]
    intra VDW/kʙ                 0.000000e+00 [K]
    intra Coulombic/kʙ           0.000000e+00 [K]
    polarization/kʙ              0.000000e+00 [K]
    dU/dlambda VDW/kʙ            0.000000e+00 [K]
    dU/dlambda Real/kʙ           0.000000e+00 [K]
    dU/dlambda Ewald/kʙ          0.000000e+00 [K]


Current cycle: 0 out of 5000
===============================================================================

Box:      23.78705   0.00000   0.00000  Average:  23.78705   0.00000   0.00000
           0.00000  23.78705   0.00000             0.00000  23.78705   0.00000
           0.00000   0.00000  23.78705             0.00000   0.00000  23.78705
Lengths:  23.78705  23.78705  23.78705  Average:  23.78705  23.78705  23.78705
Angles:   90.00000  90.00000  90.00000  Average:  90.00000  90.00000  90.00000
Rectangular boundary conditions

net charge:   0.00000000

component 0 (CO2) lambda:  0 occupancy:  1 (1.000000)
    net charge:   0.00000000 [e]

Amount of molecules per component :
-------------------------------------------------------------------------------
Component 0 (CO2)
    molecules:      2.000000e+02 molecules  (2.000000e+02 +/- 0.000000e+00)
    number density: 1.485963e-02 molec./A^3 (1.485963e-02 +/- 0.000000e+00)
    density:        1.085670e+03 kg/m^3     (1.085670e+03 +/- 0.000000e+00)

Average pressure tensor: 
-------------------------------------------------------------------------------
 5.1290e+02  0.0000e+00  0.0000e+00 +/- 0.0000e+00 0.0000e+00 0.0000e+00 [bar]
 0.0000e+00  5.1290e+02  0.0000e+00 +/- 0.0000e+00 0.0000e+00 0.0000e+00 [bar]
 0.0000e+00  0.0000e+00  5.1290e+02 +/- 0.0000e+00 0.0000e+00 0.0000e+00 [bar]
Ideal-gas pressure:   5.128989e+02 +/ 0.000000e+00 [bar]
Excess pressure:      0.000000e+00 +/ 0.000000e+00 [bar]
Pressure:             5.128989e+02 +/ 0.000000e+00 [bar]

Total potential energy/kʙ  -3.164530e+05 (-3.164530e+05 +/- 0.000000e+00) [K]
-------------------------------------------------------------------------------
ExternalField-molecule
    Van der Waals/kʙ        0.000000e+00 ( 0.000000e+00 +/- 0.000000e+00) [K]
Framework-molecule
    Van der Waals/kʙ        0.000000e+00 ( 0.000000e+00 +/- 0.000000e+00) [K]
    Van der Waals (Tail)/kʙ 0.000000e+00 ( 0.000000e+00 +/- 0.000000e+00) [K]
    Coulombic Real/kʙ       0.000000e+00 ( 0.000000e+00 +/- 0.000000e+00) [K]
    Coulombic Fourier/kʙ    0.000000e+00 ( 0.000000e+00 +/- 0.000000e+00) [K]
Molecule-molecule
    Van der Waals/kʙ       -2.264315e+05 (-2.264315e+05 +/- 0.000000e+00) [K]
    Van der Waals (Tail)/kʙ-9.535571e+03 (-9.535571e+03 +/- 0.000000e+00) [K]
    Coulombic Real/kʙ      -6.499851e+04 (-6.499851e+04 +/- 0.000000e+00) [K]
    Coulombic Fourier/kʙ   -1.548739e+04 (-1.548739e+04 +/- 0.000000e+00) [K]
    Molecule Intra/kʙ       0.000000e+00 ( 0.000000e+00 +/- 0.000000e+00) [K]

Current cycle: 100 out of 5000
===============================================================================

Box:      23.84334   0.00000   0.00000  Average:  23.80803   0.00000   0.00000
           0.00000  23.84334   0.00000             0.00000  23.80803   0.00000
           0.00000   0.00000  23.84334             0.00000   0.00000  23.80803
Lengths:  23.84334  23.84334  23.84334  Average:  23.80803  23.80803  23.80803
Angles:   90.00000  90.00000  90.00000  Average:  90.00000  90.00000  90.00000
Rectangular boundary conditions

net charge:   0.00000000

component 0 (CO2) lambda:  0 occupancy:  1 (1.000000)
    net charge:   0.00000000 [e]

Amount of molecules per component :
-------------------------------------------------------------------------------
Component 0 (CO2)
    molecules:      2.000000e+02 molecules  (2.000000e+02 +/- 0.000000e+00)
    number density: 1.475465e-02 molec./A^3 (1.482141e-02 +/- 0.000000e+00)
    density:        1.078000e+03 kg/m^3     (1.082878e+03 +/- 0.000000e+00)

Average pressure tensor: 
-------------------------------------------------------------------------------
-4.3619e+01 -2.0795e+02 -2.2401e+02 +/- 0.0000e+00 0.0000e+00 0.0000e+00 [bar]
-2.0795e+02  2.2178e+02 -1.1790e+02 +/- 0.0000e+00 0.0000e+00 0.0000e+00 [bar]
-2.2401e+02 -1.1790e+02 -1.9498e+01 +/- 0.0000e+00 0.0000e+00 0.0000e+00 [bar]
Ideal-gas pressure:   5.115796e+02 +/ 0.000000e+00 [bar]
Excess pressure:     -4.586928e+02 +/ 0.000000e+00 [bar]
Pressure:             5.288687e+01 +/ 0.000000e+00 [bar]

Total potential energy/kʙ  -3.061146e+05 (-3.133647e+05 +/- 0.000000e+00) [K]
-------------------------------------------------------------------------------
ExternalField-molecule
    Van der Waals/kʙ        0.000000e+00 ( 0.000000e+00 +/- 0.000000e+00) [K]
Framework-molecule
    Van der Waals/kʙ        0.000000e+00 ( 0.000000e+00 +/- 0.000000e+00) [K]
    Van der Waals (Tail)/kʙ 0.000000e+00 ( 0.000000e+00 +/- 0.000000e+00) [K]
    Coulombic Real/kʙ       0.000000e+00 ( 0.000000e+00 +/- 0.000000e+00) [K]
    Coulombic Fourier/kʙ    0.000000e+00 ( 0.000000e+00 +/- 0.000000e+00) [K]
Molecule-molecule
    Van der Waals/kʙ       -2.189823e+05 (-2.229409e+05 +/- 0.000000e+00) [K]
    Van der Waals (Tail)/kʙ-9.468204e+03 (-9.513122e+03 +/- 0.000000e+00) [K]
    Coulombic Real/kʙ      -6.217345e+04 (-6.521256e+04 +/- 0.000000e+00) [K]
    Coulombic Fourier/kʙ   -1.549065e+04 (-1.569820e+04 +/- 0.000000e+00) [K]
    Molecule Intra/kʙ       0.000000e+00 ( 0.000000e+00 +/- 0.000000e+00) [K]

Current cycle: 200 out of 5000
===============================================================================

Box:      23.85752   0.00000   0.00000  Average:  23.83238   0.00000   0.00000
           0.00000  23.85752   0.00000             0.00000  23.83238   0.00000
           0.00000   0.00000  23.85752             0.00000   0.00000  23.83238
Lengths:  23.85752  23.85752  23.85752  Average:  23.83238  23.83238  23.83238
Angles:   90.00000  90.00000  90.00000  Average:  90.00000  90.00000  90.00000
Rectangular boundary conditions

net charge:   0.00000000

component 0 (CO2) lambda:  0 occupancy:  1 (1.000000)
    net charge:   0.00000000 [e]

Amount of molecules per component :
-------------------------------------------------------------------------------
Component 0 (CO2)
    molecules:      2.000000e+02 molecules  (2.000000e+02 +/- 0.000000e+00)
    number density: 1.472834e-02 molec./A^3 (1.477630e-02 +/- 0.000000e+00)
    density:        1.076078e+03 kg/m^3     (1.079582e+03 +/- 0.000000e+00)

Average pressure tensor: 
-------------------------------------------------------------------------------
-6.4738e+01 -2.4378e+02 -1.7695e+02 +/- 0.0000e+00 0.0000e+00 0.0000e+00 [bar]
-2.4378e+02  2.0763e+02 -3.7578e+01 +/- 0.0000e+00 0.0000e+00 0.0000e+00 [bar]
-1.7695e+02 -3.7578e+01  1.6347e+01 +/- 0.0000e+00 0.0000e+00 0.0000e+00 [bar]
Ideal-gas pressure:   5.100227e+02 +/ 0.000000e+00 [bar]
Excess pressure:     -4.569428e+02 +/ 0.000000e+00 [bar]
Pressure:             5.307986e+01 +/ 0.000000e+00 [bar]

Total potential energy/kʙ  -3.120929e+05 (-3.119474e+05 +/- 0.000000e+00) [K]
-------------------------------------------------------------------------------
ExternalField-molecule
    Van der Waals/kʙ        0.000000e+00 ( 0.000000e+00 +/- 0.000000e+00) [K]
Framework-molecule
    Van der Waals/kʙ        0.000000e+00 ( 0.000000e+00 +/- 0.000000e+00) [K]
    Van der Waals (Tail)/kʙ 0.000000e+00 ( 0.000000e+00 +/- 0.000000e+00) [K]
    Coulombic Real/kʙ       0.000000e+00 ( 0.000000e+00 +/- 0.000000e+00) [K]
    Coulombic Fourier/kʙ    0.000000e+00 ( 0.000000e+00 +/- 0.000000e+00) [K]
Molecule-molecule
    Van der Waals/kʙ       -2.250838e+05 (-2.224900e+05 +/- 0.000000e+00) [K]
    Van der Waals (Tail)/kʙ-9.451323e+03 (-9.465576e+03 +/- 0.000000e+00) [K]
    Coulombic Real/kʙ      -6.253122e+04 (-6.426292e+04 +/- 0.000000e+00) [K]
    Coulombic Fourier/kʙ   -1.502658e+04 (-1.572888e+04 +/- 0.000000e+00) [K]
    Molecule Intra/kʙ       0.000000e+00 ( 0.000000e+00 +/- 0.000000e+00) [K]

Current cycle: 300 out of 5000
===============================================================================

Box:      23.65288   0.00000   0.00000  Average:  23.83209   0.00000   0.00000
           0.00000  23.65288   0.00000             0.00000  23.83209   0.00000
           0.00000   0.00000  23.65288             0.00000   0.00000  23.83209
Lengths:  23.65288  23.65288  23.65288  Average:  23.83209  23.83209  23.83209
Angles:   90.00000  90.00000  90.00000  Average:  90.00000  90.00000  90.00000
Rectangular boundary conditions

net charge:   0.00000000

component 0 (CO2) lambda:  0 occupancy:  1 (1.000000)
    net charge:   0.00000000 [e]

Amount of molecules per component :
-------------------------------------------------------------------------------
Component 0 (CO2)
    molecules:      2.000000e+02 molecules  (2.000000e+02 +/- 0.000000e+00)
    number density: 1.511394e-02 molec./A^3 (1.477710e-02 +/- 0.000000e+00)
    density:        1.104251e+03 kg/m^3     (1.079640e+03 +/- 0.000000e+00)

Average pressure tensor: 
-------------------------------------------------------------------------------
-9.8275e+01 -1.8635e+02 -1.3214e+02 +/- 0.0000e+00 0.0000e+00 0.0000e+00 [bar]
-1.8635e+02  2.3754e+02 -1.1311e+02 +/- 0.0000e+00 0.0000e+00 0.0000e+00 [bar]
-1.3214e+02 -1.1311e+02  7.0743e+01 +/- 0.0000e+00 0.0000e+00 0.0000e+00 [bar]
Ideal-gas pressure:   5.100501e+02 +/ 0.000000e+00 [bar]
Excess pressure:     -4.400473e+02 +/ 0.000000e+00 [bar]
Pressure:             7.000278e+01 +/ 0.000000e+00 [bar]

Total potential energy/kʙ  -3.170813e+05 (-3.114844e+05 +/- 0.000000e+00) [K]
-------------------------------------------------------------------------------
ExternalField-molecule
    Van der Waals/kʙ        0.000000e+00 ( 0.000000e+00 +/- 0.000000e+00) [K]
Framework-molecule
    Van der Waals/kʙ        0.000000e+00 ( 0.000000e+00 +/- 0.000000e+00) [K]
    Van der Waals (Tail)/kʙ 0.000000e+00 ( 0.000000e+00 +/- 0.000000e+00) [K]
    Coulombic Real/kʙ       0.000000e+00 ( 0.000000e+00 +/- 0.000000e+00) [K]
    Coulombic Fourier/kʙ    0.000000e+00 ( 0.000000e+00 +/- 0.000000e+00) [K]
Molecule-molecule
    Van der Waals/kʙ       -2.275528e+05 (-2.221231e+05 +/- 0.000000e+00) [K]
    Van der Waals (Tail)/kʙ-9.698765e+03 (-9.473079e+03 +/- 0.000000e+00) [K]
    Coulombic Real/kʙ      -6.488663e+04 (-6.431889e+04 +/- 0.000000e+00) [K]
    Coulombic Fourier/kʙ   -1.494315e+04 (-1.556933e+04 +/- 0.000000e+00) [K]
    Molecule Intra/kʙ       0.000000e+00 ( 0.000000e+00 +/- 0.000000e+00) [K]

Current cycle: 400 out of 5000
===============================================================================

Box:      23.90513   0.00000   0.00000  Average:  23.81005   0.00000   0.00000
           0.00000  23.90513   0.00000             0.00000  23.81005   0.00000
           0.00000   0.00000  23.90513             0.00000   0.00000  23.81005
Lengths:  23.90513  23.90513  23.90513  Average:  23.81005  23.81005  23.81005
Angles:   90.00000  90.00000  90.00000  Average:  90.00000  90.00000  90.00000
Rectangular boundary conditions

net charge:   0.00000000

component 0 (CO2) lambda:  0 occupancy:  1 (1.000000)
    net charge:   0.00000000 [e]

Amount of molecules per component :
-------------------------------------------------------------------------------
Component 0 (CO2)
    molecules:      2.000000e+02 molecules  (2.000000e+02 +/- 0.000000e+00)
    number density: 1.464053e-02 molec./A^3 (1.481842e-02 +/- 0.000000e+00)
    density:        1.069662e+03 kg/m^3     (1.082659e+03 +/- 0.000000e+00)

Average pressure tensor: 
-------------------------------------------------------------------------------
-1.2384e+02 -1.6924e+02 -1.1809e+02 +/- 0.0000e+00 0.0000e+00 0.0000e+00 [bar]
-1.6924e+02  1.8173e+02 -1.0656e+02 +/- 0.0000e+00 0.0000e+00 0.0000e+00 [bar]
-1.1809e+02 -1.0656e+02  7.9542e+01 +/- 0.0000e+00 0.0000e+00 0.0000e+00 [bar]
Ideal-gas pressure:   5.114765e+02 +/ 0.000000e+00 [bar]
Excess pressure:     -4.656650e+02 +/ 0.000000e+00 [bar]
Pressure:             4.581143e+01 +/ 0.000000e+00 [bar]

Total potential energy/kʙ  -3.021611e+05 (-3.119738e+05 +/- 0.000000e+00) [K]
-------------------------------------------------------------------------------
ExternalField-molecule
    Van der Waals/kʙ        0.000000e+00 ( 0.000000e+00 +/- 0.000000e+00) [K]
Framework-molecule
    Van der Waals/kʙ        0.000000e+00 ( 0.000000e+00 +/- 0.000000e+00) [K]
    Van der Waals (Tail)/kʙ 0.000000e+00 ( 0.000000e+00 +/- 0.000000e+00) [K]
    Coulombic Real/kʙ       0.000000e+00 ( 0.000000e+00 +/- 0.000000e+00) [K]
    Coulombic Fourier/kʙ    0.000000e+00 ( 0.000000e+00 +/- 0.000000e+00) [K]
Molecule-molecule
    Van der Waals/kʙ       -2.229863e+05 (-2.232223e+05 +/- 0.000000e+00) [K]
    Van der Waals (Tail)/kʙ-9.394973e+03 (-9.496068e+03 +/- 0.000000e+00) [K]
    Coulombic Real/kʙ      -5.502005e+04 (-6.371894e+04 +/- 0.000000e+00) [K]
    Coulombic Fourier/kʙ   -1.475977e+04 (-1.553653e+04 +/- 0.000000e+00) [K]
    Molecule Intra/kʙ       0.000000e+00 ( 0.000000e+00 +/- 0.000000e+00) [K]

Current cycle: 500 out of 5000
===============================================================================

Box:      23.96375   0.00000   0.00000  Average:  23.84695   0.00000   0.00000
           0.00000  23.96375   0.00000             0.00000  23.84695   0.00000
           0.00000   0.00000  23.96375             0.00000   0.00000  23.84695
Lengths:  23.96375  23.96375  23.96375  Average:  23.84695  23.84695  23.84695
Angles:   90.00000  90.00000  90.00000  Average:  90.00000  90.00000  90.00000
Rectangular boundary conditions

net charge:   0.00000000

component 0 (CO2) lambda:  0 occupancy:  1 (1.000000)
    net charge:   0.00000000 [e]

Amount of molecules per component :
-------------------------------------------------------------------------------
Component 0 (CO2)
    molecules:      2.000000e+02 molecules  (2.000000e+02 +/- 0.000000e+00)
    number density: 1.453335e-02 molec./A^3 (1.475051e-02 +/- 0.000000e+00)
    density:        1.061832e+03 kg/m^3     (1.077698e+03 +/- 0.000000e+00)

Average pressure tensor: 
-------------------------------------------------------------------------------
-1.0249e+02 -1.7741e+02 -7.0618e+01 +/- 0.0000e+00 0.0000e+00 0.0000e+00 [bar]
-1.7741e+02  2.0399e+02 -7.8799e+01 +/- 0.0000e+00 0.0000e+00 0.0000e+00 [bar]
-7.0618e+01 -7.8799e+01  6.7777e+01 +/- 0.0000e+00 0.0000e+00 0.0000e+00 [bar]
Ideal-gas pressure:   5.091326e+02 +/ 0.000000e+00 [bar]
Excess pressure:     -4.527060e+02 +/ 0.000000e+00 [bar]
Pressure:             5.642659e+01 +/ 0.000000e+00 [bar]

Total potential energy/kʙ  -3.020743e+05 (-3.107388e+05 +/- 0.000000e+00) [K]
-------------------------------------------------------------------------------
ExternalField-molecule
    Van der Waals/kʙ        0.000000e+00 ( 0.000000e+00 +/- 0.000000e+00) [K]
Framework-molecule
    Van der Waals/kʙ        0.000000e+00 ( 0.000000e+00 +/- 0.000000e+00) [K]
    Van der Waals (Tail)/kʙ 0.000000e+00 ( 0.000000e+00 +/- 0.000000e+00) [K]
    Coulombic Real/kʙ       0.000000e+00 ( 0.000000e+00 +/- 0.000000e+00) [K]
    Coulombic Fourier/kʙ    0.000000e+00 ( 0.000000e+00 +/- 0.000000e+00) [K]
Molecule-molecule
    Van der Waals/kʙ       -2.112899e+05 (-2.220002e+05 +/- 0.000000e+00) [K]
    Van der Waals (Tail)/kʙ-9.326196e+03 (-9.462244e+03 +/- 0.000000e+00) [K]
    Coulombic Real/kʙ      -6.555894e+04 (-6.377015e+04 +/- 0.000000e+00) [K]
    Coulombic Fourier/kʙ   -1.589925e+04 (-1.550616e+04 +/- 0.000000e+00) [K]
    Molecule Intra/kʙ       0.000000e+00 ( 0.000000e+00 +/- 0.000000e+00) [K]

Current cycle: 600 out of 5000
===============================================================================

Box:      24.00363   0.00000   0.00000  Average:  23.87998   0.00000   0.00000
           0.00000  24.00363   0.00000             0.00000  23.87998   0.00000
           0.00000   0.00000  24.00363             0.00000   0.00000  23.87998
Lengths:  24.00363  24.00363  24.00363  Average:  23.87998  23.87998  23.87998
Angles:   90.00000  90.00000  90.00000  Average:  90.00000  90.00000  90.00000
Rectangular boundary conditions

net charge:   0.00000000

component 0 (CO2) lambda:  0 occupancy:  1 (1.000000)
    net charge:   0.00000000 [e]

Amount of molecules per component :
-------------------------------------------------------------------------------
Component 0 (CO2)
    molecules:      2.000000e+02 molecules  (2.000000e+02 +/- 0.000000e+00)
    number density: 1.446104e-02 molec./A^3 (1.468999e-02 +/- 0.000000e+00)
    density:        1.056548e+03 kg/m^3     (1.073276e+03 +/- 0.000000e+00)

Average pressure tensor: 
-------------------------------------------------------------------------------
-3.1823e+01 -1.7397e+02 -8.2989e+01 +/- 0.0000e+00 0.0000e+00 0.0000e+00 [bar]
-1.7397e+02  2.1297e+02 -8.7403e+01 +/- 0.0000e+00 0.0000e+00 0.0000e+00 [bar]
-8.2989e+01 -8.7403e+01  2.7744e+01 +/- 0.0000e+00 0.0000e+00 0.0000e+00 [bar]
Ideal-gas pressure:   5.070435e+02 +/ 0.000000e+00 [bar]
Excess pressure:     -4.374146e+02 +/ 0.000000e+00 [bar]
Pressure:             6.962885e+01 +/ 0.000000e+00 [bar]

Total potential energy/kʙ  -3.020854e+05 (-3.088572e+05 +/- 0.000000e+00) [K]
-------------------------------------------------------------------------------
ExternalField-molecule
    Van der Waals/kʙ        0.000000e+00 ( 0.000000e+00 +/- 0.000000e+00) [K]
Framework-molecule
    Van der Waals/kʙ        0.000000e+00 ( 0.000000e+00 +/- 0.000000e+00) [K]
    Van der Waals (Tail)/kʙ 0.000000e+00 ( 0.000000e+00 +/- 0.000000e+00) [K]
    Coulombic Real/kʙ       0.000000e+00 ( 0.000000e+00 +/- 0.000000e+00) [K]
    Coulombic Fourier/kʙ    0.000000e+00 ( 0.000000e+00 +/- 0.000000e+00) [K]
Molecule-molecule
    Van der Waals/kʙ       -2.159567e+05 (-2.207233e+05 +/- 0.000000e+00) [K]
    Van der Waals (Tail)/kʙ-9.279790e+03 (-9.421646e+03 +/- 0.000000e+00) [K]
    Coulombic Real/kʙ      -6.137723e+04 (-6.324246e+04 +/- 0.000000e+00) [K]
    Coulombic Fourier/kʙ   -1.547172e+04 (-1.546978e+04 +/- 0.000000e+00) [K]
    Molecule Intra/kʙ       0.000000e+00 ( 0.000000e+00 +/- 0.000000e+00) [K]

Current cycle: 700 out of 5000
===============================================================================

Box:      23.86942   0.00000   0.00000  Average:  23.89546   0.00000   0.00000
           0.00000  23.86942   0.00000             0.00000  23.89546   0.00000
           0.00000   0.00000  23.86942             0.00000   0.00000  23.89546
Lengths:  23.86942  23.86942  23.86942  Average:  23.89546  23.89546  23.89546
Angles:   90.00000  90.00000  90.00000  Average:  90.00000  90.00000  90.00000
Rectangular boundary conditions

net charge:   0.00000000

component 0 (CO2) lambda:  0 occupancy:  1 (1.000000)
    net charge:   0.00000000 [e]

Amount of molecules per component :
-------------------------------------------------------------------------------
Component 0 (CO2)
    molecules:      2.000000e+02 molecules  (2.000000e+02 +/- 0.000000e+00)
    number density: 1.470634e-02 molec./A^3 (1.466145e-02 +/- 0.000000e+00)
    density:        1.074471e+03 kg/m^3     (1.071191e+03 +/- 0.000000e+00)

Average pressure tensor: 
-------------------------------------------------------------------------------
-1.5545e+01 -1.4051e+02 -6.5030e+01 +/- 0.0000e+00 0.0000e+00 0.0000e+00 [bar]
-1.4051e+02  2.0365e+02 -5.7306e+01 +/- 0.0000e+00 0.0000e+00 0.0000e+00 [bar]
-6.5030e+01 -5.7306e+01  2.0789e+01 +/- 0.0000e+00 0.0000e+00 0.0000e+00 [bar]
Ideal-gas pressure:   5.060584e+02 +/ 0.000000e+00 [bar]
Excess pressure:     -4.364265e+02 +/ 0.000000e+00 [bar]
Pressure:             6.963187e+01 +/ 0.000000e+00 [bar]

Total potential energy/kʙ  -3.070848e+05 (-3.084600e+05 +/- 0.000000e+00) [K]
-------------------------------------------------------------------------------
ExternalField-molecule
    Van der Waals/kʙ        0.000000e+00 ( 0.000000e+00 +/- 0.000000e+00) [K]
Framework-molecule
    Van der Waals/kʙ        0.000000e+00 ( 0.000000e+00 +/- 0.000000e+00) [K]
    Van der Waals (Tail)/kʙ 0.000000e+00 ( 0.000000e+00 +/- 0.000000e+00) [K]
    Coulombic Real/kʙ       0.000000e+00 ( 0.000000e+00 +/- 0.000000e+00) [K]
    Coulombic Fourier/kʙ    0.000000e+00 ( 0.000000e+00 +/- 0.000000e+00) [K]
Molecule-molecule
    Van der Waals/kʙ       -2.206871e+05 (-2.202965e+05 +/- 0.000000e+00) [K]
    Van der Waals (Tail)/kʙ-9.437204e+03 (-9.406609e+03 +/- 0.000000e+00) [K]
    Coulombic Real/kʙ      -6.152680e+04 (-6.322524e+04 +/- 0.000000e+00) [K]
    Coulombic Fourier/kʙ   -1.543369e+04 (-1.553168e+04 +/- 0.000000e+00) [K]
    Molecule Intra/kʙ       0.000000e+00 ( 0.000000e+00 +/- 0.000000e+00) [K]

Current cycle: 800 out of 5000
===============================================================================

Box:      23.86539   0.00000   0.00000  Average:  23.89090   0.00000   0.00000
           0.00000  23.86539   0.00000             0.00000  23.89090   0.00000
           0.00000   0.00000  23.86539             0.00000   0.00000  23.89090
Lengths:  23.86539  23.86539  23.86539  Average:  23.89090  23.89090  23.89090
Angles:   90.00000  90.00000  90.00000  Average:  90.00000  90.00000  90.00000
Rectangular boundary conditions

net charge:   0.00000000

component 0 (CO2) lambda:  0 occupancy:  1 (1.000000)
    net charge:   0.00000000 [e]

Amount of molecules per component :
-------------------------------------------------------------------------------
Component 0 (CO2)
    molecules:      2.000000e+02 molecules  (2.000000e+02 +/- 0.000000e+00)
    number density: 1.471378e-02 molec./A^3 (1.466961e-02 +/- 0.000000e+00)
    density:        1.075014e+03 kg/m^3     (1.071787e+03 +/- 0.000000e+00)

Average pressure tensor: 
-------------------------------------------------------------------------------
 8.6486e+00 -1.6003e+02 -3.6730e+01 +/- 0.0000e+00 0.0000e+00 0.0000e+00 [bar]
-1.6003e+02  1.5789e+02 -1.8143e+01 +/- 0.0000e+00 0.0000e+00 0.0000e+00 [bar]
-3.6730e+01 -1.8143e+01  1.5204e+01 +/- 0.0000e+00 0.0000e+00 0.0000e+00 [bar]
Ideal-gas pressure:   5.063401e+02 +/ 0.000000e+00 [bar]
Excess pressure:     -4.457599e+02 +/ 0.000000e+00 [bar]
Pressure:             6.058022e+01 +/ 0.000000e+00 [bar]

Total potential energy/kʙ  -3.019015e+05 (-3.082784e+05 +/- 0.000000e+00) [K]
-------------------------------------------------------------------------------
ExternalField-molecule
    Van der Waals/kʙ        0.000000e+00 ( 0.000000e+00 +/- 0.000000e+00) [K]
Framework-molecule
    Van der Waals/kʙ        0.000000e+00 ( 0.000000e+00 +/- 0.000000e+00) [K]
    Van der Waals (Tail)/kʙ 0.000000e+00 ( 0.000000e+00 +/- 0.000000e+00) [K]
    Coulombic Real/kʙ       0.000000e+00 ( 0.000000e+00 +/- 0.000000e+00) [K]
    Coulombic Fourier/kʙ    0.000000e+00 ( 0.000000e+00 +/- 0.000000e+00) [K]
Molecule-molecule
    Van der Waals/kʙ       -2.167950e+05 (-2.201951e+05 +/- 0.000000e+00) [K]
    Van der Waals (Tail)/kʙ-9.441976e+03 (-9.409369e+03 +/- 0.000000e+00) [K]
    Coulombic Real/kʙ      -5.999117e+04 (-6.311627e+04 +/- 0.000000e+00) [K]
    Coulombic Fourier/kʙ   -1.567332e+04 (-1.555761e+04 +/- 0.000000e+00) [K]
    Molecule Intra/kʙ       0.000000e+00 ( 0.000000e+00 +/- 0.000000e+00) [K]

Current cycle: 900 out of 5000
===============================================================================

Box:      23.90595   0.00000   0.00000  Average:  23.87778   0.00000   0.00000
           0.00000  23.90595   0.00000             0.00000  23.87778   0.00000
           0.00000   0.00000  23.90595             0.00000   0.00000  23.87778
Lengths:  23.90595  23.90595  23.90595  Average:  23.87778  23.87778  23.87778
Angles:   90.00000  90.00000  90.00000  Average:  90.00000  90.00000  90.00000
Rectangular boundary conditions

net charge:   0.00000000

component 0 (CO2) lambda:  0 occupancy:  1 (1.000000)
    net charge:   0.00000000 [e]

Amount of molecules per component :
-------------------------------------------------------------------------------
Component 0 (CO2)
    molecules:      2.000000e+02 molecules  (2.000000e+02 +/- 0.000000e+00)
    number density: 1.463901e-02 molec./A^3 (1.469383e-02 +/- 0.000000e+00)
    density:        1.069551e+03 kg/m^3     (1.073556e+03 +/- 0.000000e+00)

Average pressure tensor: 
-------------------------------------------------------------------------------
 6.8605e+01 -1.5794e+02 -2.0991e+01 +/- 0.0000e+00 0.0000e+00 0.0000e+00 [bar]
-1.5794e+02  1.5142e+02 -1.8007e+01 +/- 0.0000e+00 0.0000e+00 0.0000e+00 [bar]
-2.0991e+01 -1.8007e+01  1.6579e+01 +/- 0.0000e+00 0.0000e+00 0.0000e+00 [bar]
Ideal-gas pressure:   5.071760e+02 +/ 0.000000e+00 [bar]
Excess pressure:     -4.283085e+02 +/ 0.000000e+00 [bar]
Pressure:             7.886758e+01 +/ 0.000000e+00 [bar]

Total potential energy/kʙ  -3.034531e+05 (-3.090407e+05 +/- 0.000000e+00) [K]
-------------------------------------------------------------------------------
ExternalField-molecule
    Van der Waals/kʙ        0.000000e+00 ( 0.000000e+00 +/- 0.000000e+00) [K]
Framework-molecule
    Van der Waals/kʙ        0.000000e+00 ( 0.000000e+00 +/- 0.000000e+00) [K]
    Van der Waals (Tail)/kʙ 0.000000e+00 ( 0.000000e+00 +/- 0.000000e+00) [K]
    Coulombic Real/kʙ       0.000000e+00 ( 0.000000e+00 +/- 0.000000e+00) [K]
    Coulombic Fourier/kʙ    0.000000e+00 ( 0.000000e+00 +/- 0.000000e+00) [K]
Molecule-molecule
    Van der Waals/kʙ       -2.184501e+05 (-2.204480e+05 +/- 0.000000e+00) [K]
    Van der Waals (Tail)/kʙ-9.393997e+03 (-9.427282e+03 +/- 0.000000e+00) [K]
    Coulombic Real/kʙ      -6.021979e+04 (-6.354874e+04 +/- 0.000000e+00) [K]
    Coulombic Fourier/kʙ   -1.538921e+04 (-1.561673e+04 +/- 0.000000e+00) [K]
    Molecule Intra/kʙ       0.000000e+00 ( 0.000000e+00 +/- 0.000000e+00) [K]

Current cycle: 1000 out of 5000
===============================================================================

Box:      23.73869   0.00000   0.00000  Average:  23.87394   0.00000   0.00000
           0.00000  23.73869   0.00000             0.00000  23.87394   0.00000
           0.00000   0.00000  23.73869             0.00000   0.00000  23.87394
Lengths:  23.73869  23.73869  23.73869  Average:  23.87394  23.87394  23.87394
Angles:   90.00000  90.00000  90.00000  Average:  90.00000  90.00000  90.00000
Rectangular boundary conditions

net charge:   0.00000000

component 0 (CO2) lambda:  0 occupancy:  1 (1.000000)
    net charge:   0.00000000 [e]

Amount of molecules per component :
-------------------------------------------------------------------------------
Component 0 (CO2)
    molecules:      2.000000e+02 molecules  (2.000000e+02 +/- 0.000000e+00)
    number density: 1.495064e-02 molec./A^3 (1.470081e-02 +/- 0.000000e+00)
    density:        1.092319e+03 kg/m^3     (1.074066e+03 +/- 0.000000e+00)

Average pressure tensor: 
-------------------------------------------------------------------------------
 5.3952e+01 -1.3017e+02 -6.6889e+00 +/- 0.0000e+00 0.0000e+00 0.0000e+00 [bar]
-1.3017e+02  1.1788e+02 -2.2763e+01 +/- 0.0000e+00 0.0000e+00 0.0000e+00 [bar]
-6.6889e+00 -2.2763e+01  2.1716e+01 +/- 0.0000e+00 0.0000e+00 0.0000e+00 [bar]
Ideal-gas pressure:   5.074170e+02 +/ 0.000000e+00 [bar]
Excess pressure:     -4.429020e+02 +/ 0.000000e+00 [bar]
Pressure:             6.451503e+01 +/ 0.000000e+00 [bar]

Total potential energy/kʙ  -3.155137e+05 (-3.092659e+05 +/- 0.000000e+00) [K]
-------------------------------------------------------------------------------
ExternalField-molecule
    Van der Waals/kʙ        0.000000e+00 ( 0.000000e+00 +/- 0.000000e+00) [K]
Framework-molecule
    Van der Waals/kʙ        0.000000e+00 ( 0.000000e+00 +/- 0.000000e+00) [K]
    Van der Waals (Tail)/kʙ 0.000000e+00 ( 0.000000e+00 +/- 0.000000e+00) [K]
    Coulombic Real/kʙ       0.000000e+00 ( 0.000000e+00 +/- 0.000000e+00) [K]
    Coulombic Fourier/kʙ    0.000000e+00 ( 0.000000e+00 +/- 0.000000e+00) [K]
Molecule-molecule
    Van der Waals/kʙ       -2.207062e+05 (-2.206535e+05 +/- 0.000000e+00) [K]
    Van der Waals (Tail)/kʙ-9.593970e+03 (-9.431966e+03 +/- 0.000000e+00) [K]
    Coulombic Real/kʙ      -6.912899e+04 (-6.355406e+04 +/- 0.000000e+00) [K]
    Coulombic Fourier/kʙ   -1.608449e+04 (-1.562632e+04 +/- 0.000000e+00) [K]
    Molecule Intra/kʙ       0.000000e+00 ( 0.000000e+00 +/- 0.000000e+00) [K]

Current cycle: 1100 out of 5000
===============================================================================

Box:      24.12105   0.00000   0.00000  Average:  23.88134   0.00000   0.00000
           0.00000  24.12105   0.00000             0.00000  23.88134   0.00000
           0.00000   0.00000  24.12105             0.00000   0.00000  23.88134
Lengths:  24.12105  24.12105  24.12105  Average:  23.88134  23.88134  23.88134
Angles:   90.00000  90.00000  90.00000  Average:  90.00000  90.00000  90.00000
Rectangular boundary conditions

net charge:   0.00000000

component 0 (CO2) lambda:  0 occupancy:  1 (1.000000)
    net charge:   0.00000000 [e]

Amount of molecules per component :
-------------------------------------------------------------------------------
Component 0 (CO2)
    molecules:      2.000000e+02 molecules  (2.000000e+02 +/- 0.000000e+00)
    number density: 1.425087e-02 molec./A^3 (1.468721e-02 +/- 0.000000e+00)
    density:        1.041193e+03 kg/m^3     (1.073072e+03 +/- 0.000000e+00)

Average pressure tensor: 
-------------------------------------------------------------------------------
 4.5413e+01 -1.0253e+02 -1.1998e+01 +/- 0.0000e+00 0.0000e+00 0.0000e+00 [bar]
-1.0253e+02  1.1926e+02 -2.1754e+01 +/- 0.0000e+00 0.0000e+00 0.0000e+00 [bar]
-1.1998e+01 -2.1754e+01  2.3265e+01 +/- 0.0000e+00 0.0000e+00 0.0000e+00 [bar]
Ideal-gas pressure:   5.069474e+02 +/ 0.000000e+00 [bar]
Excess pressure:     -4.443020e+02 +/ 0.000000e+00 [bar]
Pressure:             6.264533e+01 +/ 0.000000e+00 [bar]

Total potential energy/kʙ  -3.026121e+05 (-3.088990e+05 +/- 0.000000e+00) [K]
-------------------------------------------------------------------------------
ExternalField-molecule
    Van der Waals/kʙ        0.000000e+00 ( 0.000000e+00 +/- 0.000000e+00) [K]
Framework-molecule
    Van der Waals/kʙ        0.000000e+00 ( 0.000000e+00 +/- 0.000000e+00) [K]
    Van der Waals (Tail)/kʙ 0.000000e+00 ( 0.000000e+00 +/- 0.000000e+00) [K]
    Coulombic Real/kʙ       0.000000e+00 ( 0.000000e+00 +/- 0.000000e+00) [K]
    Coulombic Fourier/kʙ    0.000000e+00 ( 0.000000e+00 +/- 0.000000e+00) [K]
Molecule-molecule
    Van der Waals/kʙ       -2.170448e+05 (-2.204604e+05 +/- 0.000000e+00) [K]
    Van der Waals (Tail)/kʙ-9.144926e+03 (-9.421696e+03 +/- 0.000000e+00) [K]
    Coulombic Real/kʙ      -6.095489e+04 (-6.338320e+04 +/- 0.000000e+00) [K]
    Coulombic Fourier/kʙ   -1.546754e+04 (-1.563378e+04 +/- 0.000000e+00) [K]
    Molecule Intra/kʙ       0.000000e+00 ( 0.000000e+00 +/- 0.000000e+00) [K]

Current cycle: 1200 out of 5000
===============================================================================

Box:      24.38998   0.00000   0.00000  Average:  23.90687   0.00000   0.00000
           0.00000  24.38998   0.00000             0.00000  23.90687   0.00000
           0.00000   0.00000  24.38998             0.00000   0.00000  23.90687
Lengths:  24.38998  24.38998  24.38998  Average:  23.90687  23.90687  23.90687
Angles:   90.00000  90.00000  90.00000  Average:  90.00000  90.00000  90.00000
Rectangular boundary conditions

net charge:   0.00000000

component 0 (CO2) lambda:  0 occupancy:  1 (1.000000)
    net charge:   0.00000000 [e]

Amount of molecules per component :
-------------------------------------------------------------------------------
Component 0 (CO2)
    molecules:      2.000000e+02 molecules  (2.000000e+02 +/- 0.000000e+00)
    number density: 1.378465e-02 molec./A^3 (1.464143e-02 +/- 0.000000e+00)
    density:        1.007130e+03 kg/m^3     (1.069728e+03 +/- 0.000000e+00)

Average pressure tensor: 
-------------------------------------------------------------------------------
 2.6665e+01 -8.4076e+01 -9.6321e+00 +/- 0.0000e+00 0.0000e+00 0.0000e+00 [bar]
-8.4076e+01  9.4601e+01 -3.5219e+01 +/- 0.0000e+00 0.0000e+00 0.0000e+00 [bar]
-9.6321e+00 -3.5219e+01  3.2344e+01 +/- 0.0000e+00 0.0000e+00 0.0000e+00 [bar]
Ideal-gas pressure:   5.053675e+02 +/ 0.000000e+00 [bar]
Excess pressure:     -4.541642e+02 +/ 0.000000e+00 [bar]
Pressure:             5.120321e+01 +/ 0.000000e+00 [bar]

Total potential energy/kʙ  -2.882047e+05 (-3.079089e+05 +/- 0.000000e+00) [K]
-------------------------------------------------------------------------------
ExternalField-molecule
    Van der Waals/kʙ        0.000000e+00 ( 0.000000e+00 +/- 0.000000e+00) [K]
Framework-molecule
    Van der Waals/kʙ        0.000000e+00 ( 0.000000e+00 +/- 0.000000e+00) [K]
    Van der Waals (Tail)/kʙ 0.000000e+00 ( 0.000000e+00 +/- 0.000000e+00) [K]
    Coulombic Real/kʙ       0.000000e+00 ( 0.000000e+00 +/- 0.000000e+00) [K]
    Coulombic Fourier/kʙ    0.000000e+00 ( 0.000000e+00 +/- 0.000000e+00) [K]
Molecule-molecule
    Van der Waals/kʙ       -2.037008e+05 (-2.198935e+05 +/- 0.000000e+00) [K]
    Van der Waals (Tail)/kʙ-8.845745e+03 (-9.389858e+03 +/- 0.000000e+00) [K]
    Coulombic Real/kʙ      -6.081611e+04 (-6.303350e+04 +/- 0.000000e+00) [K]
    Coulombic Fourier/kʙ   -1.484206e+04 (-1.559202e+04 +/- 0.000000e+00) [K]
    Molecule Intra/kʙ       0.000000e+00 ( 0.000000e+00 +/- 0.000000e+00) [K]

Current cycle: 1300 out of 5000
===============================================================================

Box:      24.41169   0.00000   0.00000  Average:  23.94766   0.00000   0.00000
           0.00000  24.41169   0.00000             0.00000  23.94766   0.00000
           0.00000   0.00000  24.41169             0.00000   0.00000  23.94766
Lengths:  24.41169  24.41169  24.41169  Average:  23.94766  23.94766  23.94766
Angles:   90.00000  90.00000  90.00000  Average:  90.00000  90.00000  90.00000
Rectangular boundary conditions

net charge:   0.00000000

component 0 (CO2) lambda:  0 occupancy:  1 (1.000000)
    net charge:   0.00000000 [e]

Amount of molecules per component :
-------------------------------------------------------------------------------
Component 0 (CO2)
    molecules:      2.000000e+02 molecules  (2.000000e+02 +/- 0.000000e+00)
    number density: 1.374790e-02 molec./A^3 (1.456951e-02 +/- 0.000000e+00)
    density:        1.004445e+03 kg/m^3     (1.064473e+03 +/- 0.000000e+00)

Average pressure tensor: 
-------------------------------------------------------------------------------
 1.7413e+01 -8.3010e+01  3.5940e-01 +/- 0.0000e+00 0.0000e+00 0.0000e+00 [bar]
-8.3010e+01  8.5267e+01 -4.5504e+01 +/- 0.0000e+00 0.0000e+00 0.0000e+00 [bar]
 3.5940e-01 -4.5504e+01  2.0630e+01 +/- 0.0000e+00 0.0000e+00 0.0000e+00 [bar]
Ideal-gas pressure:   5.028850e+02 +/ 0.000000e+00 [bar]
Excess pressure:     -4.617817e+02 +/ 0.000000e+00 [bar]
Pressure:             4.110331e+01 +/ 0.000000e+00 [bar]

Total potential energy/kʙ  -2.858456e+05 (-3.061723e+05 +/- 0.000000e+00) [K]
-------------------------------------------------------------------------------
ExternalField-molecule
    Van der Waals/kʙ        0.000000e+00 ( 0.000000e+00 +/- 0.000000e+00) [K]
Framework-molecule
    Van der Waals/kʙ        0.000000e+00 ( 0.000000e+00 +/- 0.000000e+00) [K]
    Van der Waals (Tail)/kʙ 0.000000e+00 ( 0.000000e+00 +/- 0.000000e+00) [K]
    Coulombic Real/kʙ       0.000000e+00 ( 0.000000e+00 +/- 0.000000e+00) [K]
    Coulombic Fourier/kʙ    0.000000e+00 ( 0.000000e+00 +/- 0.000000e+00) [K]
Molecule-molecule
    Van der Waals/kʙ       -2.072492e+05 (-2.187845e+05 +/- 0.000000e+00) [K]
    Van der Waals (Tail)/kʙ-8.822164e+03 (-9.343473e+03 +/- 0.000000e+00) [K]
    Coulombic Real/kʙ      -5.442040e+04 (-6.255488e+04 +/- 0.000000e+00) [K]
    Coulombic Fourier/kʙ   -1.535382e+04 (-1.548941e+04 +/- 0.000000e+00) [K]
    Molecule Intra/kʙ       0.000000e+00 ( 0.000000e+00 +/- 0.000000e+00) [K]

Current cycle: 1400 out of 5000
===============================================================================

Box:      23.83145   0.00000   0.00000  Average:  23.95943   0.00000   0.00000
           0.00000  23.83145   0.00000             0.00000  23.95943   0.00000
           0.00000   0.00000  23.83145             0.00000   0.00000  23.95943
Lengths:  23.83145  23.83145  23.83145  Average:  23.95943  23.95943  23.95943
Angles:   90.00000  90.00000  90.00000  Average:  90.00000  90.00000  90.00000
Rectangular boundary conditions

net charge:   0.00000000

component 0 (CO2) lambda:  0 occupancy:  1 (1.000000)
    net charge:   0.00000000 [e]

Amount of molecules per component :
-------------------------------------------------------------------------------
Component 0 (CO2)
    molecules:      2.000000e+02 molecules  (2.000000e+02 +/- 0.000000e+00)
    number density: 1.477674e-02 molec./A^3 (1.454827e-02 +/- 0.000000e+00)
    density:        1.079614e+03 kg/m^3     (1.062922e+03 +/- 0.000000e+00)

Average pressure tensor: 
-------------------------------------------------------------------------------
-1.2629e+00 -8.4971e+01  1.4935e+01 +/- 0.0000e+00 0.0000e+00 0.0000e+00 [bar]
-8.4971e+01  7.7010e+01 -4.1351e+01 +/- 0.0000e+00 0.0000e+00 0.0000e+00 [bar]
 1.4935e+01 -4.1351e+01  2.7519e+01 +/- 0.0000e+00 0.0000e+00 0.0000e+00 [bar]
Ideal-gas pressure:   5.021519e+02 +/ 0.000000e+00 [bar]
Excess pressure:     -4.677297e+02 +/ 0.000000e+00 [bar]
Pressure:             3.442217e+01 +/ 0.000000e+00 [bar]

Total potential energy/kʙ  -3.044665e+05 (-3.056139e+05 +/- 0.000000e+00) [K]
-------------------------------------------------------------------------------
ExternalField-molecule
    Van der Waals/kʙ        0.000000e+00 ( 0.000000e+00 +/- 0.000000e+00) [K]
Framework-molecule
    Van der Waals/kʙ        0.000000e+00 ( 0.000000e+00 +/- 0.000000e+00) [K]
    Van der Waals (Tail)/kʙ 0.000000e+00 ( 0.000000e+00 +/- 0.000000e+00) [K]
    Coulombic Real/kʙ       0.000000e+00 ( 0.000000e+00 +/- 0.000000e+00) [K]
    Coulombic Fourier/kʙ    0.000000e+00 ( 0.000000e+00 +/- 0.000000e+00) [K]
Molecule-molecule
    Van der Waals/kʙ       -2.158524e+05 (-2.185646e+05 +/- 0.000000e+00) [K]
    Van der Waals (Tail)/kʙ-9.482382e+03 (-9.331700e+03 +/- 0.000000e+00) [K]
    Coulombic Real/kʙ      -6.434308e+04 (-6.228545e+04 +/- 0.000000e+00) [K]
    Coulombic Fourier/kʙ   -1.478859e+04 (-1.543222e+04 +/- 0.000000e+00) [K]
    Molecule Intra/kʙ       0.000000e+00 ( 0.000000e+00 +/- 0.000000e+00) [K]

Current cycle: 1500 out of 5000
===============================================================================

Box:      23.94794   0.00000   0.00000  Average:  23.96215   0.00000   0.00000
           0.00000  23.94794   0.00000             0.00000  23.96215   0.00000
           0.00000   0.00000  23.94794             0.00000   0.00000  23.96215
Lengths:  23.94794  23.94794  23.94794  Average:  23.96215  23.96215  23.96215
Angles:   90.00000  90.00000  90.00000  Average:  90.00000  90.00000  90.00000
Rectangular boundary conditions

net charge:   0.00000000

component 0 (CO2) lambda:  0 occupancy:  1 (1.000000)
    net charge:   0.00000000 [e]

Amount of molecules per component :
-------------------------------------------------------------------------------
Component 0 (CO2)
    molecules:      2.000000e+02 molecules  (2.000000e+02 +/- 0.000000e+00)
    number density: 1.456215e-02 molec./A^3 (1.454310e-02 +/- 0.000000e+00)
    density:        1.063935e+03 kg/m^3     (1.062544e+03 +/- 0.000000e+00)

Average pressure tensor: 
-------------------------------------------------------------------------------
 6.8242e+00 -8.1848e+01  1.5763e+01 +/- 0.0000e+00 0.0000e+00 0.0000e+00 [bar]
-8.1848e+01  8.6016e+01 -3.0199e+01 +/- 0.0000e+00 0.0000e+00 0.0000e+00 [bar]
 1.5763e+01 -3.0199e+01  4.3391e+01 +/- 0.0000e+00 0.0000e+00 0.0000e+00 [bar]
Ideal-gas pressure:   5.019734e+02 +/ 0.000000e+00 [bar]
Excess pressure:     -4.565632e+02 +/ 0.000000e+00 [bar]
Pressure:             4.541026e+01 +/ 0.000000e+00 [bar]

Total potential energy/kʙ  -3.086146e+05 (-3.055456e+05 +/- 0.000000e+00) [K]
-------------------------------------------------------------------------------
ExternalField-molecule
    Van der Waals/kʙ        0.000000e+00 ( 0.000000e+00 +/- 0.000000e+00) [K]
Framework-molecule
    Van der Waals/kʙ        0.000000e+00 ( 0.000000e+00 +/- 0.000000e+00) [K]
    Van der Waals (Tail)/kʙ 0.000000e+00 ( 0.000000e+00 +/- 0.000000e+00) [K]
    Coulombic Real/kʙ       0.000000e+00 ( 0.000000e+00 +/- 0.000000e+00) [K]
    Coulombic Fourier/kʙ    0.000000e+00 ( 0.000000e+00 +/- 0.000000e+00) [K]
Molecule-molecule
    Van der Waals/kʙ       -2.161075e+05 (-2.184126e+05 +/- 0.000000e+00) [K]
    Van der Waals (Tail)/kʙ-9.344672e+03 (-9.330750e+03 +/- 0.000000e+00) [K]
    Coulombic Real/kʙ      -6.652947e+04 (-6.234883e+04 +/- 0.000000e+00) [K]
    Coulombic Fourier/kʙ   -1.663293e+04 (-1.545338e+04 +/- 0.000000e+00) [K]
    Molecule Intra/kʙ       0.000000e+00 ( 0.000000e+00 +/- 0.000000e+00) [K]

Current cycle: 1600 out of 5000
===============================================================================

Box:      24.07357   0.00000   0.00000  Average:  23.96616   0.00000   0.00000
           0.00000  24.07357   0.00000             0.00000  23.96616   0.00000
           0.00000   0.00000  24.07357             0.00000   0.00000  23.96616
Lengths:  24.07357  24.07357  24.07357  Average:  23.96616  23.96616  23.96616
Angles:   90.00000  90.00000  90.00000  Average:  90.00000  90.00000  90.00000
Rectangular boundary conditions

net charge:   0.00000000

component 0 (CO2) lambda:  0 occupancy:  1 (1.000000)
    net charge:   0.00000000 [e]

Amount of molecules per component :
-------------------------------------------------------------------------------
Component 0 (CO2)
    molecules:      2.000000e+02 molecules  (2.000000e+02 +/- 0.000000e+00)
    number density: 1.433536e-02 molec./A^3 (1.453546e-02 +/- 0.000000e+00)
    density:        1.047366e+03 kg/m^3     (1.061985e+03 +/- 0.000000e+00)

Average pressure tensor: 
-------------------------------------------------------------------------------
 3.3452e+01 -6.8420e+01  1.5670e+01 +/- 0.0000e+00 0.0000e+00 0.0000e+00 [bar]
-6.8420e+01  7.2609e+01 -3.2909e+01 +/- 0.0000e+00 0.0000e+00 0.0000e+00 [bar]
 1.5670e+01 -3.2909e+01  2.3678e+01 +/- 0.0000e+00 0.0000e+00 0.0000e+00 [bar]
Ideal-gas pressure:   5.017095e+02 +/ 0.000000e+00 [bar]
Excess pressure:     -4.584634e+02 +/ 0.000000e+00 [bar]
Pressure:             4.324615e+01 +/ 0.000000e+00 [bar]

Total potential energy/kʙ  -2.982816e+05 (-3.053948e+05 +/- 0.000000e+00) [K]
-------------------------------------------------------------------------------
ExternalField-molecule
    Van der Waals/kʙ        0.000000e+00 ( 0.000000e+00 +/- 0.000000e+00) [K]
Framework-molecule
    Van der Waals/kʙ        0.000000e+00 ( 0.000000e+00 +/- 0.000000e+00) [K]
    Van der Waals (Tail)/kʙ 0.000000e+00 ( 0.000000e+00 +/- 0.000000e+00) [K]
    Coulombic Real/kʙ       0.000000e+00 ( 0.000000e+00 +/- 0.000000e+00) [K]
    Coulombic Fourier/kʙ    0.000000e+00 ( 0.000000e+00 +/- 0.000000e+00) [K]
Molecule-molecule
    Van der Waals/kʙ       -2.171958e+05 (-2.184105e+05 +/- 0.000000e+00) [K]
    Van der Waals (Tail)/kʙ-9.199142e+03 (-9.325773e+03 +/- 0.000000e+00) [K]
    Coulombic Real/kʙ      -5.663062e+04 (-6.220454e+04 +/- 0.000000e+00) [K]
    Coulombic Fourier/kʙ   -1.525599e+04 (-1.545396e+04 +/- 0.000000e+00) [K]
    Molecule Intra/kʙ       0.000000e+00 ( 0.000000e+00 +/- 0.000000e+00) [K]

Current cycle: 1700 out of 5000
===============================================================================

Box:      24.03612   0.00000   0.00000  Average:  23.96695   0.00000   0.00000
           0.00000  24.03612   0.00000             0.00000  23.96695   0.00000
           0.00000   0.00000  24.03612             0.00000   0.00000  23.96695
Lengths:  24.03612  24.03612  24.03612  Average:  23.96695  23.96695  23.96695
Angles:   90.00000  90.00000  90.00000  Average:  90.00000  90.00000  90.00000
Rectangular boundary conditions

net charge:   0.00000000

component 0 (CO2) lambda:  0 occupancy:  1 (1.000000)
    net charge:   0.00000000 [e]

Amount of molecules per component :
-------------------------------------------------------------------------------
Component 0 (CO2)
    molecules:      2.000000e+02 molecules  (2.000000e+02 +/- 0.000000e+00)
    number density: 1.440247e-02 molec./A^3 (1.453375e-02 +/- 0.000000e+00)
    density:        1.052269e+03 kg/m^3     (1.061861e+03 +/- 0.000000e+00)

Average pressure tensor: 
-------------------------------------------------------------------------------
 6.0820e+01 -7.1208e+01  4.5300e+00 +/- 0.0000e+00 0.0000e+00 0.0000e+00 [bar]
-7.1208e+01  6.9269e+01 -2.6952e+01 +/- 0.0000e+00 0.0000e+00 0.0000e+00 [bar]
 4.5300e+00 -2.6952e+01  2.7766e+01 +/- 0.0000e+00 0.0000e+00 0.0000e+00 [bar]
Ideal-gas pressure:   5.016506e+02 +/ 0.000000e+00 [bar]
Excess pressure:     -4.490324e+02 +/ 0.000000e+00 [bar]
Pressure:             5.261817e+01 +/ 0.000000e+00 [bar]

Total potential energy/kʙ  -3.001820e+05 (-3.053084e+05 +/- 0.000000e+00) [K]
-------------------------------------------------------------------------------
ExternalField-molecule
    Van der Waals/kʙ        0.000000e+00 ( 0.000000e+00 +/- 0.000000e+00) [K]
Framework-molecule
    Van der Waals/kʙ        0.000000e+00 ( 0.000000e+00 +/- 0.000000e+00) [K]
    Van der Waals (Tail)/kʙ 0.000000e+00 ( 0.000000e+00 +/- 0.000000e+00) [K]
    Coulombic Real/kʙ       0.000000e+00 ( 0.000000e+00 +/- 0.000000e+00) [K]
    Coulombic Fourier/kʙ    0.000000e+00 ( 0.000000e+00 +/- 0.000000e+00) [K]
Molecule-molecule
    Van der Waals/kʙ       -2.138649e+05 (-2.183625e+05 +/- 0.000000e+00) [K]
    Van der Waals (Tail)/kʙ-9.242207e+03 (-9.326339e+03 +/- 0.000000e+00) [K]
    Coulombic Real/kʙ      -6.146045e+04 (-6.215789e+04 +/- 0.000000e+00) [K]
    Coulombic Fourier/kʙ   -1.561444e+04 (-1.546162e+04 +/- 0.000000e+00) [K]
    Molecule Intra/kʙ       0.000000e+00 ( 0.000000e+00 +/- 0.000000e+00) [K]

Current cycle: 1800 out of 5000
===============================================================================

Box:      24.20817   0.00000   0.00000  Average:  23.98429   0.00000   0.00000
           0.00000  24.20817   0.00000             0.00000  23.98429   0.00000
           0.00000   0.00000  24.20817             0.00000   0.00000  23.98429
Lengths:  24.20817  24.20817  24.20817  Average:  23.98429  23.98429  23.98429
Angles:   90.00000  90.00000  90.00000  Average:  90.00000  90.00000  90.00000
Rectangular boundary conditions

net charge:   0.00000000

component 0 (CO2) lambda:  0 occupancy:  1 (1.000000)
    net charge:   0.00000000 [e]

Amount of molecules per component :
-------------------------------------------------------------------------------
Component 0 (CO2)
    molecules:      2.000000e+02 molecules  (2.000000e+02 +/- 0.000000e+00)
    number density: 1.409757e-02 molec./A^3 (1.450287e-02 +/- 0.000000e+00)
    density:        1.029993e+03 kg/m^3     (1.059605e+03 +/- 0.000000e+00)

Average pressure tensor: 
-------------------------------------------------------------------------------
 6.1757e+01 -7.7112e+01 -3.6573e+00 +/- 0.0000e+00 0.0000e+00 0.0000e+00 [bar]
-7.7112e+01  6.1154e+01 -2.0460e+01 +/- 0.0000e+00 0.0000e+00 0.0000e+00 [bar]
-3.6573e+00 -2.0460e+01  3.2123e+01 +/- 0.0000e+00 0.0000e+00 0.0000e+00 [bar]
Ideal-gas pressure:   5.005849e+02 +/ 0.000000e+00 [bar]
Excess pressure:     -4.489068e+02 +/ 0.000000e+00 [bar]
Pressure:             5.167812e+01 +/ 0.000000e+00 [bar]

Total potential energy/kʙ  -3.009882e+05 (-3.047993e+05 +/- 0.000000e+00) [K]
-------------------------------------------------------------------------------
ExternalField-molecule
    Van der Waals/kʙ        0.000000e+00 ( 0.000000e+00 +/- 0.000000e+00) [K]
Framework-molecule
    Van der Waals/kʙ        0.000000e+00 ( 0.000000e+00 +/- 0.000000e+00) [K]
    Van der Waals (Tail)/kʙ 0.000000e+00 ( 0.000000e+00 +/- 0.000000e+00) [K]
    Coulombic Real/kʙ       0.000000e+00 ( 0.000000e+00 +/- 0.000000e+00) [K]
    Coulombic Fourier/kʙ    0.000000e+00 ( 0.000000e+00 +/- 0.000000e+00) [K]
Molecule-molecule
    Van der Waals/kʙ       -2.119615e+05 (-2.179249e+05 +/- 0.000000e+00) [K]
    Van der Waals (Tail)/kʙ-9.046551e+03 (-9.307948e+03 +/- 0.000000e+00) [K]
    Coulombic Real/kʙ      -6.484317e+04 (-6.213580e+04 +/- 0.000000e+00) [K]
    Coulombic Fourier/kʙ   -1.513707e+04 (-1.543063e+04 +/- 0.000000e+00) [K]
    Molecule Intra/kʙ       0.000000e+00 ( 0.000000e+00 +/- 0.000000e+00) [K]

Current cycle: 1900 out of 5000
===============================================================================

Box:      24.23044   0.00000   0.00000  Average:  23.99774   0.00000   0.00000
           0.00000  24.23044   0.00000             0.00000  23.99774   0.00000
           0.00000   0.00000  24.23044             0.00000   0.00000  23.99774
Lengths:  24.23044  24.23044  24.23044  Average:  23.99774  23.99774  23.99774
Angles:   90.00000  90.00000  90.00000  Average:  90.00000  90.00000  90.00000
Rectangular boundary conditions

net charge:   0.00000000

component 0 (CO2) lambda:  0 occupancy:  1 (1.000000)
    net charge:   0.00000000 [e]

Amount of molecules per component :
-------------------------------------------------------------------------------
Component 0 (CO2)
    molecules:      2.000000e+02 molecules  (2.000000e+02 +/- 0.000000e+00)
    number density: 1.405873e-02 molec./A^3 (1.447874e-02 +/- 0.000000e+00)
    density:        1.027155e+03 kg/m^3     (1.057842e+03 +/- 0.000000e+00)

Average pressure tensor: 
-------------------------------------------------------------------------------
 7.2219e+01 -7.0826e+01 -2.2256e+00 +/- 0.0000e+00 0.0000e+00 0.0000e+00 [bar]
-7.0826e+01  4.9824e+01 -2.3679e+01 +/- 0.0000e+00 0.0000e+00 0.0000e+00 [bar]
-2.2256e+00 -2.3679e+01  2.9584e+01 +/- 0.0000e+00 0.0000e+00 0.0000e+00 [bar]
Ideal-gas pressure:   4.997520e+02 +/ 0.000000e+00 [bar]
Excess pressure:     -4.492096e+02 +/ 0.000000e+00 [bar]
Pressure:             5.054241e+01 +/ 0.000000e+00 [bar]

Total potential energy/kʙ  -3.028239e+05 (-3.045145e+05 +/- 0.000000e+00) [K]
-------------------------------------------------------------------------------
ExternalField-molecule
    Van der Waals/kʙ        0.000000e+00 ( 0.000000e+00 +/- 0.000000e+00) [K]
Framework-molecule
    Van der Waals/kʙ        0.000000e+00 ( 0.000000e+00 +/- 0.000000e+00) [K]
    Van der Waals (Tail)/kʙ 0.000000e+00 ( 0.000000e+00 +/- 0.000000e+00) [K]
    Coulombic Real/kʙ       0.000000e+00 ( 0.000000e+00 +/- 0.000000e+00) [K]
    Coulombic Fourier/kʙ    0.000000e+00 ( 0.000000e+00 +/- 0.000000e+00) [K]
Molecule-molecule
    Van der Waals/kʙ       -2.114527e+05 (-2.175718e+05 +/- 0.000000e+00) [K]
    Van der Waals (Tail)/kʙ-9.021628e+03 (-9.293098e+03 +/- 0.000000e+00) [K]
    Coulombic Real/kʙ      -6.578819e+04 (-6.222008e+04 +/- 0.000000e+00) [K]
    Coulombic Fourier/kʙ   -1.656140e+04 (-1.542956e+04 +/- 0.000000e+00) [K]
    Molecule Intra/kʙ       0.000000e+00 ( 0.000000e+00 +/- 0.000000e+00) [K]

Current cycle: 2000 out of 5000
===============================================================================

Box:      24.08049   0.00000   0.00000  Average:  24.00617   0.00000   0.00000
           0.00000  24.08049   0.00000             0.00000  24.00617   0.00000
           0.00000   0.00000  24.08049             0.00000   0.00000  24.00617
Lengths:  24.08049  24.08049  24.08049  Average:  24.00617  24.00617  24.00617
Angles:   90.00000  90.00000  90.00000  Average:  90.00000  90.00000  90.00000
Rectangular boundary conditions

net charge:   0.00000000

component 0 (CO2) lambda:  0 occupancy:  1 (1.000000)
    net charge:   0.00000000 [e]

Amount of molecules per component :
-------------------------------------------------------------------------------
Component 0 (CO2)
    molecules:      2.000000e+02 molecules  (2.000000e+02 +/- 0.000000e+00)
    number density: 1.432300e-02 molec./A^3 (1.446339e-02 +/- 0.000000e+00)
    density:        1.046463e+03 kg/m^3     (1.056720e+03 +/- 0.000000e+00)

Average pressure tensor: 
-------------------------------------------------------------------------------
 7.5121e+01 -6.1191e+01  2.2370e+00 +/- 0.0000e+00 0.0000e+00 0.0000e+00 [bar]
-6.1191e+01  5.9101e+01 -2.5432e+01 +/- 0.0000e+00 0.0000e+00 0.0000e+00 [bar]
 2.2370e+00 -2.5432e+01  2.5785e+01 +/- 0.0000e+00 0.0000e+00 0.0000e+00 [bar]
Ideal-gas pressure:   4.992223e+02 +/ 0.000000e+00 [bar]
Excess pressure:     -4.458867e+02 +/ 0.000000e+00 [bar]
Pressure:             5.333553e+01 +/ 0.000000e+00 [bar]

Total potential energy/kʙ  -2.960258e+05 (-3.040287e+05 +/- 0.000000e+00) [K]
-------------------------------------------------------------------------------
ExternalField-molecule
    Van der Waals/kʙ        0.000000e+00 ( 0.000000e+00 +/- 0.000000e+00) [K]
Framework-molecule
    Van der Waals/kʙ        0.000000e+00 ( 0.000000e+00 +/- 0.000000e+00) [K]
    Van der Waals (Tail)/kʙ 0.000000e+00 ( 0.000000e+00 +/- 0.000000e+00) [K]
    Coulombic Real/kʙ       0.000000e+00 ( 0.000000e+00 +/- 0.000000e+00) [K]
    Coulombic Fourier/kʙ    0.000000e+00 ( 0.000000e+00 +/- 0.000000e+00) [K]
Molecule-molecule
    Van der Waals/kʙ       -2.128805e+05 (-2.172979e+05 +/- 0.000000e+00) [K]
    Van der Waals (Tail)/kʙ-9.191210e+03 (-9.284745e+03 +/- 0.000000e+00) [K]
    Coulombic Real/kʙ      -5.906541e+04 (-6.204127e+04 +/- 0.000000e+00) [K]
    Coulombic Fourier/kʙ   -1.488869e+04 (-1.540477e+04 +/- 0.000000e+00) [K]
    Molecule Intra/kʙ       0.000000e+00 ( 0.000000e+00 +/- 0.000000e+00) [K]

Current cycle: 2100 out of 5000
===============================================================================

Box:      24.31083   0.00000   0.00000  Average:  24.01192   0.00000   0.00000
           0.00000  24.31083   0.00000             0.00000  24.01192   0.00000
           0.00000   0.00000  24.31083             0.00000   0.00000  24.01192
Lengths:  24.31083  24.31083  24.31083  Average:  24.01192  24.01192  24.01192
Angles:   90.00000  90.00000  90.00000  Average:  90.00000  90.00000  90.00000
Rectangular boundary conditions

net charge:   0.00000000

component 0 (CO2) lambda:  0 occupancy:  1 (1.000000)
    net charge:   0.00000000 [e]

Amount of molecules per component :
-------------------------------------------------------------------------------
Component 0 (CO2)
    molecules:      2.000000e+02 molecules  (2.000000e+02 +/- 0.000000e+00)
    number density: 1.391973e-02 molec./A^3 (1.445282e-02 +/- 0.000000e+00)
    density:        1.016999e+03 kg/m^3     (1.055948e+03 +/- 0.000000e+00)

Average pressure tensor: 
-------------------------------------------------------------------------------
 6.9913e+01 -5.8083e+01  3.0936e+00 +/- 0.0000e+00 0.0000e+00 0.0000e+00 [bar]
-5.8083e+01  6.1750e+01 -2.3823e+01 +/- 0.0000e+00 0.0000e+00 0.0000e+00 [bar]
 3.0936e+00 -2.3823e+01  3.8452e+01 +/- 0.0000e+00 0.0000e+00 0.0000e+00 [bar]
Ideal-gas pressure:   4.988574e+02 +/ 0.000000e+00 [bar]
Excess pressure:     -4.421524e+02 +/ 0.000000e+00 [bar]
Pressure:             5.670508e+01 +/ 0.000000e+00 [bar]

Total potential energy/kʙ  -2.934448e+05 (-3.037000e+05 +/- 0.000000e+00) [K]
-------------------------------------------------------------------------------
ExternalField-molecule
    Van der Waals/kʙ        0.000000e+00 ( 0.000000e+00 +/- 0.000000e+00) [K]
Framework-molecule
    Van der Waals/kʙ        0.000000e+00 ( 0.000000e+00 +/- 0.000000e+00) [K]
    Van der Waals (Tail)/kʙ 0.000000e+00 ( 0.000000e+00 +/- 0.000000e+00) [K]
[...]
    Coulombic Fourier/kʙ    0.000000e+00 ( 0.000000e+00 +/- 0.000000e+00) [K]
Molecule-molecule
    Van der Waals/kʙ       -2.073867e+05 (-2.169954e+05 +/- 4.651507e+03) [K]
    Van der Waals (Tail)/kʙ-8.919696e+03 (-9.259350e+03 +/- 2.008124e+02) [K]
    Coulombic Real/kʙ      -5.649840e+04 (-6.180695e+04 +/- 1.786861e+03) [K]
    Coulombic Fourier/kʙ   -1.546960e+04 (-1.529546e+04 +/- 3.662570e+02) [K]
    Molecule Intra/kʙ       0.000000e+00 ( 0.000000e+00 +/- 0.000000e+00) [K]

Current cycle: 4700 out of 5000
===============================================================================

Box:      24.34870   0.00000   0.00000  Average:  24.03234   0.00000   0.00000
           0.00000  24.34870   0.00000             0.00000  24.03234   0.00000
           0.00000   0.00000  24.34870             0.00000   0.00000  24.03234
Lengths:  24.34870  24.34870  24.34870  Average:  24.03234  24.03234  24.03234
Angles:   90.00000  90.00000  90.00000  Average:  90.00000  90.00000  90.00000
Rectangular boundary conditions

net charge:   0.00000000

component 0 (CO2) lambda:  0 occupancy:  1 (1.000000)
    net charge:   0.00000000 [e]

Amount of molecules per component :
-------------------------------------------------------------------------------
Component 0 (CO2)
    molecules:      2.000000e+02 molecules  (2.000000e+02 +/- 0.000000e+00)
    number density: 1.385487e-02 molec./A^3 (1.441683e-02 +/- 3.378155e-04)
    density:        1.012260e+03 kg/m^3     (1.053319e+03 +/- 2.468138e+01)

Average pressure tensor: 
-------------------------------------------------------------------------------
 2.1735e+01 -2.8250e+01 -5.6383e+00 +/- 6.7680e+01 7.6701e+01 3.8558e+01 [bar]
-2.8250e+01  6.5594e+01  8.8799e-01 +/- 7.6701e+01 7.9983e+01 4.0376e+01 [bar]
-5.6383e+00  8.8799e-01  1.4161e+01 +/- 3.8558e+01 4.0376e+01 2.3747e+01 [bar]
Ideal-gas pressure:   4.976152e+02 +/ 1.166013e+01 [bar]
Excess pressure:     -4.637851e+02 +/ 2.777389e+01 [bar]
Pressure:             3.383011e+01 +/ 3.158087e+01 [bar]

Total potential energy/kʙ  -2.851201e+05 (-3.029712e+05 +/- 7.348333e+03) [K]
-------------------------------------------------------------------------------
ExternalField-molecule
    Van der Waals/kʙ        0.000000e+00 ( 0.000000e+00 +/- 0.000000e+00) [K]
Framework-molecule
    Van der Waals/kʙ        0.000000e+00 ( 0.000000e+00 +/- 0.000000e+00) [K]
    Van der Waals (Tail)/kʙ 0.000000e+00 ( 0.000000e+00 +/- 0.000000e+00) [K]
    Coulombic Real/kʙ       0.000000e+00 ( 0.000000e+00 +/- 0.000000e+00) [K]
    Coulombic Fourier/kʙ    0.000000e+00 ( 0.000000e+00 +/- 0.000000e+00) [K]
Molecule-molecule
    Van der Waals/kʙ       -2.054330e+05 (-2.167480e+05 +/- 5.015698e+03) [K]
    Van der Waals (Tail)/kʙ-8.890805e+03 (-9.250146e+03 +/- 2.122925e+02) [K]
    Coulombic Real/kʙ      -5.579232e+04 (-6.168068e+04 +/- 1.950692e+03) [K]
    Coulombic Fourier/kʙ   -1.500400e+04 (-1.529243e+04 +/- 3.591391e+02) [K]
    Molecule Intra/kʙ       0.000000e+00 ( 0.000000e+00 +/- 0.000000e+00) [K]

Current cycle: 4800 out of 5000
===============================================================================

Box:      24.15004   0.00000   0.00000  Average:  24.03679   0.00000   0.00000
           0.00000  24.15004   0.00000             0.00000  24.03679   0.00000
           0.00000   0.00000  24.15004             0.00000   0.00000  24.03679
Lengths:  24.15004  24.15004  24.15004  Average:  24.03679  24.03679  24.03679
Angles:   90.00000  90.00000  90.00000  Average:  90.00000  90.00000  90.00000
Rectangular boundary conditions

net charge:   0.00000000

component 0 (CO2) lambda:  0 occupancy:  1 (1.000000)
    net charge:   0.00000000 [e]

Amount of molecules per component :
-------------------------------------------------------------------------------
Component 0 (CO2)
    molecules:      2.000000e+02 molecules  (2.000000e+02 +/- 0.000000e+00)
    number density: 1.419962e-02 molec./A^3 (1.440886e-02 +/- 3.369160e-04)
    density:        1.037448e+03 kg/m^3     (1.052736e+03 +/- 2.461566e+01)

Average pressure tensor: 
-------------------------------------------------------------------------------
 2.5611e+01 -2.5843e+01 -3.9808e+00 +/- 6.0776e+01 7.8147e+01 2.9224e+01 [bar]
-2.5843e+01  6.8259e+01  1.1270e+00 +/- 7.8147e+01 7.9158e+01 4.0412e+01 [bar]
-3.9808e+00  1.1270e+00  1.6215e+01 +/- 2.9224e+01 4.0412e+01 2.1485e+01 [bar]
Ideal-gas pressure:   4.973399e+02 +/ 1.162908e+01 [bar]
Excess pressure:     -4.606453e+02 +/ 2.586932e+01 [bar]
Pressure:             3.669458e+01 +/ 2.631250e+01 [bar]

Total potential energy/kʙ  -3.009779e+05 (-3.028148e+05 +/- 7.318476e+03) [K]
-------------------------------------------------------------------------------
ExternalField-molecule
    Van der Waals/kʙ        0.000000e+00 ( 0.000000e+00 +/- 0.000000e+00) [K]
Framework-molecule
    Van der Waals/kʙ        0.000000e+00 ( 0.000000e+00 +/- 0.000000e+00) [K]
    Van der Waals (Tail)/kʙ 0.000000e+00 ( 0.000000e+00 +/- 0.000000e+00) [K]
    Coulombic Real/kʙ       0.000000e+00 ( 0.000000e+00 +/- 0.000000e+00) [K]
    Coulombic Fourier/kʙ    0.000000e+00 ( 0.000000e+00 +/- 0.000000e+00) [K]
Molecule-molecule
    Van der Waals/kʙ       -2.144812e+05 (-2.166210e+05 +/- 5.018197e+03) [K]
    Van der Waals (Tail)/kʙ-9.112034e+03 (-9.246108e+03 +/- 2.089761e+02) [K]
    Coulombic Real/kʙ      -6.294180e+04 (-6.165608e+04 +/- 1.938566e+03) [K]
    Coulombic Fourier/kʙ   -1.444285e+04 (-1.529164e+04 +/- 3.508166e+02) [K]
    Molecule Intra/kʙ       0.000000e+00 ( 0.000000e+00 +/- 0.000000e+00) [K]

Current cycle: 4900 out of 5000
===============================================================================

Box:      24.41475   0.00000   0.00000  Average:  24.04279   0.00000   0.00000
           0.00000  24.41475   0.00000             0.00000  24.04279   0.00000
           0.00000   0.00000  24.41475             0.00000   0.00000  24.04279
Lengths:  24.41475  24.41475  24.41475  Average:  24.04279  24.04279  24.04279
Angles:   90.00000  90.00000  90.00000  Average:  90.00000  90.00000  90.00000
Rectangular boundary conditions

net charge:   0.00000000

component 0 (CO2) lambda:  0 occupancy:  1 (1.000000)
    net charge:   0.00000000 [e]

Amount of molecules per component :
-------------------------------------------------------------------------------
Component 0 (CO2)
    molecules:      2.000000e+02 molecules  (2.000000e+02 +/- 0.000000e+00)
    number density: 1.374274e-02 molec./A^3 (1.439821e-02 +/- 3.431883e-04)
    density:        1.004068e+03 kg/m^3     (1.051958e+03 +/- 2.507393e+01)

Average pressure tensor: 
-------------------------------------------------------------------------------
 2.6171e+01 -2.3482e+01 -3.8360e+00 +/- 5.9855e+01 7.9667e+01 2.6305e+01 [bar]
-2.3482e+01  7.0921e+01 -5.2308e-01 +/- 7.9667e+01 7.9439e+01 4.0168e+01 [bar]
-3.8360e+00 -5.2308e-01  1.9120e+01 +/- 2.6305e+01 4.0168e+01 2.2354e+01 [bar]
Ideal-gas pressure:   4.969725e+02 +/ 1.184558e+01 [bar]
Excess pressure:     -4.582352e+02 +/ 2.721132e+01 [bar]
Pressure:             3.873725e+01 +/ 2.529355e+01 [bar]

Total potential energy/kʙ  -2.827408e+05 (-3.026512e+05 +/- 7.327228e+03) [K]
-------------------------------------------------------------------------------
ExternalField-molecule
    Van der Waals/kʙ        0.000000e+00 ( 0.000000e+00 +/- 0.000000e+00) [K]
Framework-molecule
    Van der Waals/kʙ        0.000000e+00 ( 0.000000e+00 +/- 0.000000e+00) [K]
    Van der Waals (Tail)/kʙ 0.000000e+00 ( 0.000000e+00 +/- 0.000000e+00) [K]
    Coulombic Real/kʙ       0.000000e+00 ( 0.000000e+00 +/- 0.000000e+00) [K]
    Coulombic Fourier/kʙ    0.000000e+00 ( 0.000000e+00 +/- 0.000000e+00) [K]
Molecule-molecule
    Van der Waals/kʙ       -1.995906e+05 (-2.164122e+05 +/- 5.225134e+03) [K]
    Van der Waals (Tail)/kʙ-8.818849e+03 (-9.238791e+03 +/- 2.144163e+02) [K]
    Coulombic Real/kʙ      -6.033410e+04 (-6.171243e+04 +/- 1.826317e+03) [K]
    Coulombic Fourier/kʙ   -1.399719e+04 (-1.528785e+04 +/- 3.489503e+02) [K]
    Molecule Intra/kʙ       0.000000e+00 ( 0.000000e+00 +/- 0.000000e+00) [K]


Energy statistics             |  Energy [K]   | Recomputed [K]|  Drift [K]    |
===============================================================================
Total potential energy/kʙ     | -2.875458e+05 | -2.875458e+05 |  3.916059e-10 |
    external field VDW/kʙ     |  0.000000e+00 |  0.000000e+00 |  0.000000e+00 |
    external field Real/kʙ    |  0.000000e+00 |  0.000000e+00 |  0.000000e+00 |
    framework-molecule VDW/kʙ |  0.000000e+00 |  0.000000e+00 |  0.000000e+00 |
    framework-molecule Real/kʙ|  0.000000e+00 |  0.000000e+00 |  0.000000e+00 |
    molecule-molecule VDW/kʙ  | -2.024443e+05 | -2.024443e+05 |  2.100233e-10 |
    molecule-molecule Real/kʙ | -6.041051e+04 | -6.041051e+04 |  2.187743e-10 |
    Van der Waals (Tail)/kʙ   | -8.861972e+03 | -8.861972e+03 |  0.000000e+00 |
    Ewald Fourier/kʙ          |  1.323278e+04 |  1.323278e+04 | -3.719163e-11 |
    Ewald self/kʙ             | -4.445846e+06 | -4.445846e+06 |  0.000000e+00 |
    Ewald exclusion/kʙ        |  4.416785e+06 |  4.416785e+06 |  0.000000e+00 |
    intra VDW/kʙ              |  0.000000e+00 |  0.000000e+00 |  0.000000e+00 |
    intra Coulombic/kʙ        |  0.000000e+00 |  0.000000e+00 |  0.000000e+00 |
    polarization/kʙ           |  0.000000e+00 |  0.000000e+00 |  0.000000e+00 |
    dU/dlambda VDW/kʙ         |  0.000000e+00 |  0.000000e+00 |  0.000000e+00 |
    dU/dlambda Real/kʙ        |  0.000000e+00 |  0.000000e+00 |  0.000000e+00 |
    dU/dlambda Ewald/kʙ       |  0.000000e+00 |  0.000000e+00 |  0.000000e+00 |
-------------------------------------------------------------------------------


Monte-Carlo moves statistics
===============================================================================

    Volume change        all:                6825
    Volume change        total:              6825
    Volume change        constructed:        6825
    Volume change        accepted:           2055
    Volume change        fraction:       0.301099
    Volume change        max-change:     0.050000

Component 0 [CO2]
    Reinsertion (CBMC)   all:              331230
    Reinsertion (CBMC)   total:            331230
    Reinsertion (CBMC)   constructed:      297848
    Reinsertion (CBMC)   accepted:           5559
    Reinsertion (CBMC)   fraction:       0.016783
    Reinsertion (CBMC)   max-change:     0.000000

    Translation          all:              331120
    Translation          total:            110216     110725     110179
    Translation          constructed:      110216     110725     110178
    Translation          accepted:          57312      58294      48203
    Translation          fraction:       0.519997   0.526476   0.437497
    Translation          max-change:     0.631944   0.620690   0.814815

    Rotation             all:              330825
    Rotation             total:            110780     110235     109810
    Rotation             constructed:      110780     110235     109810
    Rotation             accepted:          53213      63538      57964
    Rotation             fraction:       0.480348   0.576387   0.527857
    Rotation             max-change:     0.750000   0.544218   0.642857



Production run counting of the MC moves summed over systems and components
===============================================================================

Volume change                          6825 (0.6825 [%])
Reinsertion (CBMC)                   331230 (33.1230 [%])
Translation                          331120 (33.1120 [%])
Rotation                             330825 (33.0825 [%])

Production count MC-steps:          1000000 [-]
               All summed:          1000000 [-]
               difference:                0 [-]


Production run CPU timings of the MC moves
===============================================================================

Component 0 CO2

Rotation                             48.199612 [s]
    Ewald                            24.783059 [s]
    ExternalField-Molecule            0.012703 [s]
    Framework-Molecule                0.011381 [s]
    Molecule-Molecule                21.245040 [s]
    Overhead                          2.147429 [s]

Reinsertion (CBMC)                  170.324612 [s]
    Ewald                            22.508732 [s]
    NonEwald                        147.464701 [s]
    Overhead                          0.351179 [s]

Translation                          48.225163 [s]
    Ewald                            24.806653 [s]
    ExternalField-Molecule            0.011257 [s]
    Framework-Molecule                0.018939 [s]
    Molecule-Molecule                21.384442 [s]
    Overhead                          2.003872 [s]



Volume change                         41.685855 [s]
    Ewald                             18.370670 [s]
    NonEwald                          21.822198 [s]
    Tail                               1.271333 [s]

Property sampling                     0.289415 [s]
Energy/pressure sampling:             6.970105 [s]


Production run CPU timings of the MC moves summed over systems and components
===============================================================================


Translation                          48.225163 [s]
    Ewald                            24.806653 [s]
    ExternalField-Molecule            0.011257 [s]
    Framework-Molecule                0.018939 [s]
    Molecule-Molecule                21.384442 [s]
    Overhead                          2.003872 [s]

Rotation                             48.199612 [s]
    Ewald                            24.783059 [s]
    ExternalField-Molecule            0.012703 [s]
    Framework-Molecule                0.011381 [s]
    Molecule-Molecule                21.245040 [s]
    Overhead                          2.147429 [s]

Volume change                        41.685855 [s]
    Ewald                            18.370670 [s]
    NonEwald                         21.822198 [s]
    Tail                              1.271333 [s]
    Overhead                          0.221654 [s]

Reinsertion (CBMC)                  170.324612 [s]
    Ewald                            22.508732 [s]
    NonEwald                        147.464701 [s]
    Overhead                          0.351179 [s]

Property sampling:                    0.289415 [s]
Energy/pressure sampling:             6.970105 [s]

Production simulation time:         316.511850 [s]
                All summed:         315.694762 [s]
                  Overhead:           0.817088 [s]


Initalization simulation time:       59.273605 [s]
Equilibration simulation time:        0.000000 [s]
Production simulation time:         316.511850 [s]
Total simulation time:              375.785455 [s]


Energy averages and statistics:
===============================================================================

Framework-molecule energy:
-------------------------------------------------------------------------------



Framework-molecule energy contributions per energy type:
-------------------------------------------------------------------------------



Inter-molecular energy:
-------------------------------------------------------------------------------

    Inter-molecular energy/kʙ 0-0 [CO2-CO2]:
    ---------------------------------------------------------------------------
        Block[  0] -3.092034e+05
        Block[  1] -2.989341e+05
        Block[  2] -3.016224e+05
        Block[  3] -3.076735e+05
        Block[  4] -2.944759e+05
        -----------------------------------------------------------------------
        Average  -3.023819e+05 +/-  7.589771e+03 [K]



Inter-molecular energy contributions per energy type:
-------------------------------------------------------------------------------

    Van der Waals energy/kʙ 0-0 [CO2-CO2]:
    ---------------------------------------------------------------------------
        Block[  0] -2.206530e+05
        Block[  1] -2.139871e+05
        Block[  2] -2.167992e+05
        Block[  3] -2.196811e+05
        Block[  4] -2.098998e+05
        -----------------------------------------------------------------------
        Average  -2.162040e+05 +/-  5.443209e+03 [K]

    VDW Tail-Correction energy/kʙ 0-0 [CO2-CO2]:
    ---------------------------------------------------------------------------
        Block[  0] -9.430346e+03
        Block[  1] -9.140079e+03
        Block[  2] -9.248909e+03
        Block[  3] -9.356654e+03
        Block[  4] -8.981936e+03
        -----------------------------------------------------------------------
        Average  -9.231585e+03 +/-  2.204665e+02 [K]

    Coulomb Real energy/kʙ 0-0 [CO2-CO2]:
    ---------------------------------------------------------------------------
        Block[  0] -6.349831e+04
        Block[  1] -6.061399e+04
        Block[  2] -6.056364e+04
        Block[  3] -6.309590e+04
        Block[  4] -6.052506e+04
        -----------------------------------------------------------------------
        Average  -6.165938e+04 +/-  1.864827e+03 [K]

    Coulomb Fourier energy/kʙ 0-0 [CO2-CO2]:
    ---------------------------------------------------------------------------
        Block[  0] -1.562173e+04
        Block[  1] -1.519296e+04
        Block[  2] -1.501064e+04
        Block[  3] -1.553986e+04
        Block[  4] -1.506911e+04
        -----------------------------------------------------------------------
        Average  -1.528686e+04 +/-  3.448718e+02 [K]


Total energy/kʙ
-------------------------------------------------------------------------------
    Block[  0] -3.092034e+05
    Block[  1] -2.989341e+05
    Block[  2] -3.016224e+05
    Block[  3] -3.076735e+05
    Block[  4] -2.944759e+05
    ---------------------------------------------------------------------------
    Average  -3.023819e+05 +/-  7.589771e+03 [K]

Pressure averages and statistics:
===============================================================================

Average pressure tensor: 
-------------------------------------------------------------------------------
 2.9513e+01 -1.9633e+01 -4.0217e+00 +/- 5.8188e+01 8.2837e+01 2.4892e+01 [bar]
-1.9633e+01  7.4490e+01  6.4456e-01 +/- 8.2837e+01 8.0781e+01 4.0231e+01 [bar]
-4.0217e+00  6.4456e-01  1.7265e+01 +/- 2.4892e+01 4.0231e+01 2.1372e+01 [bar]

    Block[  0]  5.074084e+07
    Block[  1]  4.910410e+07
    Block[  2]  4.974819e+07
    Block[  3]  5.038112e+07
    Block[  4]  4.829124e+07
    ---------------------------------------------------------------------------
    Ideal gas pressure   4.965310e+07 +/-  7.361675e-02 [Pa]
                         4.965310e+02 +/-  1.222436e+01 [bar]


    Block[  0] -4.426129e+07
    Block[  1] -4.494220e+07
    Block[  2] -4.560812e+07
    Block[  3] -4.961483e+07
    Block[  4] -4.362769e+07
    ---------------------------------------------------------------------------
    Excess pressure  -4.561082e+07 +/-  2.926886e+06 [Pa]
                     -4.561082e+02 +/-  2.926886e+01 [bar]


    Block[  0]  6.479553e+06
    Block[  1]  4.161899e+06
    Block[  2]  4.140072e+06
    Block[  3]  7.662901e+05
    Block[  4]  4.663546e+06
    ---------------------------------------------------------------------------
    Pressure average   4.042272e+06 +/-  2.565530e+06 [Pa]
                       4.042272e+01 +/-  2.565530e+01 [bar]


Enthalpy of adsorption
===============================================================================

No fluctuating components present.


Densities
===============================================================================

Component 0 (CO2)
    Block[  0] 200
    Block[  1] 200
    Block[  2] 200
    Block[  3] 200
    Block[  4] 200
    -----------------------------------------------------------------------
    Density average   2.000000e+02 +/-  0.000000e+00 [molecules]
    Density average   1.438542e-02 +/-  3.541623e-04 [molec/A^3]
    Density average   1.051024e+03 +/-  2.587570e+01 [kg.m⁻³]

