Compiler and run-time data
===============================================================================
RASPA 3.0.4

Random seed: 2826337268

Compiled as a 64-bits application
Compiler: gcc Ubuntu Clang 18.1.3 (1ubuntu1)
Compile Date = Mar 15 2025, Compile Time = 19:39:45

2025-06-02 13:38:55.150719
Simulation started on Mon, Jun 02
The start time was 13:38:00

Hostname:    c062
OS type:     Linux on x86_64
OS release:  6.8.0-58-generic
OS version:  #60-Ubuntu SMP PREEMPT_DYNAMIC Fri Mar 14 18:29:48 UTC 2025


Mutual consistent basic set of units:
===============================================================================

Unit of temperature: 1 [K]
Unit of length:      1e-10 [m]
Unit of time:        1e-12 [s]
Unit of mass:        1.6605402e-27 [kg]
Unit of charge:      1.60217733e-19 [C/particle]


Boltzmann constant (internal units):          0.8314464919307584 [-]
represents conversion from energy (internal units) to temperature (in Kelvin)

Derived units and their conversion factors:
===============================================================================

Unit of energy:                           1.6605402000000002e-23 [J]
Unit of energy:                           10.000008872307538 [J.mol⁻¹]
Unit of velocity:                         100 [m.s⁻¹]
Unit of force:                            1.6605402000000002e-13 [N]
Unit of diffusion:                        1.0000000000000002e-08 [m².s⁻¹]
Unit of acceleration:                     1.0000000000000002e-08 [m².s⁻¹]
Unit of torque:                           1.6605402000000002e-23 [N.m]
Unit of pressure:                         16605402 [Pa]
Unit of volume:                           1e-30 [m³]
Unit of density:                          1660.5402 [kg.m⁻³]
Unit of dynamic viscosity:                1.6605401999999997e-05 [N.s.m⁻²]
Unit of enthalpy:                         1.6605402000000002e-23 [J]
Unit of polarizability:                   1.5458657349975198e-35 [-]
Unit of Coulomb potential:                167101.08000665612 [K]
Unit of dielectric constant:              1.5458657349975193e-05 [s².C².kg⁻¹.m⁻³]
Unit of dipole moment:                    1.60217733e-29 [C.m]
Unit of Debye:                            4.803206799099162 [C.m]
Unit of electric potential:               0.00010364272224473431 [V]
Unit of electric field:                   1036427.222447343 [V.m⁻¹]
Unit of isothermal compressibility:       6.02213665167516e-08 [Pa⁻¹]
Unit of heat capacity:                    10.000008872307538 [J.mol⁻¹.K⁻¹]
Unit of volumetric expansion coefficient: 1 [K⁻¹]


Internal conversion factors:
===============================================================================

Energy (internal units) to Kelvin:      1.202724284692786 [-]
Kelvin to energy (internal units):      0.8314457542157567 [-]


System definitions
===============================================================================

Temperature:          250 [K]
Beta:                 0.0048108928702210625 [-]
Pressure:             1.6e+07 [Pa]
Helium void fraction: 1 [-]

Box:      30.00000   0.00000   0.00000
           0.00000  30.00000   0.00000
           0.00000   0.00000  30.00000
Lengths:  30.00000  30.00000  30.00000
Angles:   90.00000  90.00000  90.00000
Rectangular boundary conditions



Property measurement settings
===============================================================================




Pseudo-atoms
===============================================================================

  0 - C_co2    framework-atom: false
  1 - O_co2    framework-atom: false

  0 - C_co2    mass: 12.00000, charge:  0.70000
  1 - O_co2    mass: 15.99940, charge: -0.35000

  0 - C_co2    polarizability:  0.00000
  1 - O_co2    polarizability:  0.00000

  0 - J. J. Potoff et al., AIChE J. 2001, 47, 1676–1682.
  1 - J. J. Potoff et al., AIChE J. 2001, 47, 1676–1682.

Force field status
===============================================================================

Cutoff Framework-Molecule VDW:  10.00000 [Å]
Cutoff Molecule-Molecule VDW:   10.00000 [Å]
Cutoff Coulomb:                 10.00000 [Å]

Overlap-criteria VDW:           1.000000e+05 [K]

C_co2    - C_co2    Lennard-Jones p₀/kʙ:  27.00000 [K], p₁:  2.80000 [Å]
                                  shift:   0.00000 [K], tailcorrections: true
C_co2    - O_co2    Lennard-Jones p₀/kʙ:  46.18441 [K], p₁:  2.92500 [Å]
                                  shift:   0.00000 [K], tailcorrections: true
O_co2    - O_co2    Lennard-Jones p₀/kʙ:  79.00000 [K], p₁:  3.05000 [Å]
                                  shift:   0.00000 [K], tailcorrections: true

Ewald precision: 1e-06
Ewald alpha: 0.32079885109097883
Ewald k-vectors: 10 10 10


Component definitions
===============================================================================

Component 0 [CO2]

    Type: Adsorbate

    Critical temperature:  304.1282 [K]
    Critical pressure:     7377300 [Pa]
    Acentric factor:       0.22394 [-]

    Mol-fraction:                 1 [-]
    Swappable:                   false

    Mass:                         43.9988 [-]
    Bulk fluid density:           0 [-]
    Compressibility:              0 [-]
    Excess molecules:             0 [-]

    Number Of Atoms:    3
    CBMC starting bead: 0
      0: O_co2  position  0.00000 -0.00000  1.16000, charge -0.35000
      1: C_co2  position  0.00000 -0.00000  0.00000, charge  0.70000
      2: O_co2  position  0.00000 -0.00000 -1.16000, charge -0.35000
    Diagonalized inertia-vector:      43.05758528 43.05758528 0.00000000
    Translational degrees of freedom: 3
    Rotational degrees of freedom:    2
    Shape of the molecule is: 'Linear'
    Net-charge:        0.00000000 [e]

    Move probabilities:
    Translation:                   0.331126 [-]
    Random translation:            0.000000 [-]
    Rotation:                      0.331126 [-]
    Random rotation:               0.000000 [-]
    Volume change:                 0.006623 [-]
    Reinsertion (CBMC):            0.331126 [-]
    Identity change (CBMC):        0.000000 [-]
    Swap:                          0.000000 [-]
    Swap (CBMC):                   0.000000 [-]
    Swap (CFCMC):                  0.000000 [-]
    Swap (CB/CFCMC):               0.000000 [-]
    Gibbs volume:                  0.000000 [-]
    Gibbs swap (CBMC):             0.000000 [-]
    Gibbs swap (CFCMC):            0.000000 [-]
    Widom:                         0.000000 [-]
    Widom (CFCMC):                 0.000000 [-]
    Widom (CB/CFCMC):              0.000000 [-]
    Parallel tempering:            0.000000 [-]
    Hybrid MC:                     0.000000 [-]

    number of blocking-pockets: 0

    number of bonds: 0





Number of pseudo-atoms
===============================================================================

Component   0 (CO2)
-------------------------------------------------------------------------------
    index   0 (C_co2): 200 atoms
    index   1 (O_co2): 400 atoms

Total number of pseudo-atoms:
-------------------------------------------------------------------------------
    index   0 (C_co2): 200 atoms
    index   1 (O_co2): 400 atoms




Energy status Recomputed from scratch
===============================================================================

Total potential energy/kʙ       -9.448652e+04 [K]
    external field VDW/kʙ        0.000000e+00 [K]
    external field Real/kʙ       0.000000e+00 [K]
    framework-molecule VDW/kʙ    0.000000e+00 [K]
    framework-molecule Real/kʙ   0.000000e+00 [K]
    molecule-molecule VDW/kʙ    -7.357158e+04 [K]
    molecule-molecule Real/kʙ   -1.358810e+04 [K]
    Van der Waals (Tail)/kʙ     -4.753406e+03 [K]
    Ewald Fourier/kʙ             2.648827e+04 [K]
    Ewald self/kʙ               -4.445846e+06 [K]
    Ewald exclusion/kʙ           4.416785e+06 [K]
    intra VDW/kʙ                 0.000000e+00 [K]
    intra Coulombic/kʙ           0.000000e+00 [K]
    polarization/kʙ              0.000000e+00 [K]
    dU/dlambda VDW/kʙ            0.000000e+00 [K]
    dU/dlambda Real/kʙ           0.000000e+00 [K]
    dU/dlambda Ewald/kʙ          0.000000e+00 [K]





Initialization: Current cycle: 0 out of 1000
===============================================================================

Box:      30.75746   0.00000   0.00000
           0.00000  30.75746   0.00000
           0.00000   0.00000  30.75746
Lengths:  30.75746  30.75746  30.75746
Angles:   90.00000  90.00000  90.00000
Rectangular boundary conditions

net charge:   0.00000000

component   0 (CO2) lambda:  0 occupancy:  1 (1.000000)
    net charge:   0.00000000 [e]

Amount of molecules per component :
-------------------------------------------------------------------------------
Component 0 (CO2)
    molecules:         2.000000e+02 molecules
    number density:    6.873512e-03 molec/A^3
    density:           5.021906e+02 kg/m^3

Total potential energy/kʙ       -1.255501e+05 [K]
-------------------------------------------------------------------------------
    external field VDW/kʙ        0.000000e+00 [K]
    external field Real/kʙ       0.000000e+00 [K]
    framework-molecule VDW/kʙ    0.000000e+00 [K]
    framework-molecule Real/kʙ   0.000000e+00 [K]
    molecule-molecule VDW/kʙ    -1.028282e+05 [K]
    molecule-molecule Real/kʙ   -1.415482e+04 [K]
    Van der Waals (Tail)/kʙ     -4.410800e+03 [K]
    Ewald Fourier/kʙ             2.490545e+04 [K]
    Ewald self/kʙ               -4.445846e+06 [K]
    Ewald exclusion/kʙ           4.416785e+06 [K]
    intra VDW/kʙ                 0.000000e+00 [K]
    intra Coulombic/kʙ           0.000000e+00 [K]
    polarization/kʙ              0.000000e+00 [K]
    dU/dlambda VDW/kʙ            0.000000e+00 [K]
    dU/dlambda Real/kʙ           0.000000e+00 [K]
    dU/dlambda Ewald/kʙ          0.000000e+00 [K]


Initialization: Current cycle: 100 out of 1000
===============================================================================

Box:      26.85120   0.00000   0.00000
           0.00000  26.85120   0.00000
           0.00000   0.00000  26.85120
Lengths:  26.85120  26.85120  26.85120
Angles:   90.00000  90.00000  90.00000
Rectangular boundary conditions

net charge:   0.00000000

component   0 (CO2) lambda:  0 occupancy:  1 (1.000000)
    net charge:   0.00000000 [e]

Amount of molecules per component :
-------------------------------------------------------------------------------
Component 0 (CO2)
    molecules:         2.000000e+02 molecules
    number density:    1.033092e-02 molec/A^3
    density:           7.547947e+02 kg/m^3

Total potential energy/kʙ       -2.232795e+05 [K]
-------------------------------------------------------------------------------
    external field VDW/kʙ        0.000000e+00 [K]
    external field Real/kʙ       0.000000e+00 [K]
    framework-molecule VDW/kʙ    0.000000e+00 [K]
    framework-molecule Real/kʙ   0.000000e+00 [K]
    molecule-molecule VDW/kʙ    -1.569118e+05 [K]
    molecule-molecule Real/kʙ   -4.854748e+04 [K]
    Van der Waals (Tail)/kʙ     -6.629453e+03 [K]
    Ewald Fourier/kʙ             1.787096e+04 [K]
    Ewald self/kʙ               -4.445846e+06 [K]
    Ewald exclusion/kʙ           4.416785e+06 [K]
    intra VDW/kʙ                 0.000000e+00 [K]
    intra Coulombic/kʙ           0.000000e+00 [K]
    polarization/kʙ              0.000000e+00 [K]
    dU/dlambda VDW/kʙ            0.000000e+00 [K]
    dU/dlambda Real/kʙ           0.000000e+00 [K]
    dU/dlambda Ewald/kʙ          0.000000e+00 [K]


Initialization: Current cycle: 200 out of 1000
===============================================================================

Box:      25.27292   0.00000   0.00000
           0.00000  25.27292   0.00000
           0.00000   0.00000  25.27292
Lengths:  25.27292  25.27292  25.27292
Angles:   90.00000  90.00000  90.00000
Rectangular boundary conditions

net charge:   0.00000000

component   0 (CO2) lambda:  0 occupancy:  1 (1.000000)
    net charge:   0.00000000 [e]

Amount of molecules per component :
-------------------------------------------------------------------------------
Component 0 (CO2)
    molecules:         2.000000e+02 molecules
    number density:    1.238979e-02 molec/A^3
    density:           9.052191e+02 kg/m^3

Total potential energy/kʙ       -2.669164e+05 [K]
-------------------------------------------------------------------------------
    external field VDW/kʙ        0.000000e+00 [K]
    external field Real/kʙ       0.000000e+00 [K]
    framework-molecule VDW/kʙ    0.000000e+00 [K]
    framework-molecule Real/kʙ   0.000000e+00 [K]
    molecule-molecule VDW/kʙ    -1.892264e+05 [K]
    molecule-molecule Real/kʙ   -5.600738e+04 [K]
    Van der Waals (Tail)/kʙ     -7.950649e+03 [K]
    Ewald Fourier/kʙ             1.532981e+04 [K]
    Ewald self/kʙ               -4.445846e+06 [K]
    Ewald exclusion/kʙ           4.416785e+06 [K]
    intra VDW/kʙ                 0.000000e+00 [K]
    intra Coulombic/kʙ           0.000000e+00 [K]
    polarization/kʙ              0.000000e+00 [K]
    dU/dlambda VDW/kʙ            0.000000e+00 [K]
    dU/dlambda Real/kʙ           0.000000e+00 [K]
    dU/dlambda Ewald/kʙ          0.000000e+00 [K]


Initialization: Current cycle: 300 out of 1000
===============================================================================

Box:      24.51326   0.00000   0.00000
           0.00000  24.51326   0.00000
           0.00000   0.00000  24.51326
Lengths:  24.51326  24.51326  24.51326
Angles:   90.00000  90.00000  90.00000
Rectangular boundary conditions

net charge:   0.00000000

component   0 (CO2) lambda:  0 occupancy:  1 (1.000000)
    net charge:   0.00000000 [e]

Amount of molecules per component :
-------------------------------------------------------------------------------
Component 0 (CO2)
    molecules:         2.000000e+02 molecules
    number density:    1.357771e-02 molec/A^3
    density:           9.920109e+02 kg/m^3

Total potential energy/kʙ       -2.658666e+05 [K]
-------------------------------------------------------------------------------
    external field VDW/kʙ        0.000000e+00 [K]
    external field Real/kʙ       0.000000e+00 [K]
    framework-molecule VDW/kʙ    0.000000e+00 [K]
    framework-molecule Real/kʙ   0.000000e+00 [K]
    molecule-molecule VDW/kʙ    -1.937145e+05 [K]
    molecule-molecule Real/kʙ   -5.003958e+04 [K]
    Van der Waals (Tail)/kʙ     -8.712951e+03 [K]
    Ewald Fourier/kʙ             1.566204e+04 [K]
    Ewald self/kʙ               -4.445846e+06 [K]
    Ewald exclusion/kʙ           4.416785e+06 [K]
    intra VDW/kʙ                 0.000000e+00 [K]
    intra Coulombic/kʙ           0.000000e+00 [K]
    polarization/kʙ              0.000000e+00 [K]
    dU/dlambda VDW/kʙ            0.000000e+00 [K]
    dU/dlambda Real/kʙ           0.000000e+00 [K]
    dU/dlambda Ewald/kʙ          0.000000e+00 [K]


Initialization: Current cycle: 400 out of 1000
===============================================================================

Box:      24.21257   0.00000   0.00000
           0.00000  24.21257   0.00000
           0.00000   0.00000  24.21257
Lengths:  24.21257  24.21257  24.21257
Angles:   90.00000  90.00000  90.00000
Rectangular boundary conditions

net charge:   0.00000000

component   0 (CO2) lambda:  0 occupancy:  1 (1.000000)
    net charge:   0.00000000 [e]

Amount of molecules per component :
-------------------------------------------------------------------------------
Component 0 (CO2)
    molecules:         2.000000e+02 molecules
    number density:    1.408988e-02 molec/A^3
    density:           1.029431e+03 kg/m^3

Total potential energy/kʙ       -2.946714e+05 [K]
-------------------------------------------------------------------------------
    external field VDW/kʙ        0.000000e+00 [K]
    external field Real/kʙ       0.000000e+00 [K]
    framework-molecule VDW/kʙ    0.000000e+00 [K]
    framework-molecule Real/kʙ   0.000000e+00 [K]
    molecule-molecule VDW/kʙ    -2.107712e+05 [K]
    molecule-molecule Real/kʙ   -5.975521e+04 [K]
    Van der Waals (Tail)/kʙ     -9.041617e+03 [K]
    Ewald Fourier/kʙ             1.395833e+04 [K]
    Ewald self/kʙ               -4.445846e+06 [K]
    Ewald exclusion/kʙ           4.416785e+06 [K]
    intra VDW/kʙ                 0.000000e+00 [K]
    intra Coulombic/kʙ           0.000000e+00 [K]
    polarization/kʙ              0.000000e+00 [K]
    dU/dlambda VDW/kʙ            0.000000e+00 [K]
    dU/dlambda Real/kʙ           0.000000e+00 [K]
    dU/dlambda Ewald/kʙ          0.000000e+00 [K]


Initialization: Current cycle: 500 out of 1000
===============================================================================

Box:      23.94294   0.00000   0.00000
           0.00000  23.94294   0.00000
           0.00000   0.00000  23.94294
Lengths:  23.94294  23.94294  23.94294
Angles:   90.00000  90.00000  90.00000
Rectangular boundary conditions

net charge:   0.00000000

component   0 (CO2) lambda:  0 occupancy:  1 (1.000000)
    net charge:   0.00000000 [e]

Amount of molecules per component :
-------------------------------------------------------------------------------
Component 0 (CO2)
    molecules:         2.000000e+02 molecules
    number density:    1.457128e-02 molec/A^3
    density:           1.064603e+03 kg/m^3

Total potential energy/kʙ       -2.999287e+05 [K]
-------------------------------------------------------------------------------
    external field VDW/kʙ        0.000000e+00 [K]
    external field Real/kʙ       0.000000e+00 [K]
    framework-molecule VDW/kʙ    0.000000e+00 [K]
    framework-molecule Real/kʙ   0.000000e+00 [K]
    molecule-molecule VDW/kʙ    -2.125503e+05 [K]
    molecule-molecule Real/kʙ   -6.224155e+04 [K]
    Van der Waals (Tail)/kʙ     -9.350536e+03 [K]
    Ewald Fourier/kʙ             1.327540e+04 [K]
    Ewald self/kʙ               -4.445846e+06 [K]
    Ewald exclusion/kʙ           4.416785e+06 [K]
    intra VDW/kʙ                 0.000000e+00 [K]
    intra Coulombic/kʙ           0.000000e+00 [K]
    polarization/kʙ              0.000000e+00 [K]
    dU/dlambda VDW/kʙ            0.000000e+00 [K]
    dU/dlambda Real/kʙ           0.000000e+00 [K]
    dU/dlambda Ewald/kʙ          0.000000e+00 [K]


Initialization: Current cycle: 600 out of 1000
===============================================================================

Box:      24.12823   0.00000   0.00000
           0.00000  24.12823   0.00000
           0.00000   0.00000  24.12823
Lengths:  24.12823  24.12823  24.12823
Angles:   90.00000  90.00000  90.00000
Rectangular boundary conditions

net charge:   0.00000000

component   0 (CO2) lambda:  0 occupancy:  1 (1.000000)
    net charge:   0.00000000 [e]

Amount of molecules per component :
-------------------------------------------------------------------------------
Component 0 (CO2)
    molecules:         2.000000e+02 molecules
    number density:    1.423815e-02 molec/A^3
    density:           1.040264e+03 kg/m^3

Total potential energy/kʙ       -3.055245e+05 [K]
-------------------------------------------------------------------------------
    external field VDW/kʙ        0.000000e+00 [K]
    external field Real/kʙ       0.000000e+00 [K]
    framework-molecule VDW/kʙ    0.000000e+00 [K]
    framework-molecule Real/kʙ   0.000000e+00 [K]
    molecule-molecule VDW/kʙ    -2.142424e+05 [K]
    molecule-molecule Real/kʙ   -6.739315e+04 [K]
    Van der Waals (Tail)/kʙ     -9.136764e+03 [K]
    Ewald Fourier/kʙ             1.430957e+04 [K]
    Ewald self/kʙ               -4.445846e+06 [K]
    Ewald exclusion/kʙ           4.416785e+06 [K]
    intra VDW/kʙ                 0.000000e+00 [K]
    intra Coulombic/kʙ           0.000000e+00 [K]
    polarization/kʙ              0.000000e+00 [K]
    dU/dlambda VDW/kʙ            0.000000e+00 [K]
    dU/dlambda Real/kʙ           0.000000e+00 [K]
    dU/dlambda Ewald/kʙ          0.000000e+00 [K]


Initialization: Current cycle: 700 out of 1000
===============================================================================

Box:      24.32242   0.00000   0.00000
           0.00000  24.32242   0.00000
           0.00000   0.00000  24.32242
Lengths:  24.32242  24.32242  24.32242
Angles:   90.00000  90.00000  90.00000
Rectangular boundary conditions

net charge:   0.00000000

component   0 (CO2) lambda:  0 occupancy:  1 (1.000000)
    net charge:   0.00000000 [e]

Amount of molecules per component :
-------------------------------------------------------------------------------
Component 0 (CO2)
    molecules:         2.000000e+02 molecules
    number density:    1.389984e-02 molec/A^3
    density:           1.015546e+03 kg/m^3

Total potential energy/kʙ       -2.930682e+05 [K]
-------------------------------------------------------------------------------
    external field VDW/kʙ        0.000000e+00 [K]
    external field Real/kʙ       0.000000e+00 [K]
    framework-molecule VDW/kʙ    0.000000e+00 [K]
    framework-molecule Real/kʙ   0.000000e+00 [K]
    molecule-molecule VDW/kʙ    -2.102444e+05 [K]
    molecule-molecule Real/kʙ   -5.794683e+04 [K]
    Van der Waals (Tail)/kʙ     -8.919662e+03 [K]
    Ewald Fourier/kʙ             1.310446e+04 [K]
    Ewald self/kʙ               -4.445846e+06 [K]
    Ewald exclusion/kʙ           4.416785e+06 [K]
    intra VDW/kʙ                 0.000000e+00 [K]
    intra Coulombic/kʙ           0.000000e+00 [K]
    polarization/kʙ              0.000000e+00 [K]
    dU/dlambda VDW/kʙ            0.000000e+00 [K]
    dU/dlambda Real/kʙ           0.000000e+00 [K]
    dU/dlambda Ewald/kʙ          0.000000e+00 [K]


Initialization: Current cycle: 800 out of 1000
===============================================================================

Box:      23.89605   0.00000   0.00000
           0.00000  23.89605   0.00000
           0.00000   0.00000  23.89605
Lengths:  23.89605  23.89605  23.89605
Angles:   90.00000  90.00000  90.00000
Rectangular boundary conditions

net charge:   0.00000000

component   0 (CO2) lambda:  0 occupancy:  1 (1.000000)
    net charge:   0.00000000 [e]

Amount of molecules per component :
-------------------------------------------------------------------------------
Component 0 (CO2)
    molecules:         2.000000e+02 molecules
    number density:    1.465723e-02 molec/A^3
    density:           1.070882e+03 kg/m^3

Total potential energy/kʙ       -3.025060e+05 [K]
-------------------------------------------------------------------------------
    external field VDW/kʙ        0.000000e+00 [K]
    external field Real/kʙ       0.000000e+00 [K]
    framework-molecule VDW/kʙ    0.000000e+00 [K]
    framework-molecule Real/kʙ   0.000000e+00 [K]
    molecule-molecule VDW/kʙ    -2.178429e+05 [K]
    molecule-molecule Real/kʙ   -5.942954e+04 [K]
    Van der Waals (Tail)/kʙ     -9.405687e+03 [K]
    Ewald Fourier/kʙ             1.323382e+04 [K]
    Ewald self/kʙ               -4.445846e+06 [K]
    Ewald exclusion/kʙ           4.416785e+06 [K]
    intra VDW/kʙ                 0.000000e+00 [K]
    intra Coulombic/kʙ           0.000000e+00 [K]
    polarization/kʙ              0.000000e+00 [K]
    dU/dlambda VDW/kʙ            0.000000e+00 [K]
    dU/dlambda Real/kʙ           0.000000e+00 [K]
    dU/dlambda Ewald/kʙ          0.000000e+00 [K]


Initialization: Current cycle: 900 out of 1000
===============================================================================

Box:      23.73890   0.00000   0.00000
           0.00000  23.73890   0.00000
           0.00000   0.00000  23.73890
Lengths:  23.73890  23.73890  23.73890
Angles:   90.00000  90.00000  90.00000
Rectangular boundary conditions

net charge:   0.00000000

component   0 (CO2) lambda:  0 occupancy:  1 (1.000000)
    net charge:   0.00000000 [e]

Amount of molecules per component :
-------------------------------------------------------------------------------
Component 0 (CO2)
    molecules:         2.000000e+02 molecules
    number density:    1.495024e-02 molec/A^3
    density:           1.092290e+03 kg/m^3

Total potential energy/kʙ       -3.118556e+05 [K]
-------------------------------------------------------------------------------
    external field VDW/kʙ        0.000000e+00 [K]
    external field Real/kʙ       0.000000e+00 [K]
    framework-molecule VDW/kʙ    0.000000e+00 [K]
    framework-molecule Real/kʙ   0.000000e+00 [K]
    molecule-molecule VDW/kʙ    -2.243221e+05 [K]
    molecule-molecule Real/kʙ   -6.265682e+04 [K]
    Van der Waals (Tail)/kʙ     -9.593717e+03 [K]
    Ewald Fourier/kʙ             1.377878e+04 [K]
    Ewald self/kʙ               -4.445846e+06 [K]
    Ewald exclusion/kʙ           4.416785e+06 [K]
    intra VDW/kʙ                 0.000000e+00 [K]
    intra Coulombic/kʙ           0.000000e+00 [K]
    polarization/kʙ              0.000000e+00 [K]
    dU/dlambda VDW/kʙ            0.000000e+00 [K]
    dU/dlambda Real/kʙ           0.000000e+00 [K]
    dU/dlambda Ewald/kʙ          0.000000e+00 [K]


Current cycle: 0 out of 5000
===============================================================================

Box:      23.97049   0.00000   0.00000  Average:  23.97049   0.00000   0.00000
           0.00000  23.97049   0.00000             0.00000  23.97049   0.00000
           0.00000   0.00000  23.97049             0.00000   0.00000  23.97049
Lengths:  23.97049  23.97049  23.97049  Average:  23.97049  23.97049  23.97049
Angles:   90.00000  90.00000  90.00000  Average:  90.00000  90.00000  90.00000
Rectangular boundary conditions

net charge:   0.00000000

component 0 (CO2) lambda:  0 occupancy:  1 (1.000000)
    net charge:   0.00000000 [e]

Amount of molecules per component :
-------------------------------------------------------------------------------
Component 0 (CO2)
    molecules:      2.000000e+02 molecules  (2.000000e+02 +/- 0.000000e+00)
    number density: 1.452110e-02 molec./A^3 (1.452110e-02 +/- 0.000000e+00)
    density:        1.060936e+03 kg/m^3     (1.060936e+03 +/- 0.000000e+00)

Average pressure tensor: 
-------------------------------------------------------------------------------
 5.0121e+02  0.0000e+00  0.0000e+00 +/- 0.0000e+00 0.0000e+00 0.0000e+00 [bar]
 0.0000e+00  5.0121e+02  0.0000e+00 +/- 0.0000e+00 0.0000e+00 0.0000e+00 [bar]
 0.0000e+00  0.0000e+00  5.0121e+02 +/- 0.0000e+00 0.0000e+00 0.0000e+00 [bar]
Ideal-gas pressure:   5.012140e+02 +/ 0.000000e+00 [bar]
Excess pressure:      0.000000e+00 +/ 0.000000e+00 [bar]
Pressure:             5.012140e+02 +/ 0.000000e+00 [bar]

Total potential energy/kʙ  -3.119552e+05 (-3.119552e+05 +/- 0.000000e+00) [K]
-------------------------------------------------------------------------------
ExternalField-molecule
    Van der Waals/kʙ        0.000000e+00 ( 0.000000e+00 +/- 0.000000e+00) [K]
Framework-molecule
    Van der Waals/kʙ        0.000000e+00 ( 0.000000e+00 +/- 0.000000e+00) [K]
    Van der Waals (Tail)/kʙ 0.000000e+00 ( 0.000000e+00 +/- 0.000000e+00) [K]
    Coulombic Real/kʙ       0.000000e+00 ( 0.000000e+00 +/- 0.000000e+00) [K]
    Coulombic Fourier/kʙ    0.000000e+00 ( 0.000000e+00 +/- 0.000000e+00) [K]
Molecule-molecule
    Van der Waals/kʙ       -2.186941e+05 (-2.186941e+05 +/- 0.000000e+00) [K]
    Van der Waals (Tail)/kʙ-9.318331e+03 (-9.318331e+03 +/- 0.000000e+00) [K]
    Coulombic Real/kʙ      -6.879094e+04 (-6.879094e+04 +/- 0.000000e+00) [K]
    Coulombic Fourier/kʙ   -1.515190e+04 (-1.515190e+04 +/- 0.000000e+00) [K]
    Molecule Intra/kʙ       0.000000e+00 ( 0.000000e+00 +/- 0.000000e+00) [K]

Current cycle: 100 out of 5000
===============================================================================

Box:      24.03961   0.00000   0.00000  Average:  23.94183   0.00000   0.00000
           0.00000  24.03961   0.00000             0.00000  23.94183   0.00000
           0.00000   0.00000  24.03961             0.00000   0.00000  23.94183
Lengths:  24.03961  24.03961  24.03961  Average:  23.94183  23.94183  23.94183
Angles:   90.00000  90.00000  90.00000  Average:  90.00000  90.00000  90.00000
Rectangular boundary conditions

net charge:   0.00000000

component 0 (CO2) lambda:  0 occupancy:  1 (1.000000)
    net charge:   0.00000000 [e]

Amount of molecules per component :
-------------------------------------------------------------------------------
Component 0 (CO2)
    molecules:      2.000000e+02 molecules  (2.000000e+02 +/- 0.000000e+00)
    number density: 1.439620e-02 molec./A^3 (1.457469e-02 +/- 0.000000e+00)
    density:        1.051811e+03 kg/m^3     (1.064852e+03 +/- 0.000000e+00)

Average pressure tensor: 
-------------------------------------------------------------------------------
 2.3535e+02 -4.3867e+01 -2.1988e+02 +/- 0.0000e+00 0.0000e+00 0.0000e+00 [bar]
-4.3867e+01  2.7609e+02 -2.0123e+01 +/- 0.0000e+00 0.0000e+00 0.0000e+00 [bar]
-2.1988e+02 -2.0123e+01  1.0922e+02 +/- 0.0000e+00 0.0000e+00 0.0000e+00 [bar]
Ideal-gas pressure:   5.030638e+02 +/ 0.000000e+00 [bar]
Excess pressure:     -2.961777e+02 +/ 0.000000e+00 [bar]
Pressure:             2.068861e+02 +/ 0.000000e+00 [bar]

Total potential energy/kʙ  -3.045781e+05 (-3.087021e+05 +/- 0.000000e+00) [K]
-------------------------------------------------------------------------------
ExternalField-molecule
    Van der Waals/kʙ        0.000000e+00 ( 0.000000e+00 +/- 0.000000e+00) [K]
Framework-molecule
    Van der Waals/kʙ        0.000000e+00 ( 0.000000e+00 +/- 0.000000e+00) [K]
    Van der Waals (Tail)/kʙ 0.000000e+00 ( 0.000000e+00 +/- 0.000000e+00) [K]
    Coulombic Real/kʙ       0.000000e+00 ( 0.000000e+00 +/- 0.000000e+00) [K]
    Coulombic Fourier/kʙ    0.000000e+00 ( 0.000000e+00 +/- 0.000000e+00) [K]
Molecule-molecule
    Van der Waals/kʙ       -2.141210e+05 (-2.173843e+05 +/- 0.000000e+00) [K]
    Van der Waals (Tail)/kʙ-9.238184e+03 (-9.360547e+03 +/- 0.000000e+00) [K]
    Coulombic Real/kʙ      -6.494783e+04 (-6.678591e+04 +/- 0.000000e+00) [K]
    Coulombic Fourier/kʙ   -1.627111e+04 (-1.517134e+04 +/- 0.000000e+00) [K]
    Molecule Intra/kʙ       0.000000e+00 ( 0.000000e+00 +/- 0.000000e+00) [K]

Current cycle: 200 out of 5000
===============================================================================

Box:      23.68013   0.00000   0.00000  Average:  23.88631   0.00000   0.00000
           0.00000  23.68013   0.00000             0.00000  23.88631   0.00000
           0.00000   0.00000  23.68013             0.00000   0.00000  23.88631
Lengths:  23.68013  23.68013  23.68013  Average:  23.88631  23.88631  23.88631
Angles:   90.00000  90.00000  90.00000  Average:  90.00000  90.00000  90.00000
Rectangular boundary conditions

net charge:   0.00000000

component 0 (CO2) lambda:  0 occupancy:  1 (1.000000)
    net charge:   0.00000000 [e]

Amount of molecules per component :
-------------------------------------------------------------------------------
Component 0 (CO2)
    molecules:      2.000000e+02 molecules  (2.000000e+02 +/- 0.000000e+00)
    number density: 1.506182e-02 molec./A^3 (1.467861e-02 +/- 0.000000e+00)
    density:        1.100442e+03 kg/m^3     (1.072444e+03 +/- 0.000000e+00)

Average pressure tensor: 
-------------------------------------------------------------------------------
 9.5089e+01 -6.2808e+01 -9.2563e+01 +/- 0.0000e+00 0.0000e+00 0.0000e+00 [bar]
-6.2808e+01  1.4312e+02 -5.4883e+01 +/- 0.0000e+00 0.0000e+00 0.0000e+00 [bar]
-9.2563e+01 -5.4883e+01  9.6044e+01 +/- 0.0000e+00 0.0000e+00 0.0000e+00 [bar]
Ideal-gas pressure:   5.066507e+02 +/ 0.000000e+00 [bar]
Excess pressure:     -3.952323e+02 +/ 0.000000e+00 [bar]
Pressure:             1.114184e+02 +/ 0.000000e+00 [bar]

Total potential energy/kʙ  -3.213780e+05 (-3.096435e+05 +/- 0.000000e+00) [K]
-------------------------------------------------------------------------------
ExternalField-molecule
    Van der Waals/kʙ        0.000000e+00 ( 0.000000e+00 +/- 0.000000e+00) [K]
Framework-molecule
    Van der Waals/kʙ        0.000000e+00 ( 0.000000e+00 +/- 0.000000e+00) [K]
    Van der Waals (Tail)/kʙ 0.000000e+00 ( 0.000000e+00 +/- 0.000000e+00) [K]
    Coulombic Real/kʙ       0.000000e+00 ( 0.000000e+00 +/- 0.000000e+00) [K]
    Coulombic Fourier/kʙ    0.000000e+00 ( 0.000000e+00 +/- 0.000000e+00) [K]
Molecule-molecule
    Van der Waals/kʙ       -2.216292e+05 (-2.193154e+05 +/- 0.000000e+00) [K]
    Van der Waals (Tail)/kʙ-9.665319e+03 (-9.412288e+03 +/- 0.000000e+00) [K]
    Coulombic Real/kʙ      -7.258869e+04 (-6.532801e+04 +/- 0.000000e+00) [K]
    Coulombic Fourier/kʙ   -1.749478e+04 (-1.558782e+04 +/- 0.000000e+00) [K]
    Molecule Intra/kʙ       0.000000e+00 ( 0.000000e+00 +/- 0.000000e+00) [K]

Current cycle: 300 out of 5000
===============================================================================

Box:      23.59228   0.00000   0.00000  Average:  23.84474   0.00000   0.00000
           0.00000  23.59228   0.00000             0.00000  23.84474   0.00000
           0.00000   0.00000  23.59228             0.00000   0.00000  23.84474
Lengths:  23.59228  23.59228  23.59228  Average:  23.84474  23.84474  23.84474
Angles:   90.00000  90.00000  90.00000  Average:  90.00000  90.00000  90.00000
Rectangular boundary conditions

net charge:   0.00000000

component 0 (CO2) lambda:  0 occupancy:  1 (1.000000)
    net charge:   0.00000000 [e]

Amount of molecules per component :
-------------------------------------------------------------------------------
Component 0 (CO2)
    molecules:      2.000000e+02 molecules  (2.000000e+02 +/- 0.000000e+00)
    number density: 1.523071e-02 molec./A^3 (1.475563e-02 +/- 0.000000e+00)
    density:        1.112782e+03 kg/m^3     (1.078072e+03 +/- 0.000000e+00)

Average pressure tensor: 
-------------------------------------------------------------------------------
 1.6576e+02 -8.4156e+01 -1.1911e+02 +/- 0.0000e+00 0.0000e+00 0.0000e+00 [bar]
-8.4156e+01  1.5228e+02 -6.6996e+01 +/- 0.0000e+00 0.0000e+00 0.0000e+00 [bar]
-1.1911e+02 -6.6996e+01  2.1148e+02 +/- 0.0000e+00 0.0000e+00 0.0000e+00 [bar]
Ideal-gas pressure:   5.093092e+02 +/ 0.000000e+00 [bar]
Excess pressure:     -3.328006e+02 +/ 0.000000e+00 [bar]
Pressure:             1.765086e+02 +/ 0.000000e+00 [bar]

Total potential energy/kʙ  -3.250028e+05 (-3.118158e+05 +/- 0.000000e+00) [K]
-------------------------------------------------------------------------------
ExternalField-molecule
    Van der Waals/kʙ        0.000000e+00 ( 0.000000e+00 +/- 0.000000e+00) [K]
Framework-molecule
    Van der Waals/kʙ        0.000000e+00 ( 0.000000e+00 +/- 0.000000e+00) [K]
    Van der Waals (Tail)/kʙ 0.000000e+00 ( 0.000000e+00 +/- 0.000000e+00) [K]
    Coulombic Real/kʙ       0.000000e+00 ( 0.000000e+00 +/- 0.000000e+00) [K]
    Coulombic Fourier/kʙ    0.000000e+00 ( 0.000000e+00 +/- 0.000000e+00) [K]
Molecule-molecule
    Van der Waals/kʙ       -2.251670e+05 (-2.200226e+05 +/- 0.000000e+00) [K]
    Van der Waals (Tail)/kʙ-9.773697e+03 (-9.479703e+03 +/- 0.000000e+00) [K]
    Coulombic Real/kʙ      -7.397218e+04 (-6.646561e+04 +/- 0.000000e+00) [K]
    Coulombic Fourier/kʙ   -1.608992e+04 (-1.584790e+04 +/- 0.000000e+00) [K]
    Molecule Intra/kʙ       0.000000e+00 ( 0.000000e+00 +/- 0.000000e+00) [K]

Current cycle: 400 out of 5000
===============================================================================

Box:      23.99515   0.00000   0.00000  Average:  23.82097   0.00000   0.00000
           0.00000  23.99515   0.00000             0.00000  23.82097   0.00000
           0.00000   0.00000  23.99515             0.00000   0.00000  23.82097
Lengths:  23.99515  23.99515  23.99515  Average:  23.82097  23.82097  23.82097
Angles:   90.00000  90.00000  90.00000  Average:  90.00000  90.00000  90.00000
Rectangular boundary conditions

net charge:   0.00000000

component 0 (CO2) lambda:  0 occupancy:  1 (1.000000)
    net charge:   0.00000000 [e]

Amount of molecules per component :
-------------------------------------------------------------------------------
Component 0 (CO2)
    molecules:      2.000000e+02 molecules  (2.000000e+02 +/- 0.000000e+00)
    number density: 1.447636e-02 molec./A^3 (1.479996e-02 +/- 0.000000e+00)
    density:        1.057668e+03 kg/m^3     (1.081310e+03 +/- 0.000000e+00)

Average pressure tensor: 
-------------------------------------------------------------------------------
 2.0614e+02 -1.4321e+02 -1.0332e+02 +/- 0.0000e+00 0.0000e+00 0.0000e+00 [bar]
-1.4321e+02  1.6955e+02 -6.3394e+01 +/- 0.0000e+00 0.0000e+00 0.0000e+00 [bar]
-1.0332e+02 -6.3394e+01  2.3905e+02 +/- 0.0000e+00 0.0000e+00 0.0000e+00 [bar]
Ideal-gas pressure:   5.108393e+02 +/ 0.000000e+00 [bar]
Excess pressure:     -3.059233e+02 +/ 0.000000e+00 [bar]
Pressure:             2.049160e+02 +/ 0.000000e+00 [bar]

Total potential energy/kʙ  -3.083628e+05 (-3.130973e+05 +/- 0.000000e+00) [K]
-------------------------------------------------------------------------------
ExternalField-molecule
    Van der Waals/kʙ        0.000000e+00 ( 0.000000e+00 +/- 0.000000e+00) [K]
Framework-molecule
    Van der Waals/kʙ        0.000000e+00 ( 0.000000e+00 +/- 0.000000e+00) [K]
    Van der Waals (Tail)/kʙ 0.000000e+00 ( 0.000000e+00 +/- 0.000000e+00) [K]
    Coulombic Real/kʙ       0.000000e+00 ( 0.000000e+00 +/- 0.000000e+00) [K]
    Coulombic Fourier/kʙ    0.000000e+00 ( 0.000000e+00 +/- 0.000000e+00) [K]
Molecule-molecule
    Van der Waals/kʙ       -2.185317e+05 (-2.205695e+05 +/- 0.000000e+00) [K]
    Van der Waals (Tail)/kʙ-9.289622e+03 (-9.502222e+03 +/- 0.000000e+00) [K]
    Coulombic Real/kʙ      -6.391027e+04 (-6.696097e+04 +/- 0.000000e+00) [K]
    Coulombic Fourier/kʙ   -1.663121e+04 (-1.606464e+04 +/- 0.000000e+00) [K]
    Molecule Intra/kʙ       0.000000e+00 ( 0.000000e+00 +/- 0.000000e+00) [K]

Current cycle: 500 out of 5000
===============================================================================

Box:      24.03763   0.00000   0.00000  Average:  23.88199   0.00000   0.00000
           0.00000  24.03763   0.00000             0.00000  23.88199   0.00000
           0.00000   0.00000  24.03763             0.00000   0.00000  23.88199
Lengths:  24.03763  24.03763  24.03763  Average:  23.88199  23.88199  23.88199
Angles:   90.00000  90.00000  90.00000  Average:  90.00000  90.00000  90.00000
Rectangular boundary conditions

net charge:   0.00000000

component 0 (CO2) lambda:  0 occupancy:  1 (1.000000)
    net charge:   0.00000000 [e]

Amount of molecules per component :
-------------------------------------------------------------------------------
Component 0 (CO2)
    molecules:      2.000000e+02 molecules  (2.000000e+02 +/- 0.000000e+00)
    number density: 1.439975e-02 molec./A^3 (1.468886e-02 +/- 0.000000e+00)
    density:        1.052071e+03 kg/m^3     (1.073193e+03 +/- 0.000000e+00)

Average pressure tensor: 
-------------------------------------------------------------------------------
 1.9145e+02 -1.1849e+02 -8.0462e+01 +/- 0.0000e+00 0.0000e+00 0.0000e+00 [bar]
-1.1849e+02  1.7948e+02 -6.8742e+01 +/- 0.0000e+00 0.0000e+00 0.0000e+00 [bar]
-8.0462e+01 -6.8742e+01  2.4586e+02 +/- 0.0000e+00 0.0000e+00 0.0000e+00 [bar]
Ideal-gas pressure:   5.070043e+02 +/ 0.000000e+00 [bar]
Excess pressure:     -3.014085e+02 +/ 0.000000e+00 [bar]
Pressure:             2.055959e+02 +/ 0.000000e+00 [bar]

Total potential energy/kʙ  -3.062270e+05 (-3.107161e+05 +/- 0.000000e+00) [K]
-------------------------------------------------------------------------------
ExternalField-molecule
    Van der Waals/kʙ        0.000000e+00 ( 0.000000e+00 +/- 0.000000e+00) [K]
Framework-molecule
    Van der Waals/kʙ        0.000000e+00 ( 0.000000e+00 +/- 0.000000e+00) [K]
    Van der Waals (Tail)/kʙ 0.000000e+00 ( 0.000000e+00 +/- 0.000000e+00) [K]
    Coulombic Real/kʙ       0.000000e+00 ( 0.000000e+00 +/- 0.000000e+00) [K]
    Coulombic Fourier/kʙ    0.000000e+00 ( 0.000000e+00 +/- 0.000000e+00) [K]
Molecule-molecule
    Van der Waals/kʙ       -2.131187e+05 (-2.190680e+05 +/- 0.000000e+00) [K]
    Van der Waals (Tail)/kʙ-9.240463e+03 (-9.437545e+03 +/- 0.000000e+00) [K]
    Coulombic Real/kʙ      -6.795584e+04 (-6.631060e+04 +/- 0.000000e+00) [K]
    Coulombic Fourier/kʙ   -1.591202e+04 (-1.589996e+04 +/- 0.000000e+00) [K]
    Molecule Intra/kʙ       0.000000e+00 ( 0.000000e+00 +/- 0.000000e+00) [K]

Current cycle: 600 out of 5000
===============================================================================

Box:      24.13457   0.00000   0.00000  Average:  23.90449   0.00000   0.00000
           0.00000  24.13457   0.00000             0.00000  23.90449   0.00000
           0.00000   0.00000  24.13457             0.00000   0.00000  23.90449
Lengths:  24.13457  24.13457  24.13457  Average:  23.90449  23.90449  23.90449
Angles:   90.00000  90.00000  90.00000  Average:  90.00000  90.00000  90.00000
Rectangular boundary conditions

net charge:   0.00000000

component 0 (CO2) lambda:  0 occupancy:  1 (1.000000)
    net charge:   0.00000000 [e]

Amount of molecules per component :
-------------------------------------------------------------------------------
Component 0 (CO2)
    molecules:      2.000000e+02 molecules  (2.000000e+02 +/- 0.000000e+00)
    number density: 1.422693e-02 molec./A^3 (1.464709e-02 +/- 0.000000e+00)
    density:        1.039444e+03 kg/m^3     (1.070142e+03 +/- 0.000000e+00)

Average pressure tensor: 
-------------------------------------------------------------------------------
 2.4190e+02 -9.4825e+01 -2.5084e+01 +/- 0.0000e+00 0.0000e+00 0.0000e+00 [bar]
-9.4825e+01  1.6801e+02 -8.7251e+01 +/- 0.0000e+00 0.0000e+00 0.0000e+00 [bar]
-2.5084e+01 -8.7251e+01  2.6072e+02 +/- 0.0000e+00 0.0000e+00 0.0000e+00 [bar]
Ideal-gas pressure:   5.055628e+02 +/ 0.000000e+00 [bar]
Excess pressure:     -2.820193e+02 +/ 0.000000e+00 [bar]
Pressure:             2.235435e+02 +/ 0.000000e+00 [bar]

Total potential energy/kʙ  -2.991509e+05 (-3.094040e+05 +/- 0.000000e+00) [K]
-------------------------------------------------------------------------------
ExternalField-molecule
    Van der Waals/kʙ        0.000000e+00 ( 0.000000e+00 +/- 0.000000e+00) [K]
Framework-molecule
    Van der Waals/kʙ        0.000000e+00 ( 0.000000e+00 +/- 0.000000e+00) [K]
    Van der Waals (Tail)/kʙ 0.000000e+00 ( 0.000000e+00 +/- 0.000000e+00) [K]
    Coulombic Real/kʙ       0.000000e+00 ( 0.000000e+00 +/- 0.000000e+00) [K]
    Coulombic Fourier/kʙ    0.000000e+00 ( 0.000000e+00 +/- 0.000000e+00) [K]
Molecule-molecule
    Van der Waals/kʙ       -2.161272e+05 (-2.183657e+05 +/- 0.000000e+00) [K]
    Van der Waals (Tail)/kʙ-9.129559e+03 (-9.411041e+03 +/- 0.000000e+00) [K]
    Coulombic Real/kʙ      -5.867017e+04 (-6.582725e+04 +/- 0.000000e+00) [K]
    Coulombic Fourier/kʙ   -1.522396e+04 (-1.580004e+04 +/- 0.000000e+00) [K]
    Molecule Intra/kʙ       0.000000e+00 ( 0.000000e+00 +/- 0.000000e+00) [K]

Current cycle: 700 out of 5000
===============================================================================

Box:      23.82216   0.00000   0.00000  Average:  23.90858   0.00000   0.00000
           0.00000  23.82216   0.00000             0.00000  23.90858   0.00000
           0.00000   0.00000  23.82216             0.00000   0.00000  23.90858
Lengths:  23.82216  23.82216  23.82216  Average:  23.90858  23.90858  23.90858
Angles:   90.00000  90.00000  90.00000  Average:  90.00000  90.00000  90.00000
Rectangular boundary conditions

net charge:   0.00000000

component 0 (CO2) lambda:  0 occupancy:  1 (1.000000)
    net charge:   0.00000000 [e]

Amount of molecules per component :
-------------------------------------------------------------------------------
Component 0 (CO2)
    molecules:      2.000000e+02 molecules  (2.000000e+02 +/- 0.000000e+00)
    number density: 1.479403e-02 molec./A^3 (1.463909e-02 +/- 0.000000e+00)
    density:        1.080877e+03 kg/m^3     (1.069557e+03 +/- 0.000000e+00)

Average pressure tensor: 
-------------------------------------------------------------------------------
 2.5381e+02 -7.7217e+01 -1.0090e+01 +/- 0.0000e+00 0.0000e+00 0.0000e+00 [bar]
-7.7217e+01  1.7294e+02 -1.0309e+02 +/- 0.0000e+00 0.0000e+00 0.0000e+00 [bar]
-1.0090e+01 -1.0309e+02  2.6515e+02 +/- 0.0000e+00 0.0000e+00 0.0000e+00 [bar]
Ideal-gas pressure:   5.052866e+02 +/ 0.000000e+00 [bar]
Excess pressure:     -2.746533e+02 +/ 0.000000e+00 [bar]
Pressure:             2.306333e+02 +/ 0.000000e+00 [bar]

Total potential energy/kʙ  -3.112886e+05 (-3.088061e+05 +/- 0.000000e+00) [K]
-------------------------------------------------------------------------------
ExternalField-molecule
    Van der Waals/kʙ        0.000000e+00 ( 0.000000e+00 +/- 0.000000e+00) [K]
Framework-molecule
    Van der Waals/kʙ        0.000000e+00 ( 0.000000e+00 +/- 0.000000e+00) [K]
    Van der Waals (Tail)/kʙ 0.000000e+00 ( 0.000000e+00 +/- 0.000000e+00) [K]
    Coulombic Real/kʙ       0.000000e+00 ( 0.000000e+00 +/- 0.000000e+00) [K]
    Coulombic Fourier/kʙ    0.000000e+00 ( 0.000000e+00 +/- 0.000000e+00) [K]
Molecule-molecule
    Van der Waals/kʙ       -2.197509e+05 (-2.181439e+05 +/- 0.000000e+00) [K]
    Van der Waals (Tail)/kʙ-9.493471e+03 (-9.409194e+03 +/- 0.000000e+00) [K]
    Coulombic Real/kʙ      -6.659370e+04 (-6.550358e+04 +/- 0.000000e+00) [K]
    Coulombic Fourier/kʙ   -1.545059e+04 (-1.574945e+04 +/- 0.000000e+00) [K]
    Molecule Intra/kʙ       0.000000e+00 ( 0.000000e+00 +/- 0.000000e+00) [K]

Current cycle: 800 out of 5000
===============================================================================

Box:      23.93207   0.00000   0.00000  Average:  23.90111   0.00000   0.00000
           0.00000  23.93207   0.00000             0.00000  23.90111   0.00000
           0.00000   0.00000  23.93207             0.00000   0.00000  23.90111
Lengths:  23.93207  23.93207  23.93207  Average:  23.90111  23.90111  23.90111
Angles:   90.00000  90.00000  90.00000  Average:  90.00000  90.00000  90.00000
Rectangular boundary conditions

net charge:   0.00000000

component 0 (CO2) lambda:  0 occupancy:  1 (1.000000)
    net charge:   0.00000000 [e]

Amount of molecules per component :
-------------------------------------------------------------------------------
Component 0 (CO2)
    molecules:      2.000000e+02 molecules  (2.000000e+02 +/- 0.000000e+00)
    number density: 1.459114e-02 molec./A^3 (1.465240e-02 +/- 0.000000e+00)
    density:        1.066053e+03 kg/m^3     (1.070530e+03 +/- 0.000000e+00)

Average pressure tensor: 
-------------------------------------------------------------------------------
 2.5801e+02 -6.2045e+01  7.2556e+00 +/- 0.0000e+00 0.0000e+00 0.0000e+00 [bar]
-6.2045e+01  2.2468e+02 -6.1115e+01 +/- 0.0000e+00 0.0000e+00 0.0000e+00 [bar]
 7.2556e+00 -6.1115e+01  2.1523e+02 +/- 0.0000e+00 0.0000e+00 0.0000e+00 [bar]
Ideal-gas pressure:   5.057461e+02 +/ 0.000000e+00 [bar]
Excess pressure:     -2.731033e+02 +/ 0.000000e+00 [bar]
Pressure:             2.326428e+02 +/ 0.000000e+00 [bar]

Total potential energy/kʙ  -2.993204e+05 (-3.085664e+05 +/- 0.000000e+00) [K]
-------------------------------------------------------------------------------
ExternalField-molecule
    Van der Waals/kʙ        0.000000e+00 ( 0.000000e+00 +/- 0.000000e+00) [K]
Framework-molecule
    Van der Waals/kʙ        0.000000e+00 ( 0.000000e+00 +/- 0.000000e+00) [K]
    Van der Waals (Tail)/kʙ 0.000000e+00 ( 0.000000e+00 +/- 0.000000e+00) [K]
    Coulombic Real/kʙ       0.000000e+00 ( 0.000000e+00 +/- 0.000000e+00) [K]
    Coulombic Fourier/kʙ    0.000000e+00 ( 0.000000e+00 +/- 0.000000e+00) [K]
Molecule-molecule
    Van der Waals/kʙ       -2.129784e+05 (-2.183359e+05 +/- 0.000000e+00) [K]
    Van der Waals (Tail)/kʙ-9.363275e+03 (-9.418304e+03 +/- 0.000000e+00) [K]
    Coulombic Real/kʙ      -6.177166e+04 (-6.512135e+04 +/- 0.000000e+00) [K]
    Coulombic Fourier/kʙ   -1.520710e+04 (-1.569075e+04 +/- 0.000000e+00) [K]
    Molecule Intra/kʙ       0.000000e+00 ( 0.000000e+00 +/- 0.000000e+00) [K]

Current cycle: 900 out of 5000
===============================================================================

Box:      24.28180   0.00000   0.00000  Average:  23.90989   0.00000   0.00000
           0.00000  24.28180   0.00000             0.00000  23.90989   0.00000
           0.00000   0.00000  24.28180             0.00000   0.00000  23.90989
Lengths:  24.28180  24.28180  24.28180  Average:  23.90989  23.90989  23.90989
Angles:   90.00000  90.00000  90.00000  Average:  90.00000  90.00000  90.00000
Rectangular boundary conditions

net charge:   0.00000000

component 0 (CO2) lambda:  0 occupancy:  1 (1.000000)
    net charge:   0.00000000 [e]

Amount of molecules per component :
-------------------------------------------------------------------------------
Component 0 (CO2)
    molecules:      2.000000e+02 molecules  (2.000000e+02 +/- 0.000000e+00)
    number density: 1.396970e-02 molec./A^3 (1.463618e-02 +/- 0.000000e+00)
    density:        1.020650e+03 kg/m^3     (1.069344e+03 +/- 0.000000e+00)

Average pressure tensor: 
-------------------------------------------------------------------------------
 2.5449e+02 -4.1214e+01  4.1766e+00 +/- 0.0000e+00 0.0000e+00 0.0000e+00 [bar]
-4.1214e+01  2.2874e+02 -1.1986e+01 +/- 0.0000e+00 0.0000e+00 0.0000e+00 [bar]
 4.1766e+00 -1.1986e+01  2.0577e+02 +/- 0.0000e+00 0.0000e+00 0.0000e+00 [bar]
Ideal-gas pressure:   5.051860e+02 +/ 0.000000e+00 [bar]
Excess pressure:     -2.755175e+02 +/ 0.000000e+00 [bar]
Pressure:             2.296685e+02 +/ 0.000000e+00 [bar]

Total potential energy/kʙ  -2.894922e+05 (-3.076859e+05 +/- 0.000000e+00) [K]
-------------------------------------------------------------------------------
ExternalField-molecule
    Van der Waals/kʙ        0.000000e+00 ( 0.000000e+00 +/- 0.000000e+00) [K]
Framework-molecule
    Van der Waals/kʙ        0.000000e+00 ( 0.000000e+00 +/- 0.000000e+00) [K]
    Van der Waals (Tail)/kʙ 0.000000e+00 ( 0.000000e+00 +/- 0.000000e+00) [K]
    Coulombic Real/kʙ       0.000000e+00 ( 0.000000e+00 +/- 0.000000e+00) [K]
    Coulombic Fourier/kʙ    0.000000e+00 ( 0.000000e+00 +/- 0.000000e+00) [K]
Molecule-molecule
    Van der Waals/kʙ       -2.061479e+05 (-2.178463e+05 +/- 0.000000e+00) [K]
    Van der Waals (Tail)/kʙ-8.964495e+03 (-9.402802e+03 +/- 0.000000e+00) [K]
    Coulombic Real/kʙ      -5.911786e+04 (-6.477425e+04 +/- 0.000000e+00) [K]
    Coulombic Fourier/kʙ   -1.526193e+04 (-1.566258e+04 +/- 0.000000e+00) [K]
    Molecule Intra/kʙ       0.000000e+00 ( 0.000000e+00 +/- 0.000000e+00) [K]

Current cycle: 1000 out of 5000
===============================================================================

Box:      23.77792   0.00000   0.00000  Average:  23.91436   0.00000   0.00000
           0.00000  23.77792   0.00000             0.00000  23.91436   0.00000
           0.00000   0.00000  23.77792             0.00000   0.00000  23.91436
Lengths:  23.77792  23.77792  23.77792  Average:  23.91436  23.91436  23.91436
Angles:   90.00000  90.00000  90.00000  Average:  90.00000  90.00000  90.00000
Rectangular boundary conditions

net charge:   0.00000000

component 0 (CO2) lambda:  0 occupancy:  1 (1.000000)
    net charge:   0.00000000 [e]

Amount of molecules per component :
-------------------------------------------------------------------------------
Component 0 (CO2)
    molecules:      2.000000e+02 molecules  (2.000000e+02 +/- 0.000000e+00)
    number density: 1.487676e-02 molec./A^3 (1.462788e-02 +/- 0.000000e+00)
    density:        1.086922e+03 kg/m^3     (1.068738e+03 +/- 0.000000e+00)

Average pressure tensor: 
-------------------------------------------------------------------------------
 2.3839e+02 -2.0482e+01 -9.9066e+00 +/- 0.0000e+00 0.0000e+00 0.0000e+00 [bar]
-2.0482e+01  2.0990e+02  1.3383e+00 +/- 0.0000e+00 0.0000e+00 0.0000e+00 [bar]
-9.9066e+00  1.3383e+00  1.7736e+02 +/- 0.0000e+00 0.0000e+00 0.0000e+00 [bar]
Ideal-gas pressure:   5.048998e+02 +/ 0.000000e+00 [bar]
Excess pressure:     -2.963478e+02 +/ 0.000000e+00 [bar]
Pressure:             2.085520e+02 +/ 0.000000e+00 [bar]

Total potential energy/kʙ  -3.143492e+05 (-3.076891e+05 +/- 0.000000e+00) [K]
-------------------------------------------------------------------------------
ExternalField-molecule
    Van der Waals/kʙ        0.000000e+00 ( 0.000000e+00 +/- 0.000000e+00) [K]
Framework-molecule
    Van der Waals/kʙ        0.000000e+00 ( 0.000000e+00 +/- 0.000000e+00) [K]
    Van der Waals (Tail)/kʙ 0.000000e+00 ( 0.000000e+00 +/- 0.000000e+00) [K]
    Coulombic Real/kʙ       0.000000e+00 ( 0.000000e+00 +/- 0.000000e+00) [K]
    Coulombic Fourier/kʙ    0.000000e+00 ( 0.000000e+00 +/- 0.000000e+00) [K]
Molecule-molecule
    Van der Waals/kʙ       -2.237634e+05 (-2.179108e+05 +/- 0.000000e+00) [K]
    Van der Waals (Tail)/kʙ-9.546563e+03 (-9.396030e+03 +/- 0.000000e+00) [K]
    Coulombic Real/kʙ      -6.595213e+04 (-6.474973e+04 +/- 0.000000e+00) [K]
    Coulombic Fourier/kʙ   -1.508707e+04 (-1.563253e+04 +/- 0.000000e+00) [K]
    Molecule Intra/kʙ       0.000000e+00 ( 0.000000e+00 +/- 0.000000e+00) [K]

Current cycle: 1100 out of 5000
===============================================================================

Box:      23.90555   0.00000   0.00000  Average:  23.90119   0.00000   0.00000
           0.00000  23.90555   0.00000             0.00000  23.90119   0.00000
           0.00000   0.00000  23.90555             0.00000   0.00000  23.90119
Lengths:  23.90555  23.90555  23.90555  Average:  23.90119  23.90119  23.90119
Angles:   90.00000  90.00000  90.00000  Average:  90.00000  90.00000  90.00000
Rectangular boundary conditions

net charge:   0.00000000

component 0 (CO2) lambda:  0 occupancy:  1 (1.000000)
    net charge:   0.00000000 [e]

Amount of molecules per component :
-------------------------------------------------------------------------------
Component 0 (CO2)
    molecules:      2.000000e+02 molecules  (2.000000e+02 +/- 0.000000e+00)
    number density: 1.463976e-02 molec./A^3 (1.465202e-02 +/- 0.000000e+00)
    density:        1.069606e+03 kg/m^3     (1.070501e+03 +/- 0.000000e+00)

Average pressure tensor: 
-------------------------------------------------------------------------------
 2.6169e+02 -7.9750e+00 -8.4908e+00 +/- 0.0000e+00 0.0000e+00 0.0000e+00 [bar]
-7.9750e+00  1.8482e+02  1.2301e+01 +/- 0.0000e+00 0.0000e+00 0.0000e+00 [bar]
-8.4908e+00  1.2301e+01  1.7505e+02 +/- 0.0000e+00 0.0000e+00 0.0000e+00 [bar]
Ideal-gas pressure:   5.057328e+02 +/ 0.000000e+00 [bar]
Excess pressure:     -2.985462e+02 +/ 0.000000e+00 [bar]
Pressure:             2.071866e+02 +/ 0.000000e+00 [bar]

Total potential energy/kʙ  -3.082311e+05 (-3.081644e+05 +/- 0.000000e+00) [K]
-------------------------------------------------------------------------------
ExternalField-molecule
    Van der Waals/kʙ        0.000000e+00 ( 0.000000e+00 +/- 0.000000e+00) [K]
Framework-molecule
    Van der Waals/kʙ        0.000000e+00 ( 0.000000e+00 +/- 0.000000e+00) [K]
    Van der Waals (Tail)/kʙ 0.000000e+00 ( 0.000000e+00 +/- 0.000000e+00) [K]
    Coulombic Real/kʙ       0.000000e+00 ( 0.000000e+00 +/- 0.000000e+00) [K]
    Coulombic Fourier/kʙ    0.000000e+00 ( 0.000000e+00 +/- 0.000000e+00) [K]
Molecule-molecule
    Van der Waals/kʙ       -2.219121e+05 (-2.183627e+05 +/- 0.000000e+00) [K]
    Van der Waals (Tail)/kʙ-9.394479e+03 (-9.409601e+03 +/- 0.000000e+00) [K]
    Coulombic Real/kʙ      -6.133731e+04 (-6.472823e+04 +/- 0.000000e+00) [K]
    Coulombic Fourier/kʙ   -1.558721e+04 (-1.566390e+04 +/- 0.000000e+00) [K]
    Molecule Intra/kʙ       0.000000e+00 ( 0.000000e+00 +/- 0.000000e+00) [K]

Current cycle: 1200 out of 5000
===============================================================================

Box:      23.69860   0.00000   0.00000  Average:  23.89741   0.00000   0.00000
           0.00000  23.69860   0.00000             0.00000  23.89741   0.00000
           0.00000   0.00000  23.69860             0.00000   0.00000  23.89741
Lengths:  23.69860  23.69860  23.69860  Average:  23.89741  23.89741  23.89741
Angles:   90.00000  90.00000  90.00000  Average:  90.00000  90.00000  90.00000
Rectangular boundary conditions

net charge:   0.00000000

component 0 (CO2) lambda:  0 occupancy:  1 (1.000000)
    net charge:   0.00000000 [e]

Amount of molecules per component :
-------------------------------------------------------------------------------
Component 0 (CO2)
    molecules:      2.000000e+02 molecules  (2.000000e+02 +/- 0.000000e+00)
    number density: 1.502664e-02 molec./A^3 (1.465872e-02 +/- 0.000000e+00)
    density:        1.097872e+03 kg/m^3     (1.070991e+03 +/- 0.000000e+00)

Average pressure tensor: 
-------------------------------------------------------------------------------
 2.6204e+02 -2.4036e+01 -1.6643e+01 +/- 0.0000e+00 0.0000e+00 0.0000e+00 [bar]
-2.4036e+01  1.7158e+02  1.1751e+01 +/- 0.0000e+00 0.0000e+00 0.0000e+00 [bar]
-1.6643e+01  1.1751e+01  1.6120e+02 +/- 0.0000e+00 0.0000e+00 0.0000e+00 [bar]
Ideal-gas pressure:   5.059641e+02 +/ 0.000000e+00 [bar]
Excess pressure:     -3.076892e+02 +/ 0.000000e+00 [bar]
Pressure:             1.982749e+02 +/ 0.000000e+00 [bar]

Total potential energy/kʙ  -3.118634e+05 (-3.082580e+05 +/- 0.000000e+00) [K]
-------------------------------------------------------------------------------
ExternalField-molecule
    Van der Waals/kʙ        0.000000e+00 ( 0.000000e+00 +/- 0.000000e+00) [K]
Framework-molecule
    Van der Waals/kʙ        0.000000e+00 ( 0.000000e+00 +/- 0.000000e+00) [K]
    Van der Waals (Tail)/kʙ 0.000000e+00 ( 0.000000e+00 +/- 0.000000e+00) [K]
    Coulombic Real/kʙ       0.000000e+00 ( 0.000000e+00 +/- 0.000000e+00) [K]
    Coulombic Fourier/kʙ    0.000000e+00 ( 0.000000e+00 +/- 0.000000e+00) [K]
Molecule-molecule
    Van der Waals/kʙ       -2.198228e+05 (-2.185125e+05 +/- 0.000000e+00) [K]
    Van der Waals (Tail)/kʙ-9.642743e+03 (-9.413453e+03 +/- 0.000000e+00) [K]
    Coulombic Real/kʙ      -6.578506e+04 (-6.467921e+04 +/- 0.000000e+00) [K]
    Coulombic Fourier/kʙ   -1.661276e+04 (-1.565281e+04 +/- 0.000000e+00) [K]
    Molecule Intra/kʙ       0.000000e+00 ( 0.000000e+00 +/- 0.000000e+00) [K]

Current cycle: 1300 out of 5000
===============================================================================

Box:      23.76573   0.00000   0.00000  Average:  23.88393   0.00000   0.00000
           0.00000  23.76573   0.00000             0.00000  23.88393   0.00000
           0.00000   0.00000  23.76573             0.00000   0.00000  23.88393
Lengths:  23.76573  23.76573  23.76573  Average:  23.88393  23.88393  23.88393
Angles:   90.00000  90.00000  90.00000  Average:  90.00000  90.00000  90.00000
Rectangular boundary conditions

net charge:   0.00000000

component 0 (CO2) lambda:  0 occupancy:  1 (1.000000)
    net charge:   0.00000000 [e]

Amount of molecules per component :
-------------------------------------------------------------------------------
Component 0 (CO2)
    molecules:      2.000000e+02 molecules  (2.000000e+02 +/- 0.000000e+00)
    number density: 1.489967e-02 molec./A^3 (1.468366e-02 +/- 0.000000e+00)
    density:        1.088595e+03 kg/m^3     (1.072813e+03 +/- 0.000000e+00)

Average pressure tensor: 
-------------------------------------------------------------------------------
 2.6345e+02 -3.5218e+01 -1.2754e+01 +/- 0.0000e+00 0.0000e+00 0.0000e+00 [bar]
-3.5218e+01  1.6741e+02 -2.7321e+00 +/- 0.0000e+00 0.0000e+00 0.0000e+00 [bar]
-1.2754e+01 -2.7321e+00  1.5256e+02 +/- 0.0000e+00 0.0000e+00 0.0000e+00 [bar]
Ideal-gas pressure:   5.068250e+02 +/ 0.000000e+00 [bar]
Excess pressure:     -3.123534e+02 +/ 0.000000e+00 [bar]
Pressure:             1.944716e+02 +/ 0.000000e+00 [bar]

Total potential energy/kʙ  -3.207274e+05 (-3.090995e+05 +/- 0.000000e+00) [K]
-------------------------------------------------------------------------------
ExternalField-molecule
    Van der Waals/kʙ        0.000000e+00 ( 0.000000e+00 +/- 0.000000e+00) [K]
Framework-molecule
    Van der Waals/kʙ        0.000000e+00 ( 0.000000e+00 +/- 0.000000e+00) [K]
    Van der Waals (Tail)/kʙ 0.000000e+00 ( 0.000000e+00 +/- 0.000000e+00) [K]
    Coulombic Real/kʙ       0.000000e+00 ( 0.000000e+00 +/- 0.000000e+00) [K]
    Coulombic Fourier/kʙ    0.000000e+00 ( 0.000000e+00 +/- 0.000000e+00) [K]
Molecule-molecule
    Van der Waals/kʙ       -2.253536e+05 (-2.189406e+05 +/- 0.000000e+00) [K]
    Van der Waals (Tail)/kʙ-9.561264e+03 (-9.426501e+03 +/- 0.000000e+00) [K]
    Coulombic Real/kʙ      -6.915404e+04 (-6.502486e+04 +/- 0.000000e+00) [K]
    Coulombic Fourier/kʙ   -1.665843e+04 (-1.570755e+04 +/- 0.000000e+00) [K]
    Molecule Intra/kʙ       0.000000e+00 ( 0.000000e+00 +/- 0.000000e+00) [K]

Current cycle: 1400 out of 5000
===============================================================================

Box:      23.84858   0.00000   0.00000  Average:  23.87643   0.00000   0.00000
           0.00000  23.84858   0.00000             0.00000  23.87643   0.00000
           0.00000   0.00000  23.84858             0.00000   0.00000  23.87643
Lengths:  23.84858  23.84858  23.84858  Average:  23.87643  23.87643  23.87643
Angles:   90.00000  90.00000  90.00000  Average:  90.00000  90.00000  90.00000
Rectangular boundary conditions

net charge:   0.00000000

component 0 (CO2) lambda:  0 occupancy:  1 (1.000000)
    net charge:   0.00000000 [e]

Amount of molecules per component :
-------------------------------------------------------------------------------
Component 0 (CO2)
    molecules:      2.000000e+02 molecules  (2.000000e+02 +/- 0.000000e+00)
    number density: 1.474492e-02 molec./A^3 (1.469741e-02 +/- 0.000000e+00)
    density:        1.077289e+03 kg/m^3     (1.073818e+03 +/- 0.000000e+00)

Average pressure tensor: 
-------------------------------------------------------------------------------
 2.3607e+02 -3.5747e+01 -7.5591e+00 +/- 0.0000e+00 0.0000e+00 0.0000e+00 [bar]
-3.5747e+01  1.5799e+02 -1.3207e+01 +/- 0.0000e+00 0.0000e+00 0.0000e+00 [bar]
-7.5591e+00 -1.3207e+01  1.6094e+02 +/- 0.0000e+00 0.0000e+00 0.0000e+00 [bar]
Ideal-gas pressure:   5.072997e+02 +/ 0.000000e+00 [bar]
Excess pressure:     -3.223034e+02 +/ 0.000000e+00 [bar]
Pressure:             1.849963e+02 +/ 0.000000e+00 [bar]

Total potential energy/kʙ  -3.099586e+05 (-3.096104e+05 +/- 0.000000e+00) [K]
-------------------------------------------------------------------------------
ExternalField-molecule
    Van der Waals/kʙ        0.000000e+00 ( 0.000000e+00 +/- 0.000000e+00) [K]
Framework-molecule
    Van der Waals/kʙ        0.000000e+00 ( 0.000000e+00 +/- 0.000000e+00) [K]
    Van der Waals (Tail)/kʙ 0.000000e+00 ( 0.000000e+00 +/- 0.000000e+00) [K]
    Coulombic Real/kʙ       0.000000e+00 ( 0.000000e+00 +/- 0.000000e+00) [K]
    Coulombic Fourier/kʙ    0.000000e+00 ( 0.000000e+00 +/- 0.000000e+00) [K]
Molecule-molecule
    Van der Waals/kʙ       -2.130695e+05 (-2.191877e+05 +/- 0.000000e+00) [K]
    Van der Waals (Tail)/kʙ-9.461960e+03 (-9.433038e+03 +/- 0.000000e+00) [K]
    Coulombic Real/kʙ      -7.139981e+04 (-6.526254e+04 +/- 0.000000e+00) [K]
    Coulombic Fourier/kʙ   -1.602731e+04 (-1.572706e+04 +/- 0.000000e+00) [K]
    Molecule Intra/kʙ       0.000000e+00 ( 0.000000e+00 +/- 0.000000e+00) [K]

Current cycle: 1500 out of 5000
===============================================================================

Box:      24.02256   0.00000   0.00000  Average:  23.88058   0.00000   0.00000
           0.00000  24.02256   0.00000             0.00000  23.88058   0.00000
           0.00000   0.00000  24.02256             0.00000   0.00000  23.88058
Lengths:  24.02256  24.02256  24.02256  Average:  23.88058  23.88058  23.88058
Angles:   90.00000  90.00000  90.00000  Average:  90.00000  90.00000  90.00000
Rectangular boundary conditions

net charge:   0.00000000

component 0 (CO2) lambda:  0 occupancy:  1 (1.000000)
    net charge:   0.00000000 [e]

Amount of molecules per component :
-------------------------------------------------------------------------------
Component 0 (CO2)
    molecules:      2.000000e+02 molecules  (2.000000e+02 +/- 0.000000e+00)
    number density: 1.442688e-02 molec./A^3 (1.468961e-02 +/- 0.000000e+00)
    density:        1.054052e+03 kg/m^3     (1.073248e+03 +/- 0.000000e+00)

Average pressure tensor: 
-------------------------------------------------------------------------------
 2.2994e+02 -3.1714e+01 -1.1100e+01 +/- 0.0000e+00 0.0000e+00 0.0000e+00 [bar]
-3.1714e+01  1.6830e+02 -1.6298e+01 +/- 0.0000e+00 0.0000e+00 0.0000e+00 [bar]
-1.1100e+01 -1.6298e+01  1.6332e+02 +/- 0.0000e+00 0.0000e+00 0.0000e+00 [bar]
Ideal-gas pressure:   5.070305e+02 +/ 0.000000e+00 [bar]
Excess pressure:     -3.198438e+02 +/ 0.000000e+00 [bar]
Pressure:             1.871867e+02 +/ 0.000000e+00 [bar]

Total potential energy/kʙ  -3.050952e+05 (-3.094948e+05 +/- 0.000000e+00) [K]
-------------------------------------------------------------------------------
ExternalField-molecule
    Van der Waals/kʙ        0.000000e+00 ( 0.000000e+00 +/- 0.000000e+00) [K]
Framework-molecule
    Van der Waals/kʙ        0.000000e+00 ( 0.000000e+00 +/- 0.000000e+00) [K]
    Van der Waals (Tail)/kʙ 0.000000e+00 ( 0.000000e+00 +/- 0.000000e+00) [K]
    Coulombic Real/kʙ       0.000000e+00 ( 0.000000e+00 +/- 0.000000e+00) [K]
    Coulombic Fourier/kʙ    0.000000e+00 ( 0.000000e+00 +/- 0.000000e+00) [K]
Molecule-molecule
    Van der Waals/kʙ       -2.217652e+05 (-2.192158e+05 +/- 0.000000e+00) [K]
    Van der Waals (Tail)/kʙ-9.257868e+03 (-9.426042e+03 +/- 0.000000e+00) [K]
    Coulombic Real/kʙ      -5.998255e+04 (-6.516243e+04 +/- 0.000000e+00) [K]
    Coulombic Fourier/kʙ   -1.408964e+04 (-1.569058e+04 +/- 0.000000e+00) [K]
    Molecule Intra/kʙ       0.000000e+00 ( 0.000000e+00 +/- 0.000000e+00) [K]

Current cycle: 1600 out of 5000
===============================================================================

Box:      23.85580   0.00000   0.00000  Average:  23.88633   0.00000   0.00000
           0.00000  23.85580   0.00000             0.00000  23.88633   0.00000
           0.00000   0.00000  23.85580             0.00000   0.00000  23.88633
Lengths:  23.85580  23.85580  23.85580  Average:  23.88633  23.88633  23.88633
Angles:   90.00000  90.00000  90.00000  Average:  90.00000  90.00000  90.00000
Rectangular boundary conditions

net charge:   0.00000000

component 0 (CO2) lambda:  0 occupancy:  1 (1.000000)
    net charge:   0.00000000 [e]

Amount of molecules per component :
-------------------------------------------------------------------------------
Component 0 (CO2)
    molecules:      2.000000e+02 molecules  (2.000000e+02 +/- 0.000000e+00)
    number density: 1.473154e-02 molec./A^3 (1.467895e-02 +/- 0.000000e+00)
    density:        1.076311e+03 kg/m^3     (1.072469e+03 +/- 0.000000e+00)

Average pressure tensor: 
-------------------------------------------------------------------------------
 2.1550e+02 -2.8888e+01 -1.2990e+01 +/- 0.0000e+00 0.0000e+00 0.0000e+00 [bar]
-2.8888e+01  1.6304e+02 -1.9983e+01 +/- 0.0000e+00 0.0000e+00 0.0000e+00 [bar]
-1.2990e+01 -1.9983e+01  1.5640e+02 +/- 0.0000e+00 0.0000e+00 0.0000e+00 [bar]
Ideal-gas pressure:   5.066624e+02 +/ 0.000000e+00 [bar]
Excess pressure:     -3.283494e+02 +/ 0.000000e+00 [bar]
Pressure:             1.783130e+02 +/ 0.000000e+00 [bar]

Total potential energy/kʙ  -3.079531e+05 (-3.090711e+05 +/- 0.000000e+00) [K]
-------------------------------------------------------------------------------
ExternalField-molecule
    Van der Waals/kʙ        0.000000e+00 ( 0.000000e+00 +/- 0.000000e+00) [K]
Framework-molecule
    Van der Waals/kʙ        0.000000e+00 ( 0.000000e+00 +/- 0.000000e+00) [K]
    Van der Waals (Tail)/kʙ 0.000000e+00 ( 0.000000e+00 +/- 0.000000e+00) [K]
    Coulombic Real/kʙ       0.000000e+00 ( 0.000000e+00 +/- 0.000000e+00) [K]
    Coulombic Fourier/kʙ    0.000000e+00 ( 0.000000e+00 +/- 0.000000e+00) [K]
Molecule-molecule
    Van der Waals/kʙ       -2.162717e+05 (-2.191233e+05 +/- 0.000000e+00) [K]
    Van der Waals (Tail)/kʙ-9.453371e+03 (-9.417509e+03 +/- 0.000000e+00) [K]
    Coulombic Real/kʙ      -6.639469e+04 (-6.488536e+04 +/- 0.000000e+00) [K]
    Coulombic Fourier/kʙ   -1.583341e+04 (-1.564488e+04 +/- 0.000000e+00) [K]
    Molecule Intra/kʙ       0.000000e+00 ( 0.000000e+00 +/- 0.000000e+00) [K]

Current cycle: 1700 out of 5000
===============================================================================

Box:      23.80624   0.00000   0.00000  Average:  23.88497   0.00000   0.00000
           0.00000  23.80624   0.00000             0.00000  23.88497   0.00000
           0.00000   0.00000  23.80624             0.00000   0.00000  23.88497
Lengths:  23.80624  23.80624  23.80624  Average:  23.88497  23.88497  23.88497
Angles:   90.00000  90.00000  90.00000  Average:  90.00000  90.00000  90.00000
Rectangular boundary conditions

net charge:   0.00000000

component 0 (CO2) lambda:  0 occupancy:  1 (1.000000)
    net charge:   0.00000000 [e]

Amount of molecules per component :
-------------------------------------------------------------------------------
Component 0 (CO2)
    molecules:      2.000000e+02 molecules  (2.000000e+02 +/- 0.000000e+00)
    number density: 1.482372e-02 molec./A^3 (1.468133e-02 +/- 0.000000e+00)
    density:        1.083047e+03 kg/m^3     (1.072643e+03 +/- 0.000000e+00)

Average pressure tensor: 
-------------------------------------------------------------------------------
 2.1796e+02 -3.0191e+01 -1.8579e+01 +/- 0.0000e+00 0.0000e+00 0.0000e+00 [bar]
-3.0191e+01  1.6401e+02 -2.2314e+01 +/- 0.0000e+00 0.0000e+00 0.0000e+00 [bar]
-1.8579e+01 -2.2314e+01  1.6739e+02 +/- 0.0000e+00 0.0000e+00 0.0000e+00 [bar]
Ideal-gas pressure:   5.067446e+02 +/ 0.000000e+00 [bar]
Excess pressure:     -3.236238e+02 +/ 0.000000e+00 [bar]
Pressure:             1.831207e+02 +/ 0.000000e+00 [bar]

Total potential energy/kʙ  -3.106241e+05 (-3.090815e+05 +/- 0.000000e+00) [K]
-------------------------------------------------------------------------------
ExternalField-molecule
    Van der Waals/kʙ        0.000000e+00 ( 0.000000e+00 +/- 0.000000e+00) [K]
Framework-molecule
    Van der Waals/kʙ        0.000000e+00 ( 0.000000e+00 +/- 0.000000e+00) [K]
    Van der Waals (Tail)/kʙ 0.000000e+00 ( 0.000000e+00 +/- 0.000000e+00) [K]
    Coulombic Real/kʙ       0.000000e+00 ( 0.000000e+00 +/- 0.000000e+00) [K]
    Coulombic Fourier/kʙ    0.000000e+00 ( 0.000000e+00 +/- 0.000000e+00) [K]
Molecule-molecule
    Van der Waals/kʙ       -2.190141e+05 (-2.190706e+05 +/- 0.000000e+00) [K]
    Van der Waals (Tail)/kʙ-9.512529e+03 (-9.421002e+03 +/- 0.000000e+00) [K]
    Coulombic Real/kʙ      -6.620005e+04 (-6.492900e+04 +/- 0.000000e+00) [K]
    Coulombic Fourier/kʙ   -1.589741e+04 (-1.566090e+04 +/- 0.000000e+00) [K]
    Molecule Intra/kʙ       0.000000e+00 ( 0.000000e+00 +/- 0.000000e+00) [K]

Current cycle: 1800 out of 5000
===============================================================================

Box:      24.05146   0.00000   0.00000  Average:  23.88866   0.00000   0.00000
           0.00000  24.05146   0.00000             0.00000  23.88866   0.00000
           0.00000   0.00000  24.05146             0.00000   0.00000  23.88866
Lengths:  24.05146  24.05146  24.05146  Average:  23.88866  23.88866  23.88866
Angles:   90.00000  90.00000  90.00000  Average:  90.00000  90.00000  90.00000
Rectangular boundary conditions

net charge:   0.00000000

component 0 (CO2) lambda:  0 occupancy:  1 (1.000000)
    net charge:   0.00000000 [e]

Amount of molecules per component :
-------------------------------------------------------------------------------
Component 0 (CO2)
    molecules:      2.000000e+02 molecules  (2.000000e+02 +/- 0.000000e+00)
    number density: 1.437493e-02 molec./A^3 (1.467442e-02 +/- 0.000000e+00)
    density:        1.050257e+03 kg/m^3     (1.072138e+03 +/- 0.000000e+00)

Average pressure tensor: 
-------------------------------------------------------------------------------
 2.1230e+02 -4.1496e+01 -1.4585e+01 +/- 0.0000e+00 0.0000e+00 0.0000e+00 [bar]
-4.1496e+01  1.5895e+02 -2.6068e+01 +/- 0.0000e+00 0.0000e+00 0.0000e+00 [bar]
-1.4585e+01 -2.6068e+01  1.7781e+02 +/- 0.0000e+00 0.0000e+00 0.0000e+00 [bar]
Ideal-gas pressure:   5.065060e+02 +/ 0.000000e+00 [bar]
Excess pressure:     -3.234835e+02 +/ 0.000000e+00 [bar]
Pressure:             1.830224e+02 +/ 0.000000e+00 [bar]

Total potential energy/kʙ  -3.072205e+05 (-3.090760e+05 +/- 0.000000e+00) [K]
-------------------------------------------------------------------------------
ExternalField-molecule
    Van der Waals/kʙ        0.000000e+00 ( 0.000000e+00 +/- 0.000000e+00) [K]
Framework-molecule
    Van der Waals/kʙ        0.000000e+00 ( 0.000000e+00 +/- 0.000000e+00) [K]
    Van der Waals (Tail)/kʙ 0.000000e+00 ( 0.000000e+00 +/- 0.000000e+00) [K]
    Coulombic Real/kʙ       0.000000e+00 ( 0.000000e+00 +/- 0.000000e+00) [K]
    Coulombic Fourier/kʙ    0.000000e+00 ( 0.000000e+00 +/- 0.000000e+00) [K]
Molecule-molecule
    Van der Waals/kʙ       -2.188651e+05 (-2.190338e+05 +/- 0.000000e+00) [K]
    Van der Waals (Tail)/kʙ-9.224536e+03 (-9.418209e+03 +/- 0.000000e+00) [K]
    Coulombic Real/kʙ      -6.403713e+04 (-6.495848e+04 +/- 0.000000e+00) [K]
    Coulombic Fourier/kʙ   -1.509373e+04 (-1.566551e+04 +/- 0.000000e+00) [K]
    Molecule Intra/kʙ       0.000000e+00 ( 0.000000e+00 +/- 0.000000e+00) [K]

Current cycle: 1900 out of 5000
===============================================================================

Box:      23.82167   0.00000   0.00000  Average:  23.89909   0.00000   0.00000
           0.00000  23.82167   0.00000             0.00000  23.89909   0.00000
           0.00000   0.00000  23.82167             0.00000   0.00000  23.89909
Lengths:  23.82167  23.82167  23.82167  Average:  23.89909  23.89909  23.89909
Angles:   90.00000  90.00000  90.00000  Average:  90.00000  90.00000  90.00000
Rectangular boundary conditions

net charge:   0.00000000

component 0 (CO2) lambda:  0 occupancy:  1 (1.000000)
    net charge:   0.00000000 [e]

Amount of molecules per component :
-------------------------------------------------------------------------------
Component 0 (CO2)
    molecules:      2.000000e+02 molecules  (2.000000e+02 +/- 0.000000e+00)
    number density: 1.479495e-02 molec./A^3 (1.465550e-02 +/- 0.000000e+00)
    density:        1.080944e+03 kg/m^3     (1.070756e+03 +/- 0.000000e+00)

Average pressure tensor: 
-------------------------------------------------------------------------------
 2.0216e+02 -3.9480e+01 -8.4462e+00 +/- 0.0000e+00 0.0000e+00 0.0000e+00 [bar]
-3.9480e+01  1.4229e+02 -3.1790e+01 +/- 0.0000e+00 0.0000e+00 0.0000e+00 [bar]
-8.4462e+00 -3.1790e+01  1.7126e+02 +/- 0.0000e+00 0.0000e+00 0.0000e+00 [bar]
Ideal-gas pressure:   5.058531e+02 +/ 0.000000e+00 [bar]
Excess pressure:     -3.339507e+02 +/ 0.000000e+00 [bar]
Pressure:             1.719025e+02 +/ 0.000000e+00 [bar]

Total potential energy/kʙ  -3.089020e+05 (-3.086364e+05 +/- 0.000000e+00) [K]
-------------------------------------------------------------------------------
ExternalField-molecule
    Van der Waals/kʙ        0.000000e+00 ( 0.000000e+00 +/- 0.000000e+00) [K]
Framework-molecule
    Van der Waals/kʙ        0.000000e+00 ( 0.000000e+00 +/- 0.000000e+00) [K]
    Van der Waals (Tail)/kʙ 0.000000e+00 ( 0.000000e+00 +/- 0.000000e+00) [K]
    Coulombic Real/kʙ       0.000000e+00 ( 0.000000e+00 +/- 0.000000e+00) [K]
    Coulombic Fourier/kʙ    0.000000e+00 ( 0.000000e+00 +/- 0.000000e+00) [K]
Molecule-molecule
    Van der Waals/kʙ       -2.191164e+05 (-2.188252e+05 +/- 0.000000e+00) [K]
    Van der Waals (Tail)/kʙ-9.494064e+03 (-9.404409e+03 +/- 0.000000e+00) [K]
    Coulombic Real/kʙ      -6.432082e+04 (-6.478733e+04 +/- 0.000000e+00) [K]
    Coulombic Fourier/kʙ   -1.597071e+04 (-1.561945e+04 +/- 0.000000e+00) [K]
    Molecule Intra/kʙ       0.000000e+00 ( 0.000000e+00 +/- 0.000000e+00) [K]

Current cycle: 2000 out of 5000
===============================================================================

Box:      23.66412   0.00000   0.00000  Average:  23.89497   0.00000   0.00000
           0.00000  23.66412   0.00000             0.00000  23.89497   0.00000
           0.00000   0.00000  23.66412             0.00000   0.00000  23.89497
Lengths:  23.66412  23.66412  23.66412  Average:  23.89497  23.89497  23.89497
Angles:   90.00000  90.00000  90.00000  Average:  90.00000  90.00000  90.00000
Rectangular boundary conditions

net charge:   0.00000000

component 0 (CO2) lambda:  0 occupancy:  1 (1.000000)
    net charge:   0.00000000 [e]

Amount of molecules per component :
-------------------------------------------------------------------------------
Component 0 (CO2)
    molecules:      2.000000e+02 molecules  (2.000000e+02 +/- 0.000000e+00)
    number density: 1.509242e-02 molec./A^3 (1.466299e-02 +/- 0.000000e+00)
    density:        1.102678e+03 kg/m^3     (1.071303e+03 +/- 0.000000e+00)

Average pressure tensor: 
-------------------------------------------------------------------------------
 1.9460e+02 -4.2740e+01 -2.6430e+00 +/- 0.0000e+00 0.0000e+00 0.0000e+00 [bar]
-4.2740e+01  1.3072e+02 -3.1341e+01 +/- 0.0000e+00 0.0000e+00 0.0000e+00 [bar]
-2.6430e+00 -3.1341e+01  1.5225e+02 +/- 0.0000e+00 0.0000e+00 0.0000e+00 [bar]
Ideal-gas pressure:   5.061116e+02 +/ 0.000000e+00 [bar]
Excess pressure:     -3.469198e+02 +/ 0.000000e+00 [bar]
Pressure:             1.591918e+02 +/ 0.000000e+00 [bar]

Total potential energy/kʙ  -3.192635e+05 (-3.088651e+05 +/- 0.000000e+00) [K]
-------------------------------------------------------------------------------
ExternalField-molecule
    Van der Waals/kʙ        0.000000e+00 ( 0.000000e+00 +/- 0.000000e+00) [K]
Framework-molecule
    Van der Waals/kʙ        0.000000e+00 ( 0.000000e+00 +/- 0.000000e+00) [K]
    Van der Waals (Tail)/kʙ 0.000000e+00 ( 0.000000e+00 +/- 0.000000e+00) [K]
    Coulombic Real/kʙ       0.000000e+00 ( 0.000000e+00 +/- 0.000000e+00) [K]
    Coulombic Fourier/kʙ    0.000000e+00 ( 0.000000e+00 +/- 0.000000e+00) [K]
Molecule-molecule
    Van der Waals/kʙ       -2.218829e+05 (-2.190342e+05 +/- 0.000000e+00) [K]
    Van der Waals (Tail)/kʙ-9.684952e+03 (-9.406598e+03 +/- 0.000000e+00) [K]
    Coulombic Real/kʙ      -7.180793e+04 (-6.478014e+04 +/- 0.000000e+00) [K]
    Coulombic Fourier/kʙ   -1.588772e+04 (-1.564407e+04 +/- 0.000000e+00) [K]
    Molecule Intra/kʙ       0.000000e+00 ( 0.000000e+00 +/- 0.000000e+00) [K]

Current cycle: 2100 out of 5000
===============================================================================

Box:      23.69904   0.00000   0.00000  Average:  23.88747   0.00000   0.00000
           0.00000  23.69904   0.00000             0.00000  23.88747   0.00000
           0.00000   0.00000  23.69904             0.00000   0.00000  23.88747
Lengths:  23.69904  23.69904  23.69904  Average:  23.88747  23.88747  23.88747
Angles:   90.00000  90.00000  90.00000  Average:  90.00000  90.00000  90.00000
Rectangular boundary conditions

net charge:   0.00000000

component 0 (CO2) lambda:  0 occupancy:  1 (1.000000)
    net charge:   0.00000000 [e]

Amount of molecules per component :
-------------------------------------------------------------------------------
Component 0 (CO2)
    molecules:      2.000000e+02 molecules  (2.000000e+02 +/- 0.000000e+00)
    number density: 1.502581e-02 molec./A^3 (1.467689e-02 +/- 0.000000e+00)
    density:        1.097812e+03 kg/m^3     (1.072319e+03 +/- 0.000000e+00)

Average pressure tensor: 
-------------------------------------------------------------------------------
 1.8846e+02 -3.9436e+01 -3.2976e+00 +/- 0.0000e+00 0.0000e+00 0.0000e+00 [bar]
-3.9436e+01  1.5323e+02 -2.9270e+01 +/- 0.0000e+00 0.0000e+00 0.0000e+00 [bar]
-3.2976e+00 -2.9270e+01  1.5863e+02 +/- 0.0000e+00 0.0000e+00 0.0000e+00 [bar]
Ideal-gas pressure:   5.065914e+02 +/ 0.000000e+00 [bar]
Excess pressure:     -3.398186e+02 +/ 0.000000e+00 [bar]
Pressure:             1.667727e+02 +/ 0.000000e+00 [bar]

Total potential energy/kʙ  -3.160361e+05 (-3.090641e+05 +/- 0.000000e+00) [K]
-------------------------------------------------------------------------------
ExternalField-molecule
    Van der Waals/kʙ        0.000000e+00 ( 0.000000e+00 +/- 0.000000e+00) [K]
Framework-molecule
    Van der Waals/kʙ        0.000000e+00 ( 0.000000e+00 +/- 0.000000e+00) [K]
    Van der Waals (Tail)/kʙ 0.000000e+00 ( 0.000000e+00 +/- 0.000000e+00) [K]
[...]
    Coulombic Fourier/kʙ    0.000000e+00 ( 0.000000e+00 +/- 0.000000e+00) [K]
Molecule-molecule
    Van der Waals/kʙ       -2.332099e+05 (-2.225881e+05 +/- 6.435345e+03) [K]
    Van der Waals (Tail)/kʙ-9.881723e+03 (-9.535119e+03 +/- 2.299774e+02) [K]
    Coulombic Real/kʙ      -7.033461e+04 (-6.548544e+04 +/- 2.320148e+03) [K]
    Coulombic Fourier/kʙ   -1.643709e+04 (-1.583086e+04 +/- 4.095454e+02) [K]
    Molecule Intra/kʙ       0.000000e+00 ( 0.000000e+00 +/- 0.000000e+00) [K]

Current cycle: 4700 out of 5000
===============================================================================

Box:      23.67411   0.00000   0.00000  Average:  23.78632   0.00000   0.00000
           0.00000  23.67411   0.00000             0.00000  23.78632   0.00000
           0.00000   0.00000  23.67411             0.00000   0.00000  23.78632
Lengths:  23.67411  23.67411  23.67411  Average:  23.78632  23.78632  23.78632
Angles:   90.00000  90.00000  90.00000  Average:  90.00000  90.00000  90.00000
Rectangular boundary conditions

net charge:   0.00000000

component 0 (CO2) lambda:  0 occupancy:  1 (1.000000)
    net charge:   0.00000000 [e]

Amount of molecules per component :
-------------------------------------------------------------------------------
Component 0 (CO2)
    molecules:      2.000000e+02 molecules  (2.000000e+02 +/- 0.000000e+00)
    number density: 1.507333e-02 molec./A^3 (1.486697e-02 +/- 3.479658e-04)
    density:        1.101283e+03 kg/m^3     (1.086206e+03 +/- 2.542297e+01)

Average pressure tensor: 
-------------------------------------------------------------------------------
 1.4126e+02  2.7563e+01  2.7584e+00 +/- 1.0182e+02 1.0993e+02 3.5793e+01 [bar]
 2.7563e+01  1.8432e+02  5.0445e+00 +/- 1.0993e+02 9.6642e+01 5.4526e+01 [bar]
 2.7584e+00  5.0445e+00  1.7212e+02 +/- 3.5793e+01 5.4526e+01 5.6110e+01 [bar]
Ideal-gas pressure:   5.131522e+02 +/ 1.201048e+01 [bar]
Excess pressure:     -3.472528e+02 +/ 5.351891e+01 [bar]
Pressure:             1.658994e+02 +/ 4.922941e+01 [bar]

Total potential energy/kʙ  -3.286451e+05 (-3.137354e+05 +/- 9.263260e+03) [K]
-------------------------------------------------------------------------------
ExternalField-molecule
    Van der Waals/kʙ        0.000000e+00 ( 0.000000e+00 +/- 0.000000e+00) [K]
Framework-molecule
    Van der Waals/kʙ        0.000000e+00 ( 0.000000e+00 +/- 0.000000e+00) [K]
    Van der Waals (Tail)/kʙ 0.000000e+00 ( 0.000000e+00 +/- 0.000000e+00) [K]
    Coulombic Real/kʙ       0.000000e+00 ( 0.000000e+00 +/- 0.000000e+00) [K]
    Coulombic Fourier/kʙ    0.000000e+00 ( 0.000000e+00 +/- 0.000000e+00) [K]
Molecule-molecule
    Van der Waals/kʙ       -2.298515e+05 (-2.227270e+05 +/- 6.243220e+03) [K]
    Van der Waals (Tail)/kʙ-9.672703e+03 (-9.540559e+03 +/- 2.245365e+02) [K]
    Coulombic Real/kʙ      -7.177949e+04 (-6.561392e+04 +/- 2.500771e+03) [K]
    Coulombic Fourier/kʙ   -1.734136e+04 (-1.585396e+04 +/- 4.436988e+02) [K]
    Molecule Intra/kʙ       0.000000e+00 ( 0.000000e+00 +/- 0.000000e+00) [K]

Current cycle: 4800 out of 5000
===============================================================================

Box:      23.41524   0.00000   0.00000  Average:  23.78037   0.00000   0.00000
           0.00000  23.41524   0.00000             0.00000  23.78037   0.00000
           0.00000   0.00000  23.41524             0.00000   0.00000  23.78037
Lengths:  23.41524  23.41524  23.41524  Average:  23.78037  23.78037  23.78037
Angles:   90.00000  90.00000  90.00000  Average:  90.00000  90.00000  90.00000
Rectangular boundary conditions

net charge:   0.00000000

component 0 (CO2) lambda:  0 occupancy:  1 (1.000000)
    net charge:   0.00000000 [e]

Amount of molecules per component :
-------------------------------------------------------------------------------
Component 0 (CO2)
    molecules:      2.000000e+02 molecules  (2.000000e+02 +/- 0.000000e+00)
    number density: 1.557880e-02 molec./A^3 (1.487832e-02 +/- 3.511976e-04)
    density:        1.138214e+03 kg/m^3     (1.087036e+03 +/- 2.565910e+01)

Average pressure tensor: 
-------------------------------------------------------------------------------
 1.4084e+02  3.0262e+01 -1.6283e+00 +/- 1.0064e+02 1.1076e+02 3.0840e+01 [bar]
 3.0262e+01  1.7895e+02  5.5985e+00 +/- 1.1076e+02 9.4544e+01 5.3717e+01 [bar]
-1.6283e+00  5.5985e+00  1.6865e+02 +/- 3.0840e+01 5.3717e+01 6.0926e+01 [bar]
Ideal-gas pressure:   5.135441e+02 +/ 1.212203e+01 [bar]
Excess pressure:     -3.507303e+02 +/ 5.839282e+01 [bar]
Pressure:             1.628138e+02 +/ 5.271255e+01 [bar]

Total potential energy/kʙ  -3.361764e+05 (-3.141183e+05 +/- 9.569738e+03) [K]
-------------------------------------------------------------------------------
ExternalField-molecule
    Van der Waals/kʙ        0.000000e+00 ( 0.000000e+00 +/- 0.000000e+00) [K]
Framework-molecule
    Van der Waals/kʙ        0.000000e+00 ( 0.000000e+00 +/- 0.000000e+00) [K]
    Van der Waals (Tail)/kʙ 0.000000e+00 ( 0.000000e+00 +/- 0.000000e+00) [K]
    Coulombic Real/kʙ       0.000000e+00 ( 0.000000e+00 +/- 0.000000e+00) [K]
    Coulombic Fourier/kʙ    0.000000e+00 ( 0.000000e+00 +/- 0.000000e+00) [K]
Molecule-molecule
    Van der Waals/kʙ       -2.350400e+05 (-2.229324e+05 +/- 6.314079e+03) [K]
    Van der Waals (Tail)/kʙ-9.997072e+03 (-9.547705e+03 +/- 2.262672e+02) [K]
    Coulombic Real/kʙ      -7.449390e+04 (-6.575629e+04 +/- 2.700008e+03) [K]
    Coulombic Fourier/kʙ   -1.664541e+04 (-1.588198e+04 +/- 4.883331e+02) [K]
    Molecule Intra/kʙ       0.000000e+00 ( 0.000000e+00 +/- 0.000000e+00) [K]

Current cycle: 4900 out of 5000
===============================================================================

Box:      23.72684   0.00000   0.00000  Average:  23.77953   0.00000   0.00000
           0.00000  23.72684   0.00000             0.00000  23.77953   0.00000
           0.00000   0.00000  23.72684             0.00000   0.00000  23.77953
Lengths:  23.72684  23.72684  23.72684  Average:  23.77953  23.77953  23.77953
Angles:   90.00000  90.00000  90.00000  Average:  90.00000  90.00000  90.00000
Rectangular boundary conditions

net charge:   0.00000000

component 0 (CO2) lambda:  0 occupancy:  1 (1.000000)
    net charge:   0.00000000 [e]

Amount of molecules per component :
-------------------------------------------------------------------------------
Component 0 (CO2)
    molecules:      2.000000e+02 molecules  (2.000000e+02 +/- 0.000000e+00)
    number density: 1.497306e-02 molec./A^3 (1.487985e-02 +/- 3.287993e-04)
    density:        1.093957e+03 kg/m^3     (1.087147e+03 +/- 2.402264e+01)

Average pressure tensor: 
-------------------------------------------------------------------------------
 1.4573e+02  2.9674e+01 -3.1547e+00 +/- 9.5346e+01 1.0549e+02 3.0964e+01 [bar]
 2.9674e+01  1.7616e+02  3.6938e+00 +/- 1.0549e+02 9.4929e+01 4.9697e+01 [bar]
-3.1547e+00  3.6938e+00  1.6592e+02 +/- 3.0964e+01 4.9697e+01 6.3918e+01 [bar]
Ideal-gas pressure:   5.135966e+02 +/ 1.134892e+01 [bar]
Excess pressure:     -3.509925e+02 +/ 5.680535e+01 [bar]
Pressure:             1.626041e+02 +/ 5.189361e+01 [bar]

Total potential energy/kʙ  -3.227386e+05 (-3.142118e+05 +/- 9.050718e+03) [K]
-------------------------------------------------------------------------------
ExternalField-molecule
    Van der Waals/kʙ        0.000000e+00 ( 0.000000e+00 +/- 0.000000e+00) [K]
Framework-molecule
    Van der Waals/kʙ        0.000000e+00 ( 0.000000e+00 +/- 0.000000e+00) [K]
    Van der Waals (Tail)/kʙ 0.000000e+00 ( 0.000000e+00 +/- 0.000000e+00) [K]
    Coulombic Real/kʙ       0.000000e+00 ( 0.000000e+00 +/- 0.000000e+00) [K]
    Coulombic Fourier/kʙ    0.000000e+00 ( 0.000000e+00 +/- 0.000000e+00) [K]
Molecule-molecule
    Van der Waals/kʙ       -2.295127e+05 (-2.229788e+05 +/- 5.977403e+03) [K]
    Van der Waals (Tail)/kʙ-9.608357e+03 (-9.548100e+03 +/- 2.107114e+02) [K]
    Coulombic Real/kʙ      -6.690725e+04 (-6.578553e+04 +/- 2.536814e+03) [K]
    Coulombic Fourier/kʙ   -1.671031e+04 (-1.589939e+04 +/- 4.959777e+02) [K]
    Molecule Intra/kʙ       0.000000e+00 ( 0.000000e+00 +/- 0.000000e+00) [K]


Energy statistics             |  Energy [K]   | Recomputed [K]|  Drift [K]    |
===============================================================================
Total potential energy/kʙ     | -3.107511e+05 | -3.107511e+05 | -2.975330e-09 |
    external field VDW/kʙ     |  0.000000e+00 |  0.000000e+00 |  0.000000e+00 |
    external field Real/kʙ    |  0.000000e+00 |  0.000000e+00 |  0.000000e+00 |
    framework-molecule VDW/kʙ |  0.000000e+00 |  0.000000e+00 |  0.000000e+00 |
    framework-molecule Real/kʙ|  0.000000e+00 |  0.000000e+00 |  0.000000e+00 |
    molecule-molecule VDW/kʙ  | -2.243767e+05 | -2.243767e+05 | -1.995221e-09 |
    molecule-molecule Real/kʙ | -6.101734e+04 | -6.101734e+04 | -4.900544e-10 |
    Van der Waals (Tail)/kʙ   | -9.489883e+03 | -9.489883e+03 |  0.000000e+00 |
    Ewald Fourier/kʙ          |  1.319453e+04 |  1.319453e+04 |  7.000777e-11 |
    Ewald self/kʙ             | -4.445846e+06 | -4.445846e+06 |  0.000000e+00 |
    Ewald exclusion/kʙ        |  4.416785e+06 |  4.416785e+06 | -5.600621e-10 |
    intra VDW/kʙ              |  0.000000e+00 |  0.000000e+00 |  0.000000e+00 |
    intra Coulombic/kʙ        |  0.000000e+00 |  0.000000e+00 |  0.000000e+00 |
    polarization/kʙ           |  0.000000e+00 |  0.000000e+00 |  0.000000e+00 |
    dU/dlambda VDW/kʙ         |  0.000000e+00 |  0.000000e+00 |  0.000000e+00 |
    dU/dlambda Real/kʙ        |  0.000000e+00 |  0.000000e+00 |  0.000000e+00 |
    dU/dlambda Ewald/kʙ       |  0.000000e+00 |  0.000000e+00 |  0.000000e+00 |
-------------------------------------------------------------------------------


Monte-Carlo moves statistics
===============================================================================

    Volume change        all:                6522
    Volume change        total:              6522
    Volume change        constructed:        6522
    Volume change        accepted:           3517
    Volume change        fraction:       0.539252
    Volume change        max-change:     0.025000

Component 0 [CO2]
    Reinsertion (CBMC)   all:              330971
    Reinsertion (CBMC)   total:            330971
    Reinsertion (CBMC)   constructed:      286593
    Reinsertion (CBMC)   accepted:           3311
    Reinsertion (CBMC)   fraction:       0.010004
    Reinsertion (CBMC)   max-change:     0.000000

    Translation          all:              331173
    Translation          total:            110220     110908     110045
    Translation          constructed:      110220     110908     110045
    Translation          accepted:          56811      69295      50105
    Translation          fraction:       0.515433   0.624797   0.455314
    Translation          max-change:     0.608696   0.434783   0.736573

    Rotation             all:              331334
    Rotation             total:            110976     110059     110299
    Rotation             constructed:      110976     110059     110295
    Rotation             accepted:          52485      58464      47273
    Rotation             fraction:       0.472940   0.531206   0.428590
    Rotation             max-change:     0.727273   0.608696   0.846881



Production run counting of the MC moves summed over systems and components
===============================================================================

Volume change                          6522 (0.6522 [%])
Reinsertion (CBMC)                   330971 (33.0971 [%])
Translation                          331173 (33.1173 [%])
Rotation                             331334 (33.1334 [%])

Production count MC-steps:          1000000 [-]
               All summed:          1000000 [-]
               difference:                0 [-]


Production run CPU timings of the MC moves
===============================================================================

Component 0 CO2

Rotation                             48.725417 [s]
    Ewald                            24.910644 [s]
    ExternalField-Molecule            0.011662 [s]
    Framework-Molecule                0.011691 [s]
    Molecule-Molecule                21.817256 [s]
    Overhead                          1.974164 [s]

Reinsertion (CBMC)                  166.904534 [s]
    Ewald                            21.570461 [s]
    NonEwald                        145.021097 [s]
    Overhead                          0.312976 [s]

Translation                          48.780360 [s]
    Ewald                            24.805318 [s]
    ExternalField-Molecule            0.010460 [s]
    Framework-Molecule                0.019590 [s]
    Molecule-Molecule                21.832064 [s]
    Overhead                          2.112928 [s]



Volume change                         40.745013 [s]
    Ewald                             17.506939 [s]
    NonEwald                          21.781783 [s]
    Tail                               1.215236 [s]

Property sampling                     0.283935 [s]
Energy/pressure sampling:             7.043473 [s]


Production run CPU timings of the MC moves summed over systems and components
===============================================================================


Translation                          48.780360 [s]
    Ewald                            24.805318 [s]
    ExternalField-Molecule            0.010460 [s]
    Framework-Molecule                0.019590 [s]
    Molecule-Molecule                21.832064 [s]
    Overhead                          2.112928 [s]

Rotation                             48.725417 [s]
    Ewald                            24.910644 [s]
    ExternalField-Molecule            0.011662 [s]
    Framework-Molecule                0.011691 [s]
    Molecule-Molecule                21.817256 [s]
    Overhead                          1.974164 [s]

Volume change                        40.745013 [s]
    Ewald                            17.506939 [s]
    NonEwald                         21.781783 [s]
    Tail                              1.215236 [s]
    Overhead                          0.241055 [s]

Reinsertion (CBMC)                  166.904534 [s]
    Ewald                            21.570461 [s]
    NonEwald                        145.021097 [s]
    Overhead                          0.312976 [s]

Property sampling:                    0.283935 [s]
Energy/pressure sampling:             7.043473 [s]

Production simulation time:         313.276711 [s]
                All summed:         312.482732 [s]
                  Overhead:           0.793979 [s]


Initalization simulation time:       61.094463 [s]
Equilibration simulation time:        0.000000 [s]
Production simulation time:         313.276711 [s]
Total simulation time:              374.371174 [s]


Energy averages and statistics:
===============================================================================

Framework-molecule energy:
-------------------------------------------------------------------------------



Framework-molecule energy contributions per energy type:
-------------------------------------------------------------------------------



Inter-molecular energy:
-------------------------------------------------------------------------------

    Inter-molecular energy/kʙ 0-0 [CO2-CO2]:
    ---------------------------------------------------------------------------
        Block[  0] -3.076225e+05
        Block[  1] -3.100036e+05
        Block[  2] -3.140208e+05
        Block[  3] -3.140035e+05
        Block[  4] -3.254601e+05
        -----------------------------------------------------------------------
        Average  -3.142221e+05 +/-  8.504974e+03 [K]



Inter-molecular energy contributions per energy type:
-------------------------------------------------------------------------------

    Van der Waals energy/kʙ 0-0 [CO2-CO2]:
    ---------------------------------------------------------------------------
        Block[  0] -2.178523e+05
        Block[  1] -2.201877e+05
        Block[  2] -2.234364e+05
        Block[  3] -2.234976e+05
        Block[  4] -2.298403e+05
        -----------------------------------------------------------------------
        Average  -2.229629e+05 +/-  5.608238e+03 [K]

    VDW Tail-Correction energy/kʙ 0-0 [CO2-CO2]:
    ---------------------------------------------------------------------------
        Block[  0] -9.394524e+03
        Block[  1] -9.415888e+03
        Block[  2] -9.548266e+03
        Block[  3] -9.588665e+03
        Block[  4] -9.789614e+03
        -----------------------------------------------------------------------
        Average  -9.547392e+03 +/-  1.973087e+02 [K]

    Coulomb Real energy/kʙ 0-0 [CO2-CO2]:
    ---------------------------------------------------------------------------
        Block[  0] -6.473771e+04
        Block[  1] -6.475229e+04
        Block[  2] -6.520783e+04
        Block[  3] -6.507611e+04
        Block[  4] -6.928710e+04
        -----------------------------------------------------------------------
        Average  -6.581221e+04 +/-  2.424827e+03 [K]

    Coulomb Fourier energy/kʙ 0-0 [CO2-CO2]:
    ---------------------------------------------------------------------------
        Block[  0] -1.563798e+04
        Block[  1] -1.564773e+04
        Block[  2] -1.582836e+04
        Block[  3] -1.584112e+04
        Block[  4] -1.654309e+04
        -----------------------------------------------------------------------
        Average  -1.589966e+04 +/-  4.622116e+02 [K]


Total energy/kʙ
-------------------------------------------------------------------------------
    Block[  0] -3.076225e+05
    Block[  1] -3.100036e+05
    Block[  2] -3.140208e+05
    Block[  3] -3.140035e+05
    Block[  4] -3.254601e+05
    ---------------------------------------------------------------------------
    Average  -3.142221e+05 +/-  8.504974e+03 [K]

Pressure averages and statistics:
===============================================================================

Average pressure tensor: 
-------------------------------------------------------------------------------
 1.4218e+02  2.6930e+01 -5.0021e+00 +/- 9.7349e+01 9.8471e+01 3.1835e+01 [bar]
 2.6930e+01  1.8099e+02  8.7175e-01 +/- 9.8471e+01 9.4708e+01 4.6642e+01 [bar]
-5.0021e+00  8.7175e-01  1.6384e+02 +/- 3.1835e+01 4.6642e+01 6.5468e+01 [bar]

    Block[  0]  5.048912e+07
    Block[  1]  5.073171e+07
    Block[  2]  5.133809e+07
    Block[  3]  5.155841e+07
    Block[  4]  5.266420e+07
    ---------------------------------------------------------------------------
    Ideal gas pressure   5.135631e+07 +/-  6.359118e-02 [Pa]
                         5.135631e+02 +/-  1.055957e+01 [bar]


    Block[  0] -2.958848e+07
    Block[  1] -3.977167e+07
    Block[  2] -3.399608e+07
    Block[  3] -3.261311e+07
    Block[  4] -3.964230e+07
    ---------------------------------------------------------------------------
    Excess pressure  -3.512233e+07 +/-  5.560134e+06 [Pa]
                     -3.512233e+02 +/-  5.560134e+01 [bar]


    Block[  0]  2.090064e+07
    Block[  1]  1.096004e+07
    Block[  2]  1.734201e+07
    Block[  3]  1.894530e+07
    Block[  4]  1.302190e+07
    ---------------------------------------------------------------------------
    Pressure average   1.623398e+07 +/-  5.137045e+06 [Pa]
                       1.623398e+02 +/-  5.137045e+01 [bar]


Enthalpy of adsorption
===============================================================================

No fluctuating components present.


Densities
===============================================================================

Component 0 (CO2)
    Block[  0] 200
    Block[  1] 200
    Block[  2] 200
    Block[  3] 200
    Block[  4] 200
    -----------------------------------------------------------------------
    Density average   2.000000e+02 +/-  0.000000e+00 [molecules]
    Density average   1.487887e-02 +/-  3.059304e-04 [molec/A^3]
    Density average   1.087076e+03 +/-  2.235180e+01 [kg.m⁻³]

