Compiler and run-time data
===============================================================================
RASPA 3.0.4

Random seed: 260961259

Compiled as a 64-bits application
Compiler: gcc Ubuntu Clang 18.1.3 (1ubuntu1)
Compile Date = Mar 15 2025, Compile Time = 19:39:45

2025-06-02 14:17:00.106575
Simulation started on Mon, Jun 02
The start time was 14:17:00

Hostname:    c060
OS type:     Linux on x86_64
OS release:  6.8.0-58-generic
OS version:  #60-Ubuntu SMP PREEMPT_DYNAMIC Fri Mar 14 18:29:48 UTC 2025


Mutual consistent basic set of units:
===============================================================================

Unit of temperature: 1 [K]
Unit of length:      1e-10 [m]
Unit of time:        1e-12 [s]
Unit of mass:        1.6605402e-27 [kg]
Unit of charge:      1.60217733e-19 [C/particle]


Boltzmann constant (internal units):          0.8314464919307584 [-]
represents conversion from energy (internal units) to temperature (in Kelvin)

Derived units and their conversion factors:
===============================================================================

Unit of energy:                           1.6605402000000002e-23 [J]
Unit of energy:                           10.000008872307538 [J.mol⁻¹]
Unit of velocity:                         100 [m.s⁻¹]
Unit of force:                            1.6605402000000002e-13 [N]
Unit of diffusion:                        1.0000000000000002e-08 [m².s⁻¹]
Unit of acceleration:                     1.0000000000000002e-08 [m².s⁻¹]
Unit of torque:                           1.6605402000000002e-23 [N.m]
Unit of pressure:                         16605402 [Pa]
Unit of volume:                           1e-30 [m³]
Unit of density:                          1660.5402 [kg.m⁻³]
Unit of dynamic viscosity:                1.6605401999999997e-05 [N.s.m⁻²]
Unit of enthalpy:                         1.6605402000000002e-23 [J]
Unit of polarizability:                   1.5458657349975198e-35 [-]
Unit of Coulomb potential:                167101.08000665612 [K]
Unit of dielectric constant:              1.5458657349975193e-05 [s².C².kg⁻¹.m⁻³]
Unit of dipole moment:                    1.60217733e-29 [C.m]
Unit of Debye:                            4.803206799099162 [C.m]
Unit of electric potential:               0.00010364272224473431 [V]
Unit of electric field:                   1036427.222447343 [V.m⁻¹]
Unit of isothermal compressibility:       6.02213665167516e-08 [Pa⁻¹]
Unit of heat capacity:                    10.000008872307538 [J.mol⁻¹.K⁻¹]
Unit of volumetric expansion coefficient: 1 [K⁻¹]


Internal conversion factors:
===============================================================================

Energy (internal units) to Kelvin:      1.202724284692786 [-]
Kelvin to energy (internal units):      0.8314457542157567 [-]


System definitions
===============================================================================

Temperature:          250 [K]
Beta:                 0.0048108928702210625 [-]
Pressure:             6e+06 [Pa]
Helium void fraction: 1 [-]

Box:      30.00000   0.00000   0.00000
           0.00000  30.00000   0.00000
           0.00000   0.00000  30.00000
Lengths:  30.00000  30.00000  30.00000
Angles:   90.00000  90.00000  90.00000
Rectangular boundary conditions



Property measurement settings
===============================================================================




Pseudo-atoms
===============================================================================

  0 - C_co2    framework-atom: false
  1 - O_co2    framework-atom: false

  0 - C_co2    mass: 12.00000, charge:  0.70000
  1 - O_co2    mass: 15.99940, charge: -0.35000

  0 - C_co2    polarizability:  0.00000
  1 - O_co2    polarizability:  0.00000

  0 - J. J. Potoff et al., AIChE J. 2001, 47, 1676–1682.
  1 - J. J. Potoff et al., AIChE J. 2001, 47, 1676–1682.

Force field status
===============================================================================

Cutoff Framework-Molecule VDW:  10.00000 [Å]
Cutoff Molecule-Molecule VDW:   10.00000 [Å]
Cutoff Coulomb:                 10.00000 [Å]

Overlap-criteria VDW:           1.000000e+05 [K]

C_co2    - C_co2    Lennard-Jones p₀/kʙ:  27.00000 [K], p₁:  2.80000 [Å]
                                  shift:   0.00000 [K], tailcorrections: true
C_co2    - O_co2    Lennard-Jones p₀/kʙ:  46.18441 [K], p₁:  2.92500 [Å]
                                  shift:   0.00000 [K], tailcorrections: true
O_co2    - O_co2    Lennard-Jones p₀/kʙ:  79.00000 [K], p₁:  3.05000 [Å]
                                  shift:   0.00000 [K], tailcorrections: true

Ewald precision: 1e-06
Ewald alpha: 0.32079885109097883
Ewald k-vectors: 10 10 10


Component definitions
===============================================================================

Component 0 [CO2]

    Type: Adsorbate

    Critical temperature:  304.1282 [K]
    Critical pressure:     7377300 [Pa]
    Acentric factor:       0.22394 [-]

    Mol-fraction:                 1 [-]
    Swappable:                   false

    Mass:                         43.9988 [-]
    Bulk fluid density:           0 [-]
    Compressibility:              0 [-]
    Excess molecules:             0 [-]

    Number Of Atoms:    3
    CBMC starting bead: 0
      0: O_co2  position  0.00000 -0.00000  1.16000, charge -0.35000
      1: C_co2  position  0.00000 -0.00000  0.00000, charge  0.70000
      2: O_co2  position  0.00000 -0.00000 -1.16000, charge -0.35000
    Diagonalized inertia-vector:      43.05758528 43.05758528 0.00000000
    Translational degrees of freedom: 3
    Rotational degrees of freedom:    2
    Shape of the molecule is: 'Linear'
    Net-charge:        0.00000000 [e]

    Move probabilities:
    Translation:                   0.331126 [-]
    Random translation:            0.000000 [-]
    Rotation:                      0.331126 [-]
    Random rotation:               0.000000 [-]
    Volume change:                 0.006623 [-]
    Reinsertion (CBMC):            0.331126 [-]
    Identity change (CBMC):        0.000000 [-]
    Swap:                          0.000000 [-]
    Swap (CBMC):                   0.000000 [-]
    Swap (CFCMC):                  0.000000 [-]
    Swap (CB/CFCMC):               0.000000 [-]
    Gibbs volume:                  0.000000 [-]
    Gibbs swap (CBMC):             0.000000 [-]
    Gibbs swap (CFCMC):            0.000000 [-]
    Widom:                         0.000000 [-]
    Widom (CFCMC):                 0.000000 [-]
    Widom (CB/CFCMC):              0.000000 [-]
    Parallel tempering:            0.000000 [-]
    Hybrid MC:                     0.000000 [-]

    number of blocking-pockets: 0

    number of bonds: 0





Number of pseudo-atoms
===============================================================================

Component   0 (CO2)
-------------------------------------------------------------------------------
    index   0 (C_co2): 100 atoms
    index   1 (O_co2): 200 atoms

Total number of pseudo-atoms:
-------------------------------------------------------------------------------
    index   0 (C_co2): 100 atoms
    index   1 (O_co2): 200 atoms




Energy status Recomputed from scratch
===============================================================================

Total potential energy/kʙ       -4.134792e+03 [K]
    external field VDW/kʙ        0.000000e+00 [K]
    external field Real/kʙ       0.000000e+00 [K]
    framework-molecule VDW/kʙ    0.000000e+00 [K]
    framework-molecule Real/kʙ   0.000000e+00 [K]
    molecule-molecule VDW/kʙ    -5.412412e+02 [K]
    molecule-molecule Real/kʙ   -2.528339e+03 [K]
    Van der Waals (Tail)/kʙ     -1.188352e+03 [K]
    Ewald Fourier/kʙ             1.465399e+04 [K]
    Ewald self/kʙ               -2.222923e+06 [K]
    Ewald exclusion/kʙ           2.208392e+06 [K]
    intra VDW/kʙ                 0.000000e+00 [K]
    intra Coulombic/kʙ           0.000000e+00 [K]
    polarization/kʙ              0.000000e+00 [K]
    dU/dlambda VDW/kʙ            0.000000e+00 [K]
    dU/dlambda Real/kʙ           0.000000e+00 [K]
    dU/dlambda Ewald/kʙ          0.000000e+00 [K]





Initialization: Current cycle: 0 out of 1000
===============================================================================

Box:      30.11964   0.00000   0.00000
           0.00000  30.11964   0.00000
           0.00000   0.00000  30.11964
Lengths:  30.11964  30.11964  30.11964
Angles:   90.00000  90.00000  90.00000
Rectangular boundary conditions

net charge:   0.00000000

component   0 (CO2) lambda:  0 occupancy:  1 (1.000000)
    net charge:   0.00000000 [e]

Amount of molecules per component :
-------------------------------------------------------------------------------
Component 0 (CO2)
    molecules:         1.000000e+02 molecules
    number density:    3.659744e-03 molec/A^3
    density:           2.673872e+02 kg/m^3

Total potential energy/kʙ       -7.403141e+03 [K]
-------------------------------------------------------------------------------
    external field VDW/kʙ        0.000000e+00 [K]
    external field Real/kʙ       0.000000e+00 [K]
    framework-molecule VDW/kʙ    0.000000e+00 [K]
    framework-molecule Real/kʙ   0.000000e+00 [K]
    molecule-molecule VDW/kʙ    -1.708748e+03 [K]
    molecule-molecule Real/kʙ   -3.939441e+03 [K]
    Van der Waals (Tail)/kʙ     -1.174247e+03 [K]
    Ewald Fourier/kʙ             1.395015e+04 [K]
    Ewald self/kʙ               -2.222923e+06 [K]
    Ewald exclusion/kʙ           2.208392e+06 [K]
    intra VDW/kʙ                 0.000000e+00 [K]
    intra Coulombic/kʙ           0.000000e+00 [K]
    polarization/kʙ              0.000000e+00 [K]
    dU/dlambda VDW/kʙ            0.000000e+00 [K]
    dU/dlambda Real/kʙ           0.000000e+00 [K]
    dU/dlambda Ewald/kʙ          0.000000e+00 [K]


Initialization: Current cycle: 100 out of 1000
===============================================================================

Box:      27.41613   0.00000   0.00000
           0.00000  27.41613   0.00000
           0.00000   0.00000  27.41613
Lengths:  27.41613  27.41613  27.41613
Angles:   90.00000  90.00000  90.00000
Rectangular boundary conditions

net charge:   0.00000000

component   0 (CO2) lambda:  0 occupancy:  1 (1.000000)
    net charge:   0.00000000 [e]

Amount of molecules per component :
-------------------------------------------------------------------------------
Component 0 (CO2)
    molecules:         1.000000e+02 molecules
    number density:    4.852676e-03 molec/A^3
    density:           3.545448e+02 kg/m^3

Total potential energy/kʙ       -7.677773e+04 [K]
-------------------------------------------------------------------------------
    external field VDW/kʙ        0.000000e+00 [K]
    external field Real/kʙ       0.000000e+00 [K]
    framework-molecule VDW/kʙ    0.000000e+00 [K]
    framework-molecule Real/kʙ   0.000000e+00 [K]
    molecule-molecule VDW/kʙ    -5.447458e+04 [K]
    molecule-molecule Real/kʙ   -1.635235e+04 [K]
    Van der Waals (Tail)/kʙ     -1.557005e+03 [K]
    Ewald Fourier/kʙ             1.013706e+04 [K]
    Ewald self/kʙ               -2.222923e+06 [K]
    Ewald exclusion/kʙ           2.208392e+06 [K]
    intra VDW/kʙ                 0.000000e+00 [K]
    intra Coulombic/kʙ           0.000000e+00 [K]
    polarization/kʙ              0.000000e+00 [K]
    dU/dlambda VDW/kʙ            0.000000e+00 [K]
    dU/dlambda Real/kʙ           0.000000e+00 [K]
    dU/dlambda Ewald/kʙ          0.000000e+00 [K]


Initialization: Current cycle: 200 out of 1000
===============================================================================

Box:      25.69092   0.00000   0.00000
           0.00000  25.69092   0.00000
           0.00000   0.00000  25.69092
Lengths:  25.69092  25.69092  25.69092
Angles:   90.00000  90.00000  90.00000
Rectangular boundary conditions

net charge:   0.00000000

component   0 (CO2) lambda:  0 occupancy:  1 (1.000000)
    net charge:   0.00000000 [e]

Amount of molecules per component :
-------------------------------------------------------------------------------
Component 0 (CO2)
    molecules:         1.000000e+02 molecules
    number density:    5.897405e-03 molec/A^3
    density:           4.308745e+02 kg/m^3

Total potential energy/kʙ       -7.218995e+04 [K]
-------------------------------------------------------------------------------
    external field VDW/kʙ        0.000000e+00 [K]
    external field Real/kʙ       0.000000e+00 [K]
    framework-molecule VDW/kʙ    0.000000e+00 [K]
    framework-molecule Real/kʙ   0.000000e+00 [K]
    molecule-molecule VDW/kʙ    -5.336873e+04 [K]
    molecule-molecule Real/kʙ   -1.336843e+04 [K]
    Van der Waals (Tail)/kʙ     -1.892211e+03 [K]
    Ewald Fourier/kʙ             1.097028e+04 [K]
    Ewald self/kʙ               -2.222923e+06 [K]
    Ewald exclusion/kʙ           2.208392e+06 [K]
    intra VDW/kʙ                 0.000000e+00 [K]
    intra Coulombic/kʙ           0.000000e+00 [K]
    polarization/kʙ              0.000000e+00 [K]
    dU/dlambda VDW/kʙ            0.000000e+00 [K]
    dU/dlambda Real/kʙ           0.000000e+00 [K]
    dU/dlambda Ewald/kʙ          0.000000e+00 [K]


Initialization: Current cycle: 300 out of 1000
===============================================================================

Box:      24.51778   0.00000   0.00000
           0.00000  24.51778   0.00000
           0.00000   0.00000  24.51778
Lengths:  24.51778  24.51778  24.51778
Angles:   90.00000  90.00000  90.00000
Rectangular boundary conditions

net charge:   0.00000000

component   0 (CO2) lambda:  0 occupancy:  1 (1.000000)
    net charge:   0.00000000 [e]

Amount of molecules per component :
-------------------------------------------------------------------------------
Component 0 (CO2)
    molecules:         1.000000e+02 molecules
    number density:    6.785103e-03 molec/A^3
    density:           4.957312e+02 kg/m^3

Total potential energy/kʙ       -8.431340e+04 [K]
-------------------------------------------------------------------------------
    external field VDW/kʙ        0.000000e+00 [K]
    external field Real/kʙ       0.000000e+00 [K]
    framework-molecule VDW/kʙ    0.000000e+00 [K]
    framework-molecule Real/kʙ   0.000000e+00 [K]
    molecule-molecule VDW/kʙ    -5.839670e+04 [K]
    molecule-molecule Real/kʙ   -1.937423e+04 [K]
    Van der Waals (Tail)/kʙ     -2.177034e+03 [K]
    Ewald Fourier/kʙ             1.016543e+04 [K]
    Ewald self/kʙ               -2.222923e+06 [K]
    Ewald exclusion/kʙ           2.208392e+06 [K]
    intra VDW/kʙ                 0.000000e+00 [K]
    intra Coulombic/kʙ           0.000000e+00 [K]
    polarization/kʙ              0.000000e+00 [K]
    dU/dlambda VDW/kʙ            0.000000e+00 [K]
    dU/dlambda Real/kʙ           0.000000e+00 [K]
    dU/dlambda Ewald/kʙ          0.000000e+00 [K]


Initialization: Current cycle: 400 out of 1000
===============================================================================

Box:      24.49992   0.00000   0.00000
           0.00000  24.49992   0.00000
           0.00000   0.00000  24.49992
Lengths:  24.49992  24.49992  24.49992
Angles:   90.00000  90.00000  90.00000
Rectangular boundary conditions

net charge:   0.00000000

component   0 (CO2) lambda:  0 occupancy:  1 (1.000000)
    net charge:   0.00000000 [e]

Amount of molecules per component :
-------------------------------------------------------------------------------
Component 0 (CO2)
    molecules:         1.000000e+02 molecules
    number density:    6.799957e-03 molec/A^3
    density:           4.968165e+02 kg/m^3

Total potential energy/kʙ       -8.511770e+04 [K]
-------------------------------------------------------------------------------
    external field VDW/kʙ        0.000000e+00 [K]
    external field Real/kʙ       0.000000e+00 [K]
    framework-molecule VDW/kʙ    0.000000e+00 [K]
    framework-molecule Real/kʙ   0.000000e+00 [K]
    molecule-molecule VDW/kʙ    -6.232999e+04 [K]
    molecule-molecule Real/kʙ   -1.615105e+04 [K]
    Van der Waals (Tail)/kʙ     -2.181800e+03 [K]
    Ewald Fourier/kʙ             1.007599e+04 [K]
    Ewald self/kʙ               -2.222923e+06 [K]
    Ewald exclusion/kʙ           2.208392e+06 [K]
    intra VDW/kʙ                 0.000000e+00 [K]
    intra Coulombic/kʙ           0.000000e+00 [K]
    polarization/kʙ              0.000000e+00 [K]
    dU/dlambda VDW/kʙ            0.000000e+00 [K]
    dU/dlambda Real/kʙ           0.000000e+00 [K]
    dU/dlambda Ewald/kʙ          0.000000e+00 [K]


Initialization: Current cycle: 500 out of 1000
===============================================================================

Box:      23.10373   0.00000   0.00000
           0.00000  23.10373   0.00000
           0.00000   0.00000  23.10373
Lengths:  23.10373  23.10373  23.10373
Angles:   90.00000  90.00000  90.00000
Rectangular boundary conditions

net charge:   0.00000000

component   0 (CO2) lambda:  0 occupancy:  1 (1.000000)
    net charge:   0.00000000 [e]

Amount of molecules per component :
-------------------------------------------------------------------------------
Component 0 (CO2)
    molecules:         1.000000e+02 molecules
    number density:    8.108743e-03 molec/A^3
    density:           5.924387e+02 kg/m^3

Total potential energy/kʙ       -9.881519e+04 [K]
-------------------------------------------------------------------------------
    external field VDW/kʙ        0.000000e+00 [K]
    external field Real/kʙ       0.000000e+00 [K]
    framework-molecule VDW/kʙ    0.000000e+00 [K]
    framework-molecule Real/kʙ   0.000000e+00 [K]
    molecule-molecule VDW/kʙ    -7.130081e+04 [K]
    molecule-molecule Real/kʙ   -2.065036e+04 [K]
    Van der Waals (Tail)/kʙ     -2.601730e+03 [K]
    Ewald Fourier/kʙ             1.026856e+04 [K]
    Ewald self/kʙ               -2.222923e+06 [K]
    Ewald exclusion/kʙ           2.208392e+06 [K]
    intra VDW/kʙ                 0.000000e+00 [K]
    intra Coulombic/kʙ           0.000000e+00 [K]
    polarization/kʙ              0.000000e+00 [K]
    dU/dlambda VDW/kʙ            0.000000e+00 [K]
    dU/dlambda Real/kʙ           0.000000e+00 [K]
    dU/dlambda Ewald/kʙ          0.000000e+00 [K]


Initialization: Current cycle: 600 out of 1000
===============================================================================

Box:      21.78935   0.00000   0.00000
           0.00000  21.78935   0.00000
           0.00000   0.00000  21.78935
Lengths:  21.78935  21.78935  21.78935
Angles:   90.00000  90.00000  90.00000
Rectangular boundary conditions

net charge:   0.00000000

component   0 (CO2) lambda:  0 occupancy:  1 (1.000000)
    net charge:   0.00000000 [e]

Amount of molecules per component :
-------------------------------------------------------------------------------
Component 0 (CO2)
    molecules:         1.000000e+02 molecules
    number density:    9.666452e-03 molec/A^3
    density:           7.062475e+02 kg/m^3

Total potential energy/kʙ       -9.754381e+04 [K]
-------------------------------------------------------------------------------
    external field VDW/kʙ        0.000000e+00 [K]
    external field Real/kʙ       0.000000e+00 [K]
    framework-molecule VDW/kʙ    0.000000e+00 [K]
    framework-molecule Real/kʙ   0.000000e+00 [K]
    molecule-molecule VDW/kʙ    -7.228964e+04 [K]
    molecule-molecule Real/kʙ   -1.710979e+04 [K]
    Van der Waals (Tail)/kʙ     -3.101528e+03 [K]
    Ewald Fourier/kʙ             9.488004e+03 [K]
    Ewald self/kʙ               -2.222923e+06 [K]
    Ewald exclusion/kʙ           2.208392e+06 [K]
    intra VDW/kʙ                 0.000000e+00 [K]
    intra Coulombic/kʙ           0.000000e+00 [K]
    polarization/kʙ              0.000000e+00 [K]
    dU/dlambda VDW/kʙ            0.000000e+00 [K]
    dU/dlambda Real/kʙ           0.000000e+00 [K]
    dU/dlambda Ewald/kʙ          0.000000e+00 [K]


Initialization: Current cycle: 700 out of 1000
===============================================================================

Box:      20.98235   0.00000   0.00000
           0.00000  20.98235   0.00000
           0.00000   0.00000  20.98235
Lengths:  20.98235  20.98235  20.98235
Angles:   90.00000  90.00000  90.00000
Rectangular boundary conditions

net charge:   0.00000000

component   0 (CO2) lambda:  0 occupancy:  1 (1.000000)
    net charge:   0.00000000 [e]

Amount of molecules per component :
-------------------------------------------------------------------------------
Component 0 (CO2)
    molecules:         1.000000e+02 molecules
    number density:    1.082524e-02 molec/A^3
    density:           7.909106e+02 kg/m^3

Total potential energy/kʙ       -1.226397e+05 [K]
-------------------------------------------------------------------------------
    external field VDW/kʙ        0.000000e+00 [K]
    external field Real/kʙ       0.000000e+00 [K]
    framework-molecule VDW/kʙ    0.000000e+00 [K]
    framework-molecule Real/kʙ   0.000000e+00 [K]
    molecule-molecule VDW/kʙ    -8.373698e+04 [K]
    molecule-molecule Real/kʙ   -2.907137e+04 [K]
    Van der Waals (Tail)/kʙ     -3.473332e+03 [K]
    Ewald Fourier/kʙ             8.172837e+03 [K]
    Ewald self/kʙ               -2.222923e+06 [K]
    Ewald exclusion/kʙ           2.208392e+06 [K]
    intra VDW/kʙ                 0.000000e+00 [K]
    intra Coulombic/kʙ           0.000000e+00 [K]
    polarization/kʙ              0.000000e+00 [K]
    dU/dlambda VDW/kʙ            0.000000e+00 [K]
    dU/dlambda Real/kʙ           0.000000e+00 [K]
    dU/dlambda Ewald/kʙ          0.000000e+00 [K]


Initialization: Current cycle: 800 out of 1000
===============================================================================

Box:      20.30652   0.00000   0.00000
           0.00000  20.30652   0.00000
           0.00000   0.00000  20.30652
Lengths:  20.30652  20.30652  20.30652
Angles:   90.00000  90.00000  90.00000
Rectangular boundary conditions

net charge:   0.00000000

component   0 (CO2) lambda:  0 occupancy:  1 (1.000000)
    net charge:   0.00000000 [e]

Amount of molecules per component :
-------------------------------------------------------------------------------
Component 0 (CO2)
    molecules:         1.000000e+02 molecules
    number density:    1.194245e-02 molec/A^3
    density:           8.725359e+02 kg/m^3

Total potential energy/kʙ       -1.219664e+05 [K]
-------------------------------------------------------------------------------
    external field VDW/kʙ        0.000000e+00 [K]
    external field Real/kʙ       0.000000e+00 [K]
    framework-molecule VDW/kʙ    0.000000e+00 [K]
    framework-molecule Real/kʙ   0.000000e+00 [K]
    molecule-molecule VDW/kʙ    -8.809692e+04 [K]
    molecule-molecule Real/kʙ   -2.427347e+04 [K]
    Van der Waals (Tail)/kʙ     -3.831794e+03 [K]
    Ewald Fourier/kʙ             8.766603e+03 [K]
    Ewald self/kʙ               -2.222923e+06 [K]
    Ewald exclusion/kʙ           2.208392e+06 [K]
    intra VDW/kʙ                 0.000000e+00 [K]
    intra Coulombic/kʙ           0.000000e+00 [K]
    polarization/kʙ              0.000000e+00 [K]
    dU/dlambda VDW/kʙ            0.000000e+00 [K]
    dU/dlambda Real/kʙ           0.000000e+00 [K]
    dU/dlambda Ewald/kʙ          0.000000e+00 [K]


Initialization: Current cycle: 900 out of 1000
===============================================================================

Box:      20.15559   0.00000   0.00000
           0.00000  20.15559   0.00000
           0.00000   0.00000  20.15559
Lengths:  20.15559  20.15559  20.15559
Angles:   90.00000  90.00000  90.00000
Rectangular boundary conditions

net charge:   0.00000000

component   0 (CO2) lambda:  0 occupancy:  1 (1.000000)
    net charge:   0.00000000 [e]

Amount of molecules per component :
-------------------------------------------------------------------------------
Component 0 (CO2)
    molecules:         1.000000e+02 molecules
    number density:    1.221275e-02 molec/A^3
    density:           8.922843e+02 kg/m^3

Total potential energy/kʙ       -1.282729e+05 [K]
-------------------------------------------------------------------------------
    external field VDW/kʙ        0.000000e+00 [K]
    external field Real/kʙ       0.000000e+00 [K]
    framework-molecule VDW/kʙ    0.000000e+00 [K]
    framework-molecule Real/kʙ   0.000000e+00 [K]
    molecule-molecule VDW/kʙ    -9.044908e+04 [K]
    molecule-molecule Real/kʙ   -2.659263e+04 [K]
    Van der Waals (Tail)/kʙ     -3.918520e+03 [K]
    Ewald Fourier/kʙ             7.218162e+03 [K]
    Ewald self/kʙ               -2.222923e+06 [K]
    Ewald exclusion/kʙ           2.208392e+06 [K]
    intra VDW/kʙ                 0.000000e+00 [K]
    intra Coulombic/kʙ           0.000000e+00 [K]
    polarization/kʙ              0.000000e+00 [K]
    dU/dlambda VDW/kʙ            0.000000e+00 [K]
    dU/dlambda Real/kʙ           0.000000e+00 [K]
    dU/dlambda Ewald/kʙ          0.000000e+00 [K]


Current cycle: 0 out of 5000
===============================================================================

Box:      19.89938   0.00000   0.00000  Average:  19.89938   0.00000   0.00000
           0.00000  19.89938   0.00000             0.00000  19.89938   0.00000
           0.00000   0.00000  19.89938             0.00000   0.00000  19.89938
Lengths:  19.89938  19.89938  19.89938  Average:  19.89938  19.89938  19.89938
Angles:   90.00000  90.00000  90.00000  Average:  90.00000  90.00000  90.00000
Rectangular boundary conditions

net charge:   0.00000000

component 0 (CO2) lambda:  0 occupancy:  1 (1.000000)
    net charge:   0.00000000 [e]

Amount of molecules per component :
-------------------------------------------------------------------------------
Component 0 (CO2)
    molecules:      1.000000e+02 molecules  (1.000000e+02 +/- 0.000000e+00)
    number density: 1.269058e-02 molec./A^3 (1.269058e-02 +/- 0.000000e+00)
    density:        9.271958e+02 kg/m^3     (9.271958e+02 +/- 0.000000e+00)

Average pressure tensor: 
-------------------------------------------------------------------------------
 4.3803e+02  0.0000e+00  0.0000e+00 +/- 0.0000e+00 0.0000e+00 0.0000e+00 [bar]
 0.0000e+00  4.3803e+02  0.0000e+00 +/- 0.0000e+00 0.0000e+00 0.0000e+00 [bar]
 0.0000e+00  0.0000e+00  4.3803e+02 +/- 0.0000e+00 0.0000e+00 0.0000e+00 [bar]
Ideal-gas pressure:   4.380315e+02 +/ 0.000000e+00 [bar]
Excess pressure:      0.000000e+00 +/ 0.000000e+00 [bar]
Pressure:             4.380315e+02 +/ 0.000000e+00 [bar]

Total potential energy/kʙ  -1.352522e+05 (-1.352522e+05 +/- 0.000000e+00) [K]
-------------------------------------------------------------------------------
ExternalField-molecule
    Van der Waals/kʙ        0.000000e+00 ( 0.000000e+00 +/- 0.000000e+00) [K]
Framework-molecule
    Van der Waals/kʙ        0.000000e+00 ( 0.000000e+00 +/- 0.000000e+00) [K]
    Van der Waals (Tail)/kʙ 0.000000e+00 ( 0.000000e+00 +/- 0.000000e+00) [K]
    Coulombic Real/kʙ       0.000000e+00 ( 0.000000e+00 +/- 0.000000e+00) [K]
    Coulombic Fourier/kʙ    0.000000e+00 ( 0.000000e+00 +/- 0.000000e+00) [K]
Molecule-molecule
    Van der Waals/kʙ       -9.721706e+04 (-9.721706e+04 +/- 0.000000e+00) [K]
    Van der Waals (Tail)/kʙ-4.071836e+03 (-4.071836e+03 +/- 0.000000e+00) [K]
    Coulombic Real/kʙ      -2.724022e+04 (-2.724022e+04 +/- 0.000000e+00) [K]
    Coulombic Fourier/kʙ   -6.723052e+03 (-6.723052e+03 +/- 0.000000e+00) [K]
    Molecule Intra/kʙ       0.000000e+00 ( 0.000000e+00 +/- 0.000000e+00) [K]

Current cycle: 100 out of 5000
===============================================================================

Box:      19.11179   0.00000   0.00000  Average:  19.65499   0.00000   0.00000
           0.00000  19.11179   0.00000             0.00000  19.65499   0.00000
           0.00000   0.00000  19.11179             0.00000   0.00000  19.65499
Lengths:  19.11179  19.11179  19.11179  Average:  19.65499  19.65499  19.65499
Angles:   90.00000  90.00000  90.00000  Average:  90.00000  90.00000  90.00000
Rectangular boundary conditions

net charge:   0.00000000

component 0 (CO2) lambda:  0 occupancy:  1 (1.000000)
    net charge:   0.00000000 [e]

Amount of molecules per component :
-------------------------------------------------------------------------------
Component 0 (CO2)
    molecules:      1.000000e+02 molecules  (1.000000e+02 +/- 0.000000e+00)
    number density: 1.432504e-02 molec./A^3 (1.318274e-02 +/- 0.000000e+00)
    density:        1.046612e+03 kg/m^3     (9.631534e+02 +/- 0.000000e+00)

Average pressure tensor: 
-------------------------------------------------------------------------------
-7.1100e+01 -3.2246e+01  4.3490e+01 +/- 0.0000e+00 0.0000e+00 0.0000e+00 [bar]
-3.2246e+01  1.8111e+02 -8.7344e+01 +/- 0.0000e+00 0.0000e+00 0.0000e+00 [bar]
 4.3490e+01 -8.7344e+01 -2.6117e+02 +/- 0.0000e+00 0.0000e+00 0.0000e+00 [bar]
Ideal-gas pressure:   4.550188e+02 +/ 0.000000e+00 [bar]
Excess pressure:     -5.054058e+02 +/ 0.000000e+00 [bar]
Pressure:            -5.038706e+01 +/ 0.000000e+00 [bar]

Total potential energy/kʙ  -1.516444e+05 (-1.382105e+05 +/- 0.000000e+00) [K]
-------------------------------------------------------------------------------
ExternalField-molecule
    Van der Waals/kʙ        0.000000e+00 ( 0.000000e+00 +/- 0.000000e+00) [K]
Framework-molecule
    Van der Waals/kʙ        0.000000e+00 ( 0.000000e+00 +/- 0.000000e+00) [K]
    Van der Waals (Tail)/kʙ 0.000000e+00 ( 0.000000e+00 +/- 0.000000e+00) [K]
    Coulombic Real/kʙ       0.000000e+00 ( 0.000000e+00 +/- 0.000000e+00) [K]
    Coulombic Fourier/kʙ    0.000000e+00 ( 0.000000e+00 +/- 0.000000e+00) [K]
Molecule-molecule
    Van der Waals/kʙ       -1.069827e+05 (-9.923886e+04 +/- 0.000000e+00) [K]
    Van der Waals (Tail)/kʙ-4.596260e+03 (-4.243318e+03 +/- 0.000000e+00) [K]
    Coulombic Real/kʙ      -3.214200e+04 (-2.791363e+04 +/- 0.000000e+00) [K]
    Coulombic Fourier/kʙ   -7.923385e+03 (-6.814681e+03 +/- 0.000000e+00) [K]
    Molecule Intra/kʙ       0.000000e+00 ( 0.000000e+00 +/- 0.000000e+00) [K]

Current cycle: 200 out of 5000
===============================================================================

Box:      19.27865   0.00000   0.00000  Average:  19.43141   0.00000   0.00000
           0.00000  19.27865   0.00000             0.00000  19.43141   0.00000
           0.00000   0.00000  19.27865             0.00000   0.00000  19.43141
Lengths:  19.27865  19.27865  19.27865  Average:  19.43141  19.43141  19.43141
Angles:   90.00000  90.00000  90.00000  Average:  90.00000  90.00000  90.00000
Rectangular boundary conditions

net charge:   0.00000000

component 0 (CO2) lambda:  0 occupancy:  1 (1.000000)
    net charge:   0.00000000 [e]

Amount of molecules per component :
-------------------------------------------------------------------------------
Component 0 (CO2)
    molecules:      1.000000e+02 molecules  (1.000000e+02 +/- 0.000000e+00)
    number density: 1.395629e-02 molec./A^3 (1.364816e-02 +/- 0.000000e+00)
    density:        1.019670e+03 kg/m^3     (9.971579e+02 +/- 0.000000e+00)

Average pressure tensor: 
-------------------------------------------------------------------------------
-1.4007e+02  8.6252e+00 -4.0297e+01 +/- 0.0000e+00 0.0000e+00 0.0000e+00 [bar]
 8.6252e+00  1.6264e+02 -1.5540e+02 +/- 0.0000e+00 0.0000e+00 0.0000e+00 [bar]
-4.0297e+01 -1.5540e+02 -2.3052e+02 +/- 0.0000e+00 0.0000e+00 0.0000e+00 [bar]
Ideal-gas pressure:   4.710834e+02 +/ 0.000000e+00 [bar]
Excess pressure:     -5.404017e+02 +/ 0.000000e+00 [bar]
Pressure:            -6.931827e+01 +/ 0.000000e+00 [bar]

Total potential energy/kʙ  -1.475552e+05 (-1.430534e+05 +/- 0.000000e+00) [K]
-------------------------------------------------------------------------------
ExternalField-molecule
    Van der Waals/kʙ        0.000000e+00 ( 0.000000e+00 +/- 0.000000e+00) [K]
Framework-molecule
    Van der Waals/kʙ        0.000000e+00 ( 0.000000e+00 +/- 0.000000e+00) [K]
    Van der Waals (Tail)/kʙ 0.000000e+00 ( 0.000000e+00 +/- 0.000000e+00) [K]
    Coulombic Real/kʙ       0.000000e+00 ( 0.000000e+00 +/- 0.000000e+00) [K]
    Coulombic Fourier/kʙ    0.000000e+00 ( 0.000000e+00 +/- 0.000000e+00) [K]
Molecule-molecule
    Van der Waals/kʙ       -1.063703e+05 (-1.025412e+05 +/- 0.000000e+00) [K]
    Van der Waals (Tail)/kʙ-4.477943e+03 (-4.375894e+03 +/- 0.000000e+00) [K]
    Coulombic Real/kʙ      -2.968227e+04 (-2.895992e+04 +/- 0.000000e+00) [K]
    Coulombic Fourier/kʙ   -7.024687e+03 (-7.176432e+03 +/- 0.000000e+00) [K]
    Molecule Intra/kʙ       0.000000e+00 ( 0.000000e+00 +/- 0.000000e+00) [K]

Current cycle: 300 out of 5000
===============================================================================

Box:      19.04362   0.00000   0.00000  Average:  19.35665   0.00000   0.00000
           0.00000  19.04362   0.00000             0.00000  19.35665   0.00000
           0.00000   0.00000  19.04362             0.00000   0.00000  19.35665
Lengths:  19.04362  19.04362  19.04362  Average:  19.35665  19.35665  19.35665
Angles:   90.00000  90.00000  90.00000  Average:  90.00000  90.00000  90.00000
Rectangular boundary conditions

net charge:   0.00000000

component 0 (CO2) lambda:  0 occupancy:  1 (1.000000)
    net charge:   0.00000000 [e]

Amount of molecules per component :
-------------------------------------------------------------------------------
Component 0 (CO2)
    molecules:      1.000000e+02 molecules  (1.000000e+02 +/- 0.000000e+00)
    number density: 1.447943e-02 molec./A^3 (1.380425e-02 +/- 0.000000e+00)
    density:        1.057892e+03 kg/m^3     (1.008562e+03 +/- 0.000000e+00)

Average pressure tensor: 
-------------------------------------------------------------------------------
-1.8012e+02 -1.4270e+01 -2.0950e+01 +/- 0.0000e+00 0.0000e+00 0.0000e+00 [bar]
-1.4270e+01  1.4909e+02 -2.1038e+02 +/- 0.0000e+00 0.0000e+00 0.0000e+00 [bar]
-2.0950e+01 -2.1038e+02 -1.0619e+02 +/- 0.0000e+00 0.0000e+00 0.0000e+00 [bar]
Ideal-gas pressure:   4.764711e+02 +/ 0.000000e+00 [bar]
Excess pressure:     -5.222106e+02 +/ 0.000000e+00 [bar]
Pressure:            -4.573951e+01 +/ 0.000000e+00 [bar]

Total potential energy/kʙ  -1.489044e+05 (-1.457938e+05 +/- 0.000000e+00) [K]
-------------------------------------------------------------------------------
ExternalField-molecule
    Van der Waals/kʙ        0.000000e+00 ( 0.000000e+00 +/- 0.000000e+00) [K]
Framework-molecule
    Van der Waals/kʙ        0.000000e+00 ( 0.000000e+00 +/- 0.000000e+00) [K]
    Van der Waals (Tail)/kʙ 0.000000e+00 ( 0.000000e+00 +/- 0.000000e+00) [K]
    Coulombic Real/kʙ       0.000000e+00 ( 0.000000e+00 +/- 0.000000e+00) [K]
    Coulombic Fourier/kʙ    0.000000e+00 ( 0.000000e+00 +/- 0.000000e+00) [K]
Molecule-molecule
    Van der Waals/kʙ       -1.073617e+05 (-1.033693e+05 +/- 0.000000e+00) [K]
    Van der Waals (Tail)/kʙ-4.645797e+03 (-4.426638e+03 +/- 0.000000e+00) [K]
    Coulombic Real/kʙ      -2.886962e+04 (-3.051605e+04 +/- 0.000000e+00) [K]
    Coulombic Fourier/kʙ   -8.027325e+03 (-7.481768e+03 +/- 0.000000e+00) [K]
    Molecule Intra/kʙ       0.000000e+00 ( 0.000000e+00 +/- 0.000000e+00) [K]

Current cycle: 400 out of 5000
===============================================================================

Box:      18.85234   0.00000   0.00000  Average:  19.24414   0.00000   0.00000
           0.00000  18.85234   0.00000             0.00000  19.24414   0.00000
           0.00000   0.00000  18.85234             0.00000   0.00000  19.24414
Lengths:  18.85234  18.85234  18.85234  Average:  19.24414  19.24414  19.24414
Angles:   90.00000  90.00000  90.00000  Average:  90.00000  90.00000  90.00000
Rectangular boundary conditions

net charge:   0.00000000

component 0 (CO2) lambda:  0 occupancy:  1 (1.000000)
    net charge:   0.00000000 [e]

Amount of molecules per component :
-------------------------------------------------------------------------------
Component 0 (CO2)
    molecules:      1.000000e+02 molecules  (1.000000e+02 +/- 0.000000e+00)
    number density: 1.492465e-02 molec./A^3 (1.405300e-02 +/- 0.000000e+00)
    density:        1.090421e+03 kg/m^3     (1.026736e+03 +/- 0.000000e+00)

Average pressure tensor: 
-------------------------------------------------------------------------------
-1.5183e+02 -2.0255e+01 -1.7506e+01 +/- 0.0000e+00 0.0000e+00 0.0000e+00 [bar]
-2.0255e+01  8.5657e+01 -1.2884e+02 +/- 0.0000e+00 0.0000e+00 0.0000e+00 [bar]
-1.7506e+01 -1.2884e+02 -1.4029e+02 +/- 0.0000e+00 0.0000e+00 0.0000e+00 [bar]
Ideal-gas pressure:   4.850569e+02 +/ 0.000000e+00 [bar]
Excess pressure:     -5.538788e+02 +/ 0.000000e+00 [bar]
Pressure:            -6.882191e+01 +/ 0.000000e+00 [bar]

Total potential energy/kʙ  -1.600441e+05 (-1.488972e+05 +/- 0.000000e+00) [K]
-------------------------------------------------------------------------------
ExternalField-molecule
    Van der Waals/kʙ        0.000000e+00 ( 0.000000e+00 +/- 0.000000e+00) [K]
Framework-molecule
    Van der Waals/kʙ        0.000000e+00 ( 0.000000e+00 +/- 0.000000e+00) [K]
    Van der Waals (Tail)/kʙ 0.000000e+00 ( 0.000000e+00 +/- 0.000000e+00) [K]
    Coulombic Real/kʙ       0.000000e+00 ( 0.000000e+00 +/- 0.000000e+00) [K]
    Coulombic Fourier/kʙ    0.000000e+00 ( 0.000000e+00 +/- 0.000000e+00) [K]
Molecule-molecule
    Van der Waals/kʙ       -1.086523e+05 (-1.054508e+05 +/- 0.000000e+00) [K]
    Van der Waals (Tail)/kʙ-4.788648e+03 (-4.506568e+03 +/- 0.000000e+00) [K]
    Coulombic Real/kʙ      -3.748964e+04 (-3.117626e+04 +/- 0.000000e+00) [K]
    Coulombic Fourier/kʙ   -9.113493e+03 (-7.763491e+03 +/- 0.000000e+00) [K]
    Molecule Intra/kʙ       0.000000e+00 ( 0.000000e+00 +/- 0.000000e+00) [K]

Current cycle: 500 out of 5000
===============================================================================

Box:      19.16767   0.00000   0.00000  Average:  19.16508   0.00000   0.00000
           0.00000  19.16767   0.00000             0.00000  19.16508   0.00000
           0.00000   0.00000  19.16767             0.00000   0.00000  19.16508
Lengths:  19.16767  19.16767  19.16767  Average:  19.16508  19.16508  19.16508
Angles:   90.00000  90.00000  90.00000  Average:  90.00000  90.00000  90.00000
Rectangular boundary conditions

net charge:   0.00000000

component 0 (CO2) lambda:  0 occupancy:  1 (1.000000)
    net charge:   0.00000000 [e]

Amount of molecules per component :
-------------------------------------------------------------------------------
Component 0 (CO2)
    molecules:      1.000000e+02 molecules  (1.000000e+02 +/- 0.000000e+00)
    number density: 1.420013e-02 molec./A^3 (1.423005e-02 +/- 0.000000e+00)
    density:        1.037486e+03 kg/m^3     (1.039672e+03 +/- 0.000000e+00)

Average pressure tensor: 
-------------------------------------------------------------------------------
-1.0610e+02 -8.7975e+00 -3.1143e+01 +/- 0.0000e+00 0.0000e+00 0.0000e+00 [bar]
-8.7975e+00  1.1105e+02 -9.3015e+01 +/- 0.0000e+00 0.0000e+00 0.0000e+00 [bar]
-3.1143e+01 -9.3015e+01 -1.2695e+02 +/- 0.0000e+00 0.0000e+00 0.0000e+00 [bar]
Ideal-gas pressure:   4.911680e+02 +/ 0.000000e+00 [bar]
Excess pressure:     -5.318313e+02 +/ 0.000000e+00 [bar]
Pressure:            -4.066332e+01 +/ 0.000000e+00 [bar]

Total potential energy/kʙ  -1.492793e+05 (-1.506220e+05 +/- 0.000000e+00) [K]
-------------------------------------------------------------------------------
ExternalField-molecule
    Van der Waals/kʙ        0.000000e+00 ( 0.000000e+00 +/- 0.000000e+00) [K]
Framework-molecule
    Van der Waals/kʙ        0.000000e+00 ( 0.000000e+00 +/- 0.000000e+00) [K]
    Van der Waals (Tail)/kʙ 0.000000e+00 ( 0.000000e+00 +/- 0.000000e+00) [K]
    Coulombic Real/kʙ       0.000000e+00 ( 0.000000e+00 +/- 0.000000e+00) [K]
    Coulombic Fourier/kʙ    0.000000e+00 ( 0.000000e+00 +/- 0.000000e+00) [K]
Molecule-molecule
    Van der Waals/kʙ       -1.040671e+05 (-1.065998e+05 +/- 0.000000e+00) [K]
    Van der Waals (Tail)/kʙ-4.556180e+03 (-4.560701e+03 +/- 0.000000e+00) [K]
    Coulombic Real/kʙ      -3.336310e+04 (-3.169055e+04 +/- 0.000000e+00) [K]
    Coulombic Fourier/kʙ   -7.292917e+03 (-7.770974e+03 +/- 0.000000e+00) [K]
    Molecule Intra/kʙ       0.000000e+00 ( 0.000000e+00 +/- 0.000000e+00) [K]

Current cycle: 600 out of 5000
===============================================================================

Box:      19.27272   0.00000   0.00000  Average:  19.19110   0.00000   0.00000
           0.00000  19.27272   0.00000             0.00000  19.19110   0.00000
           0.00000   0.00000  19.27272             0.00000   0.00000  19.19110
Lengths:  19.27272  19.27272  19.27272  Average:  19.19110  19.19110  19.19110
Angles:   90.00000  90.00000  90.00000  Average:  90.00000  90.00000  90.00000
Rectangular boundary conditions

net charge:   0.00000000

component 0 (CO2) lambda:  0 occupancy:  1 (1.000000)
    net charge:   0.00000000 [e]

Amount of molecules per component :
-------------------------------------------------------------------------------
Component 0 (CO2)
    molecules:      1.000000e+02 molecules  (1.000000e+02 +/- 0.000000e+00)
    number density: 1.396919e-02 molec./A^3 (1.416957e-02 +/- 0.000000e+00)
    density:        1.020613e+03 kg/m^3     (1.035253e+03 +/- 0.000000e+00)

Average pressure tensor: 
-------------------------------------------------------------------------------
-7.4338e+01  4.9162e+01 -4.7894e+01 +/- 0.0000e+00 0.0000e+00 0.0000e+00 [bar]
 4.9162e+01  1.1793e+02 -6.3729e+01 +/- 0.0000e+00 0.0000e+00 0.0000e+00 [bar]
-4.7894e+01 -6.3729e+01 -1.2183e+02 +/- 0.0000e+00 0.0000e+00 0.0000e+00 [bar]
Ideal-gas pressure:   4.890807e+02 +/ 0.000000e+00 [bar]
Excess pressure:     -5.151601e+02 +/ 0.000000e+00 [bar]
Pressure:            -2.607941e+01 +/ 0.000000e+00 [bar]

Total potential energy/kʙ  -1.437595e+05 (-1.498595e+05 +/- 0.000000e+00) [K]
-------------------------------------------------------------------------------
ExternalField-molecule
    Van der Waals/kʙ        0.000000e+00 ( 0.000000e+00 +/- 0.000000e+00) [K]
Framework-molecule
    Van der Waals/kʙ        0.000000e+00 ( 0.000000e+00 +/- 0.000000e+00) [K]
    Van der Waals (Tail)/kʙ 0.000000e+00 ( 0.000000e+00 +/- 0.000000e+00) [K]
    Coulombic Real/kʙ       0.000000e+00 ( 0.000000e+00 +/- 0.000000e+00) [K]
    Coulombic Fourier/kʙ    0.000000e+00 ( 0.000000e+00 +/- 0.000000e+00) [K]
Molecule-molecule
    Van der Waals/kʙ       -1.024921e+05 (-1.060994e+05 +/- 0.000000e+00) [K]
    Van der Waals (Tail)/kʙ-4.482083e+03 (-4.543325e+03 +/- 0.000000e+00) [K]
    Coulombic Real/kʙ      -2.909132e+04 (-3.151776e+04 +/- 0.000000e+00) [K]
    Coulombic Fourier/kʙ   -7.693980e+03 (-7.699043e+03 +/- 0.000000e+00) [K]
    Molecule Intra/kʙ       0.000000e+00 ( 0.000000e+00 +/- 0.000000e+00) [K]

Current cycle: 700 out of 5000
===============================================================================

Box:      18.92014   0.00000   0.00000  Average:  19.19074   0.00000   0.00000
           0.00000  18.92014   0.00000             0.00000  19.19074   0.00000
           0.00000   0.00000  18.92014             0.00000   0.00000  19.19074
Lengths:  18.92014  18.92014  18.92014  Average:  19.19074  19.19074  19.19074
Angles:   90.00000  90.00000  90.00000  Average:  90.00000  90.00000  90.00000
Rectangular boundary conditions

net charge:   0.00000000

component 0 (CO2) lambda:  0 occupancy:  1 (1.000000)
    net charge:   0.00000000 [e]

Amount of molecules per component :
-------------------------------------------------------------------------------
Component 0 (CO2)
    molecules:      1.000000e+02 molecules  (1.000000e+02 +/- 0.000000e+00)
    number density: 1.476478e-02 molec./A^3 (1.416797e-02 +/- 0.000000e+00)
    density:        1.078740e+03 kg/m^3     (1.035136e+03 +/- 0.000000e+00)

Average pressure tensor: 
-------------------------------------------------------------------------------
-4.2305e+01  2.6195e+01 -3.6061e+01 +/- 0.0000e+00 0.0000e+00 0.0000e+00 [bar]
 2.6195e+01  1.7001e+02 -3.6294e+01 +/- 0.0000e+00 0.0000e+00 0.0000e+00 [bar]
-3.6061e+01 -3.6294e+01 -1.4632e+02 +/- 0.0000e+00 0.0000e+00 0.0000e+00 [bar]
Ideal-gas pressure:   4.890254e+02 +/ 0.000000e+00 [bar]
Excess pressure:     -4.952293e+02 +/ 0.000000e+00 [bar]
Pressure:            -6.203852e+00 +/ 0.000000e+00 [bar]

Total potential energy/kʙ  -1.558411e+05 (-1.496890e+05 +/- 0.000000e+00) [K]
-------------------------------------------------------------------------------
ExternalField-molecule
    Van der Waals/kʙ        0.000000e+00 ( 0.000000e+00 +/- 0.000000e+00) [K]
Framework-molecule
    Van der Waals/kʙ        0.000000e+00 ( 0.000000e+00 +/- 0.000000e+00) [K]
    Van der Waals (Tail)/kʙ 0.000000e+00 ( 0.000000e+00 +/- 0.000000e+00) [K]
    Coulombic Real/kʙ       0.000000e+00 ( 0.000000e+00 +/- 0.000000e+00) [K]
    Coulombic Fourier/kʙ    0.000000e+00 ( 0.000000e+00 +/- 0.000000e+00) [K]
Molecule-molecule
    Van der Waals/kʙ       -1.109959e+05 (-1.060337e+05 +/- 0.000000e+00) [K]
    Van der Waals (Tail)/kʙ-4.737351e+03 (-4.544974e+03 +/- 0.000000e+00) [K]
    Coulombic Real/kʙ      -3.237025e+04 (-3.141364e+04 +/- 0.000000e+00) [K]
    Coulombic Fourier/kʙ   -7.737581e+03 (-7.696613e+03 +/- 0.000000e+00) [K]
    Molecule Intra/kʙ       0.000000e+00 ( 0.000000e+00 +/- 0.000000e+00) [K]

Current cycle: 800 out of 5000
===============================================================================

Box:      18.86774   0.00000   0.00000  Average:  19.15379   0.00000   0.00000
           0.00000  18.86774   0.00000             0.00000  19.15379   0.00000
           0.00000   0.00000  18.86774             0.00000   0.00000  19.15379
Lengths:  18.86774  18.86774  18.86774  Average:  19.15379  19.15379  19.15379
Angles:   90.00000  90.00000  90.00000  Average:  90.00000  90.00000  90.00000
Rectangular boundary conditions

net charge:   0.00000000

component 0 (CO2) lambda:  0 occupancy:  1 (1.000000)
    net charge:   0.00000000 [e]

Amount of molecules per component :
-------------------------------------------------------------------------------
Component 0 (CO2)
    molecules:      1.000000e+02 molecules  (1.000000e+02 +/- 0.000000e+00)
    number density: 1.488813e-02 molec./A^3 (1.425066e-02 +/- 0.000000e+00)
    density:        1.087752e+03 kg/m^3     (1.041178e+03 +/- 0.000000e+00)

Average pressure tensor: 
-------------------------------------------------------------------------------
-7.4675e+01 -2.9735e+00 -3.3376e+01 +/- 0.0000e+00 0.0000e+00 0.0000e+00 [bar]
-2.9735e+00  1.8707e+02 -3.3198e+01 +/- 0.0000e+00 0.0000e+00 0.0000e+00 [bar]
-3.3376e+01 -3.3198e+01 -8.3782e+01 +/- 0.0000e+00 0.0000e+00 0.0000e+00 [bar]
Ideal-gas pressure:   4.918794e+02 +/ 0.000000e+00 [bar]
Excess pressure:     -4.823405e+02 +/ 0.000000e+00 [bar]
Pressure:             9.538900e+00 +/ 0.000000e+00 [bar]

Total potential energy/kʙ  -1.572163e+05 (-1.502558e+05 +/- 0.000000e+00) [K]
-------------------------------------------------------------------------------
ExternalField-molecule
    Van der Waals/kʙ        0.000000e+00 ( 0.000000e+00 +/- 0.000000e+00) [K]
Framework-molecule
    Van der Waals/kʙ        0.000000e+00 ( 0.000000e+00 +/- 0.000000e+00) [K]
    Van der Waals (Tail)/kʙ 0.000000e+00 ( 0.000000e+00 +/- 0.000000e+00) [K]
    Coulombic Real/kʙ       0.000000e+00 ( 0.000000e+00 +/- 0.000000e+00) [K]
    Coulombic Fourier/kʙ    0.000000e+00 ( 0.000000e+00 +/- 0.000000e+00) [K]
Molecule-molecule
    Van der Waals/kʙ       -1.117017e+05 (-1.066884e+05 +/- 0.000000e+00) [K]
    Van der Waals (Tail)/kʙ-4.776930e+03 (-4.573601e+03 +/- 0.000000e+00) [K]
    Coulombic Real/kʙ      -3.263854e+04 (-3.133056e+04 +/- 0.000000e+00) [K]
    Coulombic Fourier/kʙ   -8.099108e+03 (-7.663262e+03 +/- 0.000000e+00) [K]
    Molecule Intra/kʙ       0.000000e+00 ( 0.000000e+00 +/- 0.000000e+00) [K]

Current cycle: 900 out of 5000
===============================================================================

Box:      18.47543   0.00000   0.00000  Average:  19.09489   0.00000   0.00000
           0.00000  18.47543   0.00000             0.00000  19.09489   0.00000
           0.00000   0.00000  18.47543             0.00000   0.00000  19.09489
Lengths:  18.47543  18.47543  18.47543  Average:  19.09489  19.09489  19.09489
Angles:   90.00000  90.00000  90.00000  Average:  90.00000  90.00000  90.00000
Rectangular boundary conditions

net charge:   0.00000000

component 0 (CO2) lambda:  0 occupancy:  1 (1.000000)
    net charge:   0.00000000 [e]

Amount of molecules per component :
-------------------------------------------------------------------------------
Component 0 (CO2)
    molecules:      1.000000e+02 molecules  (1.000000e+02 +/- 0.000000e+00)
    number density: 1.585684e-02 molec./A^3 (1.438773e-02 +/- 0.000000e+00)
    density:        1.158528e+03 kg/m^3     (1.051192e+03 +/- 0.000000e+00)

Average pressure tensor: 
-------------------------------------------------------------------------------
-6.5756e+01  3.2449e+00 -9.3622e+00 +/- 0.0000e+00 0.0000e+00 0.0000e+00 [bar]
 3.2449e+00  1.9019e+02 -2.8419e+01 +/- 0.0000e+00 0.0000e+00 0.0000e+00 [bar]
-9.3622e+00 -2.8419e+01 -7.9048e+01 +/- 0.0000e+00 0.0000e+00 0.0000e+00 [bar]
Ideal-gas pressure:   4.966107e+02 +/ 0.000000e+00 [bar]
Excess pressure:     -4.814829e+02 +/ 0.000000e+00 [bar]
Pressure:             1.512777e+01 +/ 0.000000e+00 [bar]

Total potential energy/kʙ  -1.635667e+05 (-1.514846e+05 +/- 0.000000e+00) [K]
-------------------------------------------------------------------------------
ExternalField-molecule
    Van der Waals/kʙ        0.000000e+00 ( 0.000000e+00 +/- 0.000000e+00) [K]
Framework-molecule
    Van der Waals/kʙ        0.000000e+00 ( 0.000000e+00 +/- 0.000000e+00) [K]
    Van der Waals (Tail)/kʙ 0.000000e+00 ( 0.000000e+00 +/- 0.000000e+00) [K]
    Coulombic Real/kʙ       0.000000e+00 ( 0.000000e+00 +/- 0.000000e+00) [K]
    Coulombic Fourier/kʙ    0.000000e+00 ( 0.000000e+00 +/- 0.000000e+00) [K]
Molecule-molecule
    Van der Waals/kʙ       -1.179089e+05 (-1.077727e+05 +/- 0.000000e+00) [K]
    Van der Waals (Tail)/kʙ-5.087744e+03 (-4.618633e+03 +/- 0.000000e+00) [K]
    Coulombic Real/kʙ      -3.243196e+04 (-3.136520e+04 +/- 0.000000e+00) [K]
    Coulombic Fourier/kʙ   -8.138150e+03 (-7.728070e+03 +/- 0.000000e+00) [K]
    Molecule Intra/kʙ       0.000000e+00 ( 0.000000e+00 +/- 0.000000e+00) [K]

Current cycle: 1000 out of 5000
===============================================================================

Box:      18.95615   0.00000   0.00000  Average:  19.06338   0.00000   0.00000
           0.00000  18.95615   0.00000             0.00000  19.06338   0.00000
           0.00000   0.00000  18.95615             0.00000   0.00000  19.06338
Lengths:  18.95615  18.95615  18.95615  Average:  19.06338  19.06338  19.06338
Angles:   90.00000  90.00000  90.00000  Average:  90.00000  90.00000  90.00000
Rectangular boundary conditions

net charge:   0.00000000

component 0 (CO2) lambda:  0 occupancy:  1 (1.000000)
    net charge:   0.00000000 [e]

Amount of molecules per component :
-------------------------------------------------------------------------------
Component 0 (CO2)
    molecules:      1.000000e+02 molecules  (1.000000e+02 +/- 0.000000e+00)
    number density: 1.468080e-02 molec./A^3 (1.445960e-02 +/- 0.000000e+00)
    density:        1.072604e+03 kg/m^3     (1.056443e+03 +/- 0.000000e+00)

Average pressure tensor: 
-------------------------------------------------------------------------------
-2.4932e+01 -9.8139e+00 -1.5603e+01 +/- 0.0000e+00 0.0000e+00 0.0000e+00 [bar]
-9.8139e+00  1.9167e+02 -2.6504e+01 +/- 0.0000e+00 0.0000e+00 0.0000e+00 [bar]
-1.5603e+01 -2.6504e+01 -7.2020e+01 +/- 0.0000e+00 0.0000e+00 0.0000e+00 [bar]
Ideal-gas pressure:   4.990912e+02 +/ 0.000000e+00 [bar]
Excess pressure:     -4.675170e+02 +/ 0.000000e+00 [bar]
Pressure:             3.157416e+01 +/ 0.000000e+00 [bar]

Total potential energy/kʙ  -1.545345e+05 (-1.518267e+05 +/- 0.000000e+00) [K]
-------------------------------------------------------------------------------
ExternalField-molecule
    Van der Waals/kʙ        0.000000e+00 ( 0.000000e+00 +/- 0.000000e+00) [K]
Framework-molecule
    Van der Waals/kʙ        0.000000e+00 ( 0.000000e+00 +/- 0.000000e+00) [K]
    Van der Waals (Tail)/kʙ 0.000000e+00 ( 0.000000e+00 +/- 0.000000e+00) [K]
    Coulombic Real/kʙ       0.000000e+00 ( 0.000000e+00 +/- 0.000000e+00) [K]
    Coulombic Fourier/kʙ    0.000000e+00 ( 0.000000e+00 +/- 0.000000e+00) [K]
Molecule-molecule
    Van der Waals/kʙ       -1.105010e+05 (-1.081919e+05 +/- 0.000000e+00) [K]
    Van der Waals (Tail)/kʙ-4.710405e+03 (-4.638794e+03 +/- 0.000000e+00) [K]
    Coulombic Real/kʙ      -3.152761e+04 (-3.124428e+04 +/- 0.000000e+00) [K]
    Coulombic Fourier/kʙ   -7.795411e+03 (-7.751728e+03 +/- 0.000000e+00) [K]
    Molecule Intra/kʙ       0.000000e+00 ( 0.000000e+00 +/- 0.000000e+00) [K]

Current cycle: 1100 out of 5000
===============================================================================

Box:      19.10936   0.00000   0.00000  Average:  19.05967   0.00000   0.00000
           0.00000  19.10936   0.00000             0.00000  19.05967   0.00000
           0.00000   0.00000  19.10936             0.00000   0.00000  19.05967
Lengths:  19.10936  19.10936  19.10936  Average:  19.05967  19.05967  19.05967
Angles:   90.00000  90.00000  90.00000  Average:  90.00000  90.00000  90.00000
Rectangular boundary conditions

net charge:   0.00000000

component 0 (CO2) lambda:  0 occupancy:  1 (1.000000)
    net charge:   0.00000000 [e]

Amount of molecules per component :
-------------------------------------------------------------------------------
Component 0 (CO2)
    molecules:      1.000000e+02 molecules  (1.000000e+02 +/- 0.000000e+00)
    number density: 1.433052e-02 molec./A^3 (1.446612e-02 +/- 0.000000e+00)
    density:        1.047012e+03 kg/m^3     (1.056919e+03 +/- 0.000000e+00)

Average pressure tensor: 
-------------------------------------------------------------------------------
-5.6084e+01  1.4375e+01 -2.3977e+01 +/- 0.0000e+00 0.0000e+00 0.0000e+00 [bar]
 1.4375e+01  1.8438e+02 -1.4597e+01 +/- 0.0000e+00 0.0000e+00 0.0000e+00 [bar]
-2.3977e+01 -1.4597e+01 -4.9619e+01 +/- 0.0000e+00 0.0000e+00 0.0000e+00 [bar]
Ideal-gas pressure:   4.993162e+02 +/ 0.000000e+00 [bar]
Excess pressure:     -4.730894e+02 +/ 0.000000e+00 [bar]
Pressure:             2.622683e+01 +/ 0.000000e+00 [bar]

Total potential energy/kʙ  -1.562663e+05 (-1.519771e+05 +/- 0.000000e+00) [K]
-------------------------------------------------------------------------------
ExternalField-molecule
    Van der Waals/kʙ        0.000000e+00 ( 0.000000e+00 +/- 0.000000e+00) [K]
Framework-molecule
    Van der Waals/kʙ        0.000000e+00 ( 0.000000e+00 +/- 0.000000e+00) [K]
    Van der Waals (Tail)/kʙ 0.000000e+00 ( 0.000000e+00 +/- 0.000000e+00) [K]
    Coulombic Real/kʙ       0.000000e+00 ( 0.000000e+00 +/- 0.000000e+00) [K]
    Coulombic Fourier/kʙ    0.000000e+00 ( 0.000000e+00 +/- 0.000000e+00) [K]
Molecule-molecule
    Van der Waals/kʙ       -1.131658e+05 (-1.082382e+05 +/- 0.000000e+00) [K]
    Van der Waals (Tail)/kʙ-4.598016e+03 (-4.639968e+03 +/- 0.000000e+00) [K]
    Coulombic Real/kʙ      -3.088372e+04 (-3.132842e+04 +/- 0.000000e+00) [K]
    Coulombic Fourier/kʙ   -7.618667e+03 (-7.770513e+03 +/- 0.000000e+00) [K]
    Molecule Intra/kʙ       0.000000e+00 ( 0.000000e+00 +/- 0.000000e+00) [K]

Current cycle: 1200 out of 5000
===============================================================================

Box:      18.55890   0.00000   0.00000  Average:  19.02991   0.00000   0.00000
           0.00000  18.55890   0.00000             0.00000  19.02991   0.00000
           0.00000   0.00000  18.55890             0.00000   0.00000  19.02991
Lengths:  18.55890  18.55890  18.55890  Average:  19.02991  19.02991  19.02991
Angles:   90.00000  90.00000  90.00000  Average:  90.00000  90.00000  90.00000
Rectangular boundary conditions

net charge:   0.00000000

component 0 (CO2) lambda:  0 occupancy:  1 (1.000000)
    net charge:   0.00000000 [e]

Amount of molecules per component :
-------------------------------------------------------------------------------
Component 0 (CO2)
    molecules:      1.000000e+02 molecules  (1.000000e+02 +/- 0.000000e+00)
    number density: 1.564384e-02 molec./A^3 (1.453519e-02 +/- 0.000000e+00)
    density:        1.142965e+03 kg/m^3     (1.061966e+03 +/- 0.000000e+00)

Average pressure tensor: 
-------------------------------------------------------------------------------
-2.9687e+01  1.3134e+01 -1.8366e+01 +/- 0.0000e+00 0.0000e+00 0.0000e+00 [bar]
 1.3134e+01  1.6412e+02 -1.4715e+01 +/- 0.0000e+00 0.0000e+00 0.0000e+00 [bar]
-1.8366e+01 -1.4715e+01 -2.7885e+01 +/- 0.0000e+00 0.0000e+00 0.0000e+00 [bar]
Ideal-gas pressure:   5.017005e+02 +/ 0.000000e+00 [bar]
Excess pressure:     -4.661831e+02 +/ 0.000000e+00 [bar]
Pressure:             3.551740e+01 +/ 0.000000e+00 [bar]

Total potential energy/kʙ  -1.633864e+05 (-1.529511e+05 +/- 0.000000e+00) [K]
-------------------------------------------------------------------------------
ExternalField-molecule
    Van der Waals/kʙ        0.000000e+00 ( 0.000000e+00 +/- 0.000000e+00) [K]
Framework-molecule
    Van der Waals/kʙ        0.000000e+00 ( 0.000000e+00 +/- 0.000000e+00) [K]
    Van der Waals (Tail)/kʙ 0.000000e+00 ( 0.000000e+00 +/- 0.000000e+00) [K]
    Coulombic Real/kʙ       0.000000e+00 ( 0.000000e+00 +/- 0.000000e+00) [K]
    Coulombic Fourier/kʙ    0.000000e+00 ( 0.000000e+00 +/- 0.000000e+00) [K]
Molecule-molecule
    Van der Waals/kʙ       -1.160441e+05 (-1.088427e+05 +/- 0.000000e+00) [K]
    Van der Waals (Tail)/kʙ-5.019401e+03 (-4.665795e+03 +/- 0.000000e+00) [K]
    Coulombic Real/kʙ      -3.389966e+04 (-3.161795e+04 +/- 0.000000e+00) [K]
    Coulombic Fourier/kʙ   -8.423248e+03 (-7.824610e+03 +/- 0.000000e+00) [K]
    Molecule Intra/kʙ       0.000000e+00 ( 0.000000e+00 +/- 0.000000e+00) [K]

Current cycle: 1300 out of 5000
===============================================================================

Box:      18.80548   0.00000   0.00000  Average:  19.00944   0.00000   0.00000
           0.00000  18.80548   0.00000             0.00000  19.00944   0.00000
           0.00000   0.00000  18.80548             0.00000   0.00000  19.00944
Lengths:  18.80548  18.80548  18.80548  Average:  19.00944  19.00944  19.00944
Angles:   90.00000  90.00000  90.00000  Average:  90.00000  90.00000  90.00000
Rectangular boundary conditions

net charge:   0.00000000

component 0 (CO2) lambda:  0 occupancy:  1 (1.000000)
    net charge:   0.00000000 [e]

Amount of molecules per component :
-------------------------------------------------------------------------------
Component 0 (CO2)
    molecules:      1.000000e+02 molecules  (1.000000e+02 +/- 0.000000e+00)
    number density: 1.503649e-02 molec./A^3 (1.458159e-02 +/- 0.000000e+00)
    density:        1.098592e+03 kg/m^3     (1.065356e+03 +/- 0.000000e+00)

Average pressure tensor: 
-------------------------------------------------------------------------------
-2.7236e+01  5.5411e+00 -3.3858e+00 +/- 0.0000e+00 0.0000e+00 0.0000e+00 [bar]
 5.5411e+00  1.8642e+02 -2.1693e+01 +/- 0.0000e+00 0.0000e+00 0.0000e+00 [bar]
-3.3858e+00 -2.1693e+01  5.8817e+00 +/- 0.0000e+00 0.0000e+00 0.0000e+00 [bar]
Ideal-gas pressure:   5.033019e+02 +/ 0.000000e+00 [bar]
Excess pressure:     -4.482791e+02 +/ 0.000000e+00 [bar]
Pressure:             5.502278e+01 +/ 0.000000e+00 [bar]

Total potential energy/kʙ  -1.642233e+05 (-1.535874e+05 +/- 0.000000e+00) [K]
-------------------------------------------------------------------------------
ExternalField-molecule
    Van der Waals/kʙ        0.000000e+00 ( 0.000000e+00 +/- 0.000000e+00) [K]
Framework-molecule
    Van der Waals/kʙ        0.000000e+00 ( 0.000000e+00 +/- 0.000000e+00) [K]
    Van der Waals (Tail)/kʙ 0.000000e+00 ( 0.000000e+00 +/- 0.000000e+00) [K]
    Coulombic Real/kʙ       0.000000e+00 ( 0.000000e+00 +/- 0.000000e+00) [K]
    Coulombic Fourier/kʙ    0.000000e+00 ( 0.000000e+00 +/- 0.000000e+00) [K]
Molecule-molecule
    Van der Waals/kʙ       -1.174479e+05 (-1.091730e+05 +/- 0.000000e+00) [K]
    Van der Waals (Tail)/kʙ-4.824531e+03 (-4.680843e+03 +/- 0.000000e+00) [K]
    Coulombic Real/kʙ      -3.300265e+04 (-3.183427e+04 +/- 0.000000e+00) [K]
    Coulombic Fourier/kʙ   -8.948267e+03 (-7.899303e+03 +/- 0.000000e+00) [K]
    Molecule Intra/kʙ       0.000000e+00 ( 0.000000e+00 +/- 0.000000e+00) [K]

Current cycle: 1400 out of 5000
===============================================================================

Box:      18.85058   0.00000   0.00000  Average:  18.99615   0.00000   0.00000
           0.00000  18.85058   0.00000             0.00000  18.99615   0.00000
           0.00000   0.00000  18.85058             0.00000   0.00000  18.99615
Lengths:  18.85058  18.85058  18.85058  Average:  18.99615  18.99615  18.99615
Angles:   90.00000  90.00000  90.00000  Average:  90.00000  90.00000  90.00000
Rectangular boundary conditions

net charge:   0.00000000

component 0 (CO2) lambda:  0 occupancy:  1 (1.000000)
    net charge:   0.00000000 [e]

Amount of molecules per component :
-------------------------------------------------------------------------------
Component 0 (CO2)
    molecules:      1.000000e+02 molecules  (1.000000e+02 +/- 0.000000e+00)
    number density: 1.492883e-02 molec./A^3 (1.461118e-02 +/- 0.000000e+00)
    density:        1.090726e+03 kg/m^3     (1.067518e+03 +/- 0.000000e+00)

Average pressure tensor: 
-------------------------------------------------------------------------------
-3.4930e+01 -4.4679e+00 -2.0041e+00 +/- 0.0000e+00 0.0000e+00 0.0000e+00 [bar]
-4.4679e+00  1.5888e+02 -3.9704e+01 +/- 0.0000e+00 0.0000e+00 0.0000e+00 [bar]
-2.0041e+00 -3.9704e+01 -1.0213e+01 +/- 0.0000e+00 0.0000e+00 0.0000e+00 [bar]
Ideal-gas pressure:   5.043232e+02 +/ 0.000000e+00 [bar]
Excess pressure:     -4.664112e+02 +/ 0.000000e+00 [bar]
Pressure:             3.791193e+01 +/ 0.000000e+00 [bar]

Total potential energy/kʙ  -1.603236e+05 (-1.541836e+05 +/- 0.000000e+00) [K]
-------------------------------------------------------------------------------
ExternalField-molecule
    Van der Waals/kʙ        0.000000e+00 ( 0.000000e+00 +/- 0.000000e+00) [K]
Framework-molecule
    Van der Waals/kʙ        0.000000e+00 ( 0.000000e+00 +/- 0.000000e+00) [K]
    Van der Waals (Tail)/kʙ 0.000000e+00 ( 0.000000e+00 +/- 0.000000e+00) [K]
    Coulombic Real/kʙ       0.000000e+00 ( 0.000000e+00 +/- 0.000000e+00) [K]
    Coulombic Fourier/kʙ    0.000000e+00 ( 0.000000e+00 +/- 0.000000e+00) [K]
Molecule-molecule
    Van der Waals/kʙ       -1.138765e+05 (-1.095313e+05 +/- 0.000000e+00) [K]
    Van der Waals (Tail)/kʙ-4.789988e+03 (-4.689832e+03 +/- 0.000000e+00) [K]
    Coulombic Real/kʙ      -3.347380e+04 (-3.204506e+04 +/- 0.000000e+00) [K]
    Coulombic Fourier/kʙ   -8.183354e+03 (-7.917477e+03 +/- 0.000000e+00) [K]
    Molecule Intra/kʙ       0.000000e+00 ( 0.000000e+00 +/- 0.000000e+00) [K]

Current cycle: 1500 out of 5000
===============================================================================

Box:      19.02201   0.00000   0.00000  Average:  19.00165   0.00000   0.00000
           0.00000  19.02201   0.00000             0.00000  19.00165   0.00000
           0.00000   0.00000  19.02201             0.00000   0.00000  19.00165
Lengths:  19.02201  19.02201  19.02201  Average:  19.00165  19.00165  19.00165
Angles:   90.00000  90.00000  90.00000  Average:  90.00000  90.00000  90.00000
Rectangular boundary conditions

net charge:   0.00000000

component 0 (CO2) lambda:  0 occupancy:  1 (1.000000)
    net charge:   0.00000000 [e]

Amount of molecules per component :
-------------------------------------------------------------------------------
Component 0 (CO2)
    molecules:      1.000000e+02 molecules  (1.000000e+02 +/- 0.000000e+00)
    number density: 1.452884e-02 molec./A^3 (1.459750e-02 +/- 0.000000e+00)
    density:        1.061502e+03 kg/m^3     (1.066518e+03 +/- 0.000000e+00)

Average pressure tensor: 
-------------------------------------------------------------------------------
-4.1430e+01 -7.4205e+00 -4.8492e+00 +/- 0.0000e+00 0.0000e+00 0.0000e+00 [bar]
-7.4205e+00  1.6761e+02 -2.2407e+01 +/- 0.0000e+00 0.0000e+00 0.0000e+00 [bar]
-4.8492e+00 -2.2407e+01  5.3615e+00 +/- 0.0000e+00 0.0000e+00 0.0000e+00 [bar]
Ideal-gas pressure:   5.038510e+02 +/ 0.000000e+00 [bar]
Excess pressure:     -4.600022e+02 +/ 0.000000e+00 [bar]
Pressure:             4.384879e+01 +/ 0.000000e+00 [bar]

Total potential energy/kʙ  -1.503584e+05 (-1.538818e+05 +/- 0.000000e+00) [K]
-------------------------------------------------------------------------------
ExternalField-molecule
    Van der Waals/kʙ        0.000000e+00 ( 0.000000e+00 +/- 0.000000e+00) [K]
Framework-molecule
    Van der Waals/kʙ        0.000000e+00 ( 0.000000e+00 +/- 0.000000e+00) [K]
    Van der Waals (Tail)/kʙ 0.000000e+00 ( 0.000000e+00 +/- 0.000000e+00) [K]
    Coulombic Real/kʙ       0.000000e+00 ( 0.000000e+00 +/- 0.000000e+00) [K]
    Coulombic Fourier/kʙ    0.000000e+00 ( 0.000000e+00 +/- 0.000000e+00) [K]
Molecule-molecule
    Van der Waals/kʙ       -1.045673e+05 (-1.093721e+05 +/- 0.000000e+00) [K]
    Van der Waals (Tail)/kʙ-4.661650e+03 (-4.685422e+03 +/- 0.000000e+00) [K]
    Coulombic Real/kʙ      -3.265193e+04 (-3.193013e+04 +/- 0.000000e+00) [K]
    Coulombic Fourier/kʙ   -8.477513e+03 (-7.894243e+03 +/- 0.000000e+00) [K]
    Molecule Intra/kʙ       0.000000e+00 ( 0.000000e+00 +/- 0.000000e+00) [K]

Current cycle: 1600 out of 5000
===============================================================================

Box:      19.27212   0.00000   0.00000  Average:  19.01840   0.00000   0.00000
           0.00000  19.27212   0.00000             0.00000  19.01840   0.00000
           0.00000   0.00000  19.27212             0.00000   0.00000  19.01840
Lengths:  19.27212  19.27212  19.27212  Average:  19.01840  19.01840  19.01840
Angles:   90.00000  90.00000  90.00000  Average:  90.00000  90.00000  90.00000
Rectangular boundary conditions

net charge:   0.00000000

component 0 (CO2) lambda:  0 occupancy:  1 (1.000000)
    net charge:   0.00000000 [e]

Amount of molecules per component :
-------------------------------------------------------------------------------
Component 0 (CO2)
    molecules:      1.000000e+02 molecules  (1.000000e+02 +/- 0.000000e+00)
    number density: 1.397048e-02 molec./A^3 (1.455883e-02 +/- 0.000000e+00)
    density:        1.020707e+03 kg/m^3     (1.063693e+03 +/- 0.000000e+00)

Average pressure tensor: 
-------------------------------------------------------------------------------
-3.9484e+01 -1.4819e+01 -1.3832e+01 +/- 0.0000e+00 0.0000e+00 0.0000e+00 [bar]
-1.4819e+01  1.5605e+02 -2.0234e+01 +/- 0.0000e+00 0.0000e+00 0.0000e+00 [bar]
-1.3832e+01 -2.0234e+01 -2.0716e-01 +/- 0.0000e+00 0.0000e+00 0.0000e+00 [bar]
Ideal-gas pressure:   5.025165e+02 +/ 0.000000e+00 [bar]
Excess pressure:     -4.637297e+02 +/ 0.000000e+00 [bar]
Pressure:             3.878677e+01 +/ 0.000000e+00 [bar]

Total potential energy/kʙ  -1.467361e+05 (-1.535375e+05 +/- 0.000000e+00) [K]
-------------------------------------------------------------------------------
ExternalField-molecule
    Van der Waals/kʙ        0.000000e+00 ( 0.000000e+00 +/- 0.000000e+00) [K]
Framework-molecule
    Van der Waals/kʙ        0.000000e+00 ( 0.000000e+00 +/- 0.000000e+00) [K]
    Van der Waals (Tail)/kʙ 0.000000e+00 ( 0.000000e+00 +/- 0.000000e+00) [K]
    Coulombic Real/kʙ       0.000000e+00 ( 0.000000e+00 +/- 0.000000e+00) [K]
    Coulombic Fourier/kʙ    0.000000e+00 ( 0.000000e+00 +/- 0.000000e+00) [K]
Molecule-molecule
    Van der Waals/kʙ       -1.074219e+05 (-1.091833e+05 +/- 0.000000e+00) [K]
    Van der Waals (Tail)/kʙ-4.482497e+03 (-4.672803e+03 +/- 0.000000e+00) [K]
    Coulombic Real/kʙ      -2.745478e+04 (-3.182027e+04 +/- 0.000000e+00) [K]
    Coulombic Fourier/kʙ   -7.376989e+03 (-7.861171e+03 +/- 0.000000e+00) [K]
    Molecule Intra/kʙ       0.000000e+00 ( 0.000000e+00 +/- 0.000000e+00) [K]

Current cycle: 1700 out of 5000
===============================================================================

Box:      19.04344   0.00000   0.00000  Average:  19.02798   0.00000   0.00000
           0.00000  19.04344   0.00000             0.00000  19.02798   0.00000
           0.00000   0.00000  19.04344             0.00000   0.00000  19.02798
Lengths:  19.04344  19.04344  19.04344  Average:  19.02798  19.02798  19.02798
Angles:   90.00000  90.00000  90.00000  Average:  90.00000  90.00000  90.00000
Rectangular boundary conditions

net charge:   0.00000000

component 0 (CO2) lambda:  0 occupancy:  1 (1.000000)
    net charge:   0.00000000 [e]

Amount of molecules per component :
-------------------------------------------------------------------------------
Component 0 (CO2)
    molecules:      1.000000e+02 molecules  (1.000000e+02 +/- 0.000000e+00)
    number density: 1.447985e-02 molec./A^3 (1.453618e-02 +/- 0.000000e+00)
    density:        1.057922e+03 kg/m^3     (1.062039e+03 +/- 0.000000e+00)

Average pressure tensor: 
-------------------------------------------------------------------------------
-5.4984e+01 -1.3230e+01 -1.2449e+01 +/- 0.0000e+00 0.0000e+00 0.0000e+00 [bar]
-1.3230e+01  1.5474e+02 -3.0933e+00 +/- 0.0000e+00 0.0000e+00 0.0000e+00 [bar]
-1.2449e+01 -3.0933e+00  1.6624e+01 +/- 0.0000e+00 0.0000e+00 0.0000e+00 [bar]
Ideal-gas pressure:   5.017347e+02 +/ 0.000000e+00 [bar]
Excess pressure:     -4.629405e+02 +/ 0.000000e+00 [bar]
Pressure:             3.879417e+01 +/ 0.000000e+00 [bar]

Total potential energy/kʙ  -1.512000e+05 (-1.533216e+05 +/- 0.000000e+00) [K]
-------------------------------------------------------------------------------
ExternalField-molecule
    Van der Waals/kʙ        0.000000e+00 ( 0.000000e+00 +/- 0.000000e+00) [K]
Framework-molecule
    Van der Waals/kʙ        0.000000e+00 ( 0.000000e+00 +/- 0.000000e+00) [K]
    Van der Waals (Tail)/kʙ 0.000000e+00 ( 0.000000e+00 +/- 0.000000e+00) [K]
    Coulombic Real/kʙ       0.000000e+00 ( 0.000000e+00 +/- 0.000000e+00) [K]
    Coulombic Fourier/kʙ    0.000000e+00 ( 0.000000e+00 +/- 0.000000e+00) [K]
Molecule-molecule
    Van der Waals/kʙ       -1.081507e+05 (-1.089845e+05 +/- 0.000000e+00) [K]
    Van der Waals (Tail)/kʙ-4.645930e+03 (-4.666341e+03 +/- 0.000000e+00) [K]
    Coulombic Real/kʙ      -3.121088e+04 (-3.183283e+04 +/- 0.000000e+00) [K]
    Coulombic Fourier/kʙ   -7.192476e+03 (-7.837922e+03 +/- 0.000000e+00) [K]
    Molecule Intra/kʙ       0.000000e+00 ( 0.000000e+00 +/- 0.000000e+00) [K]

Current cycle: 1800 out of 5000
===============================================================================

Box:      19.19423   0.00000   0.00000  Average:  19.02947   0.00000   0.00000
           0.00000  19.19423   0.00000             0.00000  19.02947   0.00000
           0.00000   0.00000  19.19423             0.00000   0.00000  19.02947
Lengths:  19.19423  19.19423  19.19423  Average:  19.02947  19.02947  19.02947
Angles:   90.00000  90.00000  90.00000  Average:  90.00000  90.00000  90.00000
Rectangular boundary conditions

net charge:   0.00000000

component 0 (CO2) lambda:  0 occupancy:  1 (1.000000)
    net charge:   0.00000000 [e]

Amount of molecules per component :
-------------------------------------------------------------------------------
Component 0 (CO2)
    molecules:      1.000000e+02 molecules  (1.000000e+02 +/- 0.000000e+00)
    number density: 1.414126e-02 molec./A^3 (1.453170e-02 +/- 0.000000e+00)
    density:        1.033185e+03 kg/m^3     (1.061711e+03 +/- 0.000000e+00)

Average pressure tensor: 
-------------------------------------------------------------------------------
-7.1370e+01 -3.9098e+00 -1.3004e+01 +/- 0.0000e+00 0.0000e+00 0.0000e+00 [bar]
-3.9098e+00  1.6102e+02  2.1635e+00 +/- 0.0000e+00 0.0000e+00 0.0000e+00 [bar]
-1.3004e+01  2.1635e+00  3.6023e+01 +/- 0.0000e+00 0.0000e+00 0.0000e+00 [bar]
Ideal-gas pressure:   5.015800e+02 +/ 0.000000e+00 [bar]
Excess pressure:     -4.596890e+02 +/ 0.000000e+00 [bar]
Pressure:             4.189100e+01 +/ 0.000000e+00 [bar]

Total potential energy/kʙ  -1.485335e+05 (-1.532050e+05 +/- 0.000000e+00) [K]
-------------------------------------------------------------------------------
ExternalField-molecule
    Van der Waals/kʙ        0.000000e+00 ( 0.000000e+00 +/- 0.000000e+00) [K]
Framework-molecule
    Van der Waals/kʙ        0.000000e+00 ( 0.000000e+00 +/- 0.000000e+00) [K]
    Van der Waals (Tail)/kʙ 0.000000e+00 ( 0.000000e+00 +/- 0.000000e+00) [K]
    Coulombic Real/kʙ       0.000000e+00 ( 0.000000e+00 +/- 0.000000e+00) [K]
    Coulombic Fourier/kʙ    0.000000e+00 ( 0.000000e+00 +/- 0.000000e+00) [K]
Molecule-molecule
    Van der Waals/kʙ       -1.089582e+05 (-1.089997e+05 +/- 0.000000e+00) [K]
    Van der Waals (Tail)/kʙ-4.537293e+03 (-4.664078e+03 +/- 0.000000e+00) [K]
    Coulombic Real/kʙ      -2.712701e+04 (-3.173232e+04 +/- 0.000000e+00) [K]
    Coulombic Fourier/kʙ   -7.911068e+03 (-7.808888e+03 +/- 0.000000e+00) [K]
    Molecule Intra/kʙ       0.000000e+00 ( 0.000000e+00 +/- 0.000000e+00) [K]

Current cycle: 1900 out of 5000
===============================================================================

Box:      19.19736   0.00000   0.00000  Average:  19.03384   0.00000   0.00000
           0.00000  19.19736   0.00000             0.00000  19.03384   0.00000
           0.00000   0.00000  19.19736             0.00000   0.00000  19.03384
Lengths:  19.19736  19.19736  19.19736  Average:  19.03384  19.03384  19.03384
Angles:   90.00000  90.00000  90.00000  Average:  90.00000  90.00000  90.00000
Rectangular boundary conditions

net charge:   0.00000000

component 0 (CO2) lambda:  0 occupancy:  1 (1.000000)
    net charge:   0.00000000 [e]

Amount of molecules per component :
-------------------------------------------------------------------------------
Component 0 (CO2)
    molecules:      1.000000e+02 molecules  (1.000000e+02 +/- 0.000000e+00)
    number density: 1.413434e-02 molec./A^3 (1.452085e-02 +/- 0.000000e+00)
    density:        1.032679e+03 kg/m^3     (1.060918e+03 +/- 0.000000e+00)

Average pressure tensor: 
-------------------------------------------------------------------------------
-6.4247e+01  6.6772e+00 -7.5666e+00 +/- 0.0000e+00 0.0000e+00 0.0000e+00 [bar]
 6.6772e+00  1.7631e+02 -9.9875e+00 +/- 0.0000e+00 0.0000e+00 0.0000e+00 [bar]
-7.5666e+00 -9.9875e+00  4.9899e+01 +/- 0.0000e+00 0.0000e+00 0.0000e+00 [bar]
Ideal-gas pressure:   5.012053e+02 +/ 0.000000e+00 [bar]
Excess pressure:     -4.472173e+02 +/ 0.000000e+00 [bar]
Pressure:             5.398806e+01 +/ 0.000000e+00 [bar]

Total potential energy/kʙ  -1.485521e+05 (-1.529478e+05 +/- 0.000000e+00) [K]
-------------------------------------------------------------------------------
ExternalField-molecule
    Van der Waals/kʙ        0.000000e+00 ( 0.000000e+00 +/- 0.000000e+00) [K]
Framework-molecule
    Van der Waals/kʙ        0.000000e+00 ( 0.000000e+00 +/- 0.000000e+00) [K]
    Van der Waals (Tail)/kʙ 0.000000e+00 ( 0.000000e+00 +/- 0.000000e+00) [K]
    Coulombic Real/kʙ       0.000000e+00 ( 0.000000e+00 +/- 0.000000e+00) [K]
    Coulombic Fourier/kʙ    0.000000e+00 ( 0.000000e+00 +/- 0.000000e+00) [K]
Molecule-molecule
    Van der Waals/kʙ       -1.092264e+05 (-1.088542e+05 +/- 0.000000e+00) [K]
    Van der Waals (Tail)/kʙ-4.535072e+03 (-4.661411e+03 +/- 0.000000e+00) [K]
    Coulombic Real/kʙ      -2.687589e+04 (-3.161928e+04 +/- 0.000000e+00) [K]
    Coulombic Fourier/kʙ   -7.914752e+03 (-7.812944e+03 +/- 0.000000e+00) [K]
    Molecule Intra/kʙ       0.000000e+00 ( 0.000000e+00 +/- 0.000000e+00) [K]

Current cycle: 2000 out of 5000
===============================================================================

Box:      18.84241   0.00000   0.00000  Average:  19.02854   0.00000   0.00000
           0.00000  18.84241   0.00000             0.00000  19.02854   0.00000
           0.00000   0.00000  18.84241             0.00000   0.00000  19.02854
Lengths:  18.84241  18.84241  18.84241  Average:  19.02854  19.02854  19.02854
Angles:   90.00000  90.00000  90.00000  Average:  90.00000  90.00000  90.00000
Rectangular boundary conditions

net charge:   0.00000000

component 0 (CO2) lambda:  0 occupancy:  1 (1.000000)
    net charge:   0.00000000 [e]

Amount of molecules per component :
-------------------------------------------------------------------------------
Component 0 (CO2)
    molecules:      1.000000e+02 molecules  (1.000000e+02 +/- 0.000000e+00)
    number density: 1.494825e-02 molec./A^3 (1.453240e-02 +/- 0.000000e+00)
    density:        1.092145e+03 kg/m^3     (1.061762e+03 +/- 0.000000e+00)

Average pressure tensor: 
-------------------------------------------------------------------------------
-4.4180e+01  8.9035e+00 -1.9694e+00 +/- 0.0000e+00 0.0000e+00 0.0000e+00 [bar]
 8.9035e+00  1.7402e+02 -1.1096e+01 +/- 0.0000e+00 0.0000e+00 0.0000e+00 [bar]
-1.9694e+00 -1.1096e+01  3.8760e+01 +/- 0.0000e+00 0.0000e+00 0.0000e+00 [bar]
Ideal-gas pressure:   5.016041e+02 +/ 0.000000e+00 [bar]
Excess pressure:     -4.454026e+02 +/ 0.000000e+00 [bar]
Pressure:             5.620154e+01 +/ 0.000000e+00 [bar]

Total potential energy/kʙ  -1.572094e+05 (-1.530641e+05 +/- 0.000000e+00) [K]
-------------------------------------------------------------------------------
ExternalField-molecule
    Van der Waals/kʙ        0.000000e+00 ( 0.000000e+00 +/- 0.000000e+00) [K]
Framework-molecule
    Van der Waals/kʙ        0.000000e+00 ( 0.000000e+00 +/- 0.000000e+00) [K]
    Van der Waals (Tail)/kʙ 0.000000e+00 ( 0.000000e+00 +/- 0.000000e+00) [K]
    Coulombic Real/kʙ       0.000000e+00 ( 0.000000e+00 +/- 0.000000e+00) [K]
    Coulombic Fourier/kʙ    0.000000e+00 ( 0.000000e+00 +/- 0.000000e+00) [K]
Molecule-molecule
    Van der Waals/kʙ       -1.088556e+05 (-1.089053e+05 +/- 0.000000e+00) [K]
    Van der Waals (Tail)/kʙ-4.796219e+03 (-4.665793e+03 +/- 0.000000e+00) [K]
    Coulombic Real/kʙ      -3.501166e+04 (-3.166055e+04 +/- 0.000000e+00) [K]
    Coulombic Fourier/kʙ   -8.545941e+03 (-7.832454e+03 +/- 0.000000e+00) [K]
    Molecule Intra/kʙ       0.000000e+00 ( 0.000000e+00 +/- 0.000000e+00) [K]

Current cycle: 2100 out of 5000
===============================================================================

Box:      18.78849   0.00000   0.00000  Average:  19.01971   0.00000   0.00000
           0.00000  18.78849   0.00000             0.00000  19.01971   0.00000
           0.00000   0.00000  18.78849             0.00000   0.00000  19.01971
Lengths:  18.78849  18.78849  18.78849  Average:  19.01971  19.01971  19.01971
Angles:   90.00000  90.00000  90.00000  Average:  90.00000  90.00000  90.00000
Rectangular boundary conditions

net charge:   0.00000000

component 0 (CO2) lambda:  0 occupancy:  1 (1.000000)
    net charge:   0.00000000 [e]

Amount of molecules per component :
-------------------------------------------------------------------------------
Component 0 (CO2)
    molecules:      1.000000e+02 molecules  (1.000000e+02 +/- 0.000000e+00)
    number density: 1.507734e-02 molec./A^3 (1.455223e-02 +/- 0.000000e+00)
    density:        1.101576e+03 kg/m^3     (1.063211e+03 +/- 0.000000e+00)

Average pressure tensor: 
-------------------------------------------------------------------------------
-4.0741e+01  1.0247e+00  1.1544e+01 +/- 0.0000e+00 0.0000e+00 0.0000e+00 [bar]
 1.0247e+00  1.5942e+02 -1.7478e+01 +/- 0.0000e+00 0.0000e+00 0.0000e+00 [bar]
 1.1544e+01 -1.7478e+01  2.7335e+01 +/- 0.0000e+00 0.0000e+00 0.0000e+00 [bar]
Ideal-gas pressure:   5.022885e+02 +/ 0.000000e+00 [bar]
Excess pressure:     -4.536186e+02 +/ 0.000000e+00 [bar]
Pressure:             4.866994e+01 +/ 0.000000e+00 [bar]

Total potential energy/kʙ  -1.611628e+05 (-1.534210e+05 +/- 0.000000e+00) [K]
-------------------------------------------------------------------------------
ExternalField-molecule
    Van der Waals/kʙ        0.000000e+00 ( 0.000000e+00 +/- 0.000000e+00) [K]
Framework-molecule
    Van der Waals/kʙ        0.000000e+00 ( 0.000000e+00 +/- 0.000000e+00) [K]
    Van der Waals (Tail)/kʙ 0.000000e+00 ( 0.000000e+00 +/- 0.000000e+00) [K]
[...]
    Coulombic Fourier/kʙ    0.000000e+00 ( 0.000000e+00 +/- 0.000000e+00) [K]
Molecule-molecule
    Van der Waals/kʙ       -1.078289e+05 (-1.095646e+05 +/- 1.728432e+03) [K]
    Van der Waals (Tail)/kʙ-4.551362e+03 (-4.686101e+03 +/- 8.259244e+01) [K]
    Coulombic Real/kʙ      -3.442653e+04 (-3.163299e+04 +/- 7.000939e+02) [K]
    Coulombic Fourier/kʙ   -8.240687e+03 (-7.795077e+03 +/- 1.830309e+02) [K]
    Molecule Intra/kʙ       0.000000e+00 ( 0.000000e+00 +/- 0.000000e+00) [K]

Current cycle: 4700 out of 5000
===============================================================================

Box:      18.99062   0.00000   0.00000  Average:  18.99819   0.00000   0.00000
           0.00000  18.99062   0.00000             0.00000  18.99819   0.00000
           0.00000   0.00000  18.99062             0.00000   0.00000  18.99819
Lengths:  18.99062  18.99062  18.99062  Average:  18.99819  18.99819  18.99819
Angles:   90.00000  90.00000  90.00000  Average:  90.00000  90.00000  90.00000
Rectangular boundary conditions

net charge:   0.00000000

component 0 (CO2) lambda:  0 occupancy:  1 (1.000000)
    net charge:   0.00000000 [e]

Amount of molecules per component :
-------------------------------------------------------------------------------
Component 0 (CO2)
    molecules:      1.000000e+02 molecules  (1.000000e+02 +/- 0.000000e+00)
    number density: 1.460100e-02 molec./A^3 (1.459675e-02 +/- 2.446900e-04)
    density:        1.066774e+03 kg/m^3     (1.066464e+03 +/- 1.787747e+01)

Average pressure tensor: 
-------------------------------------------------------------------------------
 2.7487e+01  3.8184e+01  1.8684e-01 +/- 1.2707e+02 7.3694e+01 6.0111e+01 [bar]
 3.8184e+01  1.1606e+02 -3.5217e+01 +/- 7.3694e+01 1.2834e+02 3.1959e+01 [bar]
 1.8684e-01 -3.5217e+01  2.0792e+01 +/- 6.0111e+01 3.1959e+01 1.5172e+02 [bar]
Ideal-gas pressure:   5.038253e+02 +/ 8.445782e+00 [bar]
Excess pressure:     -4.490468e+02 +/ 5.327787e+01 [bar]
Pressure:             5.477848e+01 +/ 6.098818e+01 [bar]

Total potential energy/kʙ  -1.579052e+05 (-1.536709e+05 +/- 2.548913e+03) [K]
-------------------------------------------------------------------------------
ExternalField-molecule
    Van der Waals/kʙ        0.000000e+00 ( 0.000000e+00 +/- 0.000000e+00) [K]
Framework-molecule
    Van der Waals/kʙ        0.000000e+00 ( 0.000000e+00 +/- 0.000000e+00) [K]
    Van der Waals (Tail)/kʙ 0.000000e+00 ( 0.000000e+00 +/- 0.000000e+00) [K]
    Coulombic Real/kʙ       0.000000e+00 ( 0.000000e+00 +/- 0.000000e+00) [K]
    Coulombic Fourier/kʙ    0.000000e+00 ( 0.000000e+00 +/- 0.000000e+00) [K]
Molecule-molecule
    Van der Waals/kʙ       -1.127090e+05 (-1.095372e+05 +/- 1.714775e+03) [K]
    Van der Waals (Tail)/kʙ-4.684802e+03 (-4.685392e+03 +/- 8.205027e+01) [K]
    Coulombic Real/kʙ      -3.238126e+04 (-3.164641e+04 +/- 7.062735e+02) [K]
    Coulombic Fourier/kʙ   -8.130134e+03 (-7.801879e+03 +/- 1.848743e+02) [K]
    Molecule Intra/kʙ       0.000000e+00 ( 0.000000e+00 +/- 0.000000e+00) [K]

Current cycle: 4800 out of 5000
===============================================================================

Box:      18.71677   0.00000   0.00000  Average:  18.99393   0.00000   0.00000
           0.00000  18.71677   0.00000             0.00000  18.99393   0.00000
           0.00000   0.00000  18.71677             0.00000   0.00000  18.99393
Lengths:  18.71677  18.71677  18.71677  Average:  18.99393  18.99393  18.99393
Angles:   90.00000  90.00000  90.00000  Average:  90.00000  90.00000  90.00000
Rectangular boundary conditions

net charge:   0.00000000

component 0 (CO2) lambda:  0 occupancy:  1 (1.000000)
    net charge:   0.00000000 [e]

Amount of molecules per component :
-------------------------------------------------------------------------------
Component 0 (CO2)
    molecules:      1.000000e+02 molecules  (1.000000e+02 +/- 0.000000e+00)
    number density: 1.525131e-02 molec./A^3 (1.460652e-02 +/- 2.489238e-04)
    density:        1.114287e+03 kg/m^3     (1.067178e+03 +/- 1.818680e+01)

Average pressure tensor: 
-------------------------------------------------------------------------------
 2.8798e+01  3.7689e+01  4.7058e-01 +/- 1.2635e+02 7.1275e+01 5.8752e+01 [bar]
 3.7689e+01  1.2932e+02 -3.2139e+01 +/- 7.1275e+01 7.8070e+01 3.1796e+01 [bar]
 4.7058e-01 -3.2139e+01  2.9576e+01 +/- 5.8752e+01 3.1796e+01 1.6401e+02 [bar]
Ideal-gas pressure:   5.041626e+02 +/ 8.591917e+00 [bar]
Excess pressure:     -4.415994e+02 +/ 6.170437e+01 [bar]
Pressure:             6.256320e+01 +/ 6.921102e+01 [bar]

Total potential energy/kʙ  -1.544150e+05 (-1.537285e+05 +/- 2.576955e+03) [K]
-------------------------------------------------------------------------------
ExternalField-molecule
    Van der Waals/kʙ        0.000000e+00 ( 0.000000e+00 +/- 0.000000e+00) [K]
Framework-molecule
    Van der Waals/kʙ        0.000000e+00 ( 0.000000e+00 +/- 0.000000e+00) [K]
    Van der Waals (Tail)/kʙ 0.000000e+00 ( 0.000000e+00 +/- 0.000000e+00) [K]
    Coulombic Real/kʙ       0.000000e+00 ( 0.000000e+00 +/- 0.000000e+00) [K]
    Coulombic Fourier/kʙ    0.000000e+00 ( 0.000000e+00 +/- 0.000000e+00) [K]
Molecule-molecule
    Van der Waals/kʙ       -1.126188e+05 (-1.095749e+05 +/- 1.725713e+03) [K]
    Van der Waals (Tail)/kʙ-4.893457e+03 (-4.689110e+03 +/- 8.398061e+01) [K]
    Coulombic Real/kʙ      -2.961224e+04 (-3.165948e+04 +/- 7.114061e+02) [K]
    Coulombic Fourier/kʙ   -7.290550e+03 (-7.805034e+03 +/- 1.860975e+02) [K]
    Molecule Intra/kʙ       0.000000e+00 ( 0.000000e+00 +/- 0.000000e+00) [K]

Current cycle: 4900 out of 5000
===============================================================================

Box:      19.03461   0.00000   0.00000  Average:  18.99108   0.00000   0.00000
           0.00000  19.03461   0.00000             0.00000  18.99108   0.00000
           0.00000   0.00000  19.03461             0.00000   0.00000  18.99108
Lengths:  19.03461  19.03461  19.03461  Average:  18.99108  18.99108  18.99108
Angles:   90.00000  90.00000  90.00000  Average:  90.00000  90.00000  90.00000
Rectangular boundary conditions

net charge:   0.00000000

component 0 (CO2) lambda:  0 occupancy:  1 (1.000000)
    net charge:   0.00000000 [e]

Amount of molecules per component :
-------------------------------------------------------------------------------
Component 0 (CO2)
    molecules:      1.000000e+02 molecules  (1.000000e+02 +/- 0.000000e+00)
    number density: 1.450000e-02 molec./A^3 (1.461300e-02 +/- 2.523067e-04)
    density:        1.059395e+03 kg/m^3     (1.067651e+03 +/- 1.843396e+01)

Average pressure tensor: 
-------------------------------------------------------------------------------
 2.6989e+01  3.9904e+01 -2.7449e+00 +/- 1.2228e+02 6.4894e+01 6.1899e+01 [bar]
 3.9904e+01  1.3799e+02 -3.2995e+01 +/- 6.4894e+01 5.6277e+01 3.1461e+01 [bar]
-2.7449e+00 -3.2995e+01  2.6754e+01 +/- 6.1899e+01 3.1461e+01 1.5193e+02 [bar]
Ideal-gas pressure:   5.043862e+02 +/ 8.708684e+00 [bar]
Excess pressure:     -4.404733e+02 +/ 6.188771e+01 [bar]
Pressure:             6.391295e+01 +/ 6.963836e+01 [bar]

Total potential energy/kʙ  -1.514869e+05 (-1.537277e+05 +/- 2.565193e+03) [K]
-------------------------------------------------------------------------------
ExternalField-molecule
    Van der Waals/kʙ        0.000000e+00 ( 0.000000e+00 +/- 0.000000e+00) [K]
Framework-molecule
    Van der Waals/kʙ        0.000000e+00 ( 0.000000e+00 +/- 0.000000e+00) [K]
    Van der Waals (Tail)/kʙ 0.000000e+00 ( 0.000000e+00 +/- 0.000000e+00) [K]
    Coulombic Real/kʙ       0.000000e+00 ( 0.000000e+00 +/- 0.000000e+00) [K]
    Coulombic Fourier/kʙ    0.000000e+00 ( 0.000000e+00 +/- 0.000000e+00) [K]
Molecule-molecule
    Van der Waals/kʙ       -1.102132e+05 (-1.096152e+05 +/- 1.741454e+03) [K]
    Van der Waals (Tail)/kʙ-4.652396e+03 (-4.690753e+03 +/- 8.475708e+01) [K]
    Coulombic Real/kʙ      -2.887558e+04 (-3.161845e+04 +/- 6.636675e+02) [K]
    Coulombic Fourier/kʙ   -7.745695e+03 (-7.803332e+03 +/- 1.847833e+02) [K]
    Molecule Intra/kʙ       0.000000e+00 ( 0.000000e+00 +/- 0.000000e+00) [K]


Energy statistics             |  Energy [K]   | Recomputed [K]|  Drift [K]    |
===============================================================================
Total potential energy/kʙ     | -1.430717e+05 | -1.430717e+05 |  0.000000e+00 |
    external field VDW/kʙ     |  0.000000e+00 |  0.000000e+00 |  0.000000e+00 |
    external field Real/kʙ    |  0.000000e+00 |  0.000000e+00 |  0.000000e+00 |
    framework-molecule VDW/kʙ |  0.000000e+00 |  0.000000e+00 |  0.000000e+00 |
    framework-molecule Real/kʙ|  0.000000e+00 |  0.000000e+00 |  0.000000e+00 |
    molecule-molecule VDW/kʙ  | -1.016016e+05 | -1.016016e+05 |  0.000000e+00 |
    molecule-molecule Real/kʙ | -2.959897e+04 | -2.959897e+04 |  0.000000e+00 |
    Van der Waals (Tail)/kʙ   | -4.382480e+03 | -4.382480e+03 |  0.000000e+00 |
    Ewald Fourier/kʙ          |  7.042200e+03 |  7.042200e+03 |  0.000000e+00 |
    Ewald self/kʙ             | -2.222923e+06 | -2.222923e+06 |  0.000000e+00 |
    Ewald exclusion/kʙ        |  2.208392e+06 |  2.208392e+06 |  0.000000e+00 |
    intra VDW/kʙ              |  0.000000e+00 |  0.000000e+00 |  0.000000e+00 |
    intra Coulombic/kʙ        |  0.000000e+00 |  0.000000e+00 |  0.000000e+00 |
    polarization/kʙ           |  0.000000e+00 |  0.000000e+00 |  0.000000e+00 |
    dU/dlambda VDW/kʙ         |  0.000000e+00 |  0.000000e+00 |  0.000000e+00 |
    dU/dlambda Real/kʙ        |  0.000000e+00 |  0.000000e+00 |  0.000000e+00 |
    dU/dlambda Ewald/kʙ       |  0.000000e+00 |  0.000000e+00 |  0.000000e+00 |
-------------------------------------------------------------------------------


Monte-Carlo moves statistics
===============================================================================

    Volume change        all:                3308
    Volume change        total:              3308
    Volume change        constructed:        3308
    Volume change        accepted:           1394
    Volume change        fraction:       0.421403
    Volume change        max-change:     0.050000

Component 0 [CO2]
    Reinsertion (CBMC)   all:              165326
    Reinsertion (CBMC)   total:            165326
    Reinsertion (CBMC)   constructed:      146446
    Reinsertion (CBMC)   accepted:           2592
    Reinsertion (CBMC)   fraction:       0.015678
    Reinsertion (CBMC)   max-change:     0.000000

    Translation          all:              165836
    Translation          total:             55333      55407      55096
    Translation          constructed:       55333      55407      54828
    Translation          accepted:          24048      29223      16886
    Translation          fraction:       0.434605   0.527424   0.306483
    Translation          max-change:     0.808081   0.606061   1.230769

    Rotation             all:              165530
    Rotation             total:             55234      55062      55234
    Rotation             constructed:       55225      54678      54855
    Rotation             accepted:          22118      16036      16263
    Rotation             fraction:       0.400442   0.291235   0.294438
    Rotation             max-change:     0.952381   1.500000   1.440000



Production run counting of the MC moves summed over systems and components
===============================================================================

Volume change                          3308 (0.6616 [%])
Reinsertion (CBMC)                   165326 (33.0652 [%])
Translation                          165836 (33.1672 [%])
Rotation                             165530 (33.1060 [%])

Production count MC-steps:           500000 [-]
               All summed:           500000 [-]
               difference:                0 [-]


Production run CPU timings of the MC moves
===============================================================================

Component 0 CO2

Rotation                             22.071424 [s]
    Ewald                            12.352511 [s]
    ExternalField-Molecule            0.006065 [s]
    Framework-Molecule                0.005395 [s]
    Molecule-Molecule                 8.947653 [s]
    Overhead                          0.759800 [s]

Reinsertion (CBMC)                   70.456614 [s]
    Ewald                            11.029613 [s]
    NonEwald                         59.256941 [s]
    Overhead                          0.170060 [s]

Translation                          22.384684 [s]
    Ewald                            12.410989 [s]
    ExternalField-Molecule            0.005514 [s]
    Framework-Molecule                0.008943 [s]
    Molecule-Molecule                 9.056905 [s]
    Overhead                          0.902333 [s]



Volume change                          9.381364 [s]
    Ewald                              4.665399 [s]
    NonEwald                           4.495325 [s]
    Tail                               0.148092 [s]

Property sampling                     0.234959 [s]
Energy/pressure sampling:             3.437492 [s]


Production run CPU timings of the MC moves summed over systems and components
===============================================================================


Translation                          22.384684 [s]
    Ewald                            12.410989 [s]
    ExternalField-Molecule            0.005514 [s]
    Framework-Molecule                0.008943 [s]
    Molecule-Molecule                 9.056905 [s]
    Overhead                          0.902333 [s]

Rotation                             22.071424 [s]
    Ewald                            12.352511 [s]
    ExternalField-Molecule            0.006065 [s]
    Framework-Molecule                0.005395 [s]
    Molecule-Molecule                 8.947653 [s]
    Overhead                          0.759800 [s]

Volume change                         9.381364 [s]
    Ewald                             4.665399 [s]
    NonEwald                          4.495325 [s]
    Tail                              0.148092 [s]
    Overhead                          0.072548 [s]

Reinsertion (CBMC)                   70.456614 [s]
    Ewald                            11.029613 [s]
    NonEwald                         59.256941 [s]
    Overhead                          0.170060 [s]

Property sampling:                    0.234959 [s]
Energy/pressure sampling:             3.437492 [s]

Production simulation time:         128.345976 [s]
                All summed:         127.966537 [s]
                  Overhead:           0.379439 [s]


Initalization simulation time:       22.593331 [s]
Equilibration simulation time:        0.000000 [s]
Production simulation time:         128.345976 [s]
Total simulation time:              150.939307 [s]


Energy averages and statistics:
===============================================================================

Framework-molecule energy:
-------------------------------------------------------------------------------



Framework-molecule energy contributions per energy type:
-------------------------------------------------------------------------------



Inter-molecular energy:
-------------------------------------------------------------------------------

    Inter-molecular energy/kʙ 0-0 [CO2-CO2]:
    ---------------------------------------------------------------------------
        Block[  0] -1.517997e+05
        Block[  1] -1.542870e+05
        Block[  2] -1.515944e+05
        Block[  3] -1.565433e+05
        Block[  4] -1.537906e+05
        -----------------------------------------------------------------------
        Average  -1.536030e+05 +/-  2.516459e+03 [K]



Inter-molecular energy contributions per energy type:
-------------------------------------------------------------------------------

    Van der Waals energy/kʙ 0-0 [CO2-CO2]:
    ---------------------------------------------------------------------------
        Block[  0] -1.081689e+05
        Block[  1] -1.096422e+05
        Block[  2] -1.085177e+05
        Block[  3] -1.117006e+05
        Block[  4] -1.098052e+05
        -----------------------------------------------------------------------
        Average  -1.095669e+05 +/-  1.719172e+03 [K]

    VDW Tail-Correction energy/kʙ 0-0 [CO2-CO2]:
    ---------------------------------------------------------------------------
        Block[  0] -4.638078e+03
        Block[  1] -4.692204e+03
        Block[  2] -4.615890e+03
        Block[  3] -4.786362e+03
        Block[  4] -4.706216e+03
        -----------------------------------------------------------------------
        Average  -4.687750e+03 +/-  8.262115e+01 [K]

    Coulomb Real energy/kʙ 0-0 [CO2-CO2]:
    ---------------------------------------------------------------------------
        Block[  0] -3.124144e+04
        Block[  1] -3.204615e+04
        Block[  2] -3.088742e+04
        Block[  3] -3.210807e+04
        Block[  4] -3.149038e+04
        -----------------------------------------------------------------------
        Average  -3.155469e+04 +/-  6.496258e+02 [K]

    Coulomb Fourier energy/kʙ 0-0 [CO2-CO2]:
    ---------------------------------------------------------------------------
        Block[  0] -7.751291e+03
        Block[  1] -7.906482e+03
        Block[  2] -7.573387e+03
        Block[  3] -7.948267e+03
        Block[  4] -7.788803e+03
        -----------------------------------------------------------------------
        Average  -7.793646e+03 +/-  1.830594e+02 [K]


Total energy/kʙ
-------------------------------------------------------------------------------
    Block[  0] -1.517997e+05
    Block[  1] -1.542870e+05
    Block[  2] -1.515944e+05
    Block[  3] -1.565433e+05
    Block[  4] -1.537906e+05
    ---------------------------------------------------------------------------
    Average  -1.536030e+05 +/-  2.516459e+03 [K]

Pressure averages and statistics:
===============================================================================

Average pressure tensor: 
-------------------------------------------------------------------------------
 2.7870e+01  4.2411e+01 -4.7201e+00 +/- 1.2192e+02 6.0343e+01 6.3414e+01 [bar]
 4.2411e+01  1.3295e+02 -3.1214e+01 +/- 6.0343e+01 6.3144e+01 3.2113e+01 [bar]
-4.7201e+00 -3.1214e+01  2.2779e+01 +/- 6.3414e+01 3.2113e+01 1.4162e+02 [bar]

    Block[  0]  4.990835e+07
    Block[  1]  5.041103e+07
    Block[  2]  4.969158e+07
    Block[  3]  5.144945e+07
    Block[  4]  5.055567e+07
    ---------------------------------------------------------------------------
    Ideal gas pressure   5.040322e+07 +/-  5.110764e-02 [Pa]
                         5.040322e+02 +/-  8.486630e+00 [bar]


    Block[  0] -4.669274e+07
    Block[  1] -4.243912e+07
    Block[  2] -5.123291e+07
    Block[  3] -4.013217e+07
    Block[  4] -4.091909e+07
    ---------------------------------------------------------------------------
    Excess pressure  -4.428321e+07 +/-  5.758220e+06 [Pa]
                     -4.428321e+02 +/-  5.758220e+01 [bar]


    Block[  0]  3.215614e+06
    Block[  1]  7.971908e+06
    Block[  2] -1.541334e+06
    Block[  3]  1.131728e+07
    Block[  4]  9.636587e+06
    ---------------------------------------------------------------------------
    Pressure average   6.120011e+06 +/-  6.508496e+06 [Pa]
                       6.120011e+01 +/-  6.508496e+01 [bar]


Enthalpy of adsorption
===============================================================================

No fluctuating components present.


Densities
===============================================================================

Component 0 (CO2)
    Block[  0] 100
    Block[  1] 100
    Block[  2] 100
    Block[  3] 100
    Block[  4] 100
    -----------------------------------------------------------------------
    Density average   1.000000e+02 +/-  0.000000e+00 [molecules]
    Density average   1.460275e-02 +/-  2.458734e-04 [molec/A^3]
    Density average   1.066902e+03 +/-  1.796393e+01 [kg.m⁻³]

