Compiler and run-time data
===============================================================================
RASPA 3.0.4

Random seed: 1411706616

Compiled as a 64-bits application
Compiler: gcc Ubuntu Clang 18.1.3 (1ubuntu1)
Compile Date = Mar 15 2025, Compile Time = 19:39:45

2025-06-03 09:35:50.108726
Simulation started on Tue, Jun 03
The start time was 09:35:00

Hostname:    c061
OS type:     Linux on x86_64
OS release:  6.8.0-58-generic
OS version:  #60-Ubuntu SMP PREEMPT_DYNAMIC Fri Mar 14 18:29:48 UTC 2025


Mutual consistent basic set of units:
===============================================================================

Unit of temperature: 1 [K]
Unit of length:      1e-10 [m]
Unit of time:        1e-12 [s]
Unit of mass:        1.6605402e-27 [kg]
Unit of charge:      1.60217733e-19 [C/particle]


Boltzmann constant (internal units):          0.8314464919307584 [-]
represents conversion from energy (internal units) to temperature (in Kelvin)

Derived units and their conversion factors:
===============================================================================

Unit of energy:                           1.6605402000000002e-23 [J]
Unit of energy:                           10.000008872307538 [J.mol⁻¹]
Unit of velocity:                         100 [m.s⁻¹]
Unit of force:                            1.6605402000000002e-13 [N]
Unit of diffusion:                        1.0000000000000002e-08 [m².s⁻¹]
Unit of acceleration:                     1.0000000000000002e-08 [m².s⁻¹]
Unit of torque:                           1.6605402000000002e-23 [N.m]
Unit of pressure:                         16605402 [Pa]
Unit of volume:                           1e-30 [m³]
Unit of density:                          1660.5402 [kg.m⁻³]
Unit of dynamic viscosity:                1.6605401999999997e-05 [N.s.m⁻²]
Unit of enthalpy:                         1.6605402000000002e-23 [J]
Unit of polarizability:                   1.5458657349975198e-35 [-]
Unit of Coulomb potential:                167101.08000665612 [K]
Unit of dielectric constant:              1.5458657349975193e-05 [s².C².kg⁻¹.m⁻³]
Unit of dipole moment:                    1.60217733e-29 [C.m]
Unit of Debye:                            4.803206799099162 [C.m]
Unit of electric potential:               0.00010364272224473431 [V]
Unit of electric field:                   1036427.222447343 [V.m⁻¹]
Unit of isothermal compressibility:       6.02213665167516e-08 [Pa⁻¹]
Unit of heat capacity:                    10.000008872307538 [J.mol⁻¹.K⁻¹]
Unit of volumetric expansion coefficient: 1 [K⁻¹]


Internal conversion factors:
===============================================================================

Energy (internal units) to Kelvin:      1.202724284692786 [-]
Kelvin to energy (internal units):      0.8314457542157567 [-]


System definitions
===============================================================================

Temperature:          250 [K]
Beta:                 0.0048108928702210625 [-]
Pressure:             1e+07 [Pa]
Helium void fraction: 1 [-]

Box:      30.00000   0.00000   0.00000
           0.00000  30.00000   0.00000
           0.00000   0.00000  30.00000
Lengths:  30.00000  30.00000  30.00000
Angles:   90.00000  90.00000  90.00000
Rectangular boundary conditions



Property measurement settings
===============================================================================




Pseudo-atoms
===============================================================================

  0 - C_co2    framework-atom: false
  1 - O_co2    framework-atom: false

  0 - C_co2    mass: 12.00000, charge:  0.70000
  1 - O_co2    mass: 15.99940, charge: -0.35000

  0 - C_co2    polarizability:  0.00000
  1 - O_co2    polarizability:  0.00000

  0 - J. J. Potoff et al., AIChE J. 2001, 47, 1676–1682.
  1 - J. J. Potoff et al., AIChE J. 2001, 47, 1676–1682.

Force field status
===============================================================================

Cutoff Framework-Molecule VDW:  10.00000 [Å]
Cutoff Molecule-Molecule VDW:   10.00000 [Å]
Cutoff Coulomb:                 10.00000 [Å]

Overlap-criteria VDW:           1.000000e+05 [K]

C_co2    - C_co2    Lennard-Jones p₀/kʙ:  27.00000 [K], p₁:  2.80000 [Å]
                                  shift:   0.00000 [K], tailcorrections: true
C_co2    - O_co2    Lennard-Jones p₀/kʙ:  46.18441 [K], p₁:  2.92500 [Å]
                                  shift:   0.00000 [K], tailcorrections: true
O_co2    - O_co2    Lennard-Jones p₀/kʙ:  79.00000 [K], p₁:  3.05000 [Å]
                                  shift:   0.00000 [K], tailcorrections: true

Ewald precision: 1e-06
Ewald alpha: 0.32079885109097883
Ewald k-vectors: 10 10 10


Component definitions
===============================================================================

Component 0 [CO2]

    Type: Adsorbate

    Critical temperature:  304.1282 [K]
    Critical pressure:     7377300 [Pa]
    Acentric factor:       0.22394 [-]

    Mol-fraction:                 1 [-]
    Swappable:                   false

    Mass:                         43.9988 [-]
    Bulk fluid density:           0 [-]
    Compressibility:              0 [-]
    Excess molecules:             0 [-]

    Number Of Atoms:    3
    CBMC starting bead: 0
      0: O_co2  position  0.00000 -0.00000  1.16000, charge -0.35000
      1: C_co2  position  0.00000 -0.00000  0.00000, charge  0.70000
      2: O_co2  position  0.00000 -0.00000 -1.16000, charge -0.35000
    Diagonalized inertia-vector:      43.05758528 43.05758528 0.00000000
    Translational degrees of freedom: 3
    Rotational degrees of freedom:    2
    Shape of the molecule is: 'Linear'
    Net-charge:        0.00000000 [e]

    Move probabilities:
    Translation:                   0.331126 [-]
    Random translation:            0.000000 [-]
    Rotation:                      0.331126 [-]
    Random rotation:               0.000000 [-]
    Volume change:                 0.006623 [-]
    Reinsertion (CBMC):            0.331126 [-]
    Identity change (CBMC):        0.000000 [-]
    Swap:                          0.000000 [-]
    Swap (CBMC):                   0.000000 [-]
    Swap (CFCMC):                  0.000000 [-]
    Swap (CB/CFCMC):               0.000000 [-]
    Gibbs volume:                  0.000000 [-]
    Gibbs swap (CBMC):             0.000000 [-]
    Gibbs swap (CFCMC):            0.000000 [-]
    Widom:                         0.000000 [-]
    Widom (CFCMC):                 0.000000 [-]
    Widom (CB/CFCMC):              0.000000 [-]
    Parallel tempering:            0.000000 [-]
    Hybrid MC:                     0.000000 [-]

    number of blocking-pockets: 0

    number of bonds: 0





Number of pseudo-atoms
===============================================================================

Component   0 (CO2)
-------------------------------------------------------------------------------
    index   0 (C_co2): 150 atoms
    index   1 (O_co2): 300 atoms

Total number of pseudo-atoms:
-------------------------------------------------------------------------------
    index   0 (C_co2): 150 atoms
    index   1 (O_co2): 300 atoms




Energy status Recomputed from scratch
===============================================================================

Total potential energy/kʙ       -4.667017e+04 [K]
    external field VDW/kʙ        0.000000e+00 [K]
    external field Real/kʙ       0.000000e+00 [K]
    framework-molecule VDW/kʙ    0.000000e+00 [K]
    framework-molecule Real/kʙ   0.000000e+00 [K]
    molecule-molecule VDW/kʙ    -3.201442e+04 [K]
    molecule-molecule Real/kʙ   -1.032970e+04 [K]
    Van der Waals (Tail)/kʙ     -2.673791e+03 [K]
    Ewald Fourier/kʙ             2.014403e+04 [K]
    Ewald self/kʙ               -3.334385e+06 [K]
    Ewald exclusion/kʙ           3.312589e+06 [K]
    intra VDW/kʙ                 0.000000e+00 [K]
    intra Coulombic/kʙ           0.000000e+00 [K]
    polarization/kʙ              0.000000e+00 [K]
    dU/dlambda VDW/kʙ            0.000000e+00 [K]
    dU/dlambda Real/kʙ           0.000000e+00 [K]
    dU/dlambda Ewald/kʙ          0.000000e+00 [K]





Initialization: Current cycle: 0 out of 1000
===============================================================================

Box:      30.00000   0.00000   0.00000
           0.00000  30.00000   0.00000
           0.00000   0.00000  30.00000
Lengths:  30.00000  30.00000  30.00000
Angles:   90.00000  90.00000  90.00000
Rectangular boundary conditions

net charge:   0.00000000

component   0 (CO2) lambda:  0 occupancy:  1 (1.000000)
    net charge:   0.00000000 [e]

Amount of molecules per component :
-------------------------------------------------------------------------------
Component 0 (CO2)
    molecules:         1.500000e+02 molecules
    number density:    5.555556e-03 molec/A^3
    density:           4.058984e+02 kg/m^3

Total potential energy/kʙ       -4.700602e+04 [K]
-------------------------------------------------------------------------------
    external field VDW/kʙ        0.000000e+00 [K]
    external field Real/kʙ       0.000000e+00 [K]
    framework-molecule VDW/kʙ    0.000000e+00 [K]
    framework-molecule Real/kʙ   0.000000e+00 [K]
    molecule-molecule VDW/kʙ    -3.061285e+04 [K]
    molecule-molecule Real/kʙ   -1.119410e+04 [K]
    Van der Waals (Tail)/kʙ     -2.673791e+03 [K]
    Ewald Fourier/kʙ             1.927100e+04 [K]
    Ewald self/kʙ               -3.334385e+06 [K]
    Ewald exclusion/kʙ           3.312589e+06 [K]
    intra VDW/kʙ                 0.000000e+00 [K]
    intra Coulombic/kʙ           0.000000e+00 [K]
    polarization/kʙ              0.000000e+00 [K]
    dU/dlambda VDW/kʙ            0.000000e+00 [K]
    dU/dlambda Real/kʙ           0.000000e+00 [K]
    dU/dlambda Ewald/kʙ          0.000000e+00 [K]


Initialization: Current cycle: 100 out of 1000
===============================================================================

Box:      27.10650   0.00000   0.00000
           0.00000  27.10650   0.00000
           0.00000   0.00000  27.10650
Lengths:  27.10650  27.10650  27.10650
Angles:   90.00000  90.00000  90.00000
Rectangular boundary conditions

net charge:   0.00000000

component   0 (CO2) lambda:  0 occupancy:  1 (1.000000)
    net charge:   0.00000000 [e]

Amount of molecules per component :
-------------------------------------------------------------------------------
Component 0 (CO2)
    molecules:         1.500000e+02 molecules
    number density:    7.531320e-03 molec/A^3
    density:           5.502512e+02 kg/m^3

Total potential energy/kʙ       -1.424765e+05 [K]
-------------------------------------------------------------------------------
    external field VDW/kʙ        0.000000e+00 [K]
    external field Real/kʙ       0.000000e+00 [K]
    framework-molecule VDW/kʙ    0.000000e+00 [K]
    framework-molecule Real/kʙ   0.000000e+00 [K]
    molecule-molecule VDW/kʙ    -1.039806e+05 [K]
    molecule-molecule Real/kʙ   -2.778151e+04 [K]
    Van der Waals (Tail)/kʙ     -3.624692e+03 [K]
    Ewald Fourier/kʙ             1.470665e+04 [K]
    Ewald self/kʙ               -3.334385e+06 [K]
    Ewald exclusion/kʙ           3.312589e+06 [K]
    intra VDW/kʙ                 0.000000e+00 [K]
    intra Coulombic/kʙ           0.000000e+00 [K]
    polarization/kʙ              0.000000e+00 [K]
    dU/dlambda VDW/kʙ            0.000000e+00 [K]
    dU/dlambda Real/kʙ           0.000000e+00 [K]
    dU/dlambda Ewald/kʙ          0.000000e+00 [K]


Initialization: Current cycle: 200 out of 1000
===============================================================================

Box:      26.45573   0.00000   0.00000
           0.00000  26.45573   0.00000
           0.00000   0.00000  26.45573
Lengths:  26.45573  26.45573  26.45573
Angles:   90.00000  90.00000  90.00000
Rectangular boundary conditions

net charge:   0.00000000

component   0 (CO2) lambda:  0 occupancy:  1 (1.000000)
    net charge:   0.00000000 [e]

Amount of molecules per component :
-------------------------------------------------------------------------------
Component 0 (CO2)
    molecules:         1.500000e+02 molecules
    number density:    8.100881e-03 molec/A^3
    density:           5.918642e+02 kg/m^3

Total potential energy/kʙ       -1.535085e+05 [K]
-------------------------------------------------------------------------------
    external field VDW/kʙ        0.000000e+00 [K]
    external field Real/kʙ       0.000000e+00 [K]
    framework-molecule VDW/kʙ    0.000000e+00 [K]
    framework-molecule Real/kʙ   0.000000e+00 [K]
    molecule-molecule VDW/kʙ    -1.081208e+05 [K]
    molecule-molecule Real/kʙ   -3.314108e+04 [K]
    Van der Waals (Tail)/kʙ     -3.898811e+03 [K]
    Ewald Fourier/kʙ             1.344851e+04 [K]
    Ewald self/kʙ               -3.334385e+06 [K]
    Ewald exclusion/kʙ           3.312589e+06 [K]
    intra VDW/kʙ                 0.000000e+00 [K]
    intra Coulombic/kʙ           0.000000e+00 [K]
    polarization/kʙ              0.000000e+00 [K]
    dU/dlambda VDW/kʙ            0.000000e+00 [K]
    dU/dlambda Real/kʙ           0.000000e+00 [K]
    dU/dlambda Ewald/kʙ          0.000000e+00 [K]


Initialization: Current cycle: 300 out of 1000
===============================================================================

Box:      24.41141   0.00000   0.00000
           0.00000  24.41141   0.00000
           0.00000   0.00000  24.41141
Lengths:  24.41141  24.41141  24.41141
Angles:   90.00000  90.00000  90.00000
Rectangular boundary conditions

net charge:   0.00000000

component   0 (CO2) lambda:  0 occupancy:  1 (1.000000)
    net charge:   0.00000000 [e]

Amount of molecules per component :
-------------------------------------------------------------------------------
Component 0 (CO2)
    molecules:         1.500000e+02 molecules
    number density:    1.031128e-02 molec/A^3
    density:           7.533595e+02 kg/m^3

Total potential energy/kʙ       -1.739684e+05 [K]
-------------------------------------------------------------------------------
    external field VDW/kʙ        0.000000e+00 [K]
    external field Real/kʙ       0.000000e+00 [K]
    framework-molecule VDW/kʙ    0.000000e+00 [K]
    framework-molecule Real/kʙ   0.000000e+00 [K]
    molecule-molecule VDW/kʙ    -1.260531e+05 [K]
    molecule-molecule Real/kʙ   -3.391009e+04 [K]
    Van der Waals (Tail)/kʙ     -4.962635e+03 [K]
    Ewald Fourier/kʙ             1.275371e+04 [K]
    Ewald self/kʙ               -3.334385e+06 [K]
    Ewald exclusion/kʙ           3.312589e+06 [K]
    intra VDW/kʙ                 0.000000e+00 [K]
    intra Coulombic/kʙ           0.000000e+00 [K]
    polarization/kʙ              0.000000e+00 [K]
    dU/dlambda VDW/kʙ            0.000000e+00 [K]
    dU/dlambda Real/kʙ           0.000000e+00 [K]
    dU/dlambda Ewald/kʙ          0.000000e+00 [K]


Initialization: Current cycle: 400 out of 1000
===============================================================================

Box:      23.15538   0.00000   0.00000
           0.00000  23.15538   0.00000
           0.00000   0.00000  23.15538
Lengths:  23.15538  23.15538  23.15538
Angles:   90.00000  90.00000  90.00000
Rectangular boundary conditions

net charge:   0.00000000

component   0 (CO2) lambda:  0 occupancy:  1 (1.000000)
    net charge:   0.00000000 [e]

Amount of molecules per component :
-------------------------------------------------------------------------------
Component 0 (CO2)
    molecules:         1.500000e+02 molecules
    number density:    1.208191e-02 molec/A^3
    density:           8.827249e+02 kg/m^3

Total potential energy/kʙ       -1.890218e+05 [K]
-------------------------------------------------------------------------------
    external field VDW/kʙ        0.000000e+00 [K]
    external field Real/kʙ       0.000000e+00 [K]
    framework-molecule VDW/kʙ    0.000000e+00 [K]
    framework-molecule Real/kʙ   0.000000e+00 [K]
    molecule-molecule VDW/kʙ    -1.332006e+05 [K]
    molecule-molecule Real/kʙ   -3.955279e+04 [K]
    Van der Waals (Tail)/kʙ     -5.814809e+03 [K]
    Ewald Fourier/kʙ             1.134261e+04 [K]
    Ewald self/kʙ               -3.334385e+06 [K]
    Ewald exclusion/kʙ           3.312589e+06 [K]
    intra VDW/kʙ                 0.000000e+00 [K]
    intra Coulombic/kʙ           0.000000e+00 [K]
    polarization/kʙ              0.000000e+00 [K]
    dU/dlambda VDW/kʙ            0.000000e+00 [K]
    dU/dlambda Real/kʙ           0.000000e+00 [K]
    dU/dlambda Ewald/kʙ          0.000000e+00 [K]


Initialization: Current cycle: 500 out of 1000
===============================================================================

Box:      22.62504   0.00000   0.00000
           0.00000  22.62504   0.00000
           0.00000   0.00000  22.62504
Lengths:  22.62504  22.62504  22.62504
Angles:   90.00000  90.00000  90.00000
Rectangular boundary conditions

net charge:   0.00000000

component   0 (CO2) lambda:  0 occupancy:  1 (1.000000)
    net charge:   0.00000000 [e]

Amount of molecules per component :
-------------------------------------------------------------------------------
Component 0 (CO2)
    molecules:         1.500000e+02 molecules
    number density:    1.295160e-02 molec/A^3
    density:           9.462659e+02 kg/m^3

Total potential energy/kʙ       -2.005943e+05 [K]
-------------------------------------------------------------------------------
    external field VDW/kʙ        0.000000e+00 [K]
    external field Real/kʙ       0.000000e+00 [K]
    framework-molecule VDW/kʙ    0.000000e+00 [K]
    framework-molecule Real/kʙ   0.000000e+00 [K]
    molecule-molecule VDW/kʙ    -1.424938e+05 [K]
    molecule-molecule Real/kʙ   -4.172908e+04 [K]
    Van der Waals (Tail)/kʙ     -6.233376e+03 [K]
    Ewald Fourier/kʙ             1.165825e+04 [K]
    Ewald self/kʙ               -3.334385e+06 [K]
    Ewald exclusion/kʙ           3.312589e+06 [K]
    intra VDW/kʙ                 0.000000e+00 [K]
    intra Coulombic/kʙ           0.000000e+00 [K]
    polarization/kʙ              0.000000e+00 [K]
    dU/dlambda VDW/kʙ            0.000000e+00 [K]
    dU/dlambda Real/kʙ           0.000000e+00 [K]
    dU/dlambda Ewald/kʙ          0.000000e+00 [K]


Initialization: Current cycle: 600 out of 1000
===============================================================================

Box:      22.06743   0.00000   0.00000
           0.00000  22.06743   0.00000
           0.00000   0.00000  22.06743
Lengths:  22.06743  22.06743  22.06743
Angles:   90.00000  90.00000  90.00000
Rectangular boundary conditions

net charge:   0.00000000

component   0 (CO2) lambda:  0 occupancy:  1 (1.000000)
    net charge:   0.00000000 [e]

Amount of molecules per component :
-------------------------------------------------------------------------------
Component 0 (CO2)
    molecules:         1.500000e+02 molecules
    number density:    1.395842e-02 molec/A^3
    density:           1.019826e+03 kg/m^3

Total potential energy/kʙ       -2.118623e+05 [K]
-------------------------------------------------------------------------------
    external field VDW/kʙ        0.000000e+00 [K]
    external field Real/kʙ       0.000000e+00 [K]
    framework-molecule VDW/kʙ    0.000000e+00 [K]
    framework-molecule Real/kʙ   0.000000e+00 [K]
    molecule-molecule VDW/kʙ    -1.542038e+05 [K]
    molecule-molecule Real/kʙ   -4.082609e+04 [K]
    Van der Waals (Tail)/kʙ     -6.717940e+03 [K]
    Ewald Fourier/kʙ             1.168171e+04 [K]
    Ewald self/kʙ               -3.334385e+06 [K]
    Ewald exclusion/kʙ           3.312589e+06 [K]
    intra VDW/kʙ                 0.000000e+00 [K]
    intra Coulombic/kʙ           0.000000e+00 [K]
    polarization/kʙ              0.000000e+00 [K]
    dU/dlambda VDW/kʙ            0.000000e+00 [K]
    dU/dlambda Real/kʙ           0.000000e+00 [K]
    dU/dlambda Ewald/kʙ          0.000000e+00 [K]


Initialization: Current cycle: 700 out of 1000
===============================================================================

Box:      21.86097   0.00000   0.00000
           0.00000  21.86097   0.00000
           0.00000   0.00000  21.86097
Lengths:  21.86097  21.86097  21.86097
Angles:   90.00000  90.00000  90.00000
Rectangular boundary conditions

net charge:   0.00000000

component   0 (CO2) lambda:  0 occupancy:  1 (1.000000)
    net charge:   0.00000000 [e]

Amount of molecules per component :
-------------------------------------------------------------------------------
Component 0 (CO2)
    molecules:         1.500000e+02 molecules
    number density:    1.435764e-02 molec/A^3
    density:           1.048994e+03 kg/m^3

Total potential energy/kʙ       -2.229491e+05 [K]
-------------------------------------------------------------------------------
    external field VDW/kʙ        0.000000e+00 [K]
    external field Real/kʙ       0.000000e+00 [K]
    framework-molecule VDW/kʙ    0.000000e+00 [K]
    framework-molecule Real/kʙ   0.000000e+00 [K]
    molecule-molecule VDW/kʙ    -1.608809e+05 [K]
    molecule-molecule Real/kʙ   -4.498895e+04 [K]
    Van der Waals (Tail)/kʙ     -6.910081e+03 [K]
    Ewald Fourier/kʙ             1.162713e+04 [K]
    Ewald self/kʙ               -3.334385e+06 [K]
    Ewald exclusion/kʙ           3.312589e+06 [K]
    intra VDW/kʙ                 0.000000e+00 [K]
    intra Coulombic/kʙ           0.000000e+00 [K]
    polarization/kʙ              0.000000e+00 [K]
    dU/dlambda VDW/kʙ            0.000000e+00 [K]
    dU/dlambda Real/kʙ           0.000000e+00 [K]
    dU/dlambda Ewald/kʙ          0.000000e+00 [K]


Initialization: Current cycle: 800 out of 1000
===============================================================================

Box:      21.38153   0.00000   0.00000
           0.00000  21.38153   0.00000
           0.00000   0.00000  21.38153
Lengths:  21.38153  21.38153  21.38153
Angles:   90.00000  90.00000  90.00000
Rectangular boundary conditions

net charge:   0.00000000

component   0 (CO2) lambda:  0 occupancy:  1 (1.000000)
    net charge:   0.00000000 [e]

Amount of molecules per component :
-------------------------------------------------------------------------------
Component 0 (CO2)
    molecules:         1.500000e+02 molecules
    number density:    1.534529e-02 molec/A^3
    density:           1.121153e+03 kg/m^3

Total potential energy/kʙ       -2.448607e+05 [K]
-------------------------------------------------------------------------------
    external field VDW/kʙ        0.000000e+00 [K]
    external field Real/kʙ       0.000000e+00 [K]
    framework-molecule VDW/kʙ    0.000000e+00 [K]
    framework-molecule Real/kʙ   0.000000e+00 [K]
    molecule-molecule VDW/kʙ    -1.711478e+05 [K]
    molecule-molecule Real/kʙ   -5.461508e+04 [K]
    Van der Waals (Tail)/kʙ     -7.385416e+03 [K]
    Ewald Fourier/kʙ             1.008384e+04 [K]
    Ewald self/kʙ               -3.334385e+06 [K]
    Ewald exclusion/kʙ           3.312589e+06 [K]
    intra VDW/kʙ                 0.000000e+00 [K]
    intra Coulombic/kʙ           0.000000e+00 [K]
    polarization/kʙ              0.000000e+00 [K]
    dU/dlambda VDW/kʙ            0.000000e+00 [K]
    dU/dlambda Real/kʙ           0.000000e+00 [K]
    dU/dlambda Ewald/kʙ          0.000000e+00 [K]


Initialization: Current cycle: 900 out of 1000
===============================================================================

Box:      21.57821   0.00000   0.00000
           0.00000  21.57821   0.00000
           0.00000   0.00000  21.57821
Lengths:  21.57821  21.57821  21.57821
Angles:   90.00000  90.00000  90.00000
Rectangular boundary conditions

net charge:   0.00000000

component   0 (CO2) lambda:  0 occupancy:  1 (1.000000)
    net charge:   0.00000000 [e]

Amount of molecules per component :
-------------------------------------------------------------------------------
Component 0 (CO2)
    molecules:         1.500000e+02 molecules
    number density:    1.492949e-02 molec/A^3
    density:           1.090774e+03 kg/m^3

Total potential energy/kʙ       -2.364957e+05 [K]
-------------------------------------------------------------------------------
    external field VDW/kʙ        0.000000e+00 [K]
    external field Real/kʙ       0.000000e+00 [K]
    framework-molecule VDW/kʙ    0.000000e+00 [K]
    framework-molecule Real/kʙ   0.000000e+00 [K]
    molecule-molecule VDW/kʙ    -1.623678e+05 [K]
    molecule-molecule Real/kʙ   -5.410520e+04 [K]
    Van der Waals (Tail)/kʙ     -7.185301e+03 [K]
    Ewald Fourier/kʙ             8.958902e+03 [K]
    Ewald self/kʙ               -3.334385e+06 [K]
    Ewald exclusion/kʙ           3.312589e+06 [K]
    intra VDW/kʙ                 0.000000e+00 [K]
    intra Coulombic/kʙ           0.000000e+00 [K]
    polarization/kʙ              0.000000e+00 [K]
    dU/dlambda VDW/kʙ            0.000000e+00 [K]
    dU/dlambda Real/kʙ           0.000000e+00 [K]
    dU/dlambda Ewald/kʙ          0.000000e+00 [K]


Current cycle: 0 out of 5000
===============================================================================

Box:      21.66864   0.00000   0.00000  Average:  21.66864   0.00000   0.00000
           0.00000  21.66864   0.00000             0.00000  21.66864   0.00000
           0.00000   0.00000  21.66864             0.00000   0.00000  21.66864
Lengths:  21.66864  21.66864  21.66864  Average:  21.66864  21.66864  21.66864
Angles:   90.00000  90.00000  90.00000  Average:  90.00000  90.00000  90.00000
Rectangular boundary conditions

net charge:   0.00000000

component 0 (CO2) lambda:  0 occupancy:  1 (1.000000)
    net charge:   0.00000000 [e]

Amount of molecules per component :
-------------------------------------------------------------------------------
Component 0 (CO2)
    molecules:      1.500000e+02 molecules  (1.500000e+02 +/- 0.000000e+00)
    number density: 1.474335e-02 molec./A^3 (1.474335e-02 +/- 0.000000e+00)
    density:        1.077175e+03 kg/m^3     (1.077175e+03 +/- 0.000000e+00)

Average pressure tensor: 
-------------------------------------------------------------------------------
 5.0889e+02  0.0000e+00  0.0000e+00 +/- 0.0000e+00 0.0000e+00 0.0000e+00 [bar]
 0.0000e+00  5.0889e+02  0.0000e+00 +/- 0.0000e+00 0.0000e+00 0.0000e+00 [bar]
 0.0000e+00  0.0000e+00  5.0889e+02 +/- 0.0000e+00 0.0000e+00 0.0000e+00 [bar]
Ideal-gas pressure:   5.088854e+02 +/ 0.000000e+00 [bar]
Excess pressure:      0.000000e+00 +/ 0.000000e+00 [bar]
Pressure:             5.088854e+02 +/ 0.000000e+00 [bar]

Total potential energy/kʙ  -2.330160e+05 (-2.330160e+05 +/- 0.000000e+00) [K]
-------------------------------------------------------------------------------
ExternalField-molecule
    Van der Waals/kʙ        0.000000e+00 ( 0.000000e+00 +/- 0.000000e+00) [K]
Framework-molecule
    Van der Waals/kʙ        0.000000e+00 ( 0.000000e+00 +/- 0.000000e+00) [K]
    Van der Waals (Tail)/kʙ 0.000000e+00 ( 0.000000e+00 +/- 0.000000e+00) [K]
    Coulombic Real/kʙ       0.000000e+00 ( 0.000000e+00 +/- 0.000000e+00) [K]
    Coulombic Fourier/kʙ    0.000000e+00 ( 0.000000e+00 +/- 0.000000e+00) [K]
Molecule-molecule
    Van der Waals/kʙ       -1.679799e+05 (-1.679799e+05 +/- 0.000000e+00) [K]
    Van der Waals (Tail)/kʙ-7.095717e+03 (-7.095717e+03 +/- 0.000000e+00) [K]
    Coulombic Real/kʙ      -4.690876e+04 (-4.690876e+04 +/- 0.000000e+00) [K]
    Coulombic Fourier/kʙ   -1.103157e+04 (-1.103157e+04 +/- 0.000000e+00) [K]
    Molecule Intra/kʙ       0.000000e+00 ( 0.000000e+00 +/- 0.000000e+00) [K]

Current cycle: 100 out of 5000
===============================================================================

Box:      22.17469   0.00000   0.00000  Average:  21.95540   0.00000   0.00000
           0.00000  22.17469   0.00000             0.00000  21.95540   0.00000
           0.00000   0.00000  22.17469             0.00000   0.00000  21.95540
Lengths:  22.17469  22.17469  22.17469  Average:  21.95540  21.95540  21.95540
Angles:   90.00000  90.00000  90.00000  Average:  90.00000  90.00000  90.00000
Rectangular boundary conditions

net charge:   0.00000000

component 0 (CO2) lambda:  0 occupancy:  1 (1.000000)
    net charge:   0.00000000 [e]

Amount of molecules per component :
-------------------------------------------------------------------------------
Component 0 (CO2)
    molecules:      1.500000e+02 molecules  (1.500000e+02 +/- 0.000000e+00)
    number density: 1.375683e-02 molec./A^3 (1.418399e-02 +/- 0.000000e+00)
    density:        1.005097e+03 kg/m^3     (1.036306e+03 +/- 0.000000e+00)

Average pressure tensor: 
-------------------------------------------------------------------------------
-1.2936e+02 -8.0663e+00  4.3537e+01 +/- 0.0000e+00 0.0000e+00 0.0000e+00 [bar]
-8.0663e+00  3.1799e+02 -1.2093e+02 +/- 0.0000e+00 0.0000e+00 0.0000e+00 [bar]
 4.3537e+01 -1.2093e+02 -1.6769e+01 +/- 0.0000e+00 0.0000e+00 0.0000e+00 [bar]
Ideal-gas pressure:   4.895782e+02 +/ 0.000000e+00 [bar]
Excess pressure:     -4.322909e+02 +/ 0.000000e+00 [bar]
Pressure:             5.728733e+01 +/ 0.000000e+00 [bar]

Total potential energy/kʙ  -2.176301e+05 (-2.239995e+05 +/- 0.000000e+00) [K]
-------------------------------------------------------------------------------
ExternalField-molecule
    Van der Waals/kʙ        0.000000e+00 ( 0.000000e+00 +/- 0.000000e+00) [K]
Framework-molecule
    Van der Waals/kʙ        0.000000e+00 ( 0.000000e+00 +/- 0.000000e+00) [K]
    Van der Waals (Tail)/kʙ 0.000000e+00 ( 0.000000e+00 +/- 0.000000e+00) [K]
    Coulombic Real/kʙ       0.000000e+00 ( 0.000000e+00 +/- 0.000000e+00) [K]
    Coulombic Fourier/kʙ    0.000000e+00 ( 0.000000e+00 +/- 0.000000e+00) [K]
Molecule-molecule
    Van der Waals/kʙ       -1.522669e+05 (-1.591214e+05 +/- 0.000000e+00) [K]
    Van der Waals (Tail)/kʙ-6.620919e+03 (-6.830593e+03 +/- 0.000000e+00) [K]
    Coulombic Real/kʙ      -4.755662e+04 (-4.693082e+04 +/- 0.000000e+00) [K]
    Coulombic Fourier/kʙ   -1.118566e+04 (-1.111676e+04 +/- 0.000000e+00) [K]
    Molecule Intra/kʙ       0.000000e+00 ( 0.000000e+00 +/- 0.000000e+00) [K]

Current cycle: 200 out of 5000
===============================================================================

Box:      21.88444   0.00000   0.00000  Average:  21.94895   0.00000   0.00000
           0.00000  21.88444   0.00000             0.00000  21.94895   0.00000
           0.00000   0.00000  21.88444             0.00000   0.00000  21.94895
Lengths:  21.88444  21.88444  21.88444  Average:  21.94895  21.94895  21.94895
Angles:   90.00000  90.00000  90.00000  Average:  90.00000  90.00000  90.00000
Rectangular boundary conditions

net charge:   0.00000000

component 0 (CO2) lambda:  0 occupancy:  1 (1.000000)
    net charge:   0.00000000 [e]

Amount of molecules per component :
-------------------------------------------------------------------------------
Component 0 (CO2)
    molecules:      1.500000e+02 molecules  (1.500000e+02 +/- 0.000000e+00)
    number density: 1.431149e-02 molec./A^3 (1.419307e-02 +/- 0.000000e+00)
    density:        1.045622e+03 kg/m^3     (1.036970e+03 +/- 0.000000e+00)

Average pressure tensor: 
-------------------------------------------------------------------------------
-9.4802e+01 -4.9096e+01  5.0116e+01 +/- 0.0000e+00 0.0000e+00 0.0000e+00 [bar]
-4.9096e+01  2.2531e+02 -5.2953e+01 +/- 0.0000e+00 0.0000e+00 0.0000e+00 [bar]
 5.0116e+01 -5.2953e+01  7.1167e+01 +/- 0.0000e+00 0.0000e+00 0.0000e+00 [bar]
Ideal-gas pressure:   4.898918e+02 +/ 0.000000e+00 [bar]
Excess pressure:     -4.226684e+02 +/ 0.000000e+00 [bar]
Pressure:             6.722341e+01 +/ 0.000000e+00 [bar]

Total potential energy/kʙ  -2.309298e+05 (-2.240149e+05 +/- 0.000000e+00) [K]
-------------------------------------------------------------------------------
ExternalField-molecule
    Van der Waals/kʙ        0.000000e+00 ( 0.000000e+00 +/- 0.000000e+00) [K]
Framework-molecule
    Van der Waals/kʙ        0.000000e+00 ( 0.000000e+00 +/- 0.000000e+00) [K]
    Van der Waals (Tail)/kʙ 0.000000e+00 ( 0.000000e+00 +/- 0.000000e+00) [K]
    Coulombic Real/kʙ       0.000000e+00 ( 0.000000e+00 +/- 0.000000e+00) [K]
    Coulombic Fourier/kʙ    0.000000e+00 ( 0.000000e+00 +/- 0.000000e+00) [K]
Molecule-molecule
    Van der Waals/kʙ       -1.676578e+05 (-1.595548e+05 +/- 0.000000e+00) [K]
    Van der Waals (Tail)/kʙ-6.887867e+03 (-6.837762e+03 +/- 0.000000e+00) [K]
    Coulombic Real/kʙ      -4.472020e+04 (-4.643808e+04 +/- 0.000000e+00) [K]
    Coulombic Fourier/kʙ   -1.166394e+04 (-1.118434e+04 +/- 0.000000e+00) [K]
    Molecule Intra/kʙ       0.000000e+00 ( 0.000000e+00 +/- 0.000000e+00) [K]

Current cycle: 300 out of 5000
===============================================================================

Box:      21.80503   0.00000   0.00000  Average:  21.90731   0.00000   0.00000
           0.00000  21.80503   0.00000             0.00000  21.90731   0.00000
           0.00000   0.00000  21.80503             0.00000   0.00000  21.90731
Lengths:  21.80503  21.80503  21.80503  Average:  21.90731  21.90731  21.90731
Angles:   90.00000  90.00000  90.00000  Average:  90.00000  90.00000  90.00000
Rectangular boundary conditions

net charge:   0.00000000

component 0 (CO2) lambda:  0 occupancy:  1 (1.000000)
    net charge:   0.00000000 [e]

Amount of molecules per component :
-------------------------------------------------------------------------------
Component 0 (CO2)
    molecules:      1.500000e+02 molecules  (1.500000e+02 +/- 0.000000e+00)
    number density: 1.446842e-02 molec./A^3 (1.427276e-02 +/- 0.000000e+00)
    density:        1.057087e+03 kg/m^3     (1.042792e+03 +/- 0.000000e+00)

Average pressure tensor: 
-------------------------------------------------------------------------------
-5.2857e+01 -6.7383e+01  2.8950e+01 +/- 0.0000e+00 0.0000e+00 0.0000e+00 [bar]
-6.7383e+01  1.4572e+02  4.5985e+01 +/- 0.0000e+00 0.0000e+00 0.0000e+00 [bar]
 2.8950e+01  4.5985e+01  8.7229e+01 +/- 0.0000e+00 0.0000e+00 0.0000e+00 [bar]
Ideal-gas pressure:   4.926422e+02 +/ 0.000000e+00 [bar]
Excess pressure:     -4.326101e+02 +/ 0.000000e+00 [bar]
Pressure:             6.003217e+01 +/ 0.000000e+00 [bar]

Total potential energy/kʙ  -2.345727e+05 (-2.260340e+05 +/- 0.000000e+00) [K]
-------------------------------------------------------------------------------
ExternalField-molecule
    Van der Waals/kʙ        0.000000e+00 ( 0.000000e+00 +/- 0.000000e+00) [K]
Framework-molecule
    Van der Waals/kʙ        0.000000e+00 ( 0.000000e+00 +/- 0.000000e+00) [K]
    Van der Waals (Tail)/kʙ 0.000000e+00 ( 0.000000e+00 +/- 0.000000e+00) [K]
    Coulombic Real/kʙ       0.000000e+00 ( 0.000000e+00 +/- 0.000000e+00) [K]
    Coulombic Fourier/kʙ    0.000000e+00 ( 0.000000e+00 +/- 0.000000e+00) [K]
Molecule-molecule
    Van der Waals/kʙ       -1.639382e+05 (-1.603864e+05 +/- 0.000000e+00) [K]
    Van der Waals (Tail)/kʙ-6.963394e+03 (-6.874517e+03 +/- 0.000000e+00) [K]
    Coulombic Real/kʙ      -5.171570e+04 (-4.746196e+04 +/- 0.000000e+00) [K]
    Coulombic Fourier/kʙ   -1.195538e+04 (-1.131112e+04 +/- 0.000000e+00) [K]
    Molecule Intra/kʙ       0.000000e+00 ( 0.000000e+00 +/- 0.000000e+00) [K]

Current cycle: 400 out of 5000
===============================================================================

Box:      21.80104   0.00000   0.00000  Average:  21.87930   0.00000   0.00000
           0.00000  21.80104   0.00000             0.00000  21.87930   0.00000
           0.00000   0.00000  21.80104             0.00000   0.00000  21.87930
Lengths:  21.80104  21.80104  21.80104  Average:  21.87930  21.87930  21.87930
Angles:   90.00000  90.00000  90.00000  Average:  90.00000  90.00000  90.00000
Rectangular boundary conditions

net charge:   0.00000000

component 0 (CO2) lambda:  0 occupancy:  1 (1.000000)
    net charge:   0.00000000 [e]

Amount of molecules per component :
-------------------------------------------------------------------------------
Component 0 (CO2)
    molecules:      1.500000e+02 molecules  (1.500000e+02 +/- 0.000000e+00)
    number density: 1.447636e-02 molec./A^3 (1.432827e-02 +/- 0.000000e+00)
    density:        1.057668e+03 kg/m^3     (1.046848e+03 +/- 0.000000e+00)

Average pressure tensor: 
-------------------------------------------------------------------------------
 4.9269e+01 -5.7918e+01 -2.8968e+01 +/- 0.0000e+00 0.0000e+00 0.0000e+00 [bar]
-5.7918e+01  1.5952e+02  6.2516e+01 +/- 0.0000e+00 0.0000e+00 0.0000e+00 [bar]
-2.8968e+01  6.2516e+01  1.0973e+02 +/- 0.0000e+00 0.0000e+00 0.0000e+00 [bar]
Ideal-gas pressure:   4.945582e+02 +/ 0.000000e+00 [bar]
Excess pressure:     -3.883827e+02 +/ 0.000000e+00 [bar]
Pressure:             1.061755e+02 +/ 0.000000e+00 [bar]

Total potential energy/kʙ  -2.325227e+05 (-2.266268e+05 +/- 0.000000e+00) [K]
-------------------------------------------------------------------------------
ExternalField-molecule
    Van der Waals/kʙ        0.000000e+00 ( 0.000000e+00 +/- 0.000000e+00) [K]
Framework-molecule
    Van der Waals/kʙ        0.000000e+00 ( 0.000000e+00 +/- 0.000000e+00) [K]
    Van der Waals (Tail)/kʙ 0.000000e+00 ( 0.000000e+00 +/- 0.000000e+00) [K]
    Coulombic Real/kʙ       0.000000e+00 ( 0.000000e+00 +/- 0.000000e+00) [K]
    Coulombic Fourier/kʙ    0.000000e+00 ( 0.000000e+00 +/- 0.000000e+00) [K]
Molecule-molecule
    Van der Waals/kʙ       -1.665785e+05 (-1.605123e+05 +/- 0.000000e+00) [K]
    Van der Waals (Tail)/kʙ-6.967217e+03 (-6.897039e+03 +/- 0.000000e+00) [K]
    Coulombic Real/kʙ      -4.669106e+04 (-4.771725e+04 +/- 0.000000e+00) [K]
    Coulombic Fourier/kʙ   -1.228595e+04 (-1.150018e+04 +/- 0.000000e+00) [K]
    Molecule Intra/kʙ       0.000000e+00 ( 0.000000e+00 +/- 0.000000e+00) [K]

Current cycle: 500 out of 5000
===============================================================================

Box:      21.79523   0.00000   0.00000  Average:  21.85670   0.00000   0.00000
           0.00000  21.79523   0.00000             0.00000  21.85670   0.00000
           0.00000   0.00000  21.79523             0.00000   0.00000  21.85670
Lengths:  21.79523  21.79523  21.79523  Average:  21.85670  21.85670  21.85670
Angles:   90.00000  90.00000  90.00000  Average:  90.00000  90.00000  90.00000
Rectangular boundary conditions

net charge:   0.00000000

component 0 (CO2) lambda:  0 occupancy:  1 (1.000000)
    net charge:   0.00000000 [e]

Amount of molecules per component :
-------------------------------------------------------------------------------
Component 0 (CO2)
    molecules:      1.500000e+02 molecules  (1.500000e+02 +/- 0.000000e+00)
    number density: 1.448795e-02 molec./A^3 (1.437209e-02 +/- 0.000000e+00)
    density:        1.058515e+03 kg/m^3     (1.050049e+03 +/- 0.000000e+00)

Average pressure tensor: 
-------------------------------------------------------------------------------
 7.3955e+01 -4.9379e+01 -4.6486e+01 +/- 0.0000e+00 0.0000e+00 0.0000e+00 [bar]
-4.9379e+01  1.4241e+02  5.2499e+01 +/- 0.0000e+00 0.0000e+00 0.0000e+00 [bar]
-4.6486e+01  5.2499e+01  1.5126e+02 +/- 0.0000e+00 0.0000e+00 0.0000e+00 [bar]
Ideal-gas pressure:   4.960707e+02 +/ 0.000000e+00 [bar]
Excess pressure:     -3.735280e+02 +/ 0.000000e+00 [bar]
Pressure:             1.225427e+02 +/ 0.000000e+00 [bar]

Total potential energy/kʙ  -2.361507e+05 (-2.272780e+05 +/- 0.000000e+00) [K]
-------------------------------------------------------------------------------
ExternalField-molecule
    Van der Waals/kʙ        0.000000e+00 ( 0.000000e+00 +/- 0.000000e+00) [K]
Framework-molecule
    Van der Waals/kʙ        0.000000e+00 ( 0.000000e+00 +/- 0.000000e+00) [K]
    Van der Waals (Tail)/kʙ 0.000000e+00 ( 0.000000e+00 +/- 0.000000e+00) [K]
    Coulombic Real/kʙ       0.000000e+00 ( 0.000000e+00 +/- 0.000000e+00) [K]
    Coulombic Fourier/kʙ    0.000000e+00 ( 0.000000e+00 +/- 0.000000e+00) [K]
Molecule-molecule
    Van der Waals/kʙ       -1.629744e+05 (-1.610388e+05 +/- 0.000000e+00) [K]
    Van der Waals (Tail)/kʙ-6.972796e+03 (-6.921357e+03 +/- 0.000000e+00) [K]
    Coulombic Real/kʙ      -5.441207e+04 (-4.783520e+04 +/- 0.000000e+00) [K]
    Coulombic Fourier/kʙ   -1.179140e+04 (-1.148255e+04 +/- 0.000000e+00) [K]
    Molecule Intra/kʙ       0.000000e+00 ( 0.000000e+00 +/- 0.000000e+00) [K]

Current cycle: 600 out of 5000
===============================================================================

Box:      21.88973   0.00000   0.00000  Average:  21.84491   0.00000   0.00000
           0.00000  21.88973   0.00000             0.00000  21.84491   0.00000
           0.00000   0.00000  21.88973             0.00000   0.00000  21.84491
Lengths:  21.88973  21.88973  21.88973  Average:  21.84491  21.84491  21.84491
Angles:   90.00000  90.00000  90.00000  Average:  90.00000  90.00000  90.00000
Rectangular boundary conditions

net charge:   0.00000000

component 0 (CO2) lambda:  0 occupancy:  1 (1.000000)
    net charge:   0.00000000 [e]

Amount of molecules per component :
-------------------------------------------------------------------------------
Component 0 (CO2)
    molecules:      1.500000e+02 molecules  (1.500000e+02 +/- 0.000000e+00)
    number density: 1.430111e-02 molec./A^3 (1.439472e-02 +/- 0.000000e+00)
    density:        1.044864e+03 kg/m^3     (1.051703e+03 +/- 0.000000e+00)

Average pressure tensor: 
-------------------------------------------------------------------------------
 1.6017e+02 -5.8439e+01 -4.4115e+01 +/- 0.0000e+00 0.0000e+00 0.0000e+00 [bar]
-5.8439e+01  1.2114e+02  6.2192e+01 +/- 0.0000e+00 0.0000e+00 0.0000e+00 [bar]
-4.4115e+01  6.2192e+01  1.9320e+02 +/- 0.0000e+00 0.0000e+00 0.0000e+00 [bar]
Ideal-gas pressure:   4.968518e+02 +/ 0.000000e+00 [bar]
Excess pressure:     -3.386812e+02 +/ 0.000000e+00 [bar]
Pressure:             1.581705e+02 +/ 0.000000e+00 [bar]

Total potential energy/kʙ  -2.287115e+05 (-2.282585e+05 +/- 0.000000e+00) [K]
-------------------------------------------------------------------------------
ExternalField-molecule
    Van der Waals/kʙ        0.000000e+00 ( 0.000000e+00 +/- 0.000000e+00) [K]
Framework-molecule
    Van der Waals/kʙ        0.000000e+00 ( 0.000000e+00 +/- 0.000000e+00) [K]
    Van der Waals (Tail)/kʙ 0.000000e+00 ( 0.000000e+00 +/- 0.000000e+00) [K]
    Coulombic Real/kʙ       0.000000e+00 ( 0.000000e+00 +/- 0.000000e+00) [K]
    Coulombic Fourier/kʙ    0.000000e+00 ( 0.000000e+00 +/- 0.000000e+00) [K]
Molecule-molecule
    Van der Waals/kʙ       -1.645302e+05 (-1.613970e+05 +/- 0.000000e+00) [K]
    Van der Waals (Tail)/kʙ-6.882874e+03 (-6.938842e+03 +/- 0.000000e+00) [K]
    Coulombic Real/kʙ      -4.629223e+04 (-4.845228e+04 +/- 0.000000e+00) [K]
    Coulombic Fourier/kʙ   -1.100617e+04 (-1.147037e+04 +/- 0.000000e+00) [K]
    Molecule Intra/kʙ       0.000000e+00 ( 0.000000e+00 +/- 0.000000e+00) [K]

Current cycle: 700 out of 5000
===============================================================================

Box:      21.55432   0.00000   0.00000  Average:  21.80997   0.00000   0.00000
           0.00000  21.55432   0.00000             0.00000  21.80997   0.00000
           0.00000   0.00000  21.55432             0.00000   0.00000  21.80997
Lengths:  21.55432  21.55432  21.55432  Average:  21.80997  21.80997  21.80997
Angles:   90.00000  90.00000  90.00000  Average:  90.00000  90.00000  90.00000
Rectangular boundary conditions

net charge:   0.00000000

component 0 (CO2) lambda:  0 occupancy:  1 (1.000000)
    net charge:   0.00000000 [e]

Amount of molecules per component :
-------------------------------------------------------------------------------
Component 0 (CO2)
    molecules:      1.500000e+02 molecules  (1.500000e+02 +/- 0.000000e+00)
    number density: 1.497920e-02 molec./A^3 (1.446499e-02 +/- 0.000000e+00)
    density:        1.094406e+03 kg/m^3     (1.056837e+03 +/- 0.000000e+00)

Average pressure tensor: 
-------------------------------------------------------------------------------
 1.6457e+02 -5.9483e+01 -5.1096e+01 +/- 0.0000e+00 0.0000e+00 0.0000e+00 [bar]
-5.9483e+01  1.0238e+02  7.6798e+01 +/- 0.0000e+00 0.0000e+00 0.0000e+00 [bar]
-5.1096e+01  7.6798e+01  1.6698e+02 +/- 0.0000e+00 0.0000e+00 0.0000e+00 [bar]
Ideal-gas pressure:   4.992773e+02 +/ 0.000000e+00 [bar]
Excess pressure:     -3.546347e+02 +/ 0.000000e+00 [bar]
Pressure:             1.446426e+02 +/ 0.000000e+00 [bar]

Total potential energy/kʙ  -2.307004e+05 (-2.291348e+05 +/- 0.000000e+00) [K]
-------------------------------------------------------------------------------
ExternalField-molecule
    Van der Waals/kʙ        0.000000e+00 ( 0.000000e+00 +/- 0.000000e+00) [K]
Framework-molecule
    Van der Waals/kʙ        0.000000e+00 ( 0.000000e+00 +/- 0.000000e+00) [K]
    Van der Waals (Tail)/kʙ 0.000000e+00 ( 0.000000e+00 +/- 0.000000e+00) [K]
    Coulombic Real/kʙ       0.000000e+00 ( 0.000000e+00 +/- 0.000000e+00) [K]
    Coulombic Fourier/kʙ    0.000000e+00 ( 0.000000e+00 +/- 0.000000e+00) [K]
Molecule-molecule
    Van der Waals/kʙ       -1.690786e+05 (-1.624795e+05 +/- 0.000000e+00) [K]
    Van der Waals (Tail)/kʙ-7.209224e+03 (-6.972768e+03 +/- 0.000000e+00) [K]
    Coulombic Real/kʙ      -4.328352e+04 (-4.823446e+04 +/- 0.000000e+00) [K]
    Coulombic Fourier/kʙ   -1.112905e+04 (-1.144803e+04 +/- 0.000000e+00) [K]
    Molecule Intra/kʙ       0.000000e+00 ( 0.000000e+00 +/- 0.000000e+00) [K]

Current cycle: 800 out of 5000
===============================================================================

Box:      21.58444   0.00000   0.00000  Average:  21.80333   0.00000   0.00000
           0.00000  21.58444   0.00000             0.00000  21.80333   0.00000
           0.00000   0.00000  21.58444             0.00000   0.00000  21.80333
Lengths:  21.58444  21.58444  21.58444  Average:  21.80333  21.80333  21.80333
Angles:   90.00000  90.00000  90.00000  Average:  90.00000  90.00000  90.00000
Rectangular boundary conditions

net charge:   0.00000000

component 0 (CO2) lambda:  0 occupancy:  1 (1.000000)
    net charge:   0.00000000 [e]

Amount of molecules per component :
-------------------------------------------------------------------------------
Component 0 (CO2)
    molecules:      1.500000e+02 molecules  (1.500000e+02 +/- 0.000000e+00)
    number density: 1.491656e-02 molec./A^3 (1.447779e-02 +/- 0.000000e+00)
    density:        1.089830e+03 kg/m^3     (1.057772e+03 +/- 0.000000e+00)

Average pressure tensor: 
-------------------------------------------------------------------------------
 2.0118e+02 -3.2990e+01 -8.8583e+01 +/- 0.0000e+00 0.0000e+00 0.0000e+00 [bar]
-3.2990e+01  7.8372e+01  8.5188e+01 +/- 0.0000e+00 0.0000e+00 0.0000e+00 [bar]
-8.8583e+01  8.5188e+01  1.6227e+02 +/- 0.0000e+00 0.0000e+00 0.0000e+00 [bar]
Ideal-gas pressure:   4.997192e+02 +/ 0.000000e+00 [bar]
Excess pressure:     -3.524452e+02 +/ 0.000000e+00 [bar]
Pressure:             1.472740e+02 +/ 0.000000e+00 [bar]

Total potential energy/kʙ  -2.339428e+05 (-2.284908e+05 +/- 0.000000e+00) [K]
-------------------------------------------------------------------------------
ExternalField-molecule
    Van der Waals/kʙ        0.000000e+00 ( 0.000000e+00 +/- 0.000000e+00) [K]
Framework-molecule
    Van der Waals/kʙ        0.000000e+00 ( 0.000000e+00 +/- 0.000000e+00) [K]
    Van der Waals (Tail)/kʙ 0.000000e+00 ( 0.000000e+00 +/- 0.000000e+00) [K]
    Coulombic Real/kʙ       0.000000e+00 ( 0.000000e+00 +/- 0.000000e+00) [K]
    Coulombic Fourier/kʙ    0.000000e+00 ( 0.000000e+00 +/- 0.000000e+00) [K]
Molecule-molecule
    Van der Waals/kʙ       -1.665547e+05 (-1.626400e+05 +/- 0.000000e+00) [K]
    Van der Waals (Tail)/kʙ-7.179079e+03 (-6.978326e+03 +/- 0.000000e+00) [K]
    Coulombic Real/kʙ      -4.866808e+04 (-4.749149e+04 +/- 0.000000e+00) [K]
    Coulombic Fourier/kʙ   -1.154091e+04 (-1.138099e+04 +/- 0.000000e+00) [K]
    Molecule Intra/kʙ       0.000000e+00 ( 0.000000e+00 +/- 0.000000e+00) [K]

Current cycle: 900 out of 5000
===============================================================================

Box:      22.16315   0.00000   0.00000  Average:  21.81206   0.00000   0.00000
           0.00000  22.16315   0.00000             0.00000  21.81206   0.00000
           0.00000   0.00000  22.16315             0.00000   0.00000  21.81206
Lengths:  22.16315  22.16315  22.16315  Average:  21.81206  21.81206  21.81206
Angles:   90.00000  90.00000  90.00000  Average:  90.00000  90.00000  90.00000
Rectangular boundary conditions

net charge:   0.00000000

component 0 (CO2) lambda:  0 occupancy:  1 (1.000000)
    net charge:   0.00000000 [e]

Amount of molecules per component :
-------------------------------------------------------------------------------
Component 0 (CO2)
    molecules:      1.500000e+02 molecules  (1.500000e+02 +/- 0.000000e+00)
    number density: 1.377834e-02 molec./A^3 (1.446070e-02 +/- 0.000000e+00)
    density:        1.006669e+03 kg/m^3     (1.056524e+03 +/- 0.000000e+00)

Average pressure tensor: 
-------------------------------------------------------------------------------
 2.0366e+02 -2.3766e+01 -8.3261e+01 +/- 0.0000e+00 0.0000e+00 0.0000e+00 [bar]
-2.3766e+01  7.6588e+01  7.9841e+01 +/- 0.0000e+00 0.0000e+00 0.0000e+00 [bar]
-8.3261e+01  7.9841e+01  1.3128e+02 +/- 0.0000e+00 0.0000e+00 0.0000e+00 [bar]
Ideal-gas pressure:   4.991293e+02 +/ 0.000000e+00 [bar]
Excess pressure:     -3.619513e+02 +/ 0.000000e+00 [bar]
Pressure:             1.371780e+02 +/ 0.000000e+00 [bar]

Total potential energy/kʙ  -2.155737e+05 (-2.277489e+05 +/- 0.000000e+00) [K]
-------------------------------------------------------------------------------
ExternalField-molecule
    Van der Waals/kʙ        0.000000e+00 ( 0.000000e+00 +/- 0.000000e+00) [K]
Framework-molecule
    Van der Waals/kʙ        0.000000e+00 ( 0.000000e+00 +/- 0.000000e+00) [K]
    Van der Waals (Tail)/kʙ 0.000000e+00 ( 0.000000e+00 +/- 0.000000e+00) [K]
    Coulombic Real/kʙ       0.000000e+00 ( 0.000000e+00 +/- 0.000000e+00) [K]
    Coulombic Fourier/kʙ    0.000000e+00 ( 0.000000e+00 +/- 0.000000e+00) [K]
Molecule-molecule
    Van der Waals/kʙ       -1.559588e+05 (-1.624918e+05 +/- 0.000000e+00) [K]
    Van der Waals (Tail)/kʙ-6.631271e+03 (-6.966017e+03 +/- 0.000000e+00) [K]
    Coulombic Real/kʙ      -4.210571e+04 (-4.695765e+04 +/- 0.000000e+00) [K]
    Coulombic Fourier/kʙ   -1.087795e+04 (-1.133335e+04 +/- 0.000000e+00) [K]
    Molecule Intra/kʙ       0.000000e+00 ( 0.000000e+00 +/- 0.000000e+00) [K]

Current cycle: 1000 out of 5000
===============================================================================

Box:      22.03717   0.00000   0.00000  Average:  21.83573   0.00000   0.00000
           0.00000  22.03717   0.00000             0.00000  21.83573   0.00000
           0.00000   0.00000  22.03717             0.00000   0.00000  21.83573
Lengths:  22.03717  22.03717  22.03717  Average:  21.83573  21.83573  21.83573
Angles:   90.00000  90.00000  90.00000  Average:  90.00000  90.00000  90.00000
Rectangular boundary conditions

net charge:   0.00000000

component 0 (CO2) lambda:  0 occupancy:  1 (1.000000)
    net charge:   0.00000000 [e]

Amount of molecules per component :
-------------------------------------------------------------------------------
Component 0 (CO2)
    molecules:      1.500000e+02 molecules  (1.500000e+02 +/- 0.000000e+00)
    number density: 1.401600e-02 molec./A^3 (1.441424e-02 +/- 0.000000e+00)
    density:        1.024033e+03 kg/m^3     (1.053129e+03 +/- 0.000000e+00)

Average pressure tensor: 
-------------------------------------------------------------------------------
 1.8651e+02 -2.4339e+01 -8.5885e+01 +/- 0.0000e+00 0.0000e+00 0.0000e+00 [bar]
-2.4339e+01  7.9377e+01  7.6115e+01 +/- 0.0000e+00 0.0000e+00 0.0000e+00 [bar]
-8.5885e+01  7.6115e+01  1.0255e+02 +/- 0.0000e+00 0.0000e+00 0.0000e+00 [bar]
Ideal-gas pressure:   4.975255e+02 +/ 0.000000e+00 [bar]
Excess pressure:     -3.747135e+02 +/ 0.000000e+00 [bar]
Pressure:             1.228120e+02 +/ 0.000000e+00 [bar]

Total potential energy/kʙ  -2.138312e+05 (-2.268147e+05 +/- 0.000000e+00) [K]
-------------------------------------------------------------------------------
ExternalField-molecule
    Van der Waals/kʙ        0.000000e+00 ( 0.000000e+00 +/- 0.000000e+00) [K]
Framework-molecule
    Van der Waals/kʙ        0.000000e+00 ( 0.000000e+00 +/- 0.000000e+00) [K]
    Van der Waals (Tail)/kʙ 0.000000e+00 ( 0.000000e+00 +/- 0.000000e+00) [K]
    Coulombic Real/kʙ       0.000000e+00 ( 0.000000e+00 +/- 0.000000e+00) [K]
    Coulombic Fourier/kʙ    0.000000e+00 ( 0.000000e+00 +/- 0.000000e+00) [K]
Molecule-molecule
    Van der Waals/kʙ       -1.574127e+05 (-1.619293e+05 +/- 0.000000e+00) [K]
    Van der Waals (Tail)/kʙ-6.745653e+03 (-6.941480e+03 +/- 0.000000e+00) [K]
    Coulombic Real/kʙ      -3.896766e+04 (-4.662320e+04 +/- 0.000000e+00) [K]
    Coulombic Fourier/kʙ   -1.070520e+04 (-1.132067e+04 +/- 0.000000e+00) [K]
    Molecule Intra/kʙ       0.000000e+00 ( 0.000000e+00 +/- 0.000000e+00) [K]

Current cycle: 1100 out of 5000
===============================================================================

Box:      21.90180   0.00000   0.00000  Average:  21.83337   0.00000   0.00000
           0.00000  21.90180   0.00000             0.00000  21.83337   0.00000
           0.00000   0.00000  21.90180             0.00000   0.00000  21.83337
Lengths:  21.90180  21.90180  21.90180  Average:  21.83337  21.83337  21.83337
Angles:   90.00000  90.00000  90.00000  Average:  90.00000  90.00000  90.00000
Rectangular boundary conditions

net charge:   0.00000000

component 0 (CO2) lambda:  0 occupancy:  1 (1.000000)
    net charge:   0.00000000 [e]

Amount of molecules per component :
-------------------------------------------------------------------------------
Component 0 (CO2)
    molecules:      1.500000e+02 molecules  (1.500000e+02 +/- 0.000000e+00)
    number density: 1.427749e-02 molec./A^3 (1.441871e-02 +/- 0.000000e+00)
    density:        1.043138e+03 kg/m^3     (1.053455e+03 +/- 0.000000e+00)

Average pressure tensor: 
-------------------------------------------------------------------------------
 1.8620e+02 -3.1460e+01 -1.0322e+02 +/- 0.0000e+00 0.0000e+00 0.0000e+00 [bar]
-3.1460e+01  1.1844e+02  5.5308e+01 +/- 0.0000e+00 0.0000e+00 0.0000e+00 [bar]
-1.0322e+02  5.5308e+01  6.5706e+01 +/- 0.0000e+00 0.0000e+00 0.0000e+00 [bar]
Ideal-gas pressure:   4.976798e+02 +/ 0.000000e+00 [bar]
Excess pressure:     -3.742330e+02 +/ 0.000000e+00 [bar]
Pressure:             1.234468e+02 +/ 0.000000e+00 [bar]

Total potential energy/kʙ  -2.236605e+05 (-2.268422e+05 +/- 0.000000e+00) [K]
-------------------------------------------------------------------------------
ExternalField-molecule
    Van der Waals/kʙ        0.000000e+00 ( 0.000000e+00 +/- 0.000000e+00) [K]
Framework-molecule
    Van der Waals/kʙ        0.000000e+00 ( 0.000000e+00 +/- 0.000000e+00) [K]
    Van der Waals (Tail)/kʙ 0.000000e+00 ( 0.000000e+00 +/- 0.000000e+00) [K]
    Coulombic Real/kʙ       0.000000e+00 ( 0.000000e+00 +/- 0.000000e+00) [K]
    Coulombic Fourier/kʙ    0.000000e+00 ( 0.000000e+00 +/- 0.000000e+00) [K]
Molecule-molecule
    Van der Waals/kʙ       -1.595766e+05 (-1.619156e+05 +/- 0.000000e+00) [K]
    Van der Waals (Tail)/kʙ-6.871502e+03 (-6.943400e+03 +/- 0.000000e+00) [K]
    Coulombic Real/kʙ      -4.595069e+04 (-4.663626e+04 +/- 0.000000e+00) [K]
    Coulombic Fourier/kʙ   -1.126176e+04 (-1.134686e+04 +/- 0.000000e+00) [K]
    Molecule Intra/kʙ       0.000000e+00 ( 0.000000e+00 +/- 0.000000e+00) [K]

Current cycle: 1200 out of 5000
===============================================================================

Box:      21.78012   0.00000   0.00000  Average:  21.83385   0.00000   0.00000
           0.00000  21.78012   0.00000             0.00000  21.83385   0.00000
           0.00000   0.00000  21.78012             0.00000   0.00000  21.83385
Lengths:  21.78012  21.78012  21.78012  Average:  21.83385  21.83385  21.83385
Angles:   90.00000  90.00000  90.00000  Average:  90.00000  90.00000  90.00000
Rectangular boundary conditions

net charge:   0.00000000

component 0 (CO2) lambda:  0 occupancy:  1 (1.000000)
    net charge:   0.00000000 [e]

Amount of molecules per component :
-------------------------------------------------------------------------------
Component 0 (CO2)
    molecules:      1.500000e+02 molecules  (1.500000e+02 +/- 0.000000e+00)
    number density: 1.451812e-02 molec./A^3 (1.441753e-02 +/- 0.000000e+00)
    density:        1.060719e+03 kg/m^3     (1.053369e+03 +/- 0.000000e+00)

Average pressure tensor: 
-------------------------------------------------------------------------------
 1.6354e+02 -2.6870e+01 -9.2962e+01 +/- 0.0000e+00 0.0000e+00 0.0000e+00 [bar]
-2.6870e+01  9.6647e+01  6.1812e+01 +/- 0.0000e+00 0.0000e+00 0.0000e+00 [bar]
-9.2962e+01  6.1812e+01  7.0304e+01 +/- 0.0000e+00 0.0000e+00 0.0000e+00 [bar]
Ideal-gas pressure:   4.976391e+02 +/ 0.000000e+00 [bar]
Excess pressure:     -3.874742e+02 +/ 0.000000e+00 [bar]
Pressure:             1.101649e+02 +/ 0.000000e+00 [bar]

Total potential energy/kʙ  -2.372460e+05 (-2.270396e+05 +/- 0.000000e+00) [K]
-------------------------------------------------------------------------------
ExternalField-molecule
    Van der Waals/kʙ        0.000000e+00 ( 0.000000e+00 +/- 0.000000e+00) [K]
Framework-molecule
    Van der Waals/kʙ        0.000000e+00 ( 0.000000e+00 +/- 0.000000e+00) [K]
    Van der Waals (Tail)/kʙ 0.000000e+00 ( 0.000000e+00 +/- 0.000000e+00) [K]
    Coulombic Real/kʙ       0.000000e+00 ( 0.000000e+00 +/- 0.000000e+00) [K]
    Coulombic Fourier/kʙ    0.000000e+00 ( 0.000000e+00 +/- 0.000000e+00) [K]
Molecule-molecule
    Van der Waals/kʙ       -1.683655e+05 (-1.619647e+05 +/- 0.000000e+00) [K]
    Van der Waals (Tail)/kʙ-6.987315e+03 (-6.941229e+03 +/- 0.000000e+00) [K]
    Coulombic Real/kʙ      -4.973885e+04 (-4.673635e+04 +/- 0.000000e+00) [K]
    Coulombic Fourier/kʙ   -1.215431e+04 (-1.139731e+04 +/- 0.000000e+00) [K]
    Molecule Intra/kʙ       0.000000e+00 ( 0.000000e+00 +/- 0.000000e+00) [K]

Current cycle: 1300 out of 5000
===============================================================================

Box:      21.90948   0.00000   0.00000  Average:  21.83228   0.00000   0.00000
           0.00000  21.90948   0.00000             0.00000  21.83228   0.00000
           0.00000   0.00000  21.90948             0.00000   0.00000  21.83228
Lengths:  21.90948  21.90948  21.90948  Average:  21.83228  21.83228  21.83228
Angles:   90.00000  90.00000  90.00000  Average:  90.00000  90.00000  90.00000
Rectangular boundary conditions

net charge:   0.00000000

component 0 (CO2) lambda:  0 occupancy:  1 (1.000000)
    net charge:   0.00000000 [e]

Amount of molecules per component :
-------------------------------------------------------------------------------
Component 0 (CO2)
    molecules:      1.500000e+02 molecules  (1.500000e+02 +/- 0.000000e+00)
    number density: 1.426248e-02 molec./A^3 (1.442039e-02 +/- 0.000000e+00)
    density:        1.042041e+03 kg/m^3     (1.053578e+03 +/- 0.000000e+00)

Average pressure tensor: 
-------------------------------------------------------------------------------
 1.6957e+02 -1.5280e+01 -7.8602e+01 +/- 0.0000e+00 0.0000e+00 0.0000e+00 [bar]
-1.5280e+01  1.0261e+02  5.3779e+01 +/- 0.0000e+00 0.0000e+00 0.0000e+00 [bar]
-7.8602e+01  5.3779e+01  6.3974e+01 +/- 0.0000e+00 0.0000e+00 0.0000e+00 [bar]
Ideal-gas pressure:   4.977378e+02 +/ 0.000000e+00 [bar]
Excess pressure:     -3.856865e+02 +/ 0.000000e+00 [bar]
Pressure:             1.120513e+02 +/ 0.000000e+00 [bar]

Total potential energy/kʙ  -2.224379e+05 (-2.272557e+05 +/- 0.000000e+00) [K]
-------------------------------------------------------------------------------
ExternalField-molecule
    Van der Waals/kʙ        0.000000e+00 ( 0.000000e+00 +/- 0.000000e+00) [K]
Framework-molecule
    Van der Waals/kʙ        0.000000e+00 ( 0.000000e+00 +/- 0.000000e+00) [K]
    Van der Waals (Tail)/kʙ 0.000000e+00 ( 0.000000e+00 +/- 0.000000e+00) [K]
    Coulombic Real/kʙ       0.000000e+00 ( 0.000000e+00 +/- 0.000000e+00) [K]
    Coulombic Fourier/kʙ    0.000000e+00 ( 0.000000e+00 +/- 0.000000e+00) [K]
Molecule-molecule
    Van der Waals/kʙ       -1.591972e+05 (-1.619807e+05 +/- 0.000000e+00) [K]
    Van der Waals (Tail)/kʙ-6.864280e+03 (-6.943475e+03 +/- 0.000000e+00) [K]
    Coulombic Real/kʙ      -4.529039e+04 (-4.694324e+04 +/- 0.000000e+00) [K]
    Coulombic Fourier/kʙ   -1.108601e+04 (-1.138830e+04 +/- 0.000000e+00) [K]
    Molecule Intra/kʙ       0.000000e+00 ( 0.000000e+00 +/- 0.000000e+00) [K]

Current cycle: 1400 out of 5000
===============================================================================

Box:      22.06647   0.00000   0.00000  Average:  21.83966   0.00000   0.00000
           0.00000  22.06647   0.00000             0.00000  21.83966   0.00000
           0.00000   0.00000  22.06647             0.00000   0.00000  21.83966
Lengths:  22.06647  22.06647  22.06647  Average:  21.83966  21.83966  21.83966
Angles:   90.00000  90.00000  90.00000  Average:  90.00000  90.00000  90.00000
Rectangular boundary conditions

net charge:   0.00000000

component 0 (CO2) lambda:  0 occupancy:  1 (1.000000)
    net charge:   0.00000000 [e]

Amount of molecules per component :
-------------------------------------------------------------------------------
Component 0 (CO2)
    molecules:      1.500000e+02 molecules  (1.500000e+02 +/- 0.000000e+00)
    number density: 1.396024e-02 molec./A^3 (1.440554e-02 +/- 0.000000e+00)
    density:        1.019959e+03 kg/m^3     (1.052494e+03 +/- 0.000000e+00)

Average pressure tensor: 
-------------------------------------------------------------------------------
 1.4724e+02 -1.2266e+01 -8.0341e+01 +/- 0.0000e+00 0.0000e+00 0.0000e+00 [bar]
-1.2266e+01  1.1347e+02  4.7910e+01 +/- 0.0000e+00 0.0000e+00 0.0000e+00 [bar]
-8.0341e+01  4.7910e+01  4.9378e+01 +/- 0.0000e+00 0.0000e+00 0.0000e+00 [bar]
Ideal-gas pressure:   4.972254e+02 +/ 0.000000e+00 [bar]
Excess pressure:     -3.938653e+02 +/ 0.000000e+00 [bar]
Pressure:             1.033601e+02 +/ 0.000000e+00 [bar]

Total potential energy/kʙ  -2.239680e+05 (-2.271066e+05 +/- 0.000000e+00) [K]
-------------------------------------------------------------------------------
ExternalField-molecule
    Van der Waals/kʙ        0.000000e+00 ( 0.000000e+00 +/- 0.000000e+00) [K]
Framework-molecule
    Van der Waals/kʙ        0.000000e+00 ( 0.000000e+00 +/- 0.000000e+00) [K]
    Van der Waals (Tail)/kʙ 0.000000e+00 ( 0.000000e+00 +/- 0.000000e+00) [K]
    Coulombic Real/kʙ       0.000000e+00 ( 0.000000e+00 +/- 0.000000e+00) [K]
    Coulombic Fourier/kʙ    0.000000e+00 ( 0.000000e+00 +/- 0.000000e+00) [K]
Molecule-molecule
    Van der Waals/kʙ       -1.609708e+05 (-1.619869e+05 +/- 0.000000e+00) [K]
    Van der Waals (Tail)/kʙ-6.718818e+03 (-6.934955e+03 +/- 0.000000e+00) [K]
    Coulombic Real/kʙ      -4.532464e+04 (-4.681856e+04 +/- 0.000000e+00) [K]
    Coulombic Fourier/kʙ   -1.095366e+04 (-1.136619e+04 +/- 0.000000e+00) [K]
    Molecule Intra/kʙ       0.000000e+00 ( 0.000000e+00 +/- 0.000000e+00) [K]

Current cycle: 1500 out of 5000
===============================================================================

Box:      22.02943   0.00000   0.00000  Average:  21.84939   0.00000   0.00000
           0.00000  22.02943   0.00000             0.00000  21.84939   0.00000
           0.00000   0.00000  22.02943             0.00000   0.00000  21.84939
Lengths:  22.02943  22.02943  22.02943  Average:  21.84939  21.84939  21.84939
Angles:   90.00000  90.00000  90.00000  Average:  90.00000  90.00000  90.00000
Rectangular boundary conditions

net charge:   0.00000000

component 0 (CO2) lambda:  0 occupancy:  1 (1.000000)
    net charge:   0.00000000 [e]

Amount of molecules per component :
-------------------------------------------------------------------------------
Component 0 (CO2)
    molecules:      1.500000e+02 molecules  (1.500000e+02 +/- 0.000000e+00)
    number density: 1.403076e-02 molec./A^3 (1.438631e-02 +/- 0.000000e+00)
    density:        1.025112e+03 kg/m^3     (1.051088e+03 +/- 0.000000e+00)

Average pressure tensor: 
-------------------------------------------------------------------------------
 1.3407e+02 -7.9813e+00 -7.9694e+01 +/- 0.0000e+00 0.0000e+00 0.0000e+00 [bar]
-7.9813e+00  1.1676e+02  4.0537e+01 +/- 0.0000e+00 0.0000e+00 0.0000e+00 [bar]
-7.9694e+01  4.0537e+01  4.1598e+01 +/- 0.0000e+00 0.0000e+00 0.0000e+00 [bar]
Ideal-gas pressure:   4.965615e+02 +/ 0.000000e+00 [bar]
Excess pressure:     -3.990843e+02 +/ 0.000000e+00 [bar]
Pressure:             9.747715e+01 +/ 0.000000e+00 [bar]

Total potential energy/kʙ  -2.214082e+05 (-2.266271e+05 +/- 0.000000e+00) [K]
-------------------------------------------------------------------------------
ExternalField-molecule
    Van der Waals/kʙ        0.000000e+00 ( 0.000000e+00 +/- 0.000000e+00) [K]
Framework-molecule
    Van der Waals/kʙ        0.000000e+00 ( 0.000000e+00 +/- 0.000000e+00) [K]
    Van der Waals (Tail)/kʙ 0.000000e+00 ( 0.000000e+00 +/- 0.000000e+00) [K]
    Coulombic Real/kʙ       0.000000e+00 ( 0.000000e+00 +/- 0.000000e+00) [K]
    Coulombic Fourier/kʙ    0.000000e+00 ( 0.000000e+00 +/- 0.000000e+00) [K]
Molecule-molecule
    Van der Waals/kʙ       -1.595131e+05 (-1.617665e+05 +/- 0.000000e+00) [K]
    Van der Waals (Tail)/kʙ-6.752759e+03 (-6.925180e+03 +/- 0.000000e+00) [K]
    Coulombic Real/kʙ      -4.407429e+04 (-4.660478e+04 +/- 0.000000e+00) [K]
    Coulombic Fourier/kʙ   -1.106812e+04 (-1.133062e+04 +/- 0.000000e+00) [K]
    Molecule Intra/kʙ       0.000000e+00 ( 0.000000e+00 +/- 0.000000e+00) [K]

Current cycle: 1600 out of 5000
===============================================================================

Box:      22.06385   0.00000   0.00000  Average:  21.86238   0.00000   0.00000
           0.00000  22.06385   0.00000             0.00000  21.86238   0.00000
           0.00000   0.00000  22.06385             0.00000   0.00000  21.86238
Lengths:  22.06385  22.06385  22.06385  Average:  21.86238  21.86238  21.86238
Angles:   90.00000  90.00000  90.00000  Average:  90.00000  90.00000  90.00000
Rectangular boundary conditions

net charge:   0.00000000

component 0 (CO2) lambda:  0 occupancy:  1 (1.000000)
    net charge:   0.00000000 [e]

Amount of molecules per component :
-------------------------------------------------------------------------------
Component 0 (CO2)
    molecules:      1.500000e+02 molecules  (1.500000e+02 +/- 0.000000e+00)
    number density: 1.396520e-02 molec./A^3 (1.436089e-02 +/- 0.000000e+00)
    density:        1.020321e+03 kg/m^3     (1.049231e+03 +/- 0.000000e+00)

Average pressure tensor: 
-------------------------------------------------------------------------------
 1.3266e+02 -3.2474e+00 -9.0913e+01 +/- 0.0000e+00 0.0000e+00 0.0000e+00 [bar]
-3.2474e+00  9.8563e+01  3.1036e+01 +/- 0.0000e+00 0.0000e+00 0.0000e+00 [bar]
-9.0913e+01  3.1036e+01  3.8333e+01 +/- 0.0000e+00 0.0000e+00 0.0000e+00 [bar]
Ideal-gas pressure:   4.956843e+02 +/ 0.000000e+00 [bar]
Excess pressure:     -4.058336e+02 +/ 0.000000e+00 [bar]
Pressure:             8.985068e+01 +/ 0.000000e+00 [bar]

Total potential energy/kʙ  -2.194228e+05 (-2.262432e+05 +/- 0.000000e+00) [K]
-------------------------------------------------------------------------------
ExternalField-molecule
    Van der Waals/kʙ        0.000000e+00 ( 0.000000e+00 +/- 0.000000e+00) [K]
Framework-molecule
    Van der Waals/kʙ        0.000000e+00 ( 0.000000e+00 +/- 0.000000e+00) [K]
    Van der Waals (Tail)/kʙ 0.000000e+00 ( 0.000000e+00 +/- 0.000000e+00) [K]
    Coulombic Real/kʙ       0.000000e+00 ( 0.000000e+00 +/- 0.000000e+00) [K]
    Coulombic Fourier/kʙ    0.000000e+00 ( 0.000000e+00 +/- 0.000000e+00) [K]
Molecule-molecule
    Van der Waals/kʙ       -1.566975e+05 (-1.614103e+05 +/- 0.000000e+00) [K]
    Van der Waals (Tail)/kʙ-6.721205e+03 (-6.912022e+03 +/- 0.000000e+00) [K]
    Coulombic Real/kʙ      -4.503079e+04 (-4.655837e+04 +/- 0.000000e+00) [K]
    Coulombic Fourier/kʙ   -1.097326e+04 (-1.136250e+04 +/- 0.000000e+00) [K]
    Molecule Intra/kʙ       0.000000e+00 ( 0.000000e+00 +/- 0.000000e+00) [K]

Current cycle: 1700 out of 5000
===============================================================================

Box:      22.16045   0.00000   0.00000  Average:  21.87607   0.00000   0.00000
           0.00000  22.16045   0.00000             0.00000  21.87607   0.00000
           0.00000   0.00000  22.16045             0.00000   0.00000  21.87607
Lengths:  22.16045  22.16045  22.16045  Average:  21.87607  21.87607  21.87607
Angles:   90.00000  90.00000  90.00000  Average:  90.00000  90.00000  90.00000
Rectangular boundary conditions

net charge:   0.00000000

component 0 (CO2) lambda:  0 occupancy:  1 (1.000000)
    net charge:   0.00000000 [e]

Amount of molecules per component :
-------------------------------------------------------------------------------
Component 0 (CO2)
    molecules:      1.500000e+02 molecules  (1.500000e+02 +/- 0.000000e+00)
    number density: 1.378338e-02 molec./A^3 (1.433424e-02 +/- 0.000000e+00)
    density:        1.007037e+03 kg/m^3     (1.047284e+03 +/- 0.000000e+00)

Average pressure tensor: 
-------------------------------------------------------------------------------
 1.2313e+02  2.1758e+00 -9.7314e+01 +/- 0.0000e+00 0.0000e+00 0.0000e+00 [bar]
 2.1758e+00  9.7966e+01  1.6928e+01 +/- 0.0000e+00 0.0000e+00 0.0000e+00 [bar]
-9.7314e+01  1.6928e+01  3.8585e+01 +/- 0.0000e+00 0.0000e+00 0.0000e+00 [bar]
Ideal-gas pressure:   4.947642e+02 +/ 0.000000e+00 [bar]
Excess pressure:     -4.082022e+02 +/ 0.000000e+00 [bar]
Pressure:             8.656204e+01 +/ 0.000000e+00 [bar]

Total potential energy/kʙ  -2.132849e+05 (-2.258128e+05 +/- 0.000000e+00) [K]
-------------------------------------------------------------------------------
ExternalField-molecule
    Van der Waals/kʙ        0.000000e+00 ( 0.000000e+00 +/- 0.000000e+00) [K]
Framework-molecule
    Van der Waals/kʙ        0.000000e+00 ( 0.000000e+00 +/- 0.000000e+00) [K]
    Van der Waals (Tail)/kʙ 0.000000e+00 ( 0.000000e+00 +/- 0.000000e+00) [K]
    Coulombic Real/kʙ       0.000000e+00 ( 0.000000e+00 +/- 0.000000e+00) [K]
    Coulombic Fourier/kʙ    0.000000e+00 ( 0.000000e+00 +/- 0.000000e+00) [K]
Molecule-molecule
    Van der Waals/kʙ       -1.509706e+05 (-1.610856e+05 +/- 0.000000e+00) [K]
    Van der Waals (Tail)/kʙ-6.633696e+03 (-6.899011e+03 +/- 0.000000e+00) [K]
    Coulombic Real/kʙ      -4.406131e+04 (-4.645217e+04 +/- 0.000000e+00) [K]
    Coulombic Fourier/kʙ   -1.161929e+04 (-1.137612e+04 +/- 0.000000e+00) [K]
    Molecule Intra/kʙ       0.000000e+00 ( 0.000000e+00 +/- 0.000000e+00) [K]

Current cycle: 1800 out of 5000
===============================================================================

Box:      21.86460   0.00000   0.00000  Average:  21.88663   0.00000   0.00000
           0.00000  21.86460   0.00000             0.00000  21.88663   0.00000
           0.00000   0.00000  21.86460             0.00000   0.00000  21.88663
Lengths:  21.86460  21.86460  21.86460  Average:  21.88663  21.88663  21.88663
Angles:   90.00000  90.00000  90.00000  Average:  90.00000  90.00000  90.00000
Rectangular boundary conditions

net charge:   0.00000000

component 0 (CO2) lambda:  0 occupancy:  1 (1.000000)
    net charge:   0.00000000 [e]

Amount of molecules per component :
-------------------------------------------------------------------------------
Component 0 (CO2)
    molecules:      1.500000e+02 molecules  (1.500000e+02 +/- 0.000000e+00)
    number density: 1.435049e-02 molec./A^3 (1.431359e-02 +/- 0.000000e+00)
    density:        1.048471e+03 kg/m^3     (1.045776e+03 +/- 0.000000e+00)

Average pressure tensor: 
-------------------------------------------------------------------------------
 1.2088e+02 -7.5219e+00 -8.8054e+01 +/- 0.0000e+00 0.0000e+00 0.0000e+00 [bar]
-7.5219e+00  9.8460e+01  2.9557e+01 +/- 0.0000e+00 0.0000e+00 0.0000e+00 [bar]
-8.8054e+01  2.9557e+01  5.6859e+01 +/- 0.0000e+00 0.0000e+00 0.0000e+00 [bar]
Ideal-gas pressure:   4.940517e+02 +/ 0.000000e+00 [bar]
Excess pressure:     -4.019841e+02 +/ 0.000000e+00 [bar]
Pressure:             9.206759e+01 +/ 0.000000e+00 [bar]

Total potential energy/kʙ  -2.216075e+05 (-2.254330e+05 +/- 0.000000e+00) [K]
-------------------------------------------------------------------------------
ExternalField-molecule
    Van der Waals/kʙ        0.000000e+00 ( 0.000000e+00 +/- 0.000000e+00) [K]
Framework-molecule
    Van der Waals/kʙ        0.000000e+00 ( 0.000000e+00 +/- 0.000000e+00) [K]
    Van der Waals (Tail)/kʙ 0.000000e+00 ( 0.000000e+00 +/- 0.000000e+00) [K]
    Coulombic Real/kʙ       0.000000e+00 ( 0.000000e+00 +/- 0.000000e+00) [K]
    Coulombic Fourier/kʙ    0.000000e+00 ( 0.000000e+00 +/- 0.000000e+00) [K]
Molecule-molecule
    Van der Waals/kʙ       -1.626245e+05 (-1.608345e+05 +/- 0.000000e+00) [K]
    Van der Waals (Tail)/kʙ-6.906637e+03 (-6.889641e+03 +/- 0.000000e+00) [K]
    Coulombic Real/kʙ      -4.213858e+04 (-4.639150e+04 +/- 0.000000e+00) [K]
    Coulombic Fourier/kʙ   -9.937729e+03 (-1.131729e+04 +/- 0.000000e+00) [K]
    Molecule Intra/kʙ       0.000000e+00 ( 0.000000e+00 +/- 0.000000e+00) [K]

Current cycle: 1900 out of 5000
===============================================================================

Box:      22.42469   0.00000   0.00000  Average:  21.90416   0.00000   0.00000
           0.00000  22.42469   0.00000             0.00000  21.90416   0.00000
           0.00000   0.00000  22.42469             0.00000   0.00000  21.90416
Lengths:  22.42469  22.42469  22.42469  Average:  21.90416  21.90416  21.90416
Angles:   90.00000  90.00000  90.00000  Average:  90.00000  90.00000  90.00000
Rectangular boundary conditions

net charge:   0.00000000

component 0 (CO2) lambda:  0 occupancy:  1 (1.000000)
    net charge:   0.00000000 [e]

Amount of molecules per component :
-------------------------------------------------------------------------------
Component 0 (CO2)
    molecules:      1.500000e+02 molecules  (1.500000e+02 +/- 0.000000e+00)
    number density: 1.330185e-02 molec./A^3 (1.428022e-02 +/- 0.000000e+00)
    density:        9.718561e+02 kg/m^3     (1.043337e+03 +/- 0.000000e+00)

Average pressure tensor: 
-------------------------------------------------------------------------------
 1.0727e+02 -1.0928e+01 -7.4643e+01 +/- 0.0000e+00 0.0000e+00 0.0000e+00 [bar]
-1.0928e+01  9.8928e+01  3.0341e+01 +/- 0.0000e+00 0.0000e+00 0.0000e+00 [bar]
-7.4643e+01  3.0341e+01  6.1329e+01 +/- 0.0000e+00 0.0000e+00 0.0000e+00 [bar]
Ideal-gas pressure:   4.928998e+02 +/ 0.000000e+00 [bar]
Excess pressure:     -4.037256e+02 +/ 0.000000e+00 [bar]
Pressure:             8.917424e+01 +/ 0.000000e+00 [bar]

Total potential energy/kʙ  -2.110344e+05 (-2.249059e+05 +/- 0.000000e+00) [K]
-------------------------------------------------------------------------------
ExternalField-molecule
    Van der Waals/kʙ        0.000000e+00 ( 0.000000e+00 +/- 0.000000e+00) [K]
Framework-molecule
    Van der Waals/kʙ        0.000000e+00 ( 0.000000e+00 +/- 0.000000e+00) [K]
    Van der Waals (Tail)/kʙ 0.000000e+00 ( 0.000000e+00 +/- 0.000000e+00) [K]
    Coulombic Real/kʙ       0.000000e+00 ( 0.000000e+00 +/- 0.000000e+00) [K]
    Coulombic Fourier/kʙ    0.000000e+00 ( 0.000000e+00 +/- 0.000000e+00) [K]
Molecule-molecule
    Van der Waals/kʙ       -1.449534e+05 (-1.604357e+05 +/- 0.000000e+00) [K]
    Van der Waals (Tail)/kʙ-6.401947e+03 (-6.872196e+03 +/- 0.000000e+00) [K]
    Coulombic Real/kʙ      -4.761780e+04 (-4.630969e+04 +/- 0.000000e+00) [K]
    Coulombic Fourier/kʙ   -1.206118e+04 (-1.128833e+04 +/- 0.000000e+00) [K]
    Molecule Intra/kʙ       0.000000e+00 ( 0.000000e+00 +/- 0.000000e+00) [K]

Current cycle: 2000 out of 5000
===============================================================================

Box:      21.77022   0.00000   0.00000  Average:  21.91776   0.00000   0.00000
           0.00000  21.77022   0.00000             0.00000  21.91776   0.00000
           0.00000   0.00000  21.77022             0.00000   0.00000  21.91776
Lengths:  21.77022  21.77022  21.77022  Average:  21.91776  21.91776  21.91776
Angles:   90.00000  90.00000  90.00000  Average:  90.00000  90.00000  90.00000
Rectangular boundary conditions

net charge:   0.00000000

component 0 (CO2) lambda:  0 occupancy:  1 (1.000000)
    net charge:   0.00000000 [e]

Amount of molecules per component :
-------------------------------------------------------------------------------
Component 0 (CO2)
    molecules:      1.500000e+02 molecules  (1.500000e+02 +/- 0.000000e+00)
    number density: 1.453793e-02 molec./A^3 (1.425421e-02 +/- 0.000000e+00)
    density:        1.062166e+03 kg/m^3     (1.041437e+03 +/- 0.000000e+00)

Average pressure tensor: 
-------------------------------------------------------------------------------
 1.1028e+02 -1.8400e+00 -8.0068e+01 +/- 0.0000e+00 0.0000e+00 0.0000e+00 [bar]
-1.8400e+00  9.6580e+01  3.6356e+01 +/- 0.0000e+00 0.0000e+00 0.0000e+00 [bar]
-8.0068e+01  3.6356e+01  5.7151e+01 +/- 0.0000e+00 0.0000e+00 0.0000e+00 [bar]
Ideal-gas pressure:   4.920020e+02 +/ 0.000000e+00 [bar]
Excess pressure:     -4.039980e+02 +/ 0.000000e+00 [bar]
Pressure:             8.800400e+01 +/ 0.000000e+00 [bar]

Total potential energy/kʙ  -2.278975e+05 (-2.245675e+05 +/- 0.000000e+00) [K]
-------------------------------------------------------------------------------
ExternalField-molecule
    Van der Waals/kʙ        0.000000e+00 ( 0.000000e+00 +/- 0.000000e+00) [K]
Framework-molecule
    Van der Waals/kʙ        0.000000e+00 ( 0.000000e+00 +/- 0.000000e+00) [K]
    Van der Waals (Tail)/kʙ 0.000000e+00 ( 0.000000e+00 +/- 0.000000e+00) [K]
    Coulombic Real/kʙ       0.000000e+00 ( 0.000000e+00 +/- 0.000000e+00) [K]
    Coulombic Fourier/kʙ    0.000000e+00 ( 0.000000e+00 +/- 0.000000e+00) [K]
Molecule-molecule
    Van der Waals/kʙ       -1.558799e+05 (-1.601008e+05 +/- 0.000000e+00) [K]
    Van der Waals (Tail)/kʙ-6.996848e+03 (-6.862869e+03 +/- 0.000000e+00) [K]
    Coulombic Real/kʙ      -5.271447e+04 (-4.630295e+04 +/- 0.000000e+00) [K]
    Coulombic Fourier/kʙ   -1.230628e+04 (-1.130092e+04 +/- 0.000000e+00) [K]
    Molecule Intra/kʙ       0.000000e+00 ( 0.000000e+00 +/- 0.000000e+00) [K]

Current cycle: 2100 out of 5000
===============================================================================

Box:      21.60175   0.00000   0.00000  Average:  21.90656   0.00000   0.00000
           0.00000  21.60175   0.00000             0.00000  21.90656   0.00000
           0.00000   0.00000  21.60175             0.00000   0.00000  21.90656
Lengths:  21.60175  21.60175  21.60175  Average:  21.90656  21.90656  21.90656
Angles:   90.00000  90.00000  90.00000  Average:  90.00000  90.00000  90.00000
Rectangular boundary conditions

net charge:   0.00000000

component 0 (CO2) lambda:  0 occupancy:  1 (1.000000)
    net charge:   0.00000000 [e]

Amount of molecules per component :
-------------------------------------------------------------------------------
Component 0 (CO2)
    molecules:      1.500000e+02 molecules  (1.500000e+02 +/- 0.000000e+00)
    number density: 1.488075e-02 molec./A^3 (1.427631e-02 +/- 0.000000e+00)
    density:        1.087213e+03 kg/m^3     (1.043052e+03 +/- 0.000000e+00)

Average pressure tensor: 
-------------------------------------------------------------------------------
 1.1814e+02 -3.3017e+00 -7.0152e+01 +/- 0.0000e+00 0.0000e+00 0.0000e+00 [bar]
-3.3017e+00  8.4415e+01  3.9225e+01 +/- 0.0000e+00 0.0000e+00 0.0000e+00 [bar]
-7.0152e+01  3.9225e+01  5.4115e+01 +/- 0.0000e+00 0.0000e+00 0.0000e+00 [bar]
Ideal-gas pressure:   4.927649e+02 +/ 0.000000e+00 [bar]
Excess pressure:     -4.072071e+02 +/ 0.000000e+00 [bar]
Pressure:             8.555780e+01 +/ 0.000000e+00 [bar]

Total potential energy/kʙ  -2.375030e+05 (-2.248479e+05 +/- 0.000000e+00) [K]
-------------------------------------------------------------------------------
ExternalField-molecule
    Van der Waals/kʙ        0.000000e+00 ( 0.000000e+00 +/- 0.000000e+00) [K]
Framework-molecule
    Van der Waals/kʙ        0.000000e+00 ( 0.000000e+00 +/- 0.000000e+00) [K]
    Van der Waals (Tail)/kʙ 0.000000e+00 ( 0.000000e+00 +/- 0.000000e+00) [K]
[...]
    Coulombic Fourier/kʙ    0.000000e+00 ( 0.000000e+00 +/- 0.000000e+00) [K]
Molecule-molecule
    Van der Waals/kʙ       -1.696702e+05 (-1.623158e+05 +/- 3.449610e+03) [K]
    Van der Waals (Tail)/kʙ-7.049857e+03 (-6.938984e+03 +/- 1.328763e+02) [K]
    Coulombic Real/kʙ      -4.148327e+04 (-4.708342e+04 +/- 1.788696e+03) [K]
    Coulombic Fourier/kʙ   -1.211294e+04 (-1.152230e+04 +/- 3.624925e+02) [K]
    Molecule Intra/kʙ       0.000000e+00 ( 0.000000e+00 +/- 0.000000e+00) [K]

Current cycle: 4700 out of 5000
===============================================================================

Box:      21.78914   0.00000   0.00000  Average:  21.82780   0.00000   0.00000
           0.00000  21.78914   0.00000             0.00000  21.82780   0.00000
           0.00000   0.00000  21.78914             0.00000   0.00000  21.82780
Lengths:  21.78914  21.78914  21.78914  Average:  21.82780  21.82780  21.82780
Angles:   90.00000  90.00000  90.00000  Average:  90.00000  90.00000  90.00000
Rectangular boundary conditions

net charge:   0.00000000

component 0 (CO2) lambda:  0 occupancy:  1 (1.000000)
    net charge:   0.00000000 [e]

Amount of molecules per component :
-------------------------------------------------------------------------------
Component 0 (CO2)
    molecules:      1.500000e+02 molecules  (1.500000e+02 +/- 0.000000e+00)
    number density: 1.450010e-02 molec./A^3 (1.443092e-02 +/- 2.744837e-04)
    density:        1.059402e+03 kg/m^3     (1.054348e+03 +/- 2.005425e+01)

Average pressure tensor: 
-------------------------------------------------------------------------------
 1.2262e+02  1.1449e+00 -5.1407e+01 +/- 7.0895e+01 3.3901e+01 4.0421e+01 [bar]
 1.1449e+00  6.7906e+01  2.6606e+01 +/- 3.3901e+01 7.7892e+01 4.3274e+01 [bar]
-5.1407e+01  2.6606e+01  4.1776e+01 +/- 4.0421e+01 4.3274e+01 6.5373e+01 [bar]
Ideal-gas pressure:   4.981013e+02 +/ 9.474150e+00 [bar]
Excess pressure:     -4.206690e+02 +/ 4.273282e+01 [bar]
Pressure:             7.743229e+01 +/ 4.249228e+01 [bar]

Total potential energy/kʙ  -2.233904e+05 (-2.279137e+05 +/- 5.469251e+03) [K]
-------------------------------------------------------------------------------
ExternalField-molecule
    Van der Waals/kʙ        0.000000e+00 ( 0.000000e+00 +/- 0.000000e+00) [K]
Framework-molecule
    Van der Waals/kʙ        0.000000e+00 ( 0.000000e+00 +/- 0.000000e+00) [K]
    Van der Waals (Tail)/kʙ 0.000000e+00 ( 0.000000e+00 +/- 0.000000e+00) [K]
    Coulombic Real/kʙ       0.000000e+00 ( 0.000000e+00 +/- 0.000000e+00) [K]
    Coulombic Fourier/kʙ    0.000000e+00 ( 0.000000e+00 +/- 0.000000e+00) [K]
Molecule-molecule
    Van der Waals/kʙ       -1.618098e+05 (-1.623670e+05 +/- 3.430741e+03) [K]
    Van der Waals (Tail)/kʙ-6.978643e+03 (-6.942567e+03 +/- 1.308952e+02) [K]
    Coulombic Real/kʙ      -4.329286e+04 (-4.708123e+04 +/- 1.734286e+03) [K]
    Coulombic Fourier/kʙ   -1.130908e+04 (-1.152287e+04 +/- 3.610455e+02) [K]
    Molecule Intra/kʙ       0.000000e+00 ( 0.000000e+00 +/- 0.000000e+00) [K]

Current cycle: 4800 out of 5000
===============================================================================

Box:      21.95985   0.00000   0.00000  Average:  21.82769   0.00000   0.00000
           0.00000  21.95985   0.00000             0.00000  21.82769   0.00000
           0.00000   0.00000  21.95985             0.00000   0.00000  21.82769
Lengths:  21.95985  21.95985  21.95985  Average:  21.82769  21.82769  21.82769
Angles:   90.00000  90.00000  90.00000  Average:  90.00000  90.00000  90.00000
Rectangular boundary conditions

net charge:   0.00000000

component 0 (CO2) lambda:  0 occupancy:  1 (1.000000)
    net charge:   0.00000000 [e]

Amount of molecules per component :
-------------------------------------------------------------------------------
Component 0 (CO2)
    molecules:      1.500000e+02 molecules  (1.500000e+02 +/- 0.000000e+00)
    number density: 1.416456e-02 molec./A^3 (1.443101e-02 +/- 2.744512e-04)
    density:        1.034887e+03 kg/m^3     (1.054354e+03 +/- 2.005188e+01)

Average pressure tensor: 
-------------------------------------------------------------------------------
 1.2132e+02  3.7415e+00 -5.1763e+01 +/- 7.1489e+01 3.8351e+01 3.9887e+01 [bar]
 3.7415e+00  6.6668e+01  3.0430e+01 +/- 3.8351e+01 7.4926e+01 3.8218e+01 [bar]
-5.1763e+01  3.0430e+01  4.4454e+01 +/- 3.9887e+01 3.8218e+01 6.8115e+01 [bar]
Ideal-gas pressure:   4.981044e+02 +/ 9.473029e+00 [bar]
Excess pressure:     -4.206220e+02 +/ 4.192742e+01 [bar]
Pressure:             7.748241e+01 +/ 4.165291e+01 [bar]

Total potential energy/kʙ  -2.268838e+05 (-2.278984e+05 +/- 5.458221e+03) [K]
-------------------------------------------------------------------------------
ExternalField-molecule
    Van der Waals/kʙ        0.000000e+00 ( 0.000000e+00 +/- 0.000000e+00) [K]
Framework-molecule
    Van der Waals/kʙ        0.000000e+00 ( 0.000000e+00 +/- 0.000000e+00) [K]
    Van der Waals (Tail)/kʙ 0.000000e+00 ( 0.000000e+00 +/- 0.000000e+00) [K]
    Coulombic Real/kʙ       0.000000e+00 ( 0.000000e+00 +/- 0.000000e+00) [K]
    Coulombic Fourier/kʙ    0.000000e+00 ( 0.000000e+00 +/- 0.000000e+00) [K]
Molecule-molecule
    Van der Waals/kʙ       -1.634015e+05 (-1.623518e+05 +/- 3.432410e+03) [K]
    Van der Waals (Tail)/kʙ-6.817153e+03 (-6.942631e+03 +/- 1.308369e+02) [K]
    Coulombic Real/kʙ      -4.577333e+04 (-4.708239e+04 +/- 1.692827e+03) [K]
    Coulombic Fourier/kʙ   -1.089183e+04 (-1.152167e+04 +/- 3.608549e+02) [K]
    Molecule Intra/kʙ       0.000000e+00 ( 0.000000e+00 +/- 0.000000e+00) [K]

Current cycle: 4900 out of 5000
===============================================================================

Box:      21.82613   0.00000   0.00000  Average:  21.82780   0.00000   0.00000
           0.00000  21.82613   0.00000             0.00000  21.82780   0.00000
           0.00000   0.00000  21.82613             0.00000   0.00000  21.82780
Lengths:  21.82613  21.82613  21.82613  Average:  21.82780  21.82780  21.82780
Angles:   90.00000  90.00000  90.00000  Average:  90.00000  90.00000  90.00000
Rectangular boundary conditions

net charge:   0.00000000

component 0 (CO2) lambda:  0 occupancy:  1 (1.000000)
    net charge:   0.00000000 [e]

Amount of molecules per component :
-------------------------------------------------------------------------------
Component 0 (CO2)
    molecules:      1.500000e+02 molecules  (1.500000e+02 +/- 0.000000e+00)
    number density: 1.442650e-02 molec./A^3 (1.443067e-02 +/- 2.744611e-04)
    density:        1.054024e+03 kg/m^3     (1.054329e+03 +/- 2.005260e+01)

Average pressure tensor: 
-------------------------------------------------------------------------------
 1.1801e+02  3.3642e+00 -5.2599e+01 +/- 7.3902e+01 3.5428e+01 3.9355e+01 [bar]
 3.3642e+00  6.3492e+01  2.8106e+01 +/- 3.5428e+01 7.7926e+01 3.9757e+01 [bar]
-5.2599e+01  2.8106e+01  4.5058e+01 +/- 3.9355e+01 3.9757e+01 6.7381e+01 [bar]
Ideal-gas pressure:   4.980926e+02 +/ 9.473371e+00 [bar]
Excess pressure:     -4.225725e+02 +/ 4.374827e+01 [bar]
Pressure:             7.552013e+01 +/ 4.351558e+01 [bar]

Total potential energy/kʙ  -2.349796e+05 (-2.279497e+05 +/- 5.420607e+03) [K]
-------------------------------------------------------------------------------
ExternalField-molecule
    Van der Waals/kʙ        0.000000e+00 ( 0.000000e+00 +/- 0.000000e+00) [K]
Framework-molecule
    Van der Waals/kʙ        0.000000e+00 ( 0.000000e+00 +/- 0.000000e+00) [K]
    Van der Waals (Tail)/kʙ 0.000000e+00 ( 0.000000e+00 +/- 0.000000e+00) [K]
    Coulombic Real/kʙ       0.000000e+00 ( 0.000000e+00 +/- 0.000000e+00) [K]
    Coulombic Fourier/kʙ    0.000000e+00 ( 0.000000e+00 +/- 0.000000e+00) [K]
Molecule-molecule
    Van der Waals/kʙ       -1.720096e+05 (-1.623963e+05 +/- 3.427604e+03) [K]
    Van der Waals (Tail)/kʙ-6.943218e+03 (-6.942111e+03 +/- 1.308879e+02) [K]
    Coulombic Real/kʙ      -4.494957e+04 (-4.709417e+04 +/- 1.651555e+03) [K]
    Coulombic Fourier/kʙ   -1.107726e+04 (-1.151713e+04 +/- 3.621834e+02) [K]
    Molecule Intra/kʙ       0.000000e+00 ( 0.000000e+00 +/- 0.000000e+00) [K]


Energy statistics             |  Energy [K]   | Recomputed [K]|  Drift [K]    |
===============================================================================
Total potential energy/kʙ     | -2.263074e+05 | -2.263074e+05 | -4.769279e-10 |
    external field VDW/kʙ     |  0.000000e+00 |  0.000000e+00 |  0.000000e+00 |
    external field Real/kʙ    |  0.000000e+00 |  0.000000e+00 |  0.000000e+00 |
    framework-molecule VDW/kʙ |  0.000000e+00 |  0.000000e+00 |  0.000000e+00 |
    framework-molecule Real/kʙ|  0.000000e+00 |  0.000000e+00 |  0.000000e+00 |
    molecule-molecule VDW/kʙ  | -1.652945e+05 | -1.652945e+05 | -4.550505e-10 |
    molecule-molecule Real/kʙ | -4.341590e+04 | -4.341590e+04 |  0.000000e+00 |
    Van der Waals (Tail)/kʙ   | -6.906315e+03 | -6.906315e+03 |  0.000000e+00 |
    Ewald Fourier/kʙ          |  1.110559e+04 |  1.110559e+04 | -2.187743e-11 |
    Ewald self/kʙ             | -3.334385e+06 | -3.334385e+06 |  0.000000e+00 |
    Ewald exclusion/kʙ        |  3.312589e+06 |  3.312589e+06 |  0.000000e+00 |
    intra VDW/kʙ              |  0.000000e+00 |  0.000000e+00 |  0.000000e+00 |
    intra Coulombic/kʙ        |  0.000000e+00 |  0.000000e+00 |  0.000000e+00 |
    polarization/kʙ           |  0.000000e+00 |  0.000000e+00 |  0.000000e+00 |
    dU/dlambda VDW/kʙ         |  0.000000e+00 |  0.000000e+00 |  0.000000e+00 |
    dU/dlambda Real/kʙ        |  0.000000e+00 |  0.000000e+00 |  0.000000e+00 |
    dU/dlambda Ewald/kʙ       |  0.000000e+00 |  0.000000e+00 |  0.000000e+00 |
-------------------------------------------------------------------------------


Monte-Carlo moves statistics
===============================================================================

    Volume change        all:                5008
    Volume change        total:              5008
    Volume change        constructed:        5008
    Volume change        accepted:           1732
    Volume change        fraction:       0.345847
    Volume change        max-change:     0.050000

Component 0 [CO2]
    Reinsertion (CBMC)   all:              248807
    Reinsertion (CBMC)   total:            248807
    Reinsertion (CBMC)   constructed:      224021
    Reinsertion (CBMC)   accepted:           4348
    Reinsertion (CBMC)   fraction:       0.017475
    Reinsertion (CBMC)   max-change:     0.000000

    Translation          all:              247655
    Translation          total:             82433      82844      82378
    Translation          constructed:       82433      82844      82373
    Translation          accepted:          42867      47723      33185
    Translation          fraction:       0.520022   0.576059   0.402838
    Translation          max-change:     0.619048   0.521739   0.900000

    Rotation             all:              248530
    Rotation             total:             83094      82808      82628
    Rotation             constructed:       83094      82808      82628
    Rotation             accepted:          46661      42526      39259
    Rotation             fraction:       0.561545   0.513549   0.475129
    Rotation             max-change:     0.571429   0.666667   0.743802



Production run counting of the MC moves summed over systems and components
===============================================================================

Volume change                          5008 (0.6677 [%])
Reinsertion (CBMC)                   248807 (33.1743 [%])
Translation                          247655 (33.0207 [%])
Rotation                             248530 (33.1373 [%])

Production count MC-steps:           750000 [-]
               All summed:           750000 [-]
               difference:                0 [-]


Production run CPU timings of the MC moves
===============================================================================

Component 0 CO2

Rotation                             35.023856 [s]
    Ewald                            18.632164 [s]
    ExternalField-Molecule            0.010827 [s]
    Framework-Molecule                0.008587 [s]
    Molecule-Molecule                14.744699 [s]
    Overhead                          1.627579 [s]

Reinsertion (CBMC)                  118.716468 [s]
    Ewald                            16.920758 [s]
    NonEwald                        101.503240 [s]
    Overhead                          0.292470 [s]

Translation                          34.896198 [s]
    Ewald                            18.573345 [s]
    ExternalField-Molecule            0.011207 [s]
    Framework-Molecule                0.017082 [s]
    Molecule-Molecule                14.731457 [s]
    Overhead                          1.563107 [s]



Volume change                         23.494634 [s]
    Ewald                             11.447701 [s]
    NonEwald                          11.237446 [s]
    Tail                               0.656832 [s]

Property sampling                     0.252949 [s]
Energy/pressure sampling:             5.106484 [s]


Production run CPU timings of the MC moves summed over systems and components
===============================================================================


Translation                          34.896198 [s]
    Ewald                            18.573345 [s]
    ExternalField-Molecule            0.011207 [s]
    Framework-Molecule                0.017082 [s]
    Molecule-Molecule                14.731457 [s]
    Overhead                          1.563107 [s]

Rotation                             35.023856 [s]
    Ewald                            18.632164 [s]
    ExternalField-Molecule            0.010827 [s]
    Framework-Molecule                0.008587 [s]
    Molecule-Molecule                14.744699 [s]
    Overhead                          1.627579 [s]

Volume change                        23.494634 [s]
    Ewald                            11.447701 [s]
    NonEwald                         11.237446 [s]
    Tail                              0.656832 [s]
    Overhead                          0.152655 [s]

Reinsertion (CBMC)                  118.716468 [s]
    Ewald                            16.920758 [s]
    NonEwald                        101.503240 [s]
    Overhead                          0.292470 [s]

Property sampling:                    0.252949 [s]
Energy/pressure sampling:             5.106484 [s]

Production simulation time:         218.109832 [s]
                All summed:         217.490589 [s]
                  Overhead:           0.619243 [s]


Initalization simulation time:       41.563689 [s]
Equilibration simulation time:        0.000000 [s]
Production simulation time:         218.109832 [s]
Total simulation time:              259.673521 [s]


Energy averages and statistics:
===============================================================================

Framework-molecule energy:
-------------------------------------------------------------------------------



Framework-molecule energy contributions per energy type:
-------------------------------------------------------------------------------



Inter-molecular energy:
-------------------------------------------------------------------------------

    Inter-molecular energy/kʙ 0-0 [CO2-CO2]:
    ---------------------------------------------------------------------------
        Block[  0] -2.269445e+05
        Block[  1] -2.221572e+05
        Block[  2] -2.295347e+05
        Block[  3] -2.341202e+05
        Block[  4] -2.271381e+05
        -----------------------------------------------------------------------
        Average  -2.279790e+05 +/-  5.404468e+03 [K]



Inter-molecular energy contributions per energy type:
-------------------------------------------------------------------------------

    Van der Waals energy/kʙ 0-0 [CO2-CO2]:
    ---------------------------------------------------------------------------
        Block[  0] -1.619745e+05
        Block[  1] -1.582693e+05
        Block[  2] -1.635259e+05
        Block[  3] -1.658607e+05
        Block[  4] -1.625907e+05
        -----------------------------------------------------------------------
        Average  -1.624442e+05 +/-  3.428944e+03 [K]

    VDW Tail-Correction energy/kʙ 0-0 [CO2-CO2]:
    ---------------------------------------------------------------------------
        Block[  0] -6.943439e+03
        Block[  1] -6.780959e+03
        Block[  2] -6.982873e+03
        Block[  3] -7.071353e+03
        Block[  4] -6.941286e+03
        -----------------------------------------------------------------------
        Average  -6.943982e+03 +/-  1.306788e+02 [K]

    Coulomb Real energy/kʙ 0-0 [CO2-CO2]:
    ---------------------------------------------------------------------------
        Block[  0] -4.669975e+04
        Block[  1] -4.584203e+04
        Block[  2] -4.747216e+04
        Block[  3] -4.918901e+04
        Block[  4] -4.618595e+04
        -----------------------------------------------------------------------
        Average  -4.707778e+04 +/-  1.651449e+03 [K]

    Coulomb Fourier energy/kʙ 0-0 [CO2-CO2]:
    ---------------------------------------------------------------------------
        Block[  0] -1.132683e+04
        Block[  1] -1.126497e+04
        Block[  2] -1.155380e+04
        Block[  3] -1.199910e+04
        Block[  4] -1.142020e+04
        -----------------------------------------------------------------------
        Average  -1.151298e+04 +/-  3.634040e+02 [K]


Total energy/kʙ
-------------------------------------------------------------------------------
    Block[  0] -2.269445e+05
    Block[  1] -2.221572e+05
    Block[  2] -2.295347e+05
    Block[  3] -2.341202e+05
    Block[  4] -2.271381e+05
    ---------------------------------------------------------------------------
    Average  -2.279790e+05 +/-  5.404468e+03 [K]

Pressure averages and statistics:
===============================================================================

Average pressure tensor: 
-------------------------------------------------------------------------------
 1.2539e+02  1.0812e+00 -4.9407e+01 +/- 6.9596e+01 2.9952e+01 4.1246e+01 [bar]
 1.0812e+00  6.3623e+01  2.6693e+01 +/- 2.9952e+01 7.2774e+01 4.0765e+01 [bar]
-4.9407e+01  2.6693e+01  4.2244e+01 +/- 4.1246e+01 4.0765e+01 6.2866e+01 [bar]

    Block[  0]  4.975392e+07
    Block[  1]  4.864550e+07
    Block[  2]  5.013012e+07
    Block[  3]  5.074064e+07
    Block[  4]  4.984265e+07
    ---------------------------------------------------------------------------
    Ideal gas pressure   4.982257e+07 +/-  5.703617e-02 [Pa]
                         4.982257e+02 +/-  9.471085e+00 [bar]


    Block[  0] -3.749666e+07
    Block[  1] -4.328692e+07
    Block[  2] -3.990793e+07
    Block[  3] -4.571844e+07
    Block[  4] -4.416074e+07
    ---------------------------------------------------------------------------
    Excess pressure  -4.211414e+07 +/-  4.152115e+06 [Pa]
                     -4.211414e+02 +/-  4.152115e+01 [bar]


    Block[  0]  1.225727e+07
    Block[  1]  5.358581e+06
    Block[  2]  1.022219e+07
    Block[  3]  5.022202e+06
    Block[  4]  5.681911e+06
    ---------------------------------------------------------------------------
    Pressure average   7.708430e+06 +/-  4.110697e+06 [Pa]
                       7.708430e+01 +/-  4.110697e+01 [bar]


Enthalpy of adsorption
===============================================================================

No fluctuating components present.


Densities
===============================================================================

Component 0 (CO2)
    Block[  0] 150
    Block[  1] 150
    Block[  2] 150
    Block[  3] 150
    Block[  4] 150
    -----------------------------------------------------------------------
    Density average   1.500000e+02 +/-  0.000000e+00 [molecules]
    Density average   1.443452e-02 +/-  2.743949e-04 [molec/A^3]
    Density average   1.054611e+03 +/-  2.004776e+01 [kg.m⁻³]

