Compiler and run-time data
===============================================================================
RASPA 3.0.4

Random seed: 2304352173

Compiled as a 64-bits application
Compiler: gcc Ubuntu Clang 18.1.3 (1ubuntu1)
Compile Date = Mar 15 2025, Compile Time = 19:39:45

2025-06-02 13:21:36.136603
Simulation started on Mon, Jun 02
The start time was 13:21:00

Hostname:    c061
OS type:     Linux on x86_64
OS release:  6.8.0-58-generic
OS version:  #60-Ubuntu SMP PREEMPT_DYNAMIC Fri Mar 14 18:29:48 UTC 2025


Mutual consistent basic set of units:
===============================================================================

Unit of temperature: 1 [K]
Unit of length:      1e-10 [m]
Unit of time:        1e-12 [s]
Unit of mass:        1.6605402e-27 [kg]
Unit of charge:      1.60217733e-19 [C/particle]


Boltzmann constant (internal units):          0.8314464919307584 [-]
represents conversion from energy (internal units) to temperature (in Kelvin)

Derived units and their conversion factors:
===============================================================================

Unit of energy:                           1.6605402000000002e-23 [J]
Unit of energy:                           10.000008872307538 [J.mol⁻¹]
Unit of velocity:                         100 [m.s⁻¹]
Unit of force:                            1.6605402000000002e-13 [N]
Unit of diffusion:                        1.0000000000000002e-08 [m².s⁻¹]
Unit of acceleration:                     1.0000000000000002e-08 [m².s⁻¹]
Unit of torque:                           1.6605402000000002e-23 [N.m]
Unit of pressure:                         16605402 [Pa]
Unit of volume:                           1e-30 [m³]
Unit of density:                          1660.5402 [kg.m⁻³]
Unit of dynamic viscosity:                1.6605401999999997e-05 [N.s.m⁻²]
Unit of enthalpy:                         1.6605402000000002e-23 [J]
Unit of polarizability:                   1.5458657349975198e-35 [-]
Unit of Coulomb potential:                167101.08000665612 [K]
Unit of dielectric constant:              1.5458657349975193e-05 [s².C².kg⁻¹.m⁻³]
Unit of dipole moment:                    1.60217733e-29 [C.m]
Unit of Debye:                            4.803206799099162 [C.m]
Unit of electric potential:               0.00010364272224473431 [V]
Unit of electric field:                   1036427.222447343 [V.m⁻¹]
Unit of isothermal compressibility:       6.02213665167516e-08 [Pa⁻¹]
Unit of heat capacity:                    10.000008872307538 [J.mol⁻¹.K⁻¹]
Unit of volumetric expansion coefficient: 1 [K⁻¹]


Internal conversion factors:
===============================================================================

Energy (internal units) to Kelvin:      1.202724284692786 [-]
Kelvin to energy (internal units):      0.8314457542157567 [-]


System definitions
===============================================================================

Temperature:          250 [K]
Beta:                 0.0048108928702210625 [-]
Pressure:             1e+07 [Pa]
Helium void fraction: 1 [-]

Box:      30.00000   0.00000   0.00000
           0.00000  30.00000   0.00000
           0.00000   0.00000  30.00000
Lengths:  30.00000  30.00000  30.00000
Angles:   90.00000  90.00000  90.00000
Rectangular boundary conditions



Property measurement settings
===============================================================================




Pseudo-atoms
===============================================================================

  0 - C_co2    framework-atom: false
  1 - O_co2    framework-atom: false

  0 - C_co2    mass: 12.00000, charge:  0.70000
  1 - O_co2    mass: 15.99940, charge: -0.35000

  0 - C_co2    polarizability:  0.00000
  1 - O_co2    polarizability:  0.00000

  0 - J. J. Potoff et al., AIChE J. 2001, 47, 1676–1682.
  1 - J. J. Potoff et al., AIChE J. 2001, 47, 1676–1682.

Force field status
===============================================================================

Cutoff Framework-Molecule VDW:  11.00000 [Å]
Cutoff Molecule-Molecule VDW:   11.00000 [Å]
Cutoff Coulomb:                 11.00000 [Å]

Overlap-criteria VDW:           1.000000e+05 [K]

C_co2    - C_co2    Lennard-Jones p₀/kʙ:  27.00000 [K], p₁:  2.80000 [Å]
                                  shift:   0.00000 [K], tailcorrections: true
C_co2    - O_co2    Lennard-Jones p₀/kʙ:  46.18441 [K], p₁:  2.92500 [Å]
                                  shift:   0.00000 [K], tailcorrections: true
O_co2    - O_co2    Lennard-Jones p₀/kʙ:  79.00000 [K], p₁:  3.05000 [Å]
                                  shift:   0.00000 [K], tailcorrections: true

Ewald precision: 1e-06
Ewald alpha: 0.2903408740940883
Ewald k-vectors: 9 9 9


Component definitions
===============================================================================

Component 0 [CO2]

    Type: Adsorbate

    Critical temperature:  304.1282 [K]
    Critical pressure:     7377300 [Pa]
    Acentric factor:       0.22394 [-]

    Mol-fraction:                 1 [-]
    Swappable:                   false

    Mass:                         43.9988 [-]
    Bulk fluid density:           0 [-]
    Compressibility:              0 [-]
    Excess molecules:             0 [-]

    Number Of Atoms:    3
    CBMC starting bead: 0
      0: O_co2  position  0.00000 -0.00000  1.16000, charge -0.35000
      1: C_co2  position  0.00000 -0.00000  0.00000, charge  0.70000
      2: O_co2  position  0.00000 -0.00000 -1.16000, charge -0.35000
    Diagonalized inertia-vector:      43.05758528 43.05758528 0.00000000
    Translational degrees of freedom: 3
    Rotational degrees of freedom:    2
    Shape of the molecule is: 'Linear'
    Net-charge:        0.00000000 [e]

    Move probabilities:
    Translation:                   0.331126 [-]
    Random translation:            0.000000 [-]
    Rotation:                      0.331126 [-]
    Random rotation:               0.000000 [-]
    Volume change:                 0.006623 [-]
    Reinsertion (CBMC):            0.331126 [-]
    Identity change (CBMC):        0.000000 [-]
    Swap:                          0.000000 [-]
    Swap (CBMC):                   0.000000 [-]
    Swap (CFCMC):                  0.000000 [-]
    Swap (CB/CFCMC):               0.000000 [-]
    Gibbs volume:                  0.000000 [-]
    Gibbs swap (CBMC):             0.000000 [-]
    Gibbs swap (CFCMC):            0.000000 [-]
    Widom:                         0.000000 [-]
    Widom (CFCMC):                 0.000000 [-]
    Widom (CB/CFCMC):              0.000000 [-]
    Parallel tempering:            0.000000 [-]
    Hybrid MC:                     0.000000 [-]

    number of blocking-pockets: 0

    number of bonds: 0





Number of pseudo-atoms
===============================================================================

Component   0 (CO2)
-------------------------------------------------------------------------------
    index   0 (C_co2): 200 atoms
    index   1 (O_co2): 400 atoms

Total number of pseudo-atoms:
-------------------------------------------------------------------------------
    index   0 (C_co2): 200 atoms
    index   1 (O_co2): 400 atoms




Energy status Recomputed from scratch
===============================================================================

Total potential energy/kʙ       -9.294310e+04 [K]
    external field VDW/kʙ        0.000000e+00 [K]
    external field Real/kʙ       0.000000e+00 [K]
    framework-molecule VDW/kʙ    0.000000e+00 [K]
    framework-molecule Real/kʙ   0.000000e+00 [K]
    molecule-molecule VDW/kʙ    -7.299079e+04 [K]
    molecule-molecule Real/kʙ   -1.449143e+04 [K]
    Van der Waals (Tail)/kʙ     -3.571688e+03 [K]
    Ewald Fourier/kʙ             1.626391e+04 [K]
    Ewald self/kʙ               -4.023739e+06 [K]
    Ewald exclusion/kʙ           4.005586e+06 [K]
    intra VDW/kʙ                 0.000000e+00 [K]
    intra Coulombic/kʙ           0.000000e+00 [K]
    polarization/kʙ              0.000000e+00 [K]
    dU/dlambda VDW/kʙ            0.000000e+00 [K]
    dU/dlambda Real/kʙ           0.000000e+00 [K]
    dU/dlambda Ewald/kʙ          0.000000e+00 [K]





Initialization: Current cycle: 0 out of 1000
===============================================================================

Box:      30.02590   0.00000   0.00000
           0.00000  30.02590   0.00000
           0.00000   0.00000  30.02590
Lengths:  30.02590  30.02590  30.02590
Angles:   90.00000  90.00000  90.00000
Rectangular boundary conditions

net charge:   0.00000000

component   0 (CO2) lambda:  0 occupancy:  1 (1.000000)
    net charge:   0.00000000 [e]

Amount of molecules per component :
-------------------------------------------------------------------------------
Component 0 (CO2)
    molecules:         2.000000e+02 molecules
    number density:    7.388257e-03 molec/A^3
    density:           5.397987e+02 kg/m^3

Total potential energy/kʙ       -9.621659e+04 [K]
-------------------------------------------------------------------------------
    external field VDW/kʙ        0.000000e+00 [K]
    external field Real/kʙ       0.000000e+00 [K]
    framework-molecule VDW/kʙ    0.000000e+00 [K]
    framework-molecule Real/kʙ   0.000000e+00 [K]
    molecule-molecule VDW/kʙ    -7.547184e+04 [K]
    molecule-molecule Real/kʙ   -1.486099e+04 [K]
    Van der Waals (Tail)/kʙ     -3.562454e+03 [K]
    Ewald Fourier/kʙ             1.583179e+04 [K]
    Ewald self/kʙ               -4.023739e+06 [K]
    Ewald exclusion/kʙ           4.005586e+06 [K]
    intra VDW/kʙ                 0.000000e+00 [K]
    intra Coulombic/kʙ           0.000000e+00 [K]
    polarization/kʙ              0.000000e+00 [K]
    dU/dlambda VDW/kʙ            0.000000e+00 [K]
    dU/dlambda Real/kʙ           0.000000e+00 [K]
    dU/dlambda Ewald/kʙ          0.000000e+00 [K]


Initialization: Current cycle: 100 out of 1000
===============================================================================

Box:      28.09872   0.00000   0.00000
           0.00000  28.09872   0.00000
           0.00000   0.00000  28.09872
Lengths:  28.09872  28.09872  28.09872
Angles:   90.00000  90.00000  90.00000
Rectangular boundary conditions

net charge:   0.00000000

component   0 (CO2) lambda:  0 occupancy:  1 (1.000000)
    net charge:   0.00000000 [e]

Amount of molecules per component :
-------------------------------------------------------------------------------
Component 0 (CO2)
    molecules:         2.000000e+02 molecules
    number density:    9.015094e-03 molec/A^3
    density:           6.586582e+02 kg/m^3

Total potential energy/kʙ       -2.117408e+05 [K]
-------------------------------------------------------------------------------
    external field VDW/kʙ        0.000000e+00 [K]
    external field Real/kʙ       0.000000e+00 [K]
    framework-molecule VDW/kʙ    0.000000e+00 [K]
    framework-molecule Real/kʙ   0.000000e+00 [K]
    molecule-molecule VDW/kʙ    -1.553470e+05 [K]
    molecule-molecule Real/kʙ   -4.480676e+04 [K]
    Van der Waals (Tail)/kʙ     -4.346879e+03 [K]
    Ewald Fourier/kʙ             1.091294e+04 [K]
    Ewald self/kʙ               -4.023739e+06 [K]
    Ewald exclusion/kʙ           4.005586e+06 [K]
    intra VDW/kʙ                 0.000000e+00 [K]
    intra Coulombic/kʙ           0.000000e+00 [K]
    polarization/kʙ              0.000000e+00 [K]
    dU/dlambda VDW/kʙ            0.000000e+00 [K]
    dU/dlambda Real/kʙ           0.000000e+00 [K]
    dU/dlambda Ewald/kʙ          0.000000e+00 [K]


Initialization: Current cycle: 200 out of 1000
===============================================================================

Box:      26.01803   0.00000   0.00000
           0.00000  26.01803   0.00000
           0.00000   0.00000  26.01803
Lengths:  26.01803  26.01803  26.01803
Angles:   90.00000  90.00000  90.00000
Rectangular boundary conditions

net charge:   0.00000000

component   0 (CO2) lambda:  0 occupancy:  1 (1.000000)
    net charge:   0.00000000 [e]

Amount of molecules per component :
-------------------------------------------------------------------------------
Component 0 (CO2)
    molecules:         2.000000e+02 molecules
    number density:    1.135552e-02 molec/A^3
    density:           8.296534e+02 kg/m^3

Total potential energy/kʙ       -2.398427e+05 [K]
-------------------------------------------------------------------------------
    external field VDW/kʙ        0.000000e+00 [K]
    external field Real/kʙ       0.000000e+00 [K]
    framework-molecule VDW/kʙ    0.000000e+00 [K]
    framework-molecule Real/kʙ   0.000000e+00 [K]
    molecule-molecule VDW/kʙ    -1.756799e+05 [K]
    molecule-molecule Real/kʙ   -5.092436e+04 [K]
    Van der Waals (Tail)/kʙ     -5.475379e+03 [K]
    Ewald Fourier/kʙ             1.039007e+04 [K]
    Ewald self/kʙ               -4.023739e+06 [K]
    Ewald exclusion/kʙ           4.005586e+06 [K]
    intra VDW/kʙ                 0.000000e+00 [K]
    intra Coulombic/kʙ           0.000000e+00 [K]
    polarization/kʙ              0.000000e+00 [K]
    dU/dlambda VDW/kʙ            0.000000e+00 [K]
    dU/dlambda Real/kʙ           0.000000e+00 [K]
    dU/dlambda Ewald/kʙ          0.000000e+00 [K]


Initialization: Current cycle: 300 out of 1000
===============================================================================

Box:      24.85489   0.00000   0.00000
           0.00000  24.85489   0.00000
           0.00000   0.00000  24.85489
Lengths:  24.85489  24.85489  24.85489
Angles:   90.00000  90.00000  90.00000
Rectangular boundary conditions

net charge:   0.00000000

component   0 (CO2) lambda:  0 occupancy:  1 (1.000000)
    net charge:   0.00000000 [e]

Amount of molecules per component :
-------------------------------------------------------------------------------
Component 0 (CO2)
    molecules:         2.000000e+02 molecules
    number density:    1.302550e-02 molec/A^3
    density:           9.516654e+02 kg/m^3

Total potential energy/kʙ       -2.725542e+05 [K]
-------------------------------------------------------------------------------
    external field VDW/kʙ        0.000000e+00 [K]
    external field Real/kʙ       0.000000e+00 [K]
    framework-molecule VDW/kʙ    0.000000e+00 [K]
    framework-molecule Real/kʙ   0.000000e+00 [K]
    molecule-molecule VDW/kʙ    -1.953301e+05 [K]
    molecule-molecule Real/kʙ   -6.133290e+04 [K]
    Van der Waals (Tail)/kʙ     -6.280609e+03 [K]
    Ewald Fourier/kʙ             8.542542e+03 [K]
    Ewald self/kʙ               -4.023739e+06 [K]
    Ewald exclusion/kʙ           4.005586e+06 [K]
    intra VDW/kʙ                 0.000000e+00 [K]
    intra Coulombic/kʙ           0.000000e+00 [K]
    polarization/kʙ              0.000000e+00 [K]
    dU/dlambda VDW/kʙ            0.000000e+00 [K]
    dU/dlambda Real/kʙ           0.000000e+00 [K]
    dU/dlambda Ewald/kʙ          0.000000e+00 [K]


Initialization: Current cycle: 400 out of 1000
===============================================================================

Box:      24.38369   0.00000   0.00000
           0.00000  24.38369   0.00000
           0.00000   0.00000  24.38369
Lengths:  24.38369  24.38369  24.38369
Angles:   90.00000  90.00000  90.00000
Rectangular boundary conditions

net charge:   0.00000000

component   0 (CO2) lambda:  0 occupancy:  1 (1.000000)
    net charge:   0.00000000 [e]

Amount of molecules per component :
-------------------------------------------------------------------------------
Component 0 (CO2)
    molecules:         2.000000e+02 molecules
    number density:    1.379532e-02 molec/A^3
    density:           1.007910e+03 kg/m^3

Total potential energy/kʙ       -2.871751e+05 [K]
-------------------------------------------------------------------------------
    external field VDW/kʙ        0.000000e+00 [K]
    external field Real/kʙ       0.000000e+00 [K]
    framework-molecule VDW/kʙ    0.000000e+00 [K]
    framework-molecule Real/kʙ   0.000000e+00 [K]
    molecule-molecule VDW/kʙ    -2.132943e+05 [K]
    molecule-molecule Real/kʙ   -5.811198e+04 [K]
    Van der Waals (Tail)/kʙ     -6.651797e+03 [K]
    Ewald Fourier/kʙ             9.036071e+03 [K]
    Ewald self/kʙ               -4.023739e+06 [K]
    Ewald exclusion/kʙ           4.005586e+06 [K]
    intra VDW/kʙ                 0.000000e+00 [K]
    intra Coulombic/kʙ           0.000000e+00 [K]
    polarization/kʙ              0.000000e+00 [K]
    dU/dlambda VDW/kʙ            0.000000e+00 [K]
    dU/dlambda Real/kʙ           0.000000e+00 [K]
    dU/dlambda Ewald/kʙ          0.000000e+00 [K]


Initialization: Current cycle: 500 out of 1000
===============================================================================

Box:      24.15979   0.00000   0.00000
           0.00000  24.15979   0.00000
           0.00000   0.00000  24.15979
Lengths:  24.15979  24.15979  24.15979
Angles:   90.00000  90.00000  90.00000
Rectangular boundary conditions

net charge:   0.00000000

component   0 (CO2) lambda:  0 occupancy:  1 (1.000000)
    net charge:   0.00000000 [e]

Amount of molecules per component :
-------------------------------------------------------------------------------
Component 0 (CO2)
    molecules:         2.000000e+02 molecules
    number density:    1.418242e-02 molec/A^3
    density:           1.036192e+03 kg/m^3

Total potential energy/kʙ       -3.070304e+05 [K]
-------------------------------------------------------------------------------
    external field VDW/kʙ        0.000000e+00 [K]
    external field Real/kʙ       0.000000e+00 [K]
    framework-molecule VDW/kʙ    0.000000e+00 [K]
    framework-molecule Real/kʙ   0.000000e+00 [K]
    molecule-molecule VDW/kʙ    -2.184015e+05 [K]
    molecule-molecule Real/kʙ   -7.118312e+04 [K]
    Van der Waals (Tail)/kʙ     -6.838449e+03 [K]
    Ewald Fourier/kʙ             7.545831e+03 [K]
    Ewald self/kʙ               -4.023739e+06 [K]
    Ewald exclusion/kʙ           4.005586e+06 [K]
    intra VDW/kʙ                 0.000000e+00 [K]
    intra Coulombic/kʙ           0.000000e+00 [K]
    polarization/kʙ              0.000000e+00 [K]
    dU/dlambda VDW/kʙ            0.000000e+00 [K]
    dU/dlambda Real/kʙ           0.000000e+00 [K]
    dU/dlambda Ewald/kʙ          0.000000e+00 [K]


Initialization: Current cycle: 600 out of 1000
===============================================================================

Box:      24.34751   0.00000   0.00000
           0.00000  24.34751   0.00000
           0.00000   0.00000  24.34751
Lengths:  24.34751  24.34751  24.34751
Angles:   90.00000  90.00000  90.00000
Rectangular boundary conditions

net charge:   0.00000000

component   0 (CO2) lambda:  0 occupancy:  1 (1.000000)
    net charge:   0.00000000 [e]

Amount of molecules per component :
-------------------------------------------------------------------------------
Component 0 (CO2)
    molecules:         2.000000e+02 molecules
    number density:    1.385691e-02 molec/A^3
    density:           1.012410e+03 kg/m^3

Total potential energy/kʙ       -2.886082e+05 [K]
-------------------------------------------------------------------------------
    external field VDW/kʙ        0.000000e+00 [K]
    external field Real/kʙ       0.000000e+00 [K]
    framework-molecule VDW/kʙ    0.000000e+00 [K]
    framework-molecule Real/kʙ   0.000000e+00 [K]
    molecule-molecule VDW/kʙ    -2.100457e+05 [K]
    molecule-molecule Real/kʙ   -6.286459e+04 [K]
    Van der Waals (Tail)/kʙ     -6.681497e+03 [K]
    Ewald Fourier/kʙ             9.136616e+03 [K]
    Ewald self/kʙ               -4.023739e+06 [K]
    Ewald exclusion/kʙ           4.005586e+06 [K]
    intra VDW/kʙ                 0.000000e+00 [K]
    intra Coulombic/kʙ           0.000000e+00 [K]
    polarization/kʙ              0.000000e+00 [K]
    dU/dlambda VDW/kʙ            0.000000e+00 [K]
    dU/dlambda Real/kʙ           0.000000e+00 [K]
    dU/dlambda Ewald/kʙ          0.000000e+00 [K]


Initialization: Current cycle: 700 out of 1000
===============================================================================

Box:      24.26871   0.00000   0.00000
           0.00000  24.26871   0.00000
           0.00000   0.00000  24.26871
Lengths:  24.26871  24.26871  24.26871
Angles:   90.00000  90.00000  90.00000
Rectangular boundary conditions

net charge:   0.00000000

component   0 (CO2) lambda:  0 occupancy:  1 (1.000000)
    net charge:   0.00000000 [e]

Amount of molecules per component :
-------------------------------------------------------------------------------
Component 0 (CO2)
    molecules:         2.000000e+02 molecules
    number density:    1.399232e-02 molec/A^3
    density:           1.022303e+03 kg/m^3

Total potential energy/kʙ       -2.872553e+05 [K]
-------------------------------------------------------------------------------
    external field VDW/kʙ        0.000000e+00 [K]
    external field Real/kʙ       0.000000e+00 [K]
    framework-molecule VDW/kʙ    0.000000e+00 [K]
    framework-molecule Real/kʙ   0.000000e+00 [K]
    molecule-molecule VDW/kʙ    -2.104637e+05 [K]
    molecule-molecule Real/kʙ   -6.109083e+04 [K]
    Van der Waals (Tail)/kʙ     -6.746787e+03 [K]
    Ewald Fourier/kʙ             9.199159e+03 [K]
    Ewald self/kʙ               -4.023739e+06 [K]
    Ewald exclusion/kʙ           4.005586e+06 [K]
    intra VDW/kʙ                 0.000000e+00 [K]
    intra Coulombic/kʙ           0.000000e+00 [K]
    polarization/kʙ              0.000000e+00 [K]
    dU/dlambda VDW/kʙ            0.000000e+00 [K]
    dU/dlambda Real/kʙ           0.000000e+00 [K]
    dU/dlambda Ewald/kʙ          0.000000e+00 [K]


Initialization: Current cycle: 800 out of 1000
===============================================================================

Box:      24.14439   0.00000   0.00000
           0.00000  24.14439   0.00000
           0.00000   0.00000  24.14439
Lengths:  24.14439  24.14439  24.14439
Angles:   90.00000  90.00000  90.00000
Rectangular boundary conditions

net charge:   0.00000000

component   0 (CO2) lambda:  0 occupancy:  1 (1.000000)
    net charge:   0.00000000 [e]

Amount of molecules per component :
-------------------------------------------------------------------------------
Component 0 (CO2)
    molecules:         2.000000e+02 molecules
    number density:    1.420958e-02 molec/A^3
    density:           1.038176e+03 kg/m^3

Total potential energy/kʙ       -2.872689e+05 [K]
-------------------------------------------------------------------------------
    external field VDW/kʙ        0.000000e+00 [K]
    external field Real/kʙ       0.000000e+00 [K]
    framework-molecule VDW/kʙ    0.000000e+00 [K]
    framework-molecule Real/kʙ   0.000000e+00 [K]
    molecule-molecule VDW/kʙ    -2.104068e+05 [K]
    molecule-molecule Real/kʙ   -6.074993e+04 [K]
    Van der Waals (Tail)/kʙ     -6.851543e+03 [K]
    Ewald Fourier/kʙ             8.892385e+03 [K]
    Ewald self/kʙ               -4.023739e+06 [K]
    Ewald exclusion/kʙ           4.005586e+06 [K]
    intra VDW/kʙ                 0.000000e+00 [K]
    intra Coulombic/kʙ           0.000000e+00 [K]
    polarization/kʙ              0.000000e+00 [K]
    dU/dlambda VDW/kʙ            0.000000e+00 [K]
    dU/dlambda Real/kʙ           0.000000e+00 [K]
    dU/dlambda Ewald/kʙ          0.000000e+00 [K]


Initialization: Current cycle: 900 out of 1000
===============================================================================

Box:      23.93017   0.00000   0.00000
           0.00000  23.93017   0.00000
           0.00000   0.00000  23.93017
Lengths:  23.93017  23.93017  23.93017
Angles:   90.00000  90.00000  90.00000
Rectangular boundary conditions

net charge:   0.00000000

component   0 (CO2) lambda:  0 occupancy:  1 (1.000000)
    net charge:   0.00000000 [e]

Amount of molecules per component :
-------------------------------------------------------------------------------
Component 0 (CO2)
    molecules:         2.000000e+02 molecules
    number density:    1.459462e-02 molec/A^3
    density:           1.066308e+03 kg/m^3

Total potential energy/kʙ       -3.073539e+05 [K]
-------------------------------------------------------------------------------
    external field VDW/kʙ        0.000000e+00 [K]
    external field Real/kʙ       0.000000e+00 [K]
    framework-molecule VDW/kʙ    0.000000e+00 [K]
    framework-molecule Real/kʙ   0.000000e+00 [K]
    molecule-molecule VDW/kʙ    -2.209689e+05 [K]
    molecule-molecule Real/kʙ   -6.840925e+04 [K]
    Van der Waals (Tail)/kʙ     -7.037202e+03 [K]
    Ewald Fourier/kʙ             7.214544e+03 [K]
    Ewald self/kʙ               -4.023739e+06 [K]
    Ewald exclusion/kʙ           4.005586e+06 [K]
    intra VDW/kʙ                 0.000000e+00 [K]
    intra Coulombic/kʙ           0.000000e+00 [K]
    polarization/kʙ              0.000000e+00 [K]
    dU/dlambda VDW/kʙ            0.000000e+00 [K]
    dU/dlambda Real/kʙ           0.000000e+00 [K]
    dU/dlambda Ewald/kʙ          0.000000e+00 [K]


Current cycle: 0 out of 5000
===============================================================================

Box:      24.00163   0.00000   0.00000  Average:  24.00163   0.00000   0.00000
           0.00000  24.00163   0.00000             0.00000  24.00163   0.00000
           0.00000   0.00000  24.00163             0.00000   0.00000  24.00163
Lengths:  24.00163  24.00163  24.00163  Average:  24.00163  24.00163  24.00163
Angles:   90.00000  90.00000  90.00000  Average:  90.00000  90.00000  90.00000
Rectangular boundary conditions

net charge:   0.00000000

component 0 (CO2) lambda:  0 occupancy:  1 (1.000000)
    net charge:   0.00000000 [e]

Amount of molecules per component :
-------------------------------------------------------------------------------
Component 0 (CO2)
    molecules:      2.000000e+02 molecules  (2.000000e+02 +/- 0.000000e+00)
    number density: 1.446465e-02 molec./A^3 (1.446465e-02 +/- 0.000000e+00)
    density:        1.056812e+03 kg/m^3     (1.056812e+03 +/- 0.000000e+00)

Average pressure tensor: 
-------------------------------------------------------------------------------
 4.9927e+02  0.0000e+00  0.0000e+00 +/- 0.0000e+00 0.0000e+00 0.0000e+00 [bar]
 0.0000e+00  4.9927e+02  0.0000e+00 +/- 0.0000e+00 0.0000e+00 0.0000e+00 [bar]
 0.0000e+00  0.0000e+00  4.9927e+02 +/- 0.0000e+00 0.0000e+00 0.0000e+00 [bar]
Ideal-gas pressure:   4.992655e+02 +/ 0.000000e+00 [bar]
Excess pressure:      0.000000e+00 +/ 0.000000e+00 [bar]
Pressure:             4.992655e+02 +/ 0.000000e+00 [bar]

Total potential energy/kʙ  -3.057710e+05 (-3.057710e+05 +/- 0.000000e+00) [K]
-------------------------------------------------------------------------------
ExternalField-molecule
    Van der Waals/kʙ        0.000000e+00 ( 0.000000e+00 +/- 0.000000e+00) [K]
Framework-molecule
    Van der Waals/kʙ        0.000000e+00 ( 0.000000e+00 +/- 0.000000e+00) [K]
    Van der Waals (Tail)/kʙ 0.000000e+00 ( 0.000000e+00 +/- 0.000000e+00) [K]
    Coulombic Real/kʙ       0.000000e+00 ( 0.000000e+00 +/- 0.000000e+00) [K]
    Coulombic Fourier/kʙ    0.000000e+00 ( 0.000000e+00 +/- 0.000000e+00) [K]
Molecule-molecule
    Van der Waals/kʙ       -2.263680e+05 (-2.263680e+05 +/- 0.000000e+00) [K]
    Van der Waals (Tail)/kʙ-6.974533e+03 (-6.974533e+03 +/- 0.000000e+00) [K]
    Coulombic Real/kʙ      -6.259694e+04 (-6.259694e+04 +/- 0.000000e+00) [K]
    Coulombic Fourier/kʙ   -9.831544e+03 (-9.831544e+03 +/- 0.000000e+00) [K]
    Molecule Intra/kʙ       0.000000e+00 ( 0.000000e+00 +/- 0.000000e+00) [K]

Current cycle: 100 out of 5000
===============================================================================

Box:      23.87628   0.00000   0.00000  Average:  24.08354   0.00000   0.00000
           0.00000  23.87628   0.00000             0.00000  24.08354   0.00000
           0.00000   0.00000  23.87628             0.00000   0.00000  24.08354
Lengths:  23.87628  23.87628  23.87628  Average:  24.08354  24.08354  24.08354
Angles:   90.00000  90.00000  90.00000  Average:  90.00000  90.00000  90.00000
Rectangular boundary conditions

net charge:   0.00000000

component 0 (CO2) lambda:  0 occupancy:  1 (1.000000)
    net charge:   0.00000000 [e]

Amount of molecules per component :
-------------------------------------------------------------------------------
Component 0 (CO2)
    molecules:      2.000000e+02 molecules  (2.000000e+02 +/- 0.000000e+00)
    number density: 1.469365e-02 molec./A^3 (1.432053e-02 +/- 0.000000e+00)
    density:        1.073544e+03 kg/m^3     (1.046282e+03 +/- 0.000000e+00)

Average pressure tensor: 
-------------------------------------------------------------------------------
 1.6317e+02 -6.4766e+01 -4.8217e+01 +/- 0.0000e+00 0.0000e+00 0.0000e+00 [bar]
-6.4766e+01  7.7997e+01 -7.2528e+01 +/- 0.0000e+00 0.0000e+00 0.0000e+00 [bar]
-4.8217e+01 -7.2528e+01  1.2789e+02 +/- 0.0000e+00 0.0000e+00 0.0000e+00 [bar]
Ideal-gas pressure:   4.942911e+02 +/ 0.000000e+00 [bar]
Excess pressure:     -3.712723e+02 +/ 0.000000e+00 [bar]
Pressure:             1.230187e+02 +/ 0.000000e+00 [bar]

Total potential energy/kʙ  -3.077904e+05 (-3.017668e+05 +/- 0.000000e+00) [K]
-------------------------------------------------------------------------------
ExternalField-molecule
    Van der Waals/kʙ        0.000000e+00 ( 0.000000e+00 +/- 0.000000e+00) [K]
Framework-molecule
    Van der Waals/kʙ        0.000000e+00 ( 0.000000e+00 +/- 0.000000e+00) [K]
    Van der Waals (Tail)/kʙ 0.000000e+00 ( 0.000000e+00 +/- 0.000000e+00) [K]
    Coulombic Real/kʙ       0.000000e+00 ( 0.000000e+00 +/- 0.000000e+00) [K]
    Coulombic Fourier/kʙ    0.000000e+00 ( 0.000000e+00 +/- 0.000000e+00) [K]
Molecule-molecule
    Van der Waals/kʙ       -2.212497e+05 (-2.178131e+05 +/- 0.000000e+00) [K]
    Van der Waals (Tail)/kʙ-7.084955e+03 (-6.932087e+03 +/- 0.000000e+00) [K]
    Coulombic Real/kʙ      -6.968050e+04 (-6.692137e+04 +/- 0.000000e+00) [K]
    Coulombic Fourier/kʙ   -9.775242e+03 (-1.010031e+04 +/- 0.000000e+00) [K]
    Molecule Intra/kʙ       0.000000e+00 ( 0.000000e+00 +/- 0.000000e+00) [K]

Current cycle: 200 out of 5000
===============================================================================

Box:      23.81447   0.00000   0.00000  Average:  24.03333   0.00000   0.00000
           0.00000  23.81447   0.00000             0.00000  24.03333   0.00000
           0.00000   0.00000  23.81447             0.00000   0.00000  24.03333
Lengths:  23.81447  23.81447  23.81447  Average:  24.03333  24.03333  24.03333
Angles:   90.00000  90.00000  90.00000  Average:  90.00000  90.00000  90.00000
Rectangular boundary conditions

net charge:   0.00000000

component 0 (CO2) lambda:  0 occupancy:  1 (1.000000)
    net charge:   0.00000000 [e]

Amount of molecules per component :
-------------------------------------------------------------------------------
Component 0 (CO2)
    molecules:      2.000000e+02 molecules  (2.000000e+02 +/- 0.000000e+00)
    number density: 1.480836e-02 molec./A^3 (1.440995e-02 +/- 0.000000e+00)
    density:        1.081924e+03 kg/m^3     (1.052816e+03 +/- 0.000000e+00)

Average pressure tensor: 
-------------------------------------------------------------------------------
 2.8728e+02 -1.1869e+02 -4.5012e+01 +/- 0.0000e+00 0.0000e+00 0.0000e+00 [bar]
-1.1869e+02  7.6291e+01 -7.9915e+01 +/- 0.0000e+00 0.0000e+00 0.0000e+00 [bar]
-4.5012e+01 -7.9915e+01  2.2842e+02 +/- 0.0000e+00 0.0000e+00 0.0000e+00 [bar]
Ideal-gas pressure:   4.973777e+02 +/ 0.000000e+00 [bar]
Excess pressure:     -3.000493e+02 +/ 0.000000e+00 [bar]
Pressure:             1.973284e+02 +/ 0.000000e+00 [bar]

Total potential energy/kʙ  -3.049854e+05 (-3.029465e+05 +/- 0.000000e+00) [K]
-------------------------------------------------------------------------------
ExternalField-molecule
    Van der Waals/kʙ        0.000000e+00 ( 0.000000e+00 +/- 0.000000e+00) [K]
Framework-molecule
    Van der Waals/kʙ        0.000000e+00 ( 0.000000e+00 +/- 0.000000e+00) [K]
    Van der Waals (Tail)/kʙ 0.000000e+00 ( 0.000000e+00 +/- 0.000000e+00) [K]
    Coulombic Real/kʙ       0.000000e+00 ( 0.000000e+00 +/- 0.000000e+00) [K]
    Coulombic Fourier/kʙ    0.000000e+00 ( 0.000000e+00 +/- 0.000000e+00) [K]
Molecule-molecule
    Van der Waals/kʙ       -2.170848e+05 (-2.170878e+05 +/- 0.000000e+00) [K]
    Van der Waals (Tail)/kʙ-7.140264e+03 (-6.962220e+03 +/- 0.000000e+00) [K]
    Coulombic Real/kʙ      -7.024042e+04 (-6.862722e+04 +/- 0.000000e+00) [K]
    Coulombic Fourier/kʙ   -1.051989e+04 (-1.026921e+04 +/- 0.000000e+00) [K]
    Molecule Intra/kʙ       0.000000e+00 ( 0.000000e+00 +/- 0.000000e+00) [K]

Current cycle: 300 out of 5000
===============================================================================

Box:      23.79293   0.00000   0.00000  Average:  24.00310   0.00000   0.00000
           0.00000  23.79293   0.00000             0.00000  24.00310   0.00000
           0.00000   0.00000  23.79293             0.00000   0.00000  24.00310
Lengths:  23.79293  23.79293  23.79293  Average:  24.00310  24.00310  24.00310
Angles:   90.00000  90.00000  90.00000  Average:  90.00000  90.00000  90.00000
Rectangular boundary conditions

net charge:   0.00000000

component 0 (CO2) lambda:  0 occupancy:  1 (1.000000)
    net charge:   0.00000000 [e]

Amount of molecules per component :
-------------------------------------------------------------------------------
Component 0 (CO2)
    molecules:      2.000000e+02 molecules  (2.000000e+02 +/- 0.000000e+00)
    number density: 1.484863e-02 molec./A^3 (1.446485e-02 +/- 0.000000e+00)
    density:        1.084866e+03 kg/m^3     (1.056826e+03 +/- 0.000000e+00)

Average pressure tensor: 
-------------------------------------------------------------------------------
 2.8394e+02 -6.2227e+01 -4.0623e+01 +/- 0.0000e+00 0.0000e+00 0.0000e+00 [bar]
-6.2227e+01  8.5230e+01 -7.4099e+01 +/- 0.0000e+00 0.0000e+00 0.0000e+00 [bar]
-4.0623e+01 -7.4099e+01  1.7055e+02 +/- 0.0000e+00 0.0000e+00 0.0000e+00 [bar]
Ideal-gas pressure:   4.992724e+02 +/ 0.000000e+00 [bar]
Excess pressure:     -3.193641e+02 +/ 0.000000e+00 [bar]
Pressure:             1.799082e+02 +/ 0.000000e+00 [bar]

Total potential energy/kʙ  -3.122240e+05 (-3.037343e+05 +/- 0.000000e+00) [K]
-------------------------------------------------------------------------------
ExternalField-molecule
    Van der Waals/kʙ        0.000000e+00 ( 0.000000e+00 +/- 0.000000e+00) [K]
Framework-molecule
    Van der Waals/kʙ        0.000000e+00 ( 0.000000e+00 +/- 0.000000e+00) [K]
    Van der Waals (Tail)/kʙ 0.000000e+00 ( 0.000000e+00 +/- 0.000000e+00) [K]
    Coulombic Real/kʙ       0.000000e+00 ( 0.000000e+00 +/- 0.000000e+00) [K]
    Coulombic Fourier/kʙ    0.000000e+00 ( 0.000000e+00 +/- 0.000000e+00) [K]
Molecule-molecule
    Van der Waals/kʙ       -2.245262e+05 (-2.184220e+05 +/- 0.000000e+00) [K]
    Van der Waals (Tail)/kʙ-7.159682e+03 (-6.984135e+03 +/- 0.000000e+00) [K]
    Coulombic Real/kʙ      -6.999983e+04 (-6.809892e+04 +/- 0.000000e+00) [K]
    Coulombic Fourier/kʙ   -1.053829e+04 (-1.022921e+04 +/- 0.000000e+00) [K]
    Molecule Intra/kʙ       0.000000e+00 ( 0.000000e+00 +/- 0.000000e+00) [K]

Current cycle: 400 out of 5000
===============================================================================

Box:      23.79765   0.00000   0.00000  Average:  23.98661   0.00000   0.00000
           0.00000  23.79765   0.00000             0.00000  23.98661   0.00000
           0.00000   0.00000  23.79765             0.00000   0.00000  23.98661
Lengths:  23.79765  23.79765  23.79765  Average:  23.98661  23.98661  23.98661
Angles:   90.00000  90.00000  90.00000  Average:  90.00000  90.00000  90.00000
Rectangular boundary conditions

net charge:   0.00000000

component 0 (CO2) lambda:  0 occupancy:  1 (1.000000)
    net charge:   0.00000000 [e]

Amount of molecules per component :
-------------------------------------------------------------------------------
Component 0 (CO2)
    molecules:      2.000000e+02 molecules  (2.000000e+02 +/- 0.000000e+00)
    number density: 1.483979e-02 molec./A^3 (1.449443e-02 +/- 0.000000e+00)
    density:        1.084221e+03 kg/m^3     (1.058988e+03 +/- 0.000000e+00)

Average pressure tensor: 
-------------------------------------------------------------------------------
 2.5495e+02  1.6499e+01 -1.7469e+00 +/- 0.0000e+00 0.0000e+00 0.0000e+00 [bar]
 1.6499e+01  1.8423e+00 -4.2161e+01 +/- 0.0000e+00 0.0000e+00 0.0000e+00 [bar]
-1.7469e+00 -4.2161e+01  2.6018e+02 +/- 0.0000e+00 0.0000e+00 0.0000e+00 [bar]
Ideal-gas pressure:   5.002935e+02 +/ 0.000000e+00 [bar]
Excess pressure:     -3.279689e+02 +/ 0.000000e+00 [bar]
Pressure:             1.723246e+02 +/ 0.000000e+00 [bar]

Total potential energy/kʙ  -3.123777e+05 (-3.039727e+05 +/- 0.000000e+00) [K]
-------------------------------------------------------------------------------
ExternalField-molecule
    Van der Waals/kʙ        0.000000e+00 ( 0.000000e+00 +/- 0.000000e+00) [K]
Framework-molecule
    Van der Waals/kʙ        0.000000e+00 ( 0.000000e+00 +/- 0.000000e+00) [K]
    Van der Waals (Tail)/kʙ 0.000000e+00 ( 0.000000e+00 +/- 0.000000e+00) [K]
    Coulombic Real/kʙ       0.000000e+00 ( 0.000000e+00 +/- 0.000000e+00) [K]
    Coulombic Fourier/kʙ    0.000000e+00 ( 0.000000e+00 +/- 0.000000e+00) [K]
Molecule-molecule
    Van der Waals/kʙ       -2.287108e+05 (-2.193852e+05 +/- 0.000000e+00) [K]
    Van der Waals (Tail)/kʙ-7.155421e+03 (-6.999870e+03 +/- 0.000000e+00) [K]
    Coulombic Real/kʙ      -6.591186e+04 (-6.732875e+04 +/- 0.000000e+00) [K]
    Coulombic Fourier/kʙ   -1.059962e+04 (-1.025881e+04 +/- 0.000000e+00) [K]
    Molecule Intra/kʙ       0.000000e+00 ( 0.000000e+00 +/- 0.000000e+00) [K]

Current cycle: 500 out of 5000
===============================================================================

Box:      23.92727   0.00000   0.00000  Average:  23.93423   0.00000   0.00000
           0.00000  23.92727   0.00000             0.00000  23.93423   0.00000
           0.00000   0.00000  23.92727             0.00000   0.00000  23.93423
Lengths:  23.92727  23.92727  23.92727  Average:  23.93423  23.93423  23.93423
Angles:   90.00000  90.00000  90.00000  Average:  90.00000  90.00000  90.00000
Rectangular boundary conditions

net charge:   0.00000000

component 0 (CO2) lambda:  0 occupancy:  1 (1.000000)
    net charge:   0.00000000 [e]

Amount of molecules per component :
-------------------------------------------------------------------------------
Component 0 (CO2)
    molecules:      2.000000e+02 molecules  (2.000000e+02 +/- 0.000000e+00)
    number density: 1.459992e-02 molec./A^3 (1.459125e-02 +/- 0.000000e+00)
    density:        1.066695e+03 kg/m^3     (1.066062e+03 +/- 0.000000e+00)

Average pressure tensor: 
-------------------------------------------------------------------------------
 2.3334e+02  4.9200e+01  1.3380e+01 +/- 0.0000e+00 0.0000e+00 0.0000e+00 [bar]
 4.9200e+01 -8.5582e+00 -1.8416e+01 +/- 0.0000e+00 0.0000e+00 0.0000e+00 [bar]
 1.3380e+01 -1.8416e+01  2.4920e+02 +/- 0.0000e+00 0.0000e+00 0.0000e+00 [bar]
Ideal-gas pressure:   5.036353e+02 +/ 0.000000e+00 [bar]
Excess pressure:     -3.456404e+02 +/ 0.000000e+00 [bar]
Pressure:             1.579949e+02 +/ 0.000000e+00 [bar]

Total potential energy/kʙ  -3.116612e+05 (-3.070164e+05 +/- 0.000000e+00) [K]
-------------------------------------------------------------------------------
ExternalField-molecule
    Van der Waals/kʙ        0.000000e+00 ( 0.000000e+00 +/- 0.000000e+00) [K]
Framework-molecule
    Van der Waals/kʙ        0.000000e+00 ( 0.000000e+00 +/- 0.000000e+00) [K]
    Van der Waals (Tail)/kʙ 0.000000e+00 ( 0.000000e+00 +/- 0.000000e+00) [K]
    Coulombic Real/kʙ       0.000000e+00 ( 0.000000e+00 +/- 0.000000e+00) [K]
    Coulombic Fourier/kʙ    0.000000e+00 ( 0.000000e+00 +/- 0.000000e+00) [K]
Molecule-molecule
    Van der Waals/kʙ       -2.204892e+05 (-2.210965e+05 +/- 0.000000e+00) [K]
    Van der Waals (Tail)/kʙ-7.039758e+03 (-7.045247e+03 +/- 0.000000e+00) [K]
    Coulombic Real/kʙ      -7.311516e+04 (-6.853571e+04 +/- 0.000000e+00) [K]
    Coulombic Fourier/kʙ   -1.101701e+04 (-1.033899e+04 +/- 0.000000e+00) [K]
    Molecule Intra/kʙ       0.000000e+00 ( 0.000000e+00 +/- 0.000000e+00) [K]

Current cycle: 600 out of 5000
===============================================================================

Box:      23.81583   0.00000   0.00000  Average:  23.91684   0.00000   0.00000
           0.00000  23.81583   0.00000             0.00000  23.91684   0.00000
           0.00000   0.00000  23.81583             0.00000   0.00000  23.91684
Lengths:  23.81583  23.81583  23.81583  Average:  23.91684  23.91684  23.91684
Angles:   90.00000  90.00000  90.00000  Average:  90.00000  90.00000  90.00000
Rectangular boundary conditions

net charge:   0.00000000

component 0 (CO2) lambda:  0 occupancy:  1 (1.000000)
    net charge:   0.00000000 [e]

Amount of molecules per component :
-------------------------------------------------------------------------------
Component 0 (CO2)
    molecules:      2.000000e+02 molecules  (2.000000e+02 +/- 0.000000e+00)
    number density: 1.480583e-02 molec./A^3 (1.462312e-02 +/- 0.000000e+00)
    density:        1.081740e+03 kg/m^3     (1.068390e+03 +/- 0.000000e+00)

Average pressure tensor: 
-------------------------------------------------------------------------------
 2.1733e+02  8.5297e+01  9.2619e+00 +/- 0.0000e+00 0.0000e+00 0.0000e+00 [bar]
 8.5297e+01 -8.5107e-01 -2.3395e+01 +/- 0.0000e+00 0.0000e+00 0.0000e+00 [bar]
 9.2619e+00 -2.3395e+01  2.4996e+02 +/- 0.0000e+00 0.0000e+00 0.0000e+00 [bar]
Ideal-gas pressure:   5.047354e+02 +/ 0.000000e+00 [bar]
Excess pressure:     -3.492567e+02 +/ 0.000000e+00 [bar]
Pressure:             1.554787e+02 +/ 0.000000e+00 [bar]

Total potential energy/kʙ  -3.046156e+05 (-3.071943e+05 +/- 0.000000e+00) [K]
-------------------------------------------------------------------------------
ExternalField-molecule
    Van der Waals/kʙ        0.000000e+00 ( 0.000000e+00 +/- 0.000000e+00) [K]
Framework-molecule
    Van der Waals/kʙ        0.000000e+00 ( 0.000000e+00 +/- 0.000000e+00) [K]
    Van der Waals (Tail)/kʙ 0.000000e+00 ( 0.000000e+00 +/- 0.000000e+00) [K]
    Coulombic Real/kʙ       0.000000e+00 ( 0.000000e+00 +/- 0.000000e+00) [K]
    Coulombic Fourier/kʙ    0.000000e+00 ( 0.000000e+00 +/- 0.000000e+00) [K]
Molecule-molecule
    Van der Waals/kʙ       -2.206465e+05 (-2.215741e+05 +/- 0.000000e+00) [K]
    Van der Waals (Tail)/kʙ-7.139046e+03 (-7.058844e+03 +/- 0.000000e+00) [K]
    Coulombic Real/kʙ      -6.654176e+04 (-6.820035e+04 +/- 0.000000e+00) [K]
    Coulombic Fourier/kʙ   -1.028823e+04 (-1.036098e+04 +/- 0.000000e+00) [K]
    Molecule Intra/kʙ       0.000000e+00 ( 0.000000e+00 +/- 0.000000e+00) [K]

Current cycle: 700 out of 5000
===============================================================================

Box:      23.89930   0.00000   0.00000  Average:  23.90449   0.00000   0.00000
           0.00000  23.89930   0.00000             0.00000  23.90449   0.00000
           0.00000   0.00000  23.89930             0.00000   0.00000  23.90449
Lengths:  23.89930  23.89930  23.89930  Average:  23.90449  23.90449  23.90449
Angles:   90.00000  90.00000  90.00000  Average:  90.00000  90.00000  90.00000
Rectangular boundary conditions

net charge:   0.00000000

component 0 (CO2) lambda:  0 occupancy:  1 (1.000000)
    net charge:   0.00000000 [e]

Amount of molecules per component :
-------------------------------------------------------------------------------
Component 0 (CO2)
    molecules:      2.000000e+02 molecules  (2.000000e+02 +/- 0.000000e+00)
    number density: 1.465125e-02 molec./A^3 (1.464571e-02 +/- 0.000000e+00)
    density:        1.070445e+03 kg/m^3     (1.070041e+03 +/- 0.000000e+00)

Average pressure tensor: 
-------------------------------------------------------------------------------
 1.6137e+02  5.7736e+01  7.3992e+00 +/- 0.0000e+00 0.0000e+00 0.0000e+00 [bar]
 5.7736e+01  1.4602e+01 -2.8810e+01 +/- 0.0000e+00 0.0000e+00 0.0000e+00 [bar]
 7.3992e+00 -2.8810e+01  2.7846e+02 +/- 0.0000e+00 0.0000e+00 0.0000e+00 [bar]
Ideal-gas pressure:   5.055151e+02 +/ 0.000000e+00 [bar]
Excess pressure:     -3.540363e+02 +/ 0.000000e+00 [bar]
Pressure:             1.514788e+02 +/ 0.000000e+00 [bar]

Total potential energy/kʙ  -3.061595e+05 (-3.079832e+05 +/- 0.000000e+00) [K]
-------------------------------------------------------------------------------
ExternalField-molecule
    Van der Waals/kʙ        0.000000e+00 ( 0.000000e+00 +/- 0.000000e+00) [K]
Framework-molecule
    Van der Waals/kʙ        0.000000e+00 ( 0.000000e+00 +/- 0.000000e+00) [K]
    Van der Waals (Tail)/kʙ 0.000000e+00 ( 0.000000e+00 +/- 0.000000e+00) [K]
    Coulombic Real/kʙ       0.000000e+00 ( 0.000000e+00 +/- 0.000000e+00) [K]
    Coulombic Fourier/kʙ    0.000000e+00 ( 0.000000e+00 +/- 0.000000e+00) [K]
Molecule-molecule
    Van der Waals/kʙ       -2.232494e+05 (-2.220048e+05 +/- 0.000000e+00) [K]
    Van der Waals (Tail)/kʙ-7.064509e+03 (-7.067173e+03 +/- 0.000000e+00) [K]
    Coulombic Real/kʙ      -6.627392e+04 (-6.858596e+04 +/- 0.000000e+00) [K]
    Coulombic Fourier/kʙ   -9.571724e+03 (-1.032524e+04 +/- 0.000000e+00) [K]
    Molecule Intra/kʙ       0.000000e+00 ( 0.000000e+00 +/- 0.000000e+00) [K]

Current cycle: 800 out of 5000
===============================================================================

Box:      23.97187   0.00000   0.00000  Average:  23.90981   0.00000   0.00000
           0.00000  23.97187   0.00000             0.00000  23.90981   0.00000
           0.00000   0.00000  23.97187             0.00000   0.00000  23.90981
Lengths:  23.97187  23.97187  23.97187  Average:  23.90981  23.90981  23.90981
Angles:   90.00000  90.00000  90.00000  Average:  90.00000  90.00000  90.00000
Rectangular boundary conditions

net charge:   0.00000000

component 0 (CO2) lambda:  0 occupancy:  1 (1.000000)
    net charge:   0.00000000 [e]

Amount of molecules per component :
-------------------------------------------------------------------------------
Component 0 (CO2)
    molecules:      2.000000e+02 molecules  (2.000000e+02 +/- 0.000000e+00)
    number density: 1.451858e-02 molec./A^3 (1.463572e-02 +/- 0.000000e+00)
    density:        1.060752e+03 kg/m^3     (1.069310e+03 +/- 0.000000e+00)

Average pressure tensor: 
-------------------------------------------------------------------------------
 1.4241e+02  5.5722e+01 -3.9915e+01 +/- 0.0000e+00 0.0000e+00 0.0000e+00 [bar]
 5.5722e+01  3.8024e+01 -2.2787e+00 +/- 0.0000e+00 0.0000e+00 0.0000e+00 [bar]
-3.9915e+01 -2.2787e+00  2.5530e+02 +/- 0.0000e+00 0.0000e+00 0.0000e+00 [bar]
Ideal-gas pressure:   5.051701e+02 +/ 0.000000e+00 [bar]
Excess pressure:     -3.599250e+02 +/ 0.000000e+00 [bar]
Pressure:             1.452452e+02 +/ 0.000000e+00 [bar]

Total potential energy/kʙ  -3.008363e+05 (-3.079355e+05 +/- 0.000000e+00) [K]
-------------------------------------------------------------------------------
ExternalField-molecule
    Van der Waals/kʙ        0.000000e+00 ( 0.000000e+00 +/- 0.000000e+00) [K]
Framework-molecule
    Van der Waals/kʙ        0.000000e+00 ( 0.000000e+00 +/- 0.000000e+00) [K]
    Van der Waals (Tail)/kʙ 0.000000e+00 ( 0.000000e+00 +/- 0.000000e+00) [K]
    Coulombic Real/kʙ       0.000000e+00 ( 0.000000e+00 +/- 0.000000e+00) [K]
    Coulombic Fourier/kʙ    0.000000e+00 ( 0.000000e+00 +/- 0.000000e+00) [K]
Molecule-molecule
    Van der Waals/kʙ       -2.132062e+05 (-2.216370e+05 +/- 0.000000e+00) [K]
    Van der Waals (Tail)/kʙ-7.000538e+03 (-7.060900e+03 +/- 0.000000e+00) [K]
    Coulombic Real/kʙ      -7.149986e+04 (-6.900831e+04 +/- 0.000000e+00) [K]
    Coulombic Fourier/kʙ   -9.129715e+03 (-1.022928e+04 +/- 0.000000e+00) [K]
    Molecule Intra/kʙ       0.000000e+00 ( 0.000000e+00 +/- 0.000000e+00) [K]

Current cycle: 900 out of 5000
===============================================================================

Box:      23.97334   0.00000   0.00000  Average:  23.91236   0.00000   0.00000
           0.00000  23.97334   0.00000             0.00000  23.91236   0.00000
           0.00000   0.00000  23.97334             0.00000   0.00000  23.91236
Lengths:  23.97334  23.97334  23.97334  Average:  23.91236  23.91236  23.91236
Angles:   90.00000  90.00000  90.00000  Average:  90.00000  90.00000  90.00000
Rectangular boundary conditions

net charge:   0.00000000

component 0 (CO2) lambda:  0 occupancy:  1 (1.000000)
    net charge:   0.00000000 [e]

Amount of molecules per component :
-------------------------------------------------------------------------------
Component 0 (CO2)
    molecules:      2.000000e+02 molecules  (2.000000e+02 +/- 0.000000e+00)
    number density: 1.451591e-02 molec./A^3 (1.463078e-02 +/- 0.000000e+00)
    density:        1.060557e+03 kg/m^3     (1.068949e+03 +/- 0.000000e+00)

Average pressure tensor: 
-------------------------------------------------------------------------------
 1.5765e+02  4.0873e+01 -7.0897e+01 +/- 0.0000e+00 0.0000e+00 0.0000e+00 [bar]
 4.0873e+01  6.4239e+01  5.5507e+00 +/- 0.0000e+00 0.0000e+00 0.0000e+00 [bar]
-7.0897e+01  5.5507e+00  2.4901e+02 +/- 0.0000e+00 0.0000e+00 0.0000e+00 [bar]
Ideal-gas pressure:   5.049996e+02 +/ 0.000000e+00 [bar]
Excess pressure:     -3.480342e+02 +/ 0.000000e+00 [bar]
Pressure:             1.569654e+02 +/ 0.000000e+00 [bar]

Total potential energy/kʙ  -3.062847e+05 (-3.081690e+05 +/- 0.000000e+00) [K]
-------------------------------------------------------------------------------
ExternalField-molecule
    Van der Waals/kʙ        0.000000e+00 ( 0.000000e+00 +/- 0.000000e+00) [K]
Framework-molecule
    Van der Waals/kʙ        0.000000e+00 ( 0.000000e+00 +/- 0.000000e+00) [K]
    Van der Waals (Tail)/kʙ 0.000000e+00 ( 0.000000e+00 +/- 0.000000e+00) [K]
    Coulombic Real/kʙ       0.000000e+00 ( 0.000000e+00 +/- 0.000000e+00) [K]
    Coulombic Fourier/kʙ    0.000000e+00 ( 0.000000e+00 +/- 0.000000e+00) [K]
Molecule-molecule
    Van der Waals/kʙ       -2.219596e+05 (-2.213815e+05 +/- 0.000000e+00) [K]
    Van der Waals (Tail)/kʙ-6.999251e+03 (-7.059856e+03 +/- 0.000000e+00) [K]
    Coulombic Real/kʙ      -6.746300e+04 (-6.947946e+04 +/- 0.000000e+00) [K]
    Coulombic Fourier/kʙ   -9.862892e+03 (-1.024819e+04 +/- 0.000000e+00) [K]
    Molecule Intra/kʙ       0.000000e+00 ( 0.000000e+00 +/- 0.000000e+00) [K]

Current cycle: 1000 out of 5000
===============================================================================

Box:      24.02519   0.00000   0.00000  Average:  23.91970   0.00000   0.00000
           0.00000  24.02519   0.00000             0.00000  23.91970   0.00000
           0.00000   0.00000  24.02519             0.00000   0.00000  23.91970
Lengths:  24.02519  24.02519  24.02519  Average:  23.91970  23.91970  23.91970
Angles:   90.00000  90.00000  90.00000  Average:  90.00000  90.00000  90.00000
Rectangular boundary conditions

net charge:   0.00000000

component 0 (CO2) lambda:  0 occupancy:  1 (1.000000)
    net charge:   0.00000000 [e]

Amount of molecules per component :
-------------------------------------------------------------------------------
Component 0 (CO2)
    molecules:      2.000000e+02 molecules  (2.000000e+02 +/- 0.000000e+00)
    number density: 1.442213e-02 molec./A^3 (1.461719e-02 +/- 0.000000e+00)
    density:        1.053705e+03 kg/m^3     (1.067957e+03 +/- 0.000000e+00)

Average pressure tensor: 
-------------------------------------------------------------------------------
 1.5243e+02  3.0172e+01 -7.3074e+01 +/- 0.0000e+00 0.0000e+00 0.0000e+00 [bar]
 3.0172e+01  4.1134e+01 -4.4657e+00 +/- 0.0000e+00 0.0000e+00 0.0000e+00 [bar]
-7.3074e+01 -4.4657e+00  2.5257e+02 +/- 0.0000e+00 0.0000e+00 0.0000e+00 [bar]
Ideal-gas pressure:   5.045307e+02 +/ 0.000000e+00 [bar]
Excess pressure:     -3.558187e+02 +/ 0.000000e+00 [bar]
Pressure:             1.487120e+02 +/ 0.000000e+00 [bar]

Total potential energy/kʙ  -2.999171e+05 (-3.076515e+05 +/- 0.000000e+00) [K]
-------------------------------------------------------------------------------
ExternalField-molecule
    Van der Waals/kʙ        0.000000e+00 ( 0.000000e+00 +/- 0.000000e+00) [K]
Framework-molecule
    Van der Waals/kʙ        0.000000e+00 ( 0.000000e+00 +/- 0.000000e+00) [K]
    Van der Waals (Tail)/kʙ 0.000000e+00 ( 0.000000e+00 +/- 0.000000e+00) [K]
    Coulombic Real/kʙ       0.000000e+00 ( 0.000000e+00 +/- 0.000000e+00) [K]
    Coulombic Fourier/kʙ    0.000000e+00 ( 0.000000e+00 +/- 0.000000e+00) [K]
Molecule-molecule
    Van der Waals/kʙ       -2.167306e+05 (-2.213262e+05 +/- 0.000000e+00) [K]
    Van der Waals (Tail)/kʙ-6.954032e+03 (-7.052316e+03 +/- 0.000000e+00) [K]
    Coulombic Real/kʙ      -6.625561e+04 (-6.906281e+04 +/- 0.000000e+00) [K]
    Coulombic Fourier/kʙ   -9.976823e+03 (-1.021011e+04 +/- 0.000000e+00) [K]
    Molecule Intra/kʙ       0.000000e+00 ( 0.000000e+00 +/- 0.000000e+00) [K]

Current cycle: 1100 out of 5000
===============================================================================

Box:      24.27377   0.00000   0.00000  Average:  23.93827   0.00000   0.00000
           0.00000  24.27377   0.00000             0.00000  23.93827   0.00000
           0.00000   0.00000  24.27377             0.00000   0.00000  23.93827
Lengths:  24.27377  24.27377  24.27377  Average:  23.93827  23.93827  23.93827
Angles:   90.00000  90.00000  90.00000  Average:  90.00000  90.00000  90.00000
Rectangular boundary conditions

net charge:   0.00000000

component 0 (CO2) lambda:  0 occupancy:  1 (1.000000)
    net charge:   0.00000000 [e]

Amount of molecules per component :
-------------------------------------------------------------------------------
Component 0 (CO2)
    molecules:      2.000000e+02 molecules  (2.000000e+02 +/- 0.000000e+00)
    number density: 1.398358e-02 molec./A^3 (1.458359e-02 +/- 0.000000e+00)
    density:        1.021664e+03 kg/m^3     (1.065502e+03 +/- 0.000000e+00)

Average pressure tensor: 
-------------------------------------------------------------------------------
 1.3863e+02  3.3175e+01 -6.7121e+01 +/- 0.0000e+00 0.0000e+00 0.0000e+00 [bar]
 3.3175e+01  4.1348e+01 -1.2043e+01 +/- 0.0000e+00 0.0000e+00 0.0000e+00 [bar]
-6.7121e+01 -1.2043e+01  2.4375e+02 +/- 0.0000e+00 0.0000e+00 0.0000e+00 [bar]
Ideal-gas pressure:   5.033709e+02 +/ 0.000000e+00 [bar]
Excess pressure:     -3.621304e+02 +/ 0.000000e+00 [bar]
Pressure:             1.412405e+02 +/ 0.000000e+00 [bar]

Total potential energy/kʙ  -2.932445e+05 (-3.067037e+05 +/- 0.000000e+00) [K]
-------------------------------------------------------------------------------
ExternalField-molecule
    Van der Waals/kʙ        0.000000e+00 ( 0.000000e+00 +/- 0.000000e+00) [K]
Framework-molecule
    Van der Waals/kʙ        0.000000e+00 ( 0.000000e+00 +/- 0.000000e+00) [K]
    Van der Waals (Tail)/kʙ 0.000000e+00 ( 0.000000e+00 +/- 0.000000e+00) [K]
    Coulombic Real/kʙ       0.000000e+00 ( 0.000000e+00 +/- 0.000000e+00) [K]
    Coulombic Fourier/kʙ    0.000000e+00 ( 0.000000e+00 +/- 0.000000e+00) [K]
Molecule-molecule
    Van der Waals/kʙ       -2.137859e+05 (-2.209188e+05 +/- 0.000000e+00) [K]
    Van der Waals (Tail)/kʙ-6.742573e+03 (-7.035319e+03 +/- 0.000000e+00) [K]
    Coulombic Real/kʙ      -6.223716e+04 (-6.858771e+04 +/- 0.000000e+00) [K]
    Coulombic Fourier/kʙ   -1.047880e+04 (-1.016189e+04 +/- 0.000000e+00) [K]
    Molecule Intra/kʙ       0.000000e+00 ( 0.000000e+00 +/- 0.000000e+00) [K]

Current cycle: 1200 out of 5000
===============================================================================

Box:      23.90684   0.00000   0.00000  Average:  23.95212   0.00000   0.00000
           0.00000  23.90684   0.00000             0.00000  23.95212   0.00000
           0.00000   0.00000  23.90684             0.00000   0.00000  23.95212
Lengths:  23.90684  23.90684  23.90684  Average:  23.95212  23.95212  23.95212
Angles:   90.00000  90.00000  90.00000  Average:  90.00000  90.00000  90.00000
Rectangular boundary conditions

net charge:   0.00000000

component 0 (CO2) lambda:  0 occupancy:  1 (1.000000)
    net charge:   0.00000000 [e]

Amount of molecules per component :
-------------------------------------------------------------------------------
Component 0 (CO2)
    molecules:      2.000000e+02 molecules  (2.000000e+02 +/- 0.000000e+00)
    number density: 1.463738e-02 molec./A^3 (1.455848e-02 +/- 0.000000e+00)
    density:        1.069432e+03 kg/m^3     (1.063668e+03 +/- 0.000000e+00)

Average pressure tensor: 
-------------------------------------------------------------------------------
 1.1161e+02  4.2019e+01 -6.9054e+01 +/- 0.0000e+00 0.0000e+00 0.0000e+00 [bar]
 4.2019e+01  5.2573e+01 -9.4415e+00 +/- 0.0000e+00 0.0000e+00 0.0000e+00 [bar]
-6.9054e+01 -9.4415e+00  2.2822e+02 +/- 0.0000e+00 0.0000e+00 0.0000e+00 [bar]
Ideal-gas pressure:   5.025044e+02 +/ 0.000000e+00 [bar]
Excess pressure:     -3.717039e+02 +/ 0.000000e+00 [bar]
Pressure:             1.308005e+02 +/ 0.000000e+00 [bar]

Total potential energy/kʙ  -3.019514e+05 (-3.064124e+05 +/- 0.000000e+00) [K]
-------------------------------------------------------------------------------
ExternalField-molecule
    Van der Waals/kʙ        0.000000e+00 ( 0.000000e+00 +/- 0.000000e+00) [K]
Framework-molecule
    Van der Waals/kʙ        0.000000e+00 ( 0.000000e+00 +/- 0.000000e+00) [K]
    Van der Waals (Tail)/kʙ 0.000000e+00 ( 0.000000e+00 +/- 0.000000e+00) [K]
    Coulombic Real/kʙ       0.000000e+00 ( 0.000000e+00 +/- 0.000000e+00) [K]
    Coulombic Fourier/kʙ    0.000000e+00 ( 0.000000e+00 +/- 0.000000e+00) [K]
Molecule-molecule
    Van der Waals/kʙ       -2.189160e+05 (-2.207113e+05 +/- 0.000000e+00) [K]
    Van der Waals (Tail)/kʙ-7.057822e+03 (-7.024743e+03 +/- 0.000000e+00) [K]
    Coulombic Real/kʙ      -6.536991e+04 (-6.851472e+04 +/- 0.000000e+00) [K]
    Coulombic Fourier/kʙ   -1.060757e+04 (-1.016169e+04 +/- 0.000000e+00) [K]
    Molecule Intra/kʙ       0.000000e+00 ( 0.000000e+00 +/- 0.000000e+00) [K]

Current cycle: 1300 out of 5000
===============================================================================

Box:      23.56046   0.00000   0.00000  Average:  23.93650   0.00000   0.00000
           0.00000  23.56046   0.00000             0.00000  23.93650   0.00000
           0.00000   0.00000  23.56046             0.00000   0.00000  23.93650
Lengths:  23.56046  23.56046  23.56046  Average:  23.93650  23.93650  23.93650
Angles:   90.00000  90.00000  90.00000  Average:  90.00000  90.00000  90.00000
Rectangular boundary conditions

net charge:   0.00000000

component 0 (CO2) lambda:  0 occupancy:  1 (1.000000)
    net charge:   0.00000000 [e]

Amount of molecules per component :
-------------------------------------------------------------------------------
Component 0 (CO2)
    molecules:      2.000000e+02 molecules  (2.000000e+02 +/- 0.000000e+00)
    number density: 1.529251e-02 molec./A^3 (1.458738e-02 +/- 0.000000e+00)
    density:        1.117297e+03 kg/m^3     (1.065779e+03 +/- 0.000000e+00)

Average pressure tensor: 
-------------------------------------------------------------------------------
 1.3539e+02  4.8852e+01 -4.2756e+01 +/- 0.0000e+00 0.0000e+00 0.0000e+00 [bar]
 4.8852e+01  6.6138e+01 -5.7767e+00 +/- 0.0000e+00 0.0000e+00 0.0000e+00 [bar]
-4.2756e+01 -5.7767e+00  2.0890e+02 +/- 0.0000e+00 0.0000e+00 0.0000e+00 [bar]
Ideal-gas pressure:   5.035018e+02 +/ 0.000000e+00 [bar]
Excess pressure:     -3.666923e+02 +/ 0.000000e+00 [bar]
Pressure:             1.368095e+02 +/ 0.000000e+00 [bar]

Total potential energy/kʙ  -3.291616e+05 (-3.071477e+05 +/- 0.000000e+00) [K]
-------------------------------------------------------------------------------
ExternalField-molecule
    Van der Waals/kʙ        0.000000e+00 ( 0.000000e+00 +/- 0.000000e+00) [K]
Framework-molecule
    Van der Waals/kʙ        0.000000e+00 ( 0.000000e+00 +/- 0.000000e+00) [K]
    Van der Waals (Tail)/kʙ 0.000000e+00 ( 0.000000e+00 +/- 0.000000e+00) [K]
    Coulombic Real/kʙ       0.000000e+00 ( 0.000000e+00 +/- 0.000000e+00) [K]
    Coulombic Fourier/kʙ    0.000000e+00 ( 0.000000e+00 +/- 0.000000e+00) [K]
Molecule-molecule
    Van der Waals/kʙ       -2.333709e+05 (-2.211904e+05 +/- 0.000000e+00) [K]
    Van der Waals (Tail)/kʙ-7.373713e+03 (-7.038937e+03 +/- 0.000000e+00) [K]
    Coulombic Real/kʙ      -7.754692e+04 (-6.873967e+04 +/- 0.000000e+00) [K]
    Coulombic Fourier/kʙ   -1.087004e+04 (-1.017871e+04 +/- 0.000000e+00) [K]
    Molecule Intra/kʙ       0.000000e+00 ( 0.000000e+00 +/- 0.000000e+00) [K]

Current cycle: 1400 out of 5000
===============================================================================

Box:      24.42444   0.00000   0.00000  Average:  23.93840   0.00000   0.00000
           0.00000  24.42444   0.00000             0.00000  23.93840   0.00000
           0.00000   0.00000  24.42444             0.00000   0.00000  23.93840
Lengths:  24.42444  24.42444  24.42444  Average:  23.93840  23.93840  23.93840
Angles:   90.00000  90.00000  90.00000  Average:  90.00000  90.00000  90.00000
Rectangular boundary conditions

net charge:   0.00000000

component 0 (CO2) lambda:  0 occupancy:  1 (1.000000)
    net charge:   0.00000000 [e]

Amount of molecules per component :
-------------------------------------------------------------------------------
Component 0 (CO2)
    molecules:      2.000000e+02 molecules  (2.000000e+02 +/- 0.000000e+00)
    number density: 1.372638e-02 molec./A^3 (1.458429e-02 +/- 0.000000e+00)
    density:        1.002873e+03 kg/m^3     (1.065553e+03 +/- 0.000000e+00)

Average pressure tensor: 
-------------------------------------------------------------------------------
 1.3292e+02  5.1360e+01 -3.3134e+01 +/- 0.0000e+00 0.0000e+00 0.0000e+00 [bar]
 5.1360e+01  5.6990e+01 -7.5242e+00 +/- 0.0000e+00 0.0000e+00 0.0000e+00 [bar]
-3.3134e+01 -7.5242e+00  2.0500e+02 +/- 0.0000e+00 0.0000e+00 0.0000e+00 [bar]
Ideal-gas pressure:   5.033952e+02 +/ 0.000000e+00 [bar]
Excess pressure:     -3.717571e+02 +/ 0.000000e+00 [bar]
Pressure:             1.316380e+02 +/ 0.000000e+00 [bar]

Total potential energy/kʙ  -2.839810e+05 (-3.069058e+05 +/- 0.000000e+00) [K]
-------------------------------------------------------------------------------
ExternalField-molecule
    Van der Waals/kʙ        0.000000e+00 ( 0.000000e+00 +/- 0.000000e+00) [K]
Framework-molecule
    Van der Waals/kʙ        0.000000e+00 ( 0.000000e+00 +/- 0.000000e+00) [K]
    Van der Waals (Tail)/kʙ 0.000000e+00 ( 0.000000e+00 +/- 0.000000e+00) [K]
    Coulombic Real/kʙ       0.000000e+00 ( 0.000000e+00 +/- 0.000000e+00) [K]
    Coulombic Fourier/kʙ    0.000000e+00 ( 0.000000e+00 +/- 0.000000e+00) [K]
Molecule-molecule
    Van der Waals/kʙ       -2.094492e+05 (-2.211665e+05 +/- 0.000000e+00) [K]
    Van der Waals (Tail)/kʙ-6.618555e+03 (-7.035132e+03 +/- 0.000000e+00) [K]
    Coulombic Real/kʙ      -5.816723e+04 (-6.853529e+04 +/- 0.000000e+00) [K]
    Coulombic Fourier/kʙ   -9.746044e+03 (-1.016887e+04 +/- 0.000000e+00) [K]
    Molecule Intra/kʙ       0.000000e+00 ( 0.000000e+00 +/- 0.000000e+00) [K]

Current cycle: 1500 out of 5000
===============================================================================

Box:      24.18511   0.00000   0.00000  Average:  23.95945   0.00000   0.00000
           0.00000  24.18511   0.00000             0.00000  23.95945   0.00000
           0.00000   0.00000  24.18511             0.00000   0.00000  23.95945
Lengths:  24.18511  24.18511  24.18511  Average:  23.95945  23.95945  23.95945
Angles:   90.00000  90.00000  90.00000  Average:  90.00000  90.00000  90.00000
Rectangular boundary conditions

net charge:   0.00000000

component 0 (CO2) lambda:  0 occupancy:  1 (1.000000)
    net charge:   0.00000000 [e]

Amount of molecules per component :
-------------------------------------------------------------------------------
Component 0 (CO2)
    molecules:      2.000000e+02 molecules  (2.000000e+02 +/- 0.000000e+00)
    number density: 1.413793e-02 molec./A^3 (1.454668e-02 +/- 0.000000e+00)
    density:        1.032941e+03 kg/m^3     (1.062805e+03 +/- 0.000000e+00)

Average pressure tensor: 
-------------------------------------------------------------------------------
 1.1234e+02  4.4291e+01 -3.5395e+01 +/- 0.0000e+00 0.0000e+00 0.0000e+00 [bar]
 4.4291e+01  8.4705e+01 -2.4176e-01 +/- 0.0000e+00 0.0000e+00 0.0000e+00 [bar]
-3.5395e+01 -2.4176e-01  1.9463e+02 +/- 0.0000e+00 0.0000e+00 0.0000e+00 [bar]
Ideal-gas pressure:   5.020968e+02 +/ 0.000000e+00 [bar]
Excess pressure:     -3.715396e+02 +/ 0.000000e+00 [bar]
Pressure:             1.305572e+02 +/ 0.000000e+00 [bar]

Total potential energy/kʙ  -2.907500e+05 (-3.057504e+05 +/- 0.000000e+00) [K]
-------------------------------------------------------------------------------
ExternalField-molecule
    Van der Waals/kʙ        0.000000e+00 ( 0.000000e+00 +/- 0.000000e+00) [K]
Framework-molecule
    Van der Waals/kʙ        0.000000e+00 ( 0.000000e+00 +/- 0.000000e+00) [K]
    Van der Waals (Tail)/kʙ 0.000000e+00 ( 0.000000e+00 +/- 0.000000e+00) [K]
    Coulombic Real/kʙ       0.000000e+00 ( 0.000000e+00 +/- 0.000000e+00) [K]
    Coulombic Fourier/kʙ    0.000000e+00 ( 0.000000e+00 +/- 0.000000e+00) [K]
Molecule-molecule
    Van der Waals/kʙ       -2.126373e+05 (-2.205745e+05 +/- 0.000000e+00) [K]
    Van der Waals (Tail)/kʙ-6.816996e+03 (-7.019107e+03 +/- 0.000000e+00) [K]
    Coulombic Real/kʙ      -6.179200e+04 (-6.803586e+04 +/- 0.000000e+00) [K]
    Coulombic Fourier/kʙ   -9.503717e+03 (-1.012097e+04 +/- 0.000000e+00) [K]
    Molecule Intra/kʙ       0.000000e+00 ( 0.000000e+00 +/- 0.000000e+00) [K]

Current cycle: 1600 out of 5000
===============================================================================

Box:      23.62271   0.00000   0.00000  Average:  23.95349   0.00000   0.00000
           0.00000  23.62271   0.00000             0.00000  23.95349   0.00000
           0.00000   0.00000  23.62271             0.00000   0.00000  23.95349
Lengths:  23.62271  23.62271  23.62271  Average:  23.95349  23.95349  23.95349
Angles:   90.00000  90.00000  90.00000  Average:  90.00000  90.00000  90.00000
Rectangular boundary conditions

net charge:   0.00000000

component 0 (CO2) lambda:  0 occupancy:  1 (1.000000)
    net charge:   0.00000000 [e]

Amount of molecules per component :
-------------------------------------------------------------------------------
Component 0 (CO2)
    molecules:      2.000000e+02 molecules  (2.000000e+02 +/- 0.000000e+00)
    number density: 1.517193e-02 molec./A^3 (1.455752e-02 +/- 0.000000e+00)
    density:        1.108487e+03 kg/m^3     (1.063598e+03 +/- 0.000000e+00)

Average pressure tensor: 
-------------------------------------------------------------------------------
 1.0924e+02  3.0595e+01 -3.1000e+01 +/- 0.0000e+00 0.0000e+00 0.0000e+00 [bar]
 3.0595e+01  7.5412e+01  2.7187e+00 +/- 0.0000e+00 0.0000e+00 0.0000e+00 [bar]
-3.1000e+01  2.7187e+00  2.0217e+02 +/- 0.0000e+00 0.0000e+00 0.0000e+00 [bar]
Ideal-gas pressure:   5.024712e+02 +/ 0.000000e+00 [bar]
Excess pressure:     -3.735303e+02 +/ 0.000000e+00 [bar]
Pressure:             1.289409e+02 +/ 0.000000e+00 [bar]

Total potential energy/kʙ  -3.169975e+05 (-3.059158e+05 +/- 0.000000e+00) [K]
-------------------------------------------------------------------------------
ExternalField-molecule
    Van der Waals/kʙ        0.000000e+00 ( 0.000000e+00 +/- 0.000000e+00) [K]
Framework-molecule
    Van der Waals/kʙ        0.000000e+00 ( 0.000000e+00 +/- 0.000000e+00) [K]
    Van der Waals (Tail)/kʙ 0.000000e+00 ( 0.000000e+00 +/- 0.000000e+00) [K]
    Coulombic Real/kʙ       0.000000e+00 ( 0.000000e+00 +/- 0.000000e+00) [K]
    Coulombic Fourier/kʙ    0.000000e+00 ( 0.000000e+00 +/- 0.000000e+00) [K]
Molecule-molecule
    Van der Waals/kʙ       -2.296282e+05 (-2.206996e+05 +/- 0.000000e+00) [K]
    Van der Waals (Tail)/kʙ-7.315571e+03 (-7.025383e+03 +/- 0.000000e+00) [K]
    Coulombic Real/kʙ      -6.956364e+04 (-6.805733e+04 +/- 0.000000e+00) [K]
    Coulombic Fourier/kʙ   -1.049012e+04 (-1.013351e+04 +/- 0.000000e+00) [K]
    Molecule Intra/kʙ       0.000000e+00 ( 0.000000e+00 +/- 0.000000e+00) [K]

Current cycle: 1700 out of 5000
===============================================================================

Box:      23.58831   0.00000   0.00000  Average:  23.93601   0.00000   0.00000
           0.00000  23.58831   0.00000             0.00000  23.93601   0.00000
           0.00000   0.00000  23.58831             0.00000   0.00000  23.93601
Lengths:  23.58831  23.58831  23.58831  Average:  23.93601  23.93601  23.93601
Angles:   90.00000  90.00000  90.00000  Average:  90.00000  90.00000  90.00000
Rectangular boundary conditions

net charge:   0.00000000

component 0 (CO2) lambda:  0 occupancy:  1 (1.000000)
    net charge:   0.00000000 [e]

Amount of molecules per component :
-------------------------------------------------------------------------------
Component 0 (CO2)
    molecules:      2.000000e+02 molecules  (2.000000e+02 +/- 0.000000e+00)
    number density: 1.523841e-02 molec./A^3 (1.458994e-02 +/- 0.000000e+00)
    density:        1.113344e+03 kg/m^3     (1.065966e+03 +/- 0.000000e+00)

Average pressure tensor: 
-------------------------------------------------------------------------------
 1.0293e+02  3.7665e+01 -2.5340e+01 +/- 0.0000e+00 0.0000e+00 0.0000e+00 [bar]
 3.7665e+01  9.3378e+01 -1.3824e+00 +/- 0.0000e+00 0.0000e+00 0.0000e+00 [bar]
-2.5340e+01 -1.3824e+00  1.9279e+02 +/- 0.0000e+00 0.0000e+00 0.0000e+00 [bar]
Ideal-gas pressure:   5.035900e+02 +/ 0.000000e+00 [bar]
Excess pressure:     -3.738914e+02 +/ 0.000000e+00 [bar]
Pressure:             1.296986e+02 +/ 0.000000e+00 [bar]

Total potential energy/kʙ  -3.118283e+05 (-3.062722e+05 +/- 0.000000e+00) [K]
-------------------------------------------------------------------------------
ExternalField-molecule
    Van der Waals/kʙ        0.000000e+00 ( 0.000000e+00 +/- 0.000000e+00) [K]
Framework-molecule
    Van der Waals/kʙ        0.000000e+00 ( 0.000000e+00 +/- 0.000000e+00) [K]
    Van der Waals (Tail)/kʙ 0.000000e+00 ( 0.000000e+00 +/- 0.000000e+00) [K]
    Coulombic Real/kʙ       0.000000e+00 ( 0.000000e+00 +/- 0.000000e+00) [K]
    Coulombic Fourier/kʙ    0.000000e+00 ( 0.000000e+00 +/- 0.000000e+00) [K]
Molecule-molecule
    Van der Waals/kʙ       -2.324439e+05 (-2.212084e+05 +/- 0.000000e+00) [K]
    Van der Waals (Tail)/kʙ-7.347625e+03 (-7.040050e+03 +/- 0.000000e+00) [K]
    Coulombic Real/kʙ      -6.145298e+04 (-6.785970e+04 +/- 0.000000e+00) [K]
    Coulombic Fourier/kʙ   -1.058389e+04 (-1.016399e+04 +/- 0.000000e+00) [K]
    Molecule Intra/kʙ       0.000000e+00 ( 0.000000e+00 +/- 0.000000e+00) [K]

Current cycle: 1800 out of 5000
===============================================================================

Box:      23.71105   0.00000   0.00000  Average:  23.92105   0.00000   0.00000
           0.00000  23.71105   0.00000             0.00000  23.92105   0.00000
           0.00000   0.00000  23.71105             0.00000   0.00000  23.92105
Lengths:  23.71105  23.71105  23.71105  Average:  23.92105  23.92105  23.92105
Angles:   90.00000  90.00000  90.00000  Average:  90.00000  90.00000  90.00000
Rectangular boundary conditions

net charge:   0.00000000

component 0 (CO2) lambda:  0 occupancy:  1 (1.000000)
    net charge:   0.00000000 [e]

Amount of molecules per component :
-------------------------------------------------------------------------------
Component 0 (CO2)
    molecules:      2.000000e+02 molecules  (2.000000e+02 +/- 0.000000e+00)
    number density: 1.500298e-02 molec./A^3 (1.461767e-02 +/- 0.000000e+00)
    density:        1.096144e+03 kg/m^3     (1.067992e+03 +/- 0.000000e+00)

Average pressure tensor: 
-------------------------------------------------------------------------------
 9.4813e+01  3.7437e+01 -2.0071e+01 +/- 0.0000e+00 0.0000e+00 0.0000e+00 [bar]
 3.7437e+01  9.7367e+01 -4.4666e+00 +/- 0.0000e+00 0.0000e+00 0.0000e+00 [bar]
-2.0071e+01 -4.4666e+00  1.9409e+02 +/- 0.0000e+00 0.0000e+00 0.0000e+00 [bar]
Ideal-gas pressure:   5.045474e+02 +/ 0.000000e+00 [bar]
Excess pressure:     -3.757910e+02 +/ 0.000000e+00 [bar]
Pressure:             1.287564e+02 +/ 0.000000e+00 [bar]

Total potential energy/kʙ  -3.189297e+05 (-3.067123e+05 +/- 0.000000e+00) [K]
-------------------------------------------------------------------------------
ExternalField-molecule
    Van der Waals/kʙ        0.000000e+00 ( 0.000000e+00 +/- 0.000000e+00) [K]
Framework-molecule
    Van der Waals/kʙ        0.000000e+00 ( 0.000000e+00 +/- 0.000000e+00) [K]
    Van der Waals (Tail)/kʙ 0.000000e+00 ( 0.000000e+00 +/- 0.000000e+00) [K]
    Coulombic Real/kʙ       0.000000e+00 ( 0.000000e+00 +/- 0.000000e+00) [K]
    Coulombic Fourier/kʙ    0.000000e+00 ( 0.000000e+00 +/- 0.000000e+00) [K]
Molecule-molecule
    Van der Waals/kʙ       -2.310529e+05 (-2.216744e+05 +/- 0.000000e+00) [K]
    Van der Waals (Tail)/kʙ-7.234106e+03 (-7.052434e+03 +/- 0.000000e+00) [K]
    Coulombic Real/kʙ      -6.977633e+04 (-6.778442e+04 +/- 0.000000e+00) [K]
    Coulombic Fourier/kʙ   -1.086632e+04 (-1.020107e+04 +/- 0.000000e+00) [K]
    Molecule Intra/kʙ       0.000000e+00 ( 0.000000e+00 +/- 0.000000e+00) [K]

Current cycle: 1900 out of 5000
===============================================================================

Box:      23.70911   0.00000   0.00000  Average:  23.90984   0.00000   0.00000
           0.00000  23.70911   0.00000             0.00000  23.90984   0.00000
           0.00000   0.00000  23.70911             0.00000   0.00000  23.90984
Lengths:  23.70911  23.70911  23.70911  Average:  23.90984  23.90984  23.90984
Angles:   90.00000  90.00000  90.00000  Average:  90.00000  90.00000  90.00000
Rectangular boundary conditions

net charge:   0.00000000

component 0 (CO2) lambda:  0 occupancy:  1 (1.000000)
    net charge:   0.00000000 [e]

Amount of molecules per component :
-------------------------------------------------------------------------------
Component 0 (CO2)
    molecules:      2.000000e+02 molecules  (2.000000e+02 +/- 0.000000e+00)
    number density: 1.500666e-02 molec./A^3 (1.463829e-02 +/- 0.000000e+00)
    density:        1.096412e+03 kg/m^3     (1.069498e+03 +/- 0.000000e+00)

Average pressure tensor: 
-------------------------------------------------------------------------------
 8.3663e+01  2.9326e+01 -2.3393e+01 +/- 0.0000e+00 0.0000e+00 0.0000e+00 [bar]
 2.9326e+01  8.8567e+01  5.9330e+00 +/- 0.0000e+00 0.0000e+00 0.0000e+00 [bar]
-2.3393e+01  5.9330e+00  1.9445e+02 +/- 0.0000e+00 0.0000e+00 0.0000e+00 [bar]
Ideal-gas pressure:   5.052589e+02 +/ 0.000000e+00 [bar]
Excess pressure:     -3.830337e+02 +/ 0.000000e+00 [bar]
Pressure:             1.222252e+02 +/ 0.000000e+00 [bar]

Total potential energy/kʙ  -3.149213e+05 (-3.071229e+05 +/- 0.000000e+00) [K]
-------------------------------------------------------------------------------
ExternalField-molecule
    Van der Waals/kʙ        0.000000e+00 ( 0.000000e+00 +/- 0.000000e+00) [K]
Framework-molecule
    Van der Waals/kʙ        0.000000e+00 ( 0.000000e+00 +/- 0.000000e+00) [K]
    Van der Waals (Tail)/kʙ 0.000000e+00 ( 0.000000e+00 +/- 0.000000e+00) [K]
    Coulombic Real/kʙ       0.000000e+00 ( 0.000000e+00 +/- 0.000000e+00) [K]
    Coulombic Fourier/kʙ    0.000000e+00 ( 0.000000e+00 +/- 0.000000e+00) [K]
Molecule-molecule
    Van der Waals/kʙ       -2.252172e+05 (-2.219543e+05 +/- 0.000000e+00) [K]
    Van der Waals (Tail)/kʙ-7.235881e+03 (-7.060910e+03 +/- 0.000000e+00) [K]
    Coulombic Real/kʙ      -7.111895e+04 (-6.788261e+04 +/- 0.000000e+00) [K]
    Coulombic Fourier/kʙ   -1.134924e+04 (-1.022508e+04 +/- 0.000000e+00) [K]
    Molecule Intra/kʙ       0.000000e+00 ( 0.000000e+00 +/- 0.000000e+00) [K]

Current cycle: 2000 out of 5000
===============================================================================

Box:      23.79541   0.00000   0.00000  Average:  23.90526   0.00000   0.00000
           0.00000  23.79541   0.00000             0.00000  23.90526   0.00000
           0.00000   0.00000  23.79541             0.00000   0.00000  23.90526
Lengths:  23.79541  23.79541  23.79541  Average:  23.90526  23.90526  23.90526
Angles:   90.00000  90.00000  90.00000  Average:  90.00000  90.00000  90.00000
Rectangular boundary conditions

net charge:   0.00000000

component 0 (CO2) lambda:  0 occupancy:  1 (1.000000)
    net charge:   0.00000000 [e]

Amount of molecules per component :
-------------------------------------------------------------------------------
Component 0 (CO2)
    molecules:      2.000000e+02 molecules  (2.000000e+02 +/- 0.000000e+00)
    number density: 1.484398e-02 molec./A^3 (1.464653e-02 +/- 0.000000e+00)
    density:        1.084527e+03 kg/m^3     (1.070101e+03 +/- 0.000000e+00)

Average pressure tensor: 
-------------------------------------------------------------------------------
 8.8665e+01  2.6435e+01 -3.1113e+01 +/- 0.0000e+00 0.0000e+00 0.0000e+00 [bar]
 2.6435e+01  8.0278e+01  6.6657e+00 +/- 0.0000e+00 0.0000e+00 0.0000e+00 [bar]
-3.1113e+01  6.6657e+00  1.8309e+02 +/- 0.0000e+00 0.0000e+00 0.0000e+00 [bar]
Ideal-gas pressure:   5.055434e+02 +/ 0.000000e+00 [bar]
Excess pressure:     -3.881998e+02 +/ 0.000000e+00 [bar]
Pressure:             1.173436e+02 +/ 0.000000e+00 [bar]

Total potential energy/kʙ  -3.103182e+05 (-3.074568e+05 +/- 0.000000e+00) [K]
-------------------------------------------------------------------------------
ExternalField-molecule
    Van der Waals/kʙ        0.000000e+00 ( 0.000000e+00 +/- 0.000000e+00) [K]
Framework-molecule
    Van der Waals/kʙ        0.000000e+00 ( 0.000000e+00 +/- 0.000000e+00) [K]
    Van der Waals (Tail)/kʙ 0.000000e+00 ( 0.000000e+00 +/- 0.000000e+00) [K]
    Coulombic Real/kʙ       0.000000e+00 ( 0.000000e+00 +/- 0.000000e+00) [K]
    Coulombic Fourier/kʙ    0.000000e+00 ( 0.000000e+00 +/- 0.000000e+00) [K]
Molecule-molecule
    Van der Waals/kʙ       -2.270614e+05 (-2.221576e+05 +/- 0.000000e+00) [K]
    Van der Waals (Tail)/kʙ-7.157440e+03 (-7.063633e+03 +/- 0.000000e+00) [K]
    Coulombic Real/kʙ      -6.554086e+04 (-6.798341e+04 +/- 0.000000e+00) [K]
    Coulombic Fourier/kʙ   -1.055845e+04 (-1.025219e+04 +/- 0.000000e+00) [K]
    Molecule Intra/kʙ       0.000000e+00 ( 0.000000e+00 +/- 0.000000e+00) [K]

Current cycle: 2100 out of 5000
===============================================================================

Box:      23.71440   0.00000   0.00000  Average:  23.89901   0.00000   0.00000
           0.00000  23.71440   0.00000             0.00000  23.89901   0.00000
           0.00000   0.00000  23.71440             0.00000   0.00000  23.89901
Lengths:  23.71440  23.71440  23.71440  Average:  23.89901  23.89901  23.89901
Angles:   90.00000  90.00000  90.00000  Average:  90.00000  90.00000  90.00000
Rectangular boundary conditions

net charge:   0.00000000

component 0 (CO2) lambda:  0 occupancy:  1 (1.000000)
    net charge:   0.00000000 [e]

Amount of molecules per component :
-------------------------------------------------------------------------------
Component 0 (CO2)
    molecules:      2.000000e+02 molecules  (2.000000e+02 +/- 0.000000e+00)
    number density: 1.499662e-02 molec./A^3 (1.465790e-02 +/- 0.000000e+00)
    density:        1.095679e+03 kg/m^3     (1.070931e+03 +/- 0.000000e+00)

Average pressure tensor: 
-------------------------------------------------------------------------------
 1.0058e+02  1.9110e+01 -2.3483e+01 +/- 0.0000e+00 0.0000e+00 0.0000e+00 [bar]
 1.9110e+01  8.8150e+01  1.5189e+01 +/- 0.0000e+00 0.0000e+00 0.0000e+00 [bar]
-2.3483e+01  1.5189e+01  1.8077e+02 +/- 0.0000e+00 0.0000e+00 0.0000e+00 [bar]
Ideal-gas pressure:   5.059359e+02 +/ 0.000000e+00 [bar]
Excess pressure:     -3.827707e+02 +/ 0.000000e+00 [bar]
Pressure:             1.231652e+02 +/ 0.000000e+00 [bar]

Total potential energy/kʙ  -3.215670e+05 (-3.078365e+05 +/- 0.000000e+00) [K]
-------------------------------------------------------------------------------
ExternalField-molecule
    Van der Waals/kʙ        0.000000e+00 ( 0.000000e+00 +/- 0.000000e+00) [K]
Framework-molecule
    Van der Waals/kʙ        0.000000e+00 ( 0.000000e+00 +/- 0.000000e+00) [K]
    Van der Waals (Tail)/kʙ 0.000000e+00 ( 0.000000e+00 +/- 0.000000e+00) [K]
[...]
    Coulombic Fourier/kʙ    0.000000e+00 ( 0.000000e+00 +/- 0.000000e+00) [K]
Molecule-molecule
    Van der Waals/kʙ       -2.216173e+05 (-2.216336e+05 +/- 2.700226e+03) [K]
    Van der Waals (Tail)/kʙ-6.868590e+03 (-7.051074e+03 +/- 8.176165e+01) [K]
    Coulombic Real/kʙ      -6.880431e+04 (-6.875012e+04 +/- 1.835624e+03) [K]
    Coulombic Fourier/kʙ   -9.611442e+03 (-1.023620e+04 +/- 1.117536e+02) [K]
    Molecule Intra/kʙ       0.000000e+00 ( 0.000000e+00 +/- 0.000000e+00) [K]

Current cycle: 4700 out of 5000
===============================================================================

Box:      24.06962   0.00000   0.00000  Average:  23.91979   0.00000   0.00000
           0.00000  24.06962   0.00000             0.00000  23.91979   0.00000
           0.00000   0.00000  24.06962             0.00000   0.00000  23.91979
Lengths:  24.06962  24.06962  24.06962  Average:  23.91979  23.91979  23.91979
Angles:   90.00000  90.00000  90.00000  Average:  90.00000  90.00000  90.00000
Rectangular boundary conditions

net charge:   0.00000000

component 0 (CO2) lambda:  0 occupancy:  1 (1.000000)
    net charge:   0.00000000 [e]

Amount of molecules per component :
-------------------------------------------------------------------------------
Component 0 (CO2)
    molecules:      2.000000e+02 molecules  (2.000000e+02 +/- 0.000000e+00)
    number density: 1.434242e-02 molec./A^3 (1.461902e-02 +/- 1.550470e-04)
    density:        1.047882e+03 kg/m^3     (1.068091e+03 +/- 1.132800e+01)

Average pressure tensor: 
-------------------------------------------------------------------------------
 9.2826e+01  1.0620e+01  2.9721e+00 +/- 6.1782e+01 4.7038e+01 6.0748e+01 [bar]
 1.0620e+01  1.3011e+02  1.6979e+01 +/- 4.7038e+01 1.0167e+02 2.9704e+01 [bar]
 2.9721e+00  1.6979e+01  1.4005e+02 +/- 6.0748e+01 2.9704e+01 8.4384e+01 [bar]
Ideal-gas pressure:   5.045939e+02 +/ 5.351644e+00 [bar]
Excess pressure:     -3.835983e+02 +/ 3.692181e+01 [bar]
Pressure:             1.209956e+02 +/ 3.862703e+01 [bar]

Total potential energy/kʙ  -2.994316e+05 (-3.077072e+05 +/- 3.464192e+03) [K]
-------------------------------------------------------------------------------
ExternalField-molecule
    Van der Waals/kʙ        0.000000e+00 ( 0.000000e+00 +/- 0.000000e+00) [K]
Framework-molecule
    Van der Waals/kʙ        0.000000e+00 ( 0.000000e+00 +/- 0.000000e+00) [K]
    Van der Waals (Tail)/kʙ 0.000000e+00 ( 0.000000e+00 +/- 0.000000e+00) [K]
    Coulombic Real/kʙ       0.000000e+00 ( 0.000000e+00 +/- 0.000000e+00) [K]
    Coulombic Fourier/kʙ    0.000000e+00 ( 0.000000e+00 +/- 0.000000e+00) [K]
Molecule-molecule
    Van der Waals/kʙ       -2.153300e+05 (-2.216295e+05 +/- 2.462456e+03) [K]
    Van der Waals (Tail)/kʙ-6.915596e+03 (-7.051429e+03 +/- 7.613592e+01) [K]
    Coulombic Real/kʙ      -6.697073e+04 (-6.879225e+04 +/- 1.853429e+03) [K]
    Coulombic Fourier/kʙ   -1.021527e+04 (-1.023407e+04 +/- 1.115486e+02) [K]
    Molecule Intra/kʙ       0.000000e+00 ( 0.000000e+00 +/- 0.000000e+00) [K]

Current cycle: 4800 out of 5000
===============================================================================

Box:      23.90675   0.00000   0.00000  Average:  23.91951   0.00000   0.00000
           0.00000  23.90675   0.00000             0.00000  23.91951   0.00000
           0.00000   0.00000  23.90675             0.00000   0.00000  23.91951
Lengths:  23.90675  23.90675  23.90675  Average:  23.91951  23.91951  23.91951
Angles:   90.00000  90.00000  90.00000  Average:  90.00000  90.00000  90.00000
Rectangular boundary conditions

net charge:   0.00000000

component 0 (CO2) lambda:  0 occupancy:  1 (1.000000)
    net charge:   0.00000000 [e]

Amount of molecules per component :
-------------------------------------------------------------------------------
Component 0 (CO2)
    molecules:      2.000000e+02 molecules  (2.000000e+02 +/- 0.000000e+00)
    number density: 1.463754e-02 molec./A^3 (1.461945e-02 +/- 1.461125e-04)
    density:        1.069444e+03 kg/m^3     (1.068122e+03 +/- 1.067523e+01)

Average pressure tensor: 
-------------------------------------------------------------------------------
 9.2936e+01  1.1544e+01  3.4031e+00 +/- 6.1626e+01 4.6692e+01 5.9028e+01 [bar]
 1.1544e+01  1.3161e+02  1.5601e+01 +/- 4.6692e+01 9.9765e+01 2.2937e+01 [bar]
 3.4031e+00  1.5601e+01  1.4365e+02 +/- 5.9028e+01 2.2937e+01 7.7483e+01 [bar]
Ideal-gas pressure:   5.046087e+02 +/ 5.043257e+00 [bar]
Excess pressure:     -3.818779e+02 +/ 3.837180e+01 [bar]
Pressure:             1.227308e+02 +/ 4.032218e+01 [bar]

Total potential energy/kʙ  -3.015867e+05 (-3.076690e+05 +/- 3.104092e+03) [K]
-------------------------------------------------------------------------------
ExternalField-molecule
    Van der Waals/kʙ        0.000000e+00 ( 0.000000e+00 +/- 0.000000e+00) [K]
Framework-molecule
    Van der Waals/kʙ        0.000000e+00 ( 0.000000e+00 +/- 0.000000e+00) [K]
    Van der Waals (Tail)/kʙ 0.000000e+00 ( 0.000000e+00 +/- 0.000000e+00) [K]
    Coulombic Real/kʙ       0.000000e+00 ( 0.000000e+00 +/- 0.000000e+00) [K]
    Coulombic Fourier/kʙ    0.000000e+00 ( 0.000000e+00 +/- 0.000000e+00) [K]
Molecule-molecule
    Van der Waals/kʙ       -2.141736e+05 (-2.215756e+05 +/- 2.176381e+03) [K]
    Van der Waals (Tail)/kʙ-7.057900e+03 (-7.051605e+03 +/- 7.173850e+01) [K]
    Coulombic Real/kʙ      -6.985983e+04 (-6.881525e+04 +/- 1.836576e+03) [K]
    Coulombic Fourier/kʙ   -1.049540e+04 (-1.022654e+04 +/- 1.227410e+02) [K]
    Molecule Intra/kʙ       0.000000e+00 ( 0.000000e+00 +/- 0.000000e+00) [K]

Current cycle: 4900 out of 5000
===============================================================================

Box:      24.06407   0.00000   0.00000  Average:  23.91985   0.00000   0.00000
           0.00000  24.06407   0.00000             0.00000  23.91985   0.00000
           0.00000   0.00000  24.06407             0.00000   0.00000  23.91985
Lengths:  24.06407  24.06407  24.06407  Average:  23.91985  23.91985  23.91985
Angles:   90.00000  90.00000  90.00000  Average:  90.00000  90.00000  90.00000
Rectangular boundary conditions

net charge:   0.00000000

component 0 (CO2) lambda:  0 occupancy:  1 (1.000000)
    net charge:   0.00000000 [e]

Amount of molecules per component :
-------------------------------------------------------------------------------
Component 0 (CO2)
    molecules:      2.000000e+02 molecules  (2.000000e+02 +/- 0.000000e+00)
    number density: 1.435234e-02 molec./A^3 (1.461875e-02 +/- 1.372040e-04)
    density:        1.048606e+03 kg/m^3     (1.068071e+03 +/- 1.002436e+01)

Average pressure tensor: 
-------------------------------------------------------------------------------
 9.1764e+01  1.0525e+01  2.1189e+00 +/- 6.1018e+01 4.2729e+01 5.4968e+01 [bar]
 1.0525e+01  1.2982e+02  1.2238e+01 +/- 4.2729e+01 9.2157e+01 1.4104e+01 [bar]
 2.1189e+00  1.2238e+01  1.4482e+02 +/- 5.4968e+01 1.4104e+01 7.5755e+01 [bar]
Ideal-gas pressure:   5.045844e+02 +/ 4.735767e+00 [bar]
Excess pressure:     -3.824493e+02 +/ 3.737670e+01 [bar]
Pressure:             1.221351e+02 +/ 3.892928e+01 [bar]

Total potential energy/kʙ  -2.992637e+05 (-3.076218e+05 +/- 2.819446e+03) [K]
-------------------------------------------------------------------------------
ExternalField-molecule
    Van der Waals/kʙ        0.000000e+00 ( 0.000000e+00 +/- 0.000000e+00) [K]
Framework-molecule
    Van der Waals/kʙ        0.000000e+00 ( 0.000000e+00 +/- 0.000000e+00) [K]
    Van der Waals (Tail)/kʙ 0.000000e+00 ( 0.000000e+00 +/- 0.000000e+00) [K]
    Coulombic Real/kʙ       0.000000e+00 ( 0.000000e+00 +/- 0.000000e+00) [K]
    Coulombic Fourier/kʙ    0.000000e+00 ( 0.000000e+00 +/- 0.000000e+00) [K]
Molecule-molecule
    Van der Waals/kʙ       -2.175803e+05 (-2.215653e+05 +/- 2.058567e+03) [K]
    Van der Waals (Tail)/kʙ-6.920381e+03 (-7.051057e+03 +/- 6.700946e+01) [K]
    Coulombic Real/kʙ      -6.534752e+04 (-6.877384e+04 +/- 1.734284e+03) [K]
    Coulombic Fourier/kʙ   -9.415499e+03 (-1.023157e+04 +/- 1.088165e+02) [K]
    Molecule Intra/kʙ       0.000000e+00 ( 0.000000e+00 +/- 0.000000e+00) [K]


Energy statistics             |  Energy [K]   | Recomputed [K]|  Drift [K]    |
===============================================================================
Total potential energy/kʙ     | -3.071061e+05 | -3.071061e+05 | -1.715190e-09 |
    external field VDW/kʙ     |  0.000000e+00 |  0.000000e+00 |  0.000000e+00 |
    external field Real/kʙ    |  0.000000e+00 |  0.000000e+00 |  0.000000e+00 |
    framework-molecule VDW/kʙ |  0.000000e+00 |  0.000000e+00 |  0.000000e+00 |
    framework-molecule Real/kʙ|  0.000000e+00 |  0.000000e+00 |  0.000000e+00 |
    molecule-molecule VDW/kʙ  | -2.263054e+05 | -2.263054e+05 | -4.900544e-10 |
    molecule-molecule Real/kʙ | -6.356465e+04 | -6.356465e+04 | -1.181381e-09 |
    Van der Waals (Tail)/kʙ   | -7.000832e+03 | -7.000832e+03 |  0.000000e+00 |
    Ewald Fourier/kʙ          |  7.917880e+03 |  7.917880e+03 | -4.375485e-11 |
    Ewald self/kʙ             | -4.023739e+06 | -4.023739e+06 |  0.000000e+00 |
    Ewald exclusion/kʙ        |  4.005586e+06 |  4.005586e+06 |  0.000000e+00 |
    intra VDW/kʙ              |  0.000000e+00 |  0.000000e+00 |  0.000000e+00 |
    intra Coulombic/kʙ        |  0.000000e+00 |  0.000000e+00 |  0.000000e+00 |
    polarization/kʙ           |  0.000000e+00 |  0.000000e+00 |  0.000000e+00 |
    dU/dlambda VDW/kʙ         |  0.000000e+00 |  0.000000e+00 |  0.000000e+00 |
    dU/dlambda Real/kʙ        |  0.000000e+00 |  0.000000e+00 |  0.000000e+00 |
    dU/dlambda Ewald/kʙ       |  0.000000e+00 |  0.000000e+00 |  0.000000e+00 |
-------------------------------------------------------------------------------


Monte-Carlo moves statistics
===============================================================================

    Volume change        all:                6576
    Volume change        total:              6576
    Volume change        constructed:        6576
    Volume change        accepted:           1995
    Volume change        fraction:       0.303376
    Volume change        max-change:     0.050000

Component 0 [CO2]
    Reinsertion (CBMC)   all:              331196
    Reinsertion (CBMC)   total:            331196
    Reinsertion (CBMC)   constructed:      293404
    Reinsertion (CBMC)   accepted:           4331
    Reinsertion (CBMC)   fraction:       0.013077
    Reinsertion (CBMC)   max-change:     0.000000

    Translation          all:              331455
    Translation          total:            110316     110565     110574
    Translation          constructed:      110316     110565     110574
    Translation          accepted:          52876      48529      53634
    Translation          fraction:       0.479314   0.438918   0.485051
    Translation          max-change:     0.700000   0.782609   0.688696

    Rotation             all:              330773
    Rotation             total:            110172     110263     110338
    Rotation             constructed:      110171     110263     110338
    Rotation             accepted:          51652      62921      62177
    Rotation             fraction:       0.468831   0.570645   0.563514
    Rotation             max-change:     0.761905   0.545455   0.552995



Production run counting of the MC moves summed over systems and components
===============================================================================

Volume change                          6576 (0.6576 [%])
Reinsertion (CBMC)                   331196 (33.1196 [%])
Translation                          331455 (33.1455 [%])
Rotation                             330773 (33.0773 [%])

Production count MC-steps:          1000000 [-]
               All summed:          1000000 [-]
               difference:                0 [-]


Production run CPU timings of the MC moves
===============================================================================

Component 0 CO2

Rotation                             46.530171 [s]
    Ewald                            18.586342 [s]
    ExternalField-Molecule            0.013821 [s]
    Framework-Molecule                0.012890 [s]
    Molecule-Molecule                26.234748 [s]
    Overhead                          1.682370 [s]

Reinsertion (CBMC)                  192.859889 [s]
    Ewald                            16.598714 [s]
    NonEwald                        175.947704 [s]
    Overhead                          0.313471 [s]

Translation                          46.570451 [s]
    Ewald                            18.613610 [s]
    ExternalField-Molecule            0.012629 [s]
    Framework-Molecule                0.018239 [s]
    Molecule-Molecule                26.439480 [s]
    Overhead                          1.486493 [s]



Volume change                         42.413282 [s]
    Ewald                             14.318801 [s]
    NonEwald                          26.307829 [s]
    Tail                               1.564904 [s]

Property sampling                     0.280766 [s]
Energy/pressure sampling:             6.484215 [s]


Production run CPU timings of the MC moves summed over systems and components
===============================================================================


Translation                          46.570451 [s]
    Ewald                            18.613610 [s]
    ExternalField-Molecule            0.012629 [s]
    Framework-Molecule                0.018239 [s]
    Molecule-Molecule                26.439480 [s]
    Overhead                          1.486493 [s]

Rotation                             46.530171 [s]
    Ewald                            18.586342 [s]
    ExternalField-Molecule            0.013821 [s]
    Framework-Molecule                0.012890 [s]
    Molecule-Molecule                26.234748 [s]
    Overhead                          1.682370 [s]

Volume change                        42.413282 [s]
    Ewald                            14.318801 [s]
    NonEwald                         26.307829 [s]
    Tail                              1.564904 [s]
    Overhead                          0.221748 [s]

Reinsertion (CBMC)                  192.859889 [s]
    Ewald                            16.598714 [s]
    NonEwald                        175.947704 [s]
    Overhead                          0.313471 [s]

Property sampling:                    0.280766 [s]
Energy/pressure sampling:             6.484215 [s]

Production simulation time:         335.881155 [s]
                All summed:         335.138774 [s]
                  Overhead:           0.742381 [s]


Initalization simulation time:       65.696560 [s]
Equilibration simulation time:        0.000000 [s]
Production simulation time:         335.881155 [s]
Total simulation time:              401.577715 [s]


Energy averages and statistics:
===============================================================================

Framework-molecule energy:
-------------------------------------------------------------------------------



Framework-molecule energy contributions per energy type:
-------------------------------------------------------------------------------



Inter-molecular energy:
-------------------------------------------------------------------------------

    Inter-molecular energy/kʙ 0-0 [CO2-CO2]:
    ---------------------------------------------------------------------------
        Block[  0] -3.077288e+05
        Block[  1] -3.071561e+05
        Block[  2] -3.043951e+05
        Block[  3] -3.084251e+05
        Block[  4] -3.093122e+05
        -----------------------------------------------------------------------
        Average  -3.074035e+05 +/-  2.314597e+03 [K]



Inter-molecular energy contributions per energy type:
-------------------------------------------------------------------------------

    Van der Waals energy/kʙ 0-0 [CO2-CO2]:
    ---------------------------------------------------------------------------
        Block[  0] -2.213722e+05
        Block[  1] -2.228939e+05
        Block[  2] -2.194069e+05
        Block[  3] -2.207848e+05
        Block[  4] -2.229764e+05
        -----------------------------------------------------------------------
        Average  -2.214868e+05 +/-  1.865376e+03 [K]

    VDW Tail-Correction energy/kʙ 0-0 [CO2-CO2]:
    ---------------------------------------------------------------------------
        Block[  0] -7.053298e+03
        Block[  1] -7.073029e+03
        Block[  2] -6.970377e+03
        Block[  3] -7.045621e+03
        Block[  4] -7.104135e+03
        -----------------------------------------------------------------------
        Average  -7.049292e+03 +/-  6.153779e+01 [K]

    Coulomb Real energy/kʙ 0-0 [CO2-CO2]:
    ---------------------------------------------------------------------------
        Block[  0] -6.909088e+04
        Block[  1] -6.690036e+04
        Block[  2] -6.786231e+04
        Block[  3] -7.024593e+04
        Block[  4] -6.911903e+04
        -----------------------------------------------------------------------
        Average  -6.864370e+04 +/-  1.599861e+03 [K]

    Coulomb Fourier energy/kʙ 0-0 [CO2-CO2]:
    ---------------------------------------------------------------------------
        Block[  0] -1.021244e+04
        Block[  1] -1.028888e+04
        Block[  2] -1.015558e+04
        Block[  3] -1.034868e+04
        Block[  4] -1.011264e+04
        -----------------------------------------------------------------------
        Average  -1.022364e+04 +/-  1.193512e+02 [K]


Total energy/kʙ
-------------------------------------------------------------------------------
    Block[  0] -3.077288e+05
    Block[  1] -3.071561e+05
    Block[  2] -3.043951e+05
    Block[  3] -3.084251e+05
    Block[  4] -3.093122e+05
    ---------------------------------------------------------------------------
    Average  -3.074035e+05 +/-  2.314597e+03 [K]

Pressure averages and statistics:
===============================================================================

Average pressure tensor: 
-------------------------------------------------------------------------------
 9.2065e+01  7.6621e+00  1.4368e+00 +/- 6.1053e+01 3.7496e+01 5.2930e+01 [bar]
 7.6621e+00  1.2814e+02  1.4572e+01 +/- 3.7496e+01 8.6884e+01 1.7949e+01 [bar]
 1.4368e+00  1.4572e+01  1.4567e+02 +/- 5.2930e+01 1.7949e+01 7.4850e+01 [bar]

    Block[  0]  5.045374e+07
    Block[  1]  5.065426e+07
    Block[  2]  4.990901e+07
    Block[  3]  5.037943e+07
    Block[  4]  5.083935e+07
    ---------------------------------------------------------------------------
    Ideal gas pressure   5.044716e+07 +/-  2.619203e-02 [Pa]
                         5.044716e+02 +/-  4.349291e+00 [bar]


    Block[  0] -3.554476e+07
    Block[  1] -4.207419e+07
    Block[  2] -4.081872e+07
    Block[  3] -3.597847e+07
    Block[  4] -3.684040e+07
    ---------------------------------------------------------------------------
    Excess pressure  -3.825131e+07 +/-  3.708214e+06 [Pa]
                     -3.825131e+02 +/-  3.708214e+01 [bar]


    Block[  0]  1.490898e+07
    Block[  1]  8.580070e+06
    Block[  2]  9.090288e+06
    Block[  3]  1.440096e+07
    Block[  4]  1.399895e+07
    ---------------------------------------------------------------------------
    Pressure average   1.219585e+07 +/-  3.836163e+06 [Pa]
                       1.219585e+02 +/-  3.836163e+01 [bar]


Enthalpy of adsorption
===============================================================================

No fluctuating components present.


Densities
===============================================================================

Component 0 (CO2)
    Block[  0] 200
    Block[  1] 200
    Block[  2] 200
    Block[  3] 200
    Block[  4] 200
    -----------------------------------------------------------------------
    Density average   2.000000e+02 +/-  0.000000e+00 [molecules]
    Density average   1.461548e-02 +/-  1.260070e-04 [molec/A^3]
    Density average   1.067832e+03 +/-  9.206289e+00 [kg.m⁻³]

