Compiler and run-time data
===============================================================================
RASPA 3.0.4

Random seed: 1226506224

Compiled as a 64-bits application
Compiler: gcc Ubuntu Clang 18.1.3 (1ubuntu1)
Compile Date = Mar 15 2025, Compile Time = 19:39:45

2025-06-02 13:21:36.147128
Simulation started on Mon, Jun 02
The start time was 13:21:00

Hostname:    c060
OS type:     Linux on x86_64
OS release:  6.8.0-58-generic
OS version:  #60-Ubuntu SMP PREEMPT_DYNAMIC Fri Mar 14 18:29:48 UTC 2025


Mutual consistent basic set of units:
===============================================================================

Unit of temperature: 1 [K]
Unit of length:      1e-10 [m]
Unit of time:        1e-12 [s]
Unit of mass:        1.6605402e-27 [kg]
Unit of charge:      1.60217733e-19 [C/particle]


Boltzmann constant (internal units):          0.8314464919307584 [-]
represents conversion from energy (internal units) to temperature (in Kelvin)

Derived units and their conversion factors:
===============================================================================

Unit of energy:                           1.6605402000000002e-23 [J]
Unit of energy:                           10.000008872307538 [J.mol⁻¹]
Unit of velocity:                         100 [m.s⁻¹]
Unit of force:                            1.6605402000000002e-13 [N]
Unit of diffusion:                        1.0000000000000002e-08 [m².s⁻¹]
Unit of acceleration:                     1.0000000000000002e-08 [m².s⁻¹]
Unit of torque:                           1.6605402000000002e-23 [N.m]
Unit of pressure:                         16605402 [Pa]
Unit of volume:                           1e-30 [m³]
Unit of density:                          1660.5402 [kg.m⁻³]
Unit of dynamic viscosity:                1.6605401999999997e-05 [N.s.m⁻²]
Unit of enthalpy:                         1.6605402000000002e-23 [J]
Unit of polarizability:                   1.5458657349975198e-35 [-]
Unit of Coulomb potential:                167101.08000665612 [K]
Unit of dielectric constant:              1.5458657349975193e-05 [s².C².kg⁻¹.m⁻³]
Unit of dipole moment:                    1.60217733e-29 [C.m]
Unit of Debye:                            4.803206799099162 [C.m]
Unit of electric potential:               0.00010364272224473431 [V]
Unit of electric field:                   1036427.222447343 [V.m⁻¹]
Unit of isothermal compressibility:       6.02213665167516e-08 [Pa⁻¹]
Unit of heat capacity:                    10.000008872307538 [J.mol⁻¹.K⁻¹]
Unit of volumetric expansion coefficient: 1 [K⁻¹]


Internal conversion factors:
===============================================================================

Energy (internal units) to Kelvin:      1.202724284692786 [-]
Kelvin to energy (internal units):      0.8314457542157567 [-]


System definitions
===============================================================================

Temperature:          250 [K]
Beta:                 0.0048108928702210625 [-]
Pressure:             8e+06 [Pa]
Helium void fraction: 1 [-]

Box:      30.00000   0.00000   0.00000
           0.00000  30.00000   0.00000
           0.00000   0.00000  30.00000
Lengths:  30.00000  30.00000  30.00000
Angles:   90.00000  90.00000  90.00000
Rectangular boundary conditions



Property measurement settings
===============================================================================




Pseudo-atoms
===============================================================================

  0 - C_co2    framework-atom: false
  1 - O_co2    framework-atom: false

  0 - C_co2    mass: 12.00000, charge:  0.70000
  1 - O_co2    mass: 15.99940, charge: -0.35000

  0 - C_co2    polarizability:  0.00000
  1 - O_co2    polarizability:  0.00000

  0 - J. J. Potoff et al., AIChE J. 2001, 47, 1676–1682.
  1 - J. J. Potoff et al., AIChE J. 2001, 47, 1676–1682.

Force field status
===============================================================================

Cutoff Framework-Molecule VDW:  11.00000 [Å]
Cutoff Molecule-Molecule VDW:   11.00000 [Å]
Cutoff Coulomb:                 11.00000 [Å]

Overlap-criteria VDW:           1.000000e+05 [K]

C_co2    - C_co2    Lennard-Jones p₀/kʙ:  27.00000 [K], p₁:  2.80000 [Å]
                                  shift:   0.00000 [K], tailcorrections: true
C_co2    - O_co2    Lennard-Jones p₀/kʙ:  46.18441 [K], p₁:  2.92500 [Å]
                                  shift:   0.00000 [K], tailcorrections: true
O_co2    - O_co2    Lennard-Jones p₀/kʙ:  79.00000 [K], p₁:  3.05000 [Å]
                                  shift:   0.00000 [K], tailcorrections: true

Ewald precision: 1e-06
Ewald alpha: 0.2903408740940883
Ewald k-vectors: 9 9 9


Component definitions
===============================================================================

Component 0 [CO2]

    Type: Adsorbate

    Critical temperature:  304.1282 [K]
    Critical pressure:     7377300 [Pa]
    Acentric factor:       0.22394 [-]

    Mol-fraction:                 1 [-]
    Swappable:                   false

    Mass:                         43.9988 [-]
    Bulk fluid density:           0 [-]
    Compressibility:              0 [-]
    Excess molecules:             0 [-]

    Number Of Atoms:    3
    CBMC starting bead: 0
      0: O_co2  position  0.00000 -0.00000  1.16000, charge -0.35000
      1: C_co2  position  0.00000 -0.00000  0.00000, charge  0.70000
      2: O_co2  position  0.00000 -0.00000 -1.16000, charge -0.35000
    Diagonalized inertia-vector:      43.05758528 43.05758528 0.00000000
    Translational degrees of freedom: 3
    Rotational degrees of freedom:    2
    Shape of the molecule is: 'Linear'
    Net-charge:        0.00000000 [e]

    Move probabilities:
    Translation:                   0.331126 [-]
    Random translation:            0.000000 [-]
    Rotation:                      0.331126 [-]
    Random rotation:               0.000000 [-]
    Volume change:                 0.006623 [-]
    Reinsertion (CBMC):            0.331126 [-]
    Identity change (CBMC):        0.000000 [-]
    Swap:                          0.000000 [-]
    Swap (CBMC):                   0.000000 [-]
    Swap (CFCMC):                  0.000000 [-]
    Swap (CB/CFCMC):               0.000000 [-]
    Gibbs volume:                  0.000000 [-]
    Gibbs swap (CBMC):             0.000000 [-]
    Gibbs swap (CFCMC):            0.000000 [-]
    Widom:                         0.000000 [-]
    Widom (CFCMC):                 0.000000 [-]
    Widom (CB/CFCMC):              0.000000 [-]
    Parallel tempering:            0.000000 [-]
    Hybrid MC:                     0.000000 [-]

    number of blocking-pockets: 0

    number of bonds: 0





Number of pseudo-atoms
===============================================================================

Component   0 (CO2)
-------------------------------------------------------------------------------
    index   0 (C_co2): 200 atoms
    index   1 (O_co2): 400 atoms

Total number of pseudo-atoms:
-------------------------------------------------------------------------------
    index   0 (C_co2): 200 atoms
    index   1 (O_co2): 400 atoms




Energy status Recomputed from scratch
===============================================================================

Total potential energy/kʙ       -9.294310e+04 [K]
    external field VDW/kʙ        0.000000e+00 [K]
    external field Real/kʙ       0.000000e+00 [K]
    framework-molecule VDW/kʙ    0.000000e+00 [K]
    framework-molecule Real/kʙ   0.000000e+00 [K]
    molecule-molecule VDW/kʙ    -7.299079e+04 [K]
    molecule-molecule Real/kʙ   -1.449143e+04 [K]
    Van der Waals (Tail)/kʙ     -3.571688e+03 [K]
    Ewald Fourier/kʙ             1.626391e+04 [K]
    Ewald self/kʙ               -4.023739e+06 [K]
    Ewald exclusion/kʙ           4.005586e+06 [K]
    intra VDW/kʙ                 0.000000e+00 [K]
    intra Coulombic/kʙ           0.000000e+00 [K]
    polarization/kʙ              0.000000e+00 [K]
    dU/dlambda VDW/kʙ            0.000000e+00 [K]
    dU/dlambda Real/kʙ           0.000000e+00 [K]
    dU/dlambda Ewald/kʙ          0.000000e+00 [K]





Initialization: Current cycle: 0 out of 1000
===============================================================================

Box:      30.27953   0.00000   0.00000
           0.00000  30.27953   0.00000
           0.00000   0.00000  30.27953
Lengths:  30.27953  30.27953  30.27953
Angles:   90.00000  90.00000  90.00000
Rectangular boundary conditions

net charge:   0.00000000

component   0 (CO2) lambda:  0 occupancy:  1 (1.000000)
    net charge:   0.00000000 [e]

Amount of molecules per component :
-------------------------------------------------------------------------------
Component 0 (CO2)
    molecules:         2.000000e+02 molecules
    number density:    7.204148e-03 molec/A^3
    density:           5.263474e+02 kg/m^3

Total potential energy/kʙ       -1.314789e+05 [K]
-------------------------------------------------------------------------------
    external field VDW/kʙ        0.000000e+00 [K]
    external field Real/kʙ       0.000000e+00 [K]
    framework-molecule VDW/kʙ    0.000000e+00 [K]
    framework-molecule Real/kʙ   0.000000e+00 [K]
    molecule-molecule VDW/kʙ    -1.053266e+05 [K]
    molecule-molecule Real/kʙ   -1.891643e+04 [K]
    Van der Waals (Tail)/kʙ     -3.473681e+03 [K]
    Ewald Fourier/kʙ             1.439088e+04 [K]
    Ewald self/kʙ               -4.023739e+06 [K]
    Ewald exclusion/kʙ           4.005586e+06 [K]
    intra VDW/kʙ                 0.000000e+00 [K]
    intra Coulombic/kʙ           0.000000e+00 [K]
    polarization/kʙ              0.000000e+00 [K]
    dU/dlambda VDW/kʙ            0.000000e+00 [K]
    dU/dlambda Real/kʙ           0.000000e+00 [K]
    dU/dlambda Ewald/kʙ          0.000000e+00 [K]


Initialization: Current cycle: 100 out of 1000
===============================================================================

Box:      29.21627   0.00000   0.00000
           0.00000  29.21627   0.00000
           0.00000   0.00000  29.21627
Lengths:  29.21627  29.21627  29.21627
Angles:   90.00000  90.00000  90.00000
Rectangular boundary conditions

net charge:   0.00000000

component   0 (CO2) lambda:  0 occupancy:  1 (1.000000)
    net charge:   0.00000000 [e]

Amount of molecules per component :
-------------------------------------------------------------------------------
Component 0 (CO2)
    molecules:         2.000000e+02 molecules
    number density:    8.019656e-03 molec/A^3
    density:           5.859298e+02 kg/m^3

Total potential energy/kʙ       -1.913572e+05 [K]
-------------------------------------------------------------------------------
    external field VDW/kʙ        0.000000e+00 [K]
    external field Real/kʙ       0.000000e+00 [K]
    framework-molecule VDW/kʙ    0.000000e+00 [K]
    framework-molecule Real/kʙ   0.000000e+00 [K]
    molecule-molecule VDW/kʙ    -1.434257e+05 [K]
    molecule-molecule Real/kʙ   -3.797902e+04 [K]
    Van der Waals (Tail)/kʙ     -3.866901e+03 [K]
    Ewald Fourier/kʙ             1.206747e+04 [K]
    Ewald self/kʙ               -4.023739e+06 [K]
    Ewald exclusion/kʙ           4.005586e+06 [K]
    intra VDW/kʙ                 0.000000e+00 [K]
    intra Coulombic/kʙ           0.000000e+00 [K]
    polarization/kʙ              0.000000e+00 [K]
    dU/dlambda VDW/kʙ            0.000000e+00 [K]
    dU/dlambda Real/kʙ           0.000000e+00 [K]
    dU/dlambda Ewald/kʙ          0.000000e+00 [K]


Initialization: Current cycle: 200 out of 1000
===============================================================================

Box:      27.70285   0.00000   0.00000
           0.00000  27.70285   0.00000
           0.00000   0.00000  27.70285
Lengths:  27.70285  27.70285  27.70285
Angles:   90.00000  90.00000  90.00000
Rectangular boundary conditions

net charge:   0.00000000

component   0 (CO2) lambda:  0 occupancy:  1 (1.000000)
    net charge:   0.00000000 [e]

Amount of molecules per component :
-------------------------------------------------------------------------------
Component 0 (CO2)
    molecules:         2.000000e+02 molecules
    number density:    9.407114e-03 molec/A^3
    density:           6.872999e+02 kg/m^3

Total potential energy/kʙ       -2.173832e+05 [K]
-------------------------------------------------------------------------------
    external field VDW/kʙ        0.000000e+00 [K]
    external field Real/kʙ       0.000000e+00 [K]
    framework-molecule VDW/kʙ    0.000000e+00 [K]
    framework-molecule Real/kʙ   0.000000e+00 [K]
    molecule-molecule VDW/kʙ    -1.553752e+05 [K]
    molecule-molecule Real/kʙ   -5.060858e+04 [K]
    Van der Waals (Tail)/kʙ     -4.535902e+03 [K]
    Ewald Fourier/kʙ             1.128957e+04 [K]
    Ewald self/kʙ               -4.023739e+06 [K]
    Ewald exclusion/kʙ           4.005586e+06 [K]
    intra VDW/kʙ                 0.000000e+00 [K]
    intra Coulombic/kʙ           0.000000e+00 [K]
    polarization/kʙ              0.000000e+00 [K]
    dU/dlambda VDW/kʙ            0.000000e+00 [K]
    dU/dlambda Real/kʙ           0.000000e+00 [K]
    dU/dlambda Ewald/kʙ          0.000000e+00 [K]


Initialization: Current cycle: 300 out of 1000
===============================================================================

Box:      26.81941   0.00000   0.00000
           0.00000  26.81941   0.00000
           0.00000   0.00000  26.81941
Lengths:  26.81941  26.81941  26.81941
Angles:   90.00000  90.00000  90.00000
Rectangular boundary conditions

net charge:   0.00000000

component   0 (CO2) lambda:  0 occupancy:  1 (1.000000)
    net charge:   0.00000000 [e]

Amount of molecules per component :
-------------------------------------------------------------------------------
Component 0 (CO2)
    molecules:         2.000000e+02 molecules
    number density:    1.036770e-02 molec/A^3
    density:           7.574819e+02 kg/m^3

Total potential energy/kʙ       -2.302474e+05 [K]
-------------------------------------------------------------------------------
    external field VDW/kʙ        0.000000e+00 [K]
    external field Real/kʙ       0.000000e+00 [K]
    framework-molecule VDW/kʙ    0.000000e+00 [K]
    framework-molecule Real/kʙ   0.000000e+00 [K]
    molecule-molecule VDW/kʙ    -1.711249e+05 [K]
    molecule-molecule Real/kʙ   -4.688601e+04 [K]
    Van der Waals (Tail)/kʙ     -4.999076e+03 [K]
    Ewald Fourier/kʙ             1.091572e+04 [K]
    Ewald self/kʙ               -4.023739e+06 [K]
    Ewald exclusion/kʙ           4.005586e+06 [K]
    intra VDW/kʙ                 0.000000e+00 [K]
    intra Coulombic/kʙ           0.000000e+00 [K]
    polarization/kʙ              0.000000e+00 [K]
    dU/dlambda VDW/kʙ            0.000000e+00 [K]
    dU/dlambda Real/kʙ           0.000000e+00 [K]
    dU/dlambda Ewald/kʙ          0.000000e+00 [K]


Initialization: Current cycle: 400 out of 1000
===============================================================================

Box:      25.83192   0.00000   0.00000
           0.00000  25.83192   0.00000
           0.00000   0.00000  25.83192
Lengths:  25.83192  25.83192  25.83192
Angles:   90.00000  90.00000  90.00000
Rectangular boundary conditions

net charge:   0.00000000

component   0 (CO2) lambda:  0 occupancy:  1 (1.000000)
    net charge:   0.00000000 [e]

Amount of molecules per component :
-------------------------------------------------------------------------------
Component 0 (CO2)
    molecules:         2.000000e+02 molecules
    number density:    1.160273e-02 molec/A^3
    density:           8.477150e+02 kg/m^3

Total potential energy/kʙ       -2.513655e+05 [K]
-------------------------------------------------------------------------------
    external field VDW/kʙ        0.000000e+00 [K]
    external field Real/kʙ       0.000000e+00 [K]
    framework-molecule VDW/kʙ    0.000000e+00 [K]
    framework-molecule Real/kʙ   0.000000e+00 [K]
    molecule-molecule VDW/kʙ    -1.802329e+05 [K]
    molecule-molecule Real/kʙ   -5.625305e+04 [K]
    Van der Waals (Tail)/kʙ     -5.594578e+03 [K]
    Ewald Fourier/kʙ             8.868185e+03 [K]
    Ewald self/kʙ               -4.023739e+06 [K]
    Ewald exclusion/kʙ           4.005586e+06 [K]
    intra VDW/kʙ                 0.000000e+00 [K]
    intra Coulombic/kʙ           0.000000e+00 [K]
    polarization/kʙ              0.000000e+00 [K]
    dU/dlambda VDW/kʙ            0.000000e+00 [K]
    dU/dlambda Real/kʙ           0.000000e+00 [K]
    dU/dlambda Ewald/kʙ          0.000000e+00 [K]


Initialization: Current cycle: 500 out of 1000
===============================================================================

Box:      24.52258   0.00000   0.00000
           0.00000  24.52258   0.00000
           0.00000   0.00000  24.52258
Lengths:  24.52258  24.52258  24.52258
Angles:   90.00000  90.00000  90.00000
Rectangular boundary conditions

net charge:   0.00000000

component   0 (CO2) lambda:  0 occupancy:  1 (1.000000)
    net charge:   0.00000000 [e]

Amount of molecules per component :
-------------------------------------------------------------------------------
Component 0 (CO2)
    molecules:         2.000000e+02 molecules
    number density:    1.356225e-02 molec/A^3
    density:           9.908811e+02 kg/m^3

Total potential energy/kʙ       -2.735849e+05 [K]
-------------------------------------------------------------------------------
    external field VDW/kʙ        0.000000e+00 [K]
    external field Real/kʙ       0.000000e+00 [K]
    framework-molecule VDW/kʙ    0.000000e+00 [K]
    framework-molecule Real/kʙ   0.000000e+00 [K]
    molecule-molecule VDW/kʙ    -1.960241e+05 [K]
    molecule-molecule Real/kʙ   -6.183096e+04 [K]
    Van der Waals (Tail)/kʙ     -6.539416e+03 [K]
    Ewald Fourier/kʙ             8.962716e+03 [K]
    Ewald self/kʙ               -4.023739e+06 [K]
    Ewald exclusion/kʙ           4.005586e+06 [K]
    intra VDW/kʙ                 0.000000e+00 [K]
    intra Coulombic/kʙ           0.000000e+00 [K]
    polarization/kʙ              0.000000e+00 [K]
    dU/dlambda VDW/kʙ            0.000000e+00 [K]
    dU/dlambda Real/kʙ           0.000000e+00 [K]
    dU/dlambda Ewald/kʙ          0.000000e+00 [K]


Initialization: Current cycle: 600 out of 1000
===============================================================================

Box:      24.18826   0.00000   0.00000
           0.00000  24.18826   0.00000
           0.00000   0.00000  24.18826
Lengths:  24.18826  24.18826  24.18826
Angles:   90.00000  90.00000  90.00000
Rectangular boundary conditions

net charge:   0.00000000

component   0 (CO2) lambda:  0 occupancy:  1 (1.000000)
    net charge:   0.00000000 [e]

Amount of molecules per component :
-------------------------------------------------------------------------------
Component 0 (CO2)
    molecules:         2.000000e+02 molecules
    number density:    1.413241e-02 molec/A^3
    density:           1.032538e+03 kg/m^3

Total potential energy/kʙ       -2.936198e+05 [K]
-------------------------------------------------------------------------------
    external field VDW/kʙ        0.000000e+00 [K]
    external field Real/kʙ       0.000000e+00 [K]
    framework-molecule VDW/kʙ    0.000000e+00 [K]
    framework-molecule Real/kʙ   0.000000e+00 [K]
    molecule-molecule VDW/kʙ    -2.132925e+05 [K]
    molecule-molecule Real/kʙ   -6.323377e+04 [K]
    Van der Waals (Tail)/kʙ     -6.814334e+03 [K]
    Ewald Fourier/kʙ             7.873848e+03 [K]
    Ewald self/kʙ               -4.023739e+06 [K]
    Ewald exclusion/kʙ           4.005586e+06 [K]
    intra VDW/kʙ                 0.000000e+00 [K]
    intra Coulombic/kʙ           0.000000e+00 [K]
    polarization/kʙ              0.000000e+00 [K]
    dU/dlambda VDW/kʙ            0.000000e+00 [K]
    dU/dlambda Real/kʙ           0.000000e+00 [K]
    dU/dlambda Ewald/kʙ          0.000000e+00 [K]


Initialization: Current cycle: 700 out of 1000
===============================================================================

Box:      23.60130   0.00000   0.00000
           0.00000  23.60130   0.00000
           0.00000   0.00000  23.60130
Lengths:  23.60130  23.60130  23.60130
Angles:   90.00000  90.00000  90.00000
Rectangular boundary conditions

net charge:   0.00000000

component   0 (CO2) lambda:  0 occupancy:  1 (1.000000)
    net charge:   0.00000000 [e]

Amount of molecules per component :
-------------------------------------------------------------------------------
Component 0 (CO2)
    molecules:         2.000000e+02 molecules
    number density:    1.521325e-02 molec/A^3
    density:           1.111506e+03 kg/m^3

Total potential energy/kʙ       -3.143636e+05 [K]
-------------------------------------------------------------------------------
    external field VDW/kʙ        0.000000e+00 [K]
    external field Real/kʙ       0.000000e+00 [K]
    framework-molecule VDW/kʙ    0.000000e+00 [K]
    framework-molecule Real/kʙ   0.000000e+00 [K]
    molecule-molecule VDW/kʙ    -2.294131e+05 [K]
    molecule-molecule Real/kʙ   -6.749388e+04 [K]
    Van der Waals (Tail)/kʙ     -7.335494e+03 [K]
    Ewald Fourier/kʙ             8.032006e+03 [K]
    Ewald self/kʙ               -4.023739e+06 [K]
    Ewald exclusion/kʙ           4.005586e+06 [K]
    intra VDW/kʙ                 0.000000e+00 [K]
    intra Coulombic/kʙ           0.000000e+00 [K]
    polarization/kʙ              0.000000e+00 [K]
    dU/dlambda VDW/kʙ            0.000000e+00 [K]
    dU/dlambda Real/kʙ           0.000000e+00 [K]
    dU/dlambda Ewald/kʙ          0.000000e+00 [K]


Initialization: Current cycle: 800 out of 1000
===============================================================================

Box:      23.68406   0.00000   0.00000
           0.00000  23.68406   0.00000
           0.00000   0.00000  23.68406
Lengths:  23.68406  23.68406  23.68406
Angles:   90.00000  90.00000  90.00000
Rectangular boundary conditions

net charge:   0.00000000

component   0 (CO2) lambda:  0 occupancy:  1 (1.000000)
    net charge:   0.00000000 [e]

Amount of molecules per component :
-------------------------------------------------------------------------------
Component 0 (CO2)
    molecules:         2.000000e+02 molecules
    number density:    1.505434e-02 molec/A^3
    density:           1.099896e+03 kg/m^3

Total potential energy/kʙ       -3.218194e+05 [K]
-------------------------------------------------------------------------------
    external field VDW/kʙ        0.000000e+00 [K]
    external field Real/kʙ       0.000000e+00 [K]
    framework-molecule VDW/kʙ    0.000000e+00 [K]
    framework-molecule Real/kʙ   0.000000e+00 [K]
    molecule-molecule VDW/kʙ    -2.288320e+05 [K]
    molecule-molecule Real/kʙ   -7.506324e+04 [K]
    Van der Waals (Tail)/kʙ     -7.258869e+03 [K]
    Ewald Fourier/kʙ             7.487838e+03 [K]
    Ewald self/kʙ               -4.023739e+06 [K]
    Ewald exclusion/kʙ           4.005586e+06 [K]
    intra VDW/kʙ                 0.000000e+00 [K]
    intra Coulombic/kʙ           0.000000e+00 [K]
    polarization/kʙ              0.000000e+00 [K]
    dU/dlambda VDW/kʙ            0.000000e+00 [K]
    dU/dlambda Real/kʙ           0.000000e+00 [K]
    dU/dlambda Ewald/kʙ          0.000000e+00 [K]


Initialization: Current cycle: 900 out of 1000
===============================================================================

Box:      23.92013   0.00000   0.00000
           0.00000  23.92013   0.00000
           0.00000   0.00000  23.92013
Lengths:  23.92013  23.92013  23.92013
Angles:   90.00000  90.00000  90.00000
Rectangular boundary conditions

net charge:   0.00000000

component   0 (CO2) lambda:  0 occupancy:  1 (1.000000)
    net charge:   0.00000000 [e]

Amount of molecules per component :
-------------------------------------------------------------------------------
Component 0 (CO2)
    molecules:         2.000000e+02 molecules
    number density:    1.461299e-02 molec/A^3
    density:           1.067650e+03 kg/m^3

Total potential energy/kʙ       -3.093226e+05 [K]
-------------------------------------------------------------------------------
    external field VDW/kʙ        0.000000e+00 [K]
    external field Real/kʙ       0.000000e+00 [K]
    framework-molecule VDW/kʙ    0.000000e+00 [K]
    framework-molecule Real/kʙ   0.000000e+00 [K]
    molecule-molecule VDW/kʙ    -2.234053e+05 [K]
    molecule-molecule Real/kʙ   -6.813685e+04 [K]
    Van der Waals (Tail)/kʙ     -7.046062e+03 [K]
    Ewald Fourier/kʙ             7.418683e+03 [K]
    Ewald self/kʙ               -4.023739e+06 [K]
    Ewald exclusion/kʙ           4.005586e+06 [K]
    intra VDW/kʙ                 0.000000e+00 [K]
    intra Coulombic/kʙ           0.000000e+00 [K]
    polarization/kʙ              0.000000e+00 [K]
    dU/dlambda VDW/kʙ            0.000000e+00 [K]
    dU/dlambda Real/kʙ           0.000000e+00 [K]
    dU/dlambda Ewald/kʙ          0.000000e+00 [K]


Current cycle: 0 out of 5000
===============================================================================

Box:      23.80455   0.00000   0.00000  Average:  23.80455   0.00000   0.00000
           0.00000  23.80455   0.00000             0.00000  23.80455   0.00000
           0.00000   0.00000  23.80455             0.00000   0.00000  23.80455
Lengths:  23.80455  23.80455  23.80455  Average:  23.80455  23.80455  23.80455
Angles:   90.00000  90.00000  90.00000  Average:  90.00000  90.00000  90.00000
Rectangular boundary conditions

net charge:   0.00000000

component 0 (CO2) lambda:  0 occupancy:  1 (1.000000)
    net charge:   0.00000000 [e]

Amount of molecules per component :
-------------------------------------------------------------------------------
Component 0 (CO2)
    molecules:      2.000000e+02 molecules  (2.000000e+02 +/- 0.000000e+00)
    number density: 1.482690e-02 molec./A^3 (1.482690e-02 +/- 0.000000e+00)
    density:        1.083279e+03 kg/m^3     (1.083279e+03 +/- 0.000000e+00)

Average pressure tensor: 
-------------------------------------------------------------------------------
 5.1177e+02  0.0000e+00  0.0000e+00 +/- 0.0000e+00 0.0000e+00 0.0000e+00 [bar]
 0.0000e+00  5.1177e+02  0.0000e+00 +/- 0.0000e+00 0.0000e+00 0.0000e+00 [bar]
 0.0000e+00  0.0000e+00  5.1177e+02 +/- 0.0000e+00 0.0000e+00 0.0000e+00 [bar]
Ideal-gas pressure:   5.117691e+02 +/ 0.000000e+00 [bar]
Excess pressure:      0.000000e+00 +/ 0.000000e+00 [bar]
Pressure:             5.117691e+02 +/ 0.000000e+00 [bar]

Total potential energy/kʙ  -3.045036e+05 (-3.045036e+05 +/- 0.000000e+00) [K]
-------------------------------------------------------------------------------
ExternalField-molecule
    Van der Waals/kʙ        0.000000e+00 ( 0.000000e+00 +/- 0.000000e+00) [K]
Framework-molecule
    Van der Waals/kʙ        0.000000e+00 ( 0.000000e+00 +/- 0.000000e+00) [K]
    Van der Waals (Tail)/kʙ 0.000000e+00 ( 0.000000e+00 +/- 0.000000e+00) [K]
    Coulombic Real/kʙ       0.000000e+00 ( 0.000000e+00 +/- 0.000000e+00) [K]
    Coulombic Fourier/kʙ    0.000000e+00 ( 0.000000e+00 +/- 0.000000e+00) [K]
Molecule-molecule
    Van der Waals/kʙ       -2.184587e+05 (-2.184587e+05 +/- 0.000000e+00) [K]
    Van der Waals (Tail)/kʙ-7.149203e+03 (-7.149203e+03 +/- 0.000000e+00) [K]
    Coulombic Real/kʙ      -6.827532e+04 (-6.827532e+04 +/- 0.000000e+00) [K]
    Coulombic Fourier/kʙ   -1.062040e+04 (-1.062040e+04 +/- 0.000000e+00) [K]
    Molecule Intra/kʙ       0.000000e+00 ( 0.000000e+00 +/- 0.000000e+00) [K]

Current cycle: 100 out of 5000
===============================================================================

Box:      23.89428   0.00000   0.00000  Average:  23.95775   0.00000   0.00000
           0.00000  23.89428   0.00000             0.00000  23.95775   0.00000
           0.00000   0.00000  23.89428             0.00000   0.00000  23.95775
Lengths:  23.89428  23.89428  23.89428  Average:  23.95775  23.95775  23.95775
Angles:   90.00000  90.00000  90.00000  Average:  90.00000  90.00000  90.00000
Rectangular boundary conditions

net charge:   0.00000000

component 0 (CO2) lambda:  0 occupancy:  1 (1.000000)
    net charge:   0.00000000 [e]

Amount of molecules per component :
-------------------------------------------------------------------------------
Component 0 (CO2)
    molecules:      2.000000e+02 molecules  (2.000000e+02 +/- 0.000000e+00)
    number density: 1.466048e-02 molec./A^3 (1.454557e-02 +/- 0.000000e+00)
    density:        1.071120e+03 kg/m^3     (1.062724e+03 +/- 0.000000e+00)

Average pressure tensor: 
-------------------------------------------------------------------------------
 1.2935e+02  8.0857e+01 -5.4840e+01 +/- 0.0000e+00 0.0000e+00 0.0000e+00 [bar]
 8.0857e+01  2.6330e+01  1.1068e+01 +/- 0.0000e+00 0.0000e+00 0.0000e+00 [bar]
-5.4840e+01  1.1068e+01  8.7904e+01 +/- 0.0000e+00 0.0000e+00 0.0000e+00 [bar]
Ideal-gas pressure:   5.020585e+02 +/ 0.000000e+00 [bar]
Excess pressure:     -4.208643e+02 +/ 0.000000e+00 [bar]
Pressure:             8.119418e+01 +/ 0.000000e+00 [bar]

Total potential energy/kʙ  -3.035200e+05 (-3.025891e+05 +/- 0.000000e+00) [K]
-------------------------------------------------------------------------------
ExternalField-molecule
    Van der Waals/kʙ        0.000000e+00 ( 0.000000e+00 +/- 0.000000e+00) [K]
Framework-molecule
    Van der Waals/kʙ        0.000000e+00 ( 0.000000e+00 +/- 0.000000e+00) [K]
    Van der Waals (Tail)/kʙ 0.000000e+00 ( 0.000000e+00 +/- 0.000000e+00) [K]
    Coulombic Real/kʙ       0.000000e+00 ( 0.000000e+00 +/- 0.000000e+00) [K]
    Coulombic Fourier/kʙ    0.000000e+00 ( 0.000000e+00 +/- 0.000000e+00) [K]
Molecule-molecule
    Van der Waals/kʙ       -2.176063e+05 (-2.203973e+05 +/- 0.000000e+00) [K]
    Van der Waals (Tail)/kʙ-7.068961e+03 (-7.030902e+03 +/- 0.000000e+00) [K]
    Coulombic Real/kʙ      -6.768533e+04 (-6.461281e+04 +/- 0.000000e+00) [K]
    Coulombic Fourier/kʙ   -1.115935e+04 (-1.054812e+04 +/- 0.000000e+00) [K]
    Molecule Intra/kʙ       0.000000e+00 ( 0.000000e+00 +/- 0.000000e+00) [K]

Current cycle: 200 out of 5000
===============================================================================

Box:      24.00185   0.00000   0.00000  Average:  23.95207   0.00000   0.00000
           0.00000  24.00185   0.00000             0.00000  23.95207   0.00000
           0.00000   0.00000  24.00185             0.00000   0.00000  23.95207
Lengths:  24.00185  24.00185  24.00185  Average:  23.95207  23.95207  23.95207
Angles:   90.00000  90.00000  90.00000  Average:  90.00000  90.00000  90.00000
Rectangular boundary conditions

net charge:   0.00000000

component 0 (CO2) lambda:  0 occupancy:  1 (1.000000)
    net charge:   0.00000000 [e]

Amount of molecules per component :
-------------------------------------------------------------------------------
Component 0 (CO2)
    molecules:      2.000000e+02 molecules  (2.000000e+02 +/- 0.000000e+00)
    number density: 1.446426e-02 molec./A^3 (1.455580e-02 +/- 0.000000e+00)
    density:        1.056783e+03 kg/m^3     (1.063472e+03 +/- 0.000000e+00)

Average pressure tensor: 
-------------------------------------------------------------------------------
 1.9388e+02  5.5773e+01 -3.7296e+01 +/- 0.0000e+00 0.0000e+00 0.0000e+00 [bar]
 5.5773e+01  8.2563e+01 -4.2667e+01 +/- 0.0000e+00 0.0000e+00 0.0000e+00 [bar]
-3.7296e+01 -4.2667e+01  1.7089e+02 +/- 0.0000e+00 0.0000e+00 0.0000e+00 [bar]
Ideal-gas pressure:   5.024117e+02 +/ 0.000000e+00 [bar]
Excess pressure:     -3.532999e+02 +/ 0.000000e+00 [bar]
Pressure:             1.491119e+02 +/ 0.000000e+00 [bar]

Total potential energy/kʙ  -3.077778e+05 (-3.040096e+05 +/- 0.000000e+00) [K]
-------------------------------------------------------------------------------
ExternalField-molecule
    Van der Waals/kʙ        0.000000e+00 ( 0.000000e+00 +/- 0.000000e+00) [K]
Framework-molecule
    Van der Waals/kʙ        0.000000e+00 ( 0.000000e+00 +/- 0.000000e+00) [K]
    Van der Waals (Tail)/kʙ 0.000000e+00 ( 0.000000e+00 +/- 0.000000e+00) [K]
    Coulombic Real/kʙ       0.000000e+00 ( 0.000000e+00 +/- 0.000000e+00) [K]
    Coulombic Fourier/kʙ    0.000000e+00 ( 0.000000e+00 +/- 0.000000e+00) [K]
Molecule-molecule
    Van der Waals/kʙ       -2.203875e+05 (-2.201790e+05 +/- 0.000000e+00) [K]
    Van der Waals (Tail)/kʙ-6.974345e+03 (-7.033454e+03 +/- 0.000000e+00) [K]
    Coulombic Real/kʙ      -6.950353e+04 (-6.625070e+04 +/- 0.000000e+00) [K]
    Coulombic Fourier/kʙ   -1.091245e+04 (-1.054641e+04 +/- 0.000000e+00) [K]
    Molecule Intra/kʙ       0.000000e+00 ( 0.000000e+00 +/- 0.000000e+00) [K]

Current cycle: 300 out of 5000
===============================================================================

Box:      23.92752   0.00000   0.00000  Average:  23.94561   0.00000   0.00000
           0.00000  23.92752   0.00000             0.00000  23.94561   0.00000
           0.00000   0.00000  23.92752             0.00000   0.00000  23.94561
Lengths:  23.92752  23.92752  23.92752  Average:  23.94561  23.94561  23.94561
Angles:   90.00000  90.00000  90.00000  Average:  90.00000  90.00000  90.00000
Rectangular boundary conditions

net charge:   0.00000000

component 0 (CO2) lambda:  0 occupancy:  1 (1.000000)
    net charge:   0.00000000 [e]

Amount of molecules per component :
-------------------------------------------------------------------------------
Component 0 (CO2)
    molecules:      2.000000e+02 molecules  (2.000000e+02 +/- 0.000000e+00)
    number density: 1.459946e-02 molec./A^3 (1.456760e-02 +/- 0.000000e+00)
    density:        1.066662e+03 kg/m^3     (1.064334e+03 +/- 0.000000e+00)

Average pressure tensor: 
-------------------------------------------------------------------------------
 1.7441e+02  6.2206e+01 -4.5381e+01 +/- 0.0000e+00 0.0000e+00 0.0000e+00 [bar]
 6.2206e+01  1.2107e+01 -2.1773e+01 +/- 0.0000e+00 0.0000e+00 0.0000e+00 [bar]
-4.5381e+01 -2.1773e+01  1.2699e+02 +/- 0.0000e+00 0.0000e+00 0.0000e+00 [bar]
Ideal-gas pressure:   5.028191e+02 +/ 0.000000e+00 [bar]
Excess pressure:     -3.983174e+02 +/ 0.000000e+00 [bar]
Pressure:             1.045017e+02 +/ 0.000000e+00 [bar]

Total potential energy/kʙ  -3.089026e+05 (-3.056064e+05 +/- 0.000000e+00) [K]
-------------------------------------------------------------------------------
ExternalField-molecule
    Van der Waals/kʙ        0.000000e+00 ( 0.000000e+00 +/- 0.000000e+00) [K]
Framework-molecule
    Van der Waals/kʙ        0.000000e+00 ( 0.000000e+00 +/- 0.000000e+00) [K]
    Van der Waals (Tail)/kʙ 0.000000e+00 ( 0.000000e+00 +/- 0.000000e+00) [K]
    Coulombic Real/kʙ       0.000000e+00 ( 0.000000e+00 +/- 0.000000e+00) [K]
    Coulombic Fourier/kʙ    0.000000e+00 ( 0.000000e+00 +/- 0.000000e+00) [K]
Molecule-molecule
    Van der Waals/kʙ       -2.214847e+05 (-2.207064e+05 +/- 0.000000e+00) [K]
    Van der Waals (Tail)/kʙ-7.039539e+03 (-7.035606e+03 +/- 0.000000e+00) [K]
    Coulombic Real/kʙ      -6.958573e+04 (-6.726619e+04 +/- 0.000000e+00) [K]
    Coulombic Fourier/kʙ   -1.079264e+04 (-1.059820e+04 +/- 0.000000e+00) [K]
    Molecule Intra/kʙ       0.000000e+00 ( 0.000000e+00 +/- 0.000000e+00) [K]

Current cycle: 400 out of 5000
===============================================================================

Box:      23.96532   0.00000   0.00000  Average:  23.91650   0.00000   0.00000
           0.00000  23.96532   0.00000             0.00000  23.91650   0.00000
           0.00000   0.00000  23.96532             0.00000   0.00000  23.91650
Lengths:  23.96532  23.96532  23.96532  Average:  23.91650  23.91650  23.91650
Angles:   90.00000  90.00000  90.00000  Average:  90.00000  90.00000  90.00000
Rectangular boundary conditions

net charge:   0.00000000

component 0 (CO2) lambda:  0 occupancy:  1 (1.000000)
    net charge:   0.00000000 [e]

Amount of molecules per component :
-------------------------------------------------------------------------------
Component 0 (CO2)
    molecules:      2.000000e+02 molecules  (2.000000e+02 +/- 0.000000e+00)
    number density: 1.453049e-02 molec./A^3 (1.462133e-02 +/- 0.000000e+00)
    density:        1.061622e+03 kg/m^3     (1.068259e+03 +/- 0.000000e+00)

Average pressure tensor: 
-------------------------------------------------------------------------------
 2.3181e+02  2.7956e+01 -2.1646e+00 +/- 0.0000e+00 0.0000e+00 0.0000e+00 [bar]
 2.7956e+01  3.0440e+01 -1.2066e+01 +/- 0.0000e+00 0.0000e+00 0.0000e+00 [bar]
-2.1646e+00 -1.2066e+01  1.1859e+02 +/- 0.0000e+00 0.0000e+00 0.0000e+00 [bar]
Ideal-gas pressure:   5.046734e+02 +/ 0.000000e+00 [bar]
Excess pressure:     -3.777276e+02 +/ 0.000000e+00 [bar]
Pressure:             1.269459e+02 +/ 0.000000e+00 [bar]

Total potential energy/kʙ  -3.045552e+05 (-3.068247e+05 +/- 0.000000e+00) [K]
-------------------------------------------------------------------------------
ExternalField-molecule
    Van der Waals/kʙ        0.000000e+00 ( 0.000000e+00 +/- 0.000000e+00) [K]
Framework-molecule
    Van der Waals/kʙ        0.000000e+00 ( 0.000000e+00 +/- 0.000000e+00) [K]
    Van der Waals (Tail)/kʙ 0.000000e+00 ( 0.000000e+00 +/- 0.000000e+00) [K]
    Coulombic Real/kʙ       0.000000e+00 ( 0.000000e+00 +/- 0.000000e+00) [K]
    Coulombic Fourier/kʙ    0.000000e+00 ( 0.000000e+00 +/- 0.000000e+00) [K]
Molecule-molecule
    Van der Waals/kʙ       -2.166750e+05 (-2.213824e+05 +/- 0.000000e+00) [K]
    Van der Waals (Tail)/kʙ-7.006281e+03 (-7.061708e+03 +/- 0.000000e+00) [K]
    Coulombic Real/kʙ      -7.014740e+04 (-6.781757e+04 +/- 0.000000e+00) [K]
    Coulombic Fourier/kʙ   -1.072654e+04 (-1.056301e+04 +/- 0.000000e+00) [K]
    Molecule Intra/kʙ       0.000000e+00 ( 0.000000e+00 +/- 0.000000e+00) [K]

Current cycle: 500 out of 5000
===============================================================================

Box:      23.86169   0.00000   0.00000  Average:  23.90594   0.00000   0.00000
           0.00000  23.86169   0.00000             0.00000  23.90594   0.00000
           0.00000   0.00000  23.86169             0.00000   0.00000  23.90594
Lengths:  23.86169  23.86169  23.86169  Average:  23.90594  23.90594  23.90594
Angles:   90.00000  90.00000  90.00000  Average:  90.00000  90.00000  90.00000
Rectangular boundary conditions

net charge:   0.00000000

component 0 (CO2) lambda:  0 occupancy:  1 (1.000000)
    net charge:   0.00000000 [e]

Amount of molecules per component :
-------------------------------------------------------------------------------
Component 0 (CO2)
    molecules:      2.000000e+02 molecules  (2.000000e+02 +/- 0.000000e+00)
    number density: 1.472063e-02 molec./A^3 (1.464096e-02 +/- 0.000000e+00)
    density:        1.075515e+03 kg/m^3     (1.069694e+03 +/- 0.000000e+00)

Average pressure tensor: 
-------------------------------------------------------------------------------
 2.0267e+02  2.8444e+01 -7.1517e-01 +/- 0.0000e+00 0.0000e+00 0.0000e+00 [bar]
 2.8444e+01  3.3437e+01 -1.6984e+01 +/- 0.0000e+00 0.0000e+00 0.0000e+00 [bar]
-7.1517e-01 -1.6984e+01  1.3157e+02 +/- 0.0000e+00 0.0000e+00 0.0000e+00 [bar]
Ideal-gas pressure:   5.053512e+02 +/ 0.000000e+00 [bar]
Excess pressure:     -3.827904e+02 +/ 0.000000e+00 [bar]
Pressure:             1.225607e+02 +/ 0.000000e+00 [bar]

Total potential energy/kʙ  -3.170644e+05 (-3.077389e+05 +/- 0.000000e+00) [K]
-------------------------------------------------------------------------------
ExternalField-molecule
    Van der Waals/kʙ        0.000000e+00 ( 0.000000e+00 +/- 0.000000e+00) [K]
Framework-molecule
    Van der Waals/kʙ        0.000000e+00 ( 0.000000e+00 +/- 0.000000e+00) [K]
    Van der Waals (Tail)/kʙ 0.000000e+00 ( 0.000000e+00 +/- 0.000000e+00) [K]
    Coulombic Real/kʙ       0.000000e+00 ( 0.000000e+00 +/- 0.000000e+00) [K]
    Coulombic Fourier/kʙ    0.000000e+00 ( 0.000000e+00 +/- 0.000000e+00) [K]
Molecule-molecule
    Van der Waals/kʙ       -2.290804e+05 (-2.216880e+05 +/- 0.000000e+00) [K]
    Van der Waals (Tail)/kʙ-7.097965e+03 (-7.069209e+03 +/- 0.000000e+00) [K]
    Coulombic Real/kʙ      -7.037301e+04 (-6.842798e+04 +/- 0.000000e+00) [K]
    Coulombic Fourier/kʙ   -1.051296e+04 (-1.055371e+04 +/- 0.000000e+00) [K]
    Molecule Intra/kʙ       0.000000e+00 ( 0.000000e+00 +/- 0.000000e+00) [K]

Current cycle: 600 out of 5000
===============================================================================

Box:      23.66038   0.00000   0.00000  Average:  23.85696   0.00000   0.00000
           0.00000  23.66038   0.00000             0.00000  23.85696   0.00000
           0.00000   0.00000  23.66038             0.00000   0.00000  23.85696
Lengths:  23.66038  23.66038  23.66038  Average:  23.85696  23.85696  23.85696
Angles:   90.00000  90.00000  90.00000  Average:  90.00000  90.00000  90.00000
Rectangular boundary conditions

net charge:   0.00000000

component 0 (CO2) lambda:  0 occupancy:  1 (1.000000)
    net charge:   0.00000000 [e]

Amount of molecules per component :
-------------------------------------------------------------------------------
Component 0 (CO2)
    molecules:      2.000000e+02 molecules  (2.000000e+02 +/- 0.000000e+00)
    number density: 1.509958e-02 molec./A^3 (1.473310e-02 +/- 0.000000e+00)
    density:        1.103202e+03 kg/m^3     (1.076426e+03 +/- 0.000000e+00)

Average pressure tensor: 
-------------------------------------------------------------------------------
 1.7768e+02  4.9190e+01  1.5586e+01 +/- 0.0000e+00 0.0000e+00 0.0000e+00 [bar]
 4.9190e+01  3.4848e+01 -1.3157e+01 +/- 0.0000e+00 0.0000e+00 0.0000e+00 [bar]
 1.5586e+01 -1.3157e+01  1.0343e+02 +/- 0.0000e+00 0.0000e+00 0.0000e+00 [bar]
Ideal-gas pressure:   5.085316e+02 +/ 0.000000e+00 [bar]
Excess pressure:     -4.032112e+02 +/ 0.000000e+00 [bar]
Pressure:             1.053204e+02 +/ 0.000000e+00 [bar]

Total potential energy/kʙ  -3.159231e+05 (-3.103009e+05 +/- 0.000000e+00) [K]
-------------------------------------------------------------------------------
ExternalField-molecule
    Van der Waals/kʙ        0.000000e+00 ( 0.000000e+00 +/- 0.000000e+00) [K]
Framework-molecule
    Van der Waals/kʙ        0.000000e+00 ( 0.000000e+00 +/- 0.000000e+00) [K]
    Van der Waals (Tail)/kʙ 0.000000e+00 ( 0.000000e+00 +/- 0.000000e+00) [K]
    Coulombic Real/kʙ       0.000000e+00 ( 0.000000e+00 +/- 0.000000e+00) [K]
    Coulombic Fourier/kʙ    0.000000e+00 ( 0.000000e+00 +/- 0.000000e+00) [K]
Molecule-molecule
    Van der Waals/kʙ       -2.254323e+05 (-2.229454e+05 +/- 0.000000e+00) [K]
    Van der Waals (Tail)/kʙ-7.280686e+03 (-7.112754e+03 +/- 0.000000e+00) [K]
    Coulombic Real/kʙ      -7.302787e+04 (-6.968792e+04 +/- 0.000000e+00) [K]
    Coulombic Fourier/kʙ   -1.018218e+04 (-1.055475e+04 +/- 0.000000e+00) [K]
    Molecule Intra/kʙ       0.000000e+00 ( 0.000000e+00 +/- 0.000000e+00) [K]

Current cycle: 700 out of 5000
===============================================================================

Box:      23.84338   0.00000   0.00000  Average:  23.85458   0.00000   0.00000
           0.00000  23.84338   0.00000             0.00000  23.85458   0.00000
           0.00000   0.00000  23.84338             0.00000   0.00000  23.85458
Lengths:  23.84338  23.84338  23.84338  Average:  23.85458  23.85458  23.85458
Angles:   90.00000  90.00000  90.00000  Average:  90.00000  90.00000  90.00000
Rectangular boundary conditions

net charge:   0.00000000

component 0 (CO2) lambda:  0 occupancy:  1 (1.000000)
    net charge:   0.00000000 [e]

Amount of molecules per component :
-------------------------------------------------------------------------------
Component 0 (CO2)
    molecules:      2.000000e+02 molecules  (2.000000e+02 +/- 0.000000e+00)
    number density: 1.475456e-02 molec./A^3 (1.473761e-02 +/- 0.000000e+00)
    density:        1.077994e+03 kg/m^3     (1.076755e+03 +/- 0.000000e+00)

Average pressure tensor: 
-------------------------------------------------------------------------------
 1.9520e+02  4.8078e+01  1.5837e+01 +/- 0.0000e+00 0.0000e+00 0.0000e+00 [bar]
 4.8078e+01  5.1399e+00  1.3283e+01 +/- 0.0000e+00 0.0000e+00 0.0000e+00 [bar]
 1.5837e+01  1.3283e+01  6.1983e+01 +/- 0.0000e+00 0.0000e+00 0.0000e+00 [bar]
Ideal-gas pressure:   5.086871e+02 +/ 0.000000e+00 [bar]
Excess pressure:     -4.212461e+02 +/ 0.000000e+00 [bar]
Pressure:             8.744100e+01 +/ 0.000000e+00 [bar]

Total potential energy/kʙ  -3.090747e+05 (-3.105939e+05 +/- 0.000000e+00) [K]
-------------------------------------------------------------------------------
ExternalField-molecule
    Van der Waals/kʙ        0.000000e+00 ( 0.000000e+00 +/- 0.000000e+00) [K]
Framework-molecule
    Van der Waals/kʙ        0.000000e+00 ( 0.000000e+00 +/- 0.000000e+00) [K]
    Van der Waals (Tail)/kʙ 0.000000e+00 ( 0.000000e+00 +/- 0.000000e+00) [K]
    Coulombic Real/kʙ       0.000000e+00 ( 0.000000e+00 +/- 0.000000e+00) [K]
    Coulombic Fourier/kʙ    0.000000e+00 ( 0.000000e+00 +/- 0.000000e+00) [K]
Molecule-molecule
    Van der Waals/kʙ       -2.207515e+05 (-2.232885e+05 +/- 0.000000e+00) [K]
    Van der Waals (Tail)/kʙ-7.114324e+03 (-7.111885e+03 +/- 0.000000e+00) [K]
    Coulombic Real/kʙ      -7.124119e+04 (-6.971336e+04 +/- 0.000000e+00) [K]
    Coulombic Fourier/kʙ   -9.967652e+03 (-1.048014e+04 +/- 0.000000e+00) [K]
    Molecule Intra/kʙ       0.000000e+00 ( 0.000000e+00 +/- 0.000000e+00) [K]

Current cycle: 800 out of 5000
===============================================================================

Box:      24.00817   0.00000   0.00000  Average:  23.87107   0.00000   0.00000
           0.00000  24.00817   0.00000             0.00000  23.87107   0.00000
           0.00000   0.00000  24.00817             0.00000   0.00000  23.87107
Lengths:  24.00817  24.00817  24.00817  Average:  23.87107  23.87107  23.87107
Angles:   90.00000  90.00000  90.00000  Average:  90.00000  90.00000  90.00000
Rectangular boundary conditions

net charge:   0.00000000

component 0 (CO2) lambda:  0 occupancy:  1 (1.000000)
    net charge:   0.00000000 [e]

Amount of molecules per component :
-------------------------------------------------------------------------------
Component 0 (CO2)
    molecules:      2.000000e+02 molecules  (2.000000e+02 +/- 0.000000e+00)
    number density: 1.445282e-02 molec./A^3 (1.470700e-02 +/- 0.000000e+00)
    density:        1.055948e+03 kg/m^3     (1.074519e+03 +/- 0.000000e+00)

Average pressure tensor: 
-------------------------------------------------------------------------------
 1.8491e+02  3.5078e+01  1.7175e+01 +/- 0.0000e+00 0.0000e+00 0.0000e+00 [bar]
 3.5078e+01  1.4917e+01  2.3107e+01 +/- 0.0000e+00 0.0000e+00 0.0000e+00 [bar]
 1.7175e+01  2.3107e+01  6.1226e+01 +/- 0.0000e+00 0.0000e+00 0.0000e+00 [bar]
Ideal-gas pressure:   5.076307e+02 +/ 0.000000e+00 [bar]
Excess pressure:     -4.206142e+02 +/ 0.000000e+00 [bar]
Pressure:             8.701647e+01 +/ 0.000000e+00 [bar]

Total potential energy/kʙ  -3.039439e+05 (-3.098483e+05 +/- 0.000000e+00) [K]
-------------------------------------------------------------------------------
ExternalField-molecule
    Van der Waals/kʙ        0.000000e+00 ( 0.000000e+00 +/- 0.000000e+00) [K]
Framework-molecule
    Van der Waals/kʙ        0.000000e+00 ( 0.000000e+00 +/- 0.000000e+00) [K]
    Van der Waals (Tail)/kʙ 0.000000e+00 ( 0.000000e+00 +/- 0.000000e+00) [K]
    Coulombic Real/kʙ       0.000000e+00 ( 0.000000e+00 +/- 0.000000e+00) [K]
    Coulombic Fourier/kʙ    0.000000e+00 ( 0.000000e+00 +/- 0.000000e+00) [K]
Molecule-molecule
    Van der Waals/kʙ       -2.168471e+05 (-2.228280e+05 +/- 0.000000e+00) [K]
    Van der Waals (Tail)/kʙ-6.968832e+03 (-7.096242e+03 +/- 0.000000e+00) [K]
    Coulombic Real/kʙ      -7.021455e+04 (-6.953557e+04 +/- 0.000000e+00) [K]
    Coulombic Fourier/kʙ   -9.913392e+03 (-1.038850e+04 +/- 0.000000e+00) [K]
    Molecule Intra/kʙ       0.000000e+00 ( 0.000000e+00 +/- 0.000000e+00) [K]

Current cycle: 900 out of 5000
===============================================================================

Box:      24.00010   0.00000   0.00000  Average:  23.87462   0.00000   0.00000
           0.00000  24.00010   0.00000             0.00000  23.87462   0.00000
           0.00000   0.00000  24.00010             0.00000   0.00000  23.87462
Lengths:  24.00010  24.00010  24.00010  Average:  23.87462  23.87462  23.87462
Angles:   90.00000  90.00000  90.00000  Average:  90.00000  90.00000  90.00000
Rectangular boundary conditions

net charge:   0.00000000

component 0 (CO2) lambda:  0 occupancy:  1 (1.000000)
    net charge:   0.00000000 [e]

Amount of molecules per component :
-------------------------------------------------------------------------------
Component 0 (CO2)
    molecules:      2.000000e+02 molecules  (2.000000e+02 +/- 0.000000e+00)
    number density: 1.446741e-02 molec./A^3 (1.470022e-02 +/- 0.000000e+00)
    density:        1.057014e+03 kg/m^3     (1.074023e+03 +/- 0.000000e+00)

Average pressure tensor: 
-------------------------------------------------------------------------------
 1.7225e+02  1.7452e+01  1.7034e+01 +/- 0.0000e+00 0.0000e+00 0.0000e+00 [bar]
 1.7452e+01  4.2932e+01  1.4272e+01 +/- 0.0000e+00 0.0000e+00 0.0000e+00 [bar]
 1.7034e+01  1.4272e+01  4.5149e+01 +/- 0.0000e+00 0.0000e+00 0.0000e+00 [bar]
Ideal-gas pressure:   5.073967e+02 +/ 0.000000e+00 [bar]
Excess pressure:     -4.206181e+02 +/ 0.000000e+00 [bar]
Pressure:             8.677863e+01 +/ 0.000000e+00 [bar]

Total potential energy/kʙ  -3.024302e+05 (-3.095516e+05 +/- 0.000000e+00) [K]
-------------------------------------------------------------------------------
ExternalField-molecule
    Van der Waals/kʙ        0.000000e+00 ( 0.000000e+00 +/- 0.000000e+00) [K]
Framework-molecule
    Van der Waals/kʙ        0.000000e+00 ( 0.000000e+00 +/- 0.000000e+00) [K]
    Van der Waals (Tail)/kʙ 0.000000e+00 ( 0.000000e+00 +/- 0.000000e+00) [K]
    Coulombic Real/kʙ       0.000000e+00 ( 0.000000e+00 +/- 0.000000e+00) [K]
    Coulombic Fourier/kʙ    0.000000e+00 ( 0.000000e+00 +/- 0.000000e+00) [K]
Molecule-molecule
    Van der Waals/kʙ       -2.187197e+05 (-2.227111e+05 +/- 0.000000e+00) [K]
    Van der Waals (Tail)/kʙ-6.975866e+03 (-7.093303e+03 +/- 0.000000e+00) [K]
    Coulombic Real/kʙ      -6.659413e+04 (-6.940406e+04 +/- 0.000000e+00) [K]
    Coulombic Fourier/kʙ   -1.014053e+04 (-1.034314e+04 +/- 0.000000e+00) [K]
    Molecule Intra/kʙ       0.000000e+00 ( 0.000000e+00 +/- 0.000000e+00) [K]

Current cycle: 1000 out of 5000
===============================================================================

Box:      23.89953   0.00000   0.00000  Average:  23.87199   0.00000   0.00000
           0.00000  23.89953   0.00000             0.00000  23.87199   0.00000
           0.00000   0.00000  23.89953             0.00000   0.00000  23.87199
Lengths:  23.89953  23.89953  23.89953  Average:  23.87199  23.87199  23.87199
Angles:   90.00000  90.00000  90.00000  Average:  90.00000  90.00000  90.00000
Rectangular boundary conditions

net charge:   0.00000000

component 0 (CO2) lambda:  0 occupancy:  1 (1.000000)
    net charge:   0.00000000 [e]

Amount of molecules per component :
-------------------------------------------------------------------------------
Component 0 (CO2)
    molecules:      2.000000e+02 molecules  (2.000000e+02 +/- 0.000000e+00)
    number density: 1.465082e-02 molec./A^3 (1.470494e-02 +/- 0.000000e+00)
    density:        1.070414e+03 kg/m^3     (1.074368e+03 +/- 0.000000e+00)

Average pressure tensor: 
-------------------------------------------------------------------------------
 1.8625e+02  1.9144e+01  7.6339e+00 +/- 0.0000e+00 0.0000e+00 0.0000e+00 [bar]
 1.9144e+01  3.2271e+01  1.4104e+01 +/- 0.0000e+00 0.0000e+00 0.0000e+00 [bar]
 7.6339e+00  1.4104e+01  7.0688e+01 +/- 0.0000e+00 0.0000e+00 0.0000e+00 [bar]
Ideal-gas pressure:   5.075594e+02 +/ 0.000000e+00 [bar]
Excess pressure:     -4.111580e+02 +/ 0.000000e+00 [bar]
Pressure:             9.640138e+01 +/ 0.000000e+00 [bar]

Total potential energy/kʙ  -3.025202e+05 (-3.095230e+05 +/- 0.000000e+00) [K]
-------------------------------------------------------------------------------
ExternalField-molecule
    Van der Waals/kʙ        0.000000e+00 ( 0.000000e+00 +/- 0.000000e+00) [K]
Framework-molecule
    Van der Waals/kʙ        0.000000e+00 ( 0.000000e+00 +/- 0.000000e+00) [K]
    Van der Waals (Tail)/kʙ 0.000000e+00 ( 0.000000e+00 +/- 0.000000e+00) [K]
    Coulombic Real/kʙ       0.000000e+00 ( 0.000000e+00 +/- 0.000000e+00) [K]
    Coulombic Fourier/kʙ    0.000000e+00 ( 0.000000e+00 +/- 0.000000e+00) [K]
Molecule-molecule
    Van der Waals/kʙ       -2.192733e+05 (-2.226980e+05 +/- 0.000000e+00) [K]
    Van der Waals (Tail)/kʙ-7.064303e+03 (-7.097325e+03 +/- 0.000000e+00) [K]
    Coulombic Real/kʙ      -6.666577e+04 (-6.939099e+04 +/- 0.000000e+00) [K]
    Coulombic Fourier/kʙ   -9.516794e+03 (-1.033673e+04 +/- 0.000000e+00) [K]
    Molecule Intra/kʙ       0.000000e+00 ( 0.000000e+00 +/- 0.000000e+00) [K]

Current cycle: 1100 out of 5000
===============================================================================

Box:      24.02290   0.00000   0.00000  Average:  23.87918   0.00000   0.00000
           0.00000  24.02290   0.00000             0.00000  23.87918   0.00000
           0.00000   0.00000  24.02290             0.00000   0.00000  23.87918
Lengths:  24.02290  24.02290  24.02290  Average:  23.87918  23.87918  23.87918
Angles:   90.00000  90.00000  90.00000  Average:  90.00000  90.00000  90.00000
Rectangular boundary conditions

net charge:   0.00000000

component 0 (CO2) lambda:  0 occupancy:  1 (1.000000)
    net charge:   0.00000000 [e]

Amount of molecules per component :
-------------------------------------------------------------------------------
Component 0 (CO2)
    molecules:      2.000000e+02 molecules  (2.000000e+02 +/- 0.000000e+00)
    number density: 1.442625e-02 molec./A^3 (1.469159e-02 +/- 0.000000e+00)
    density:        1.054007e+03 kg/m^3     (1.073393e+03 +/- 0.000000e+00)

Average pressure tensor: 
-------------------------------------------------------------------------------
 1.7553e+02  1.5069e+01  1.3867e+01 +/- 0.0000e+00 0.0000e+00 0.0000e+00 [bar]
 1.5069e+01  5.2481e+01  2.3557e+01 +/- 0.0000e+00 0.0000e+00 0.0000e+00 [bar]
 1.3867e+01  2.3557e+01  5.8007e+01 +/- 0.0000e+00 0.0000e+00 0.0000e+00 [bar]
Ideal-gas pressure:   5.070988e+02 +/ 0.000000e+00 [bar]
Excess pressure:     -4.117601e+02 +/ 0.000000e+00 [bar]
Pressure:             9.533873e+01 +/ 0.000000e+00 [bar]

Total potential energy/kʙ  -3.042415e+05 (-3.090781e+05 +/- 0.000000e+00) [K]
-------------------------------------------------------------------------------
ExternalField-molecule
    Van der Waals/kʙ        0.000000e+00 ( 0.000000e+00 +/- 0.000000e+00) [K]
Framework-molecule
    Van der Waals/kʙ        0.000000e+00 ( 0.000000e+00 +/- 0.000000e+00) [K]
    Van der Waals (Tail)/kʙ 0.000000e+00 ( 0.000000e+00 +/- 0.000000e+00) [K]
    Coulombic Real/kʙ       0.000000e+00 ( 0.000000e+00 +/- 0.000000e+00) [K]
    Coulombic Fourier/kʙ    0.000000e+00 ( 0.000000e+00 +/- 0.000000e+00) [K]
Molecule-molecule
    Van der Waals/kʙ       -2.173339e+05 (-2.224147e+05 +/- 0.000000e+00) [K]
    Van der Waals (Tail)/kʙ-6.956021e+03 (-7.091095e+03 +/- 0.000000e+00) [K]
    Coulombic Real/kʙ      -6.999074e+04 (-6.930314e+04 +/- 0.000000e+00) [K]
    Coulombic Fourier/kʙ   -9.960839e+03 (-1.026923e+04 +/- 0.000000e+00) [K]
    Molecule Intra/kʙ       0.000000e+00 ( 0.000000e+00 +/- 0.000000e+00) [K]

Current cycle: 1200 out of 5000
===============================================================================

Box:      24.17284   0.00000   0.00000  Average:  23.90522   0.00000   0.00000
           0.00000  24.17284   0.00000             0.00000  23.90522   0.00000
           0.00000   0.00000  24.17284             0.00000   0.00000  23.90522
Lengths:  24.17284  24.17284  24.17284  Average:  23.90522  23.90522  23.90522
Angles:   90.00000  90.00000  90.00000  Average:  90.00000  90.00000  90.00000
Rectangular boundary conditions

net charge:   0.00000000

component 0 (CO2) lambda:  0 occupancy:  1 (1.000000)
    net charge:   0.00000000 [e]

Amount of molecules per component :
-------------------------------------------------------------------------------
Component 0 (CO2)
    molecules:      2.000000e+02 molecules  (2.000000e+02 +/- 0.000000e+00)
    number density: 1.415946e-02 molec./A^3 (1.464462e-02 +/- 0.000000e+00)
    density:        1.034515e+03 kg/m^3     (1.069961e+03 +/- 0.000000e+00)

Average pressure tensor: 
-------------------------------------------------------------------------------
 1.6009e+02  2.0625e+01  1.6283e+01 +/- 0.0000e+00 0.0000e+00 0.0000e+00 [bar]
 2.0625e+01  4.0374e+01  8.8634e+00 +/- 0.0000e+00 0.0000e+00 0.0000e+00 [bar]
 1.6283e+01  8.8634e+00  4.7122e+01 +/- 0.0000e+00 0.0000e+00 0.0000e+00 [bar]
Ideal-gas pressure:   5.054775e+02 +/ 0.000000e+00 [bar]
Excess pressure:     -4.229501e+02 +/ 0.000000e+00 [bar]
Pressure:             8.252739e+01 +/ 0.000000e+00 [bar]

Total potential energy/kʙ  -3.055055e+05 (-3.087348e+05 +/- 0.000000e+00) [K]
-------------------------------------------------------------------------------
ExternalField-molecule
    Van der Waals/kʙ        0.000000e+00 ( 0.000000e+00 +/- 0.000000e+00) [K]
Framework-molecule
    Van der Waals/kʙ        0.000000e+00 ( 0.000000e+00 +/- 0.000000e+00) [K]
    Van der Waals (Tail)/kʙ 0.000000e+00 ( 0.000000e+00 +/- 0.000000e+00) [K]
    Coulombic Real/kʙ       0.000000e+00 ( 0.000000e+00 +/- 0.000000e+00) [K]
    Coulombic Fourier/kʙ    0.000000e+00 ( 0.000000e+00 +/- 0.000000e+00) [K]
Molecule-molecule
    Van der Waals/kʙ       -2.177078e+05 (-2.220190e+05 +/- 0.000000e+00) [K]
    Van der Waals (Tail)/kʙ-6.827380e+03 (-7.066693e+03 +/- 0.000000e+00) [K]
    Coulombic Real/kʙ      -7.038295e+04 (-6.939295e+04 +/- 0.000000e+00) [K]
    Coulombic Fourier/kʙ   -1.058733e+04 (-1.025611e+04 +/- 0.000000e+00) [K]
    Molecule Intra/kʙ       0.000000e+00 ( 0.000000e+00 +/- 0.000000e+00) [K]

Current cycle: 1300 out of 5000
===============================================================================

Box:      23.88585   0.00000   0.00000  Average:  23.91206   0.00000   0.00000
           0.00000  23.88585   0.00000             0.00000  23.91206   0.00000
           0.00000   0.00000  23.88585             0.00000   0.00000  23.91206
Lengths:  23.88585  23.88585  23.88585  Average:  23.91206  23.91206  23.91206
Angles:   90.00000  90.00000  90.00000  Average:  90.00000  90.00000  90.00000
Rectangular boundary conditions

net charge:   0.00000000

component 0 (CO2) lambda:  0 occupancy:  1 (1.000000)
    net charge:   0.00000000 [e]

Amount of molecules per component :
-------------------------------------------------------------------------------
Component 0 (CO2)
    molecules:      2.000000e+02 molecules  (2.000000e+02 +/- 0.000000e+00)
    number density: 1.467600e-02 molec./A^3 (1.463203e-02 +/- 0.000000e+00)
    density:        1.072254e+03 kg/m^3     (1.069041e+03 +/- 0.000000e+00)

Average pressure tensor: 
-------------------------------------------------------------------------------
 1.3144e+02  2.3926e+01  1.9797e+01 +/- 0.0000e+00 0.0000e+00 0.0000e+00 [bar]
 2.3926e+01  5.4923e+01  1.1380e+01 +/- 0.0000e+00 0.0000e+00 0.0000e+00 [bar]
 1.9797e+01  1.1380e+01  4.3669e+01 +/- 0.0000e+00 0.0000e+00 0.0000e+00 [bar]
Ideal-gas pressure:   5.050428e+02 +/ 0.000000e+00 [bar]
Excess pressure:     -4.283665e+02 +/ 0.000000e+00 [bar]
Pressure:             7.667632e+01 +/ 0.000000e+00 [bar]

Total potential energy/kʙ  -3.075915e+05 (-3.085703e+05 +/- 0.000000e+00) [K]
-------------------------------------------------------------------------------
ExternalField-molecule
    Van der Waals/kʙ        0.000000e+00 ( 0.000000e+00 +/- 0.000000e+00) [K]
Framework-molecule
    Van der Waals/kʙ        0.000000e+00 ( 0.000000e+00 +/- 0.000000e+00) [K]
    Van der Waals (Tail)/kʙ 0.000000e+00 ( 0.000000e+00 +/- 0.000000e+00) [K]
    Coulombic Real/kʙ       0.000000e+00 ( 0.000000e+00 +/- 0.000000e+00) [K]
    Coulombic Fourier/kʙ    0.000000e+00 ( 0.000000e+00 +/- 0.000000e+00) [K]
Molecule-molecule
    Van der Waals/kʙ       -2.219190e+05 (-2.219533e+05 +/- 0.000000e+00) [K]
    Van der Waals (Tail)/kʙ-7.076443e+03 (-7.060235e+03 +/- 0.000000e+00) [K]
    Coulombic Real/kʙ      -6.861251e+04 (-6.931759e+04 +/- 0.000000e+00) [K]
    Coulombic Fourier/kʙ   -9.983546e+03 (-1.023918e+04 +/- 0.000000e+00) [K]
    Molecule Intra/kʙ       0.000000e+00 ( 0.000000e+00 +/- 0.000000e+00) [K]

Current cycle: 1400 out of 5000
===============================================================================

Box:      24.01076   0.00000   0.00000  Average:  23.90251   0.00000   0.00000
           0.00000  24.01076   0.00000             0.00000  23.90251   0.00000
           0.00000   0.00000  24.01076             0.00000   0.00000  23.90251
Lengths:  24.01076  24.01076  24.01076  Average:  23.90251  23.90251  23.90251
Angles:   90.00000  90.00000  90.00000  Average:  90.00000  90.00000  90.00000
Rectangular boundary conditions

net charge:   0.00000000

component 0 (CO2) lambda:  0 occupancy:  1 (1.000000)
    net charge:   0.00000000 [e]

Amount of molecules per component :
-------------------------------------------------------------------------------
Component 0 (CO2)
    molecules:      2.000000e+02 molecules  (2.000000e+02 +/- 0.000000e+00)
    number density: 1.444816e-02 molec./A^3 (1.464961e-02 +/- 0.000000e+00)
    density:        1.055607e+03 kg/m^3     (1.070326e+03 +/- 0.000000e+00)

Average pressure tensor: 
-------------------------------------------------------------------------------
 1.1946e+02  1.4792e+01  1.8692e+01 +/- 0.0000e+00 0.0000e+00 0.0000e+00 [bar]
 1.4792e+01  6.7361e+01  1.7197e+01 +/- 0.0000e+00 0.0000e+00 0.0000e+00 [bar]
 1.8692e+01  1.7197e+01  3.3857e+01 +/- 0.0000e+00 0.0000e+00 0.0000e+00 [bar]
Ideal-gas pressure:   5.056498e+02 +/ 0.000000e+00 [bar]
Excess pressure:     -4.320915e+02 +/ 0.000000e+00 [bar]
Pressure:             7.355829e+01 +/ 0.000000e+00 [bar]

Total potential energy/kʙ  -3.007446e+05 (-3.086985e+05 +/- 0.000000e+00) [K]
-------------------------------------------------------------------------------
ExternalField-molecule
    Van der Waals/kʙ        0.000000e+00 ( 0.000000e+00 +/- 0.000000e+00) [K]
Framework-molecule
    Van der Waals/kʙ        0.000000e+00 ( 0.000000e+00 +/- 0.000000e+00) [K]
    Van der Waals (Tail)/kʙ 0.000000e+00 ( 0.000000e+00 +/- 0.000000e+00) [K]
    Coulombic Real/kʙ       0.000000e+00 ( 0.000000e+00 +/- 0.000000e+00) [K]
    Coulombic Fourier/kʙ    0.000000e+00 ( 0.000000e+00 +/- 0.000000e+00) [K]
Molecule-molecule
    Van der Waals/kʙ       -2.227920e+05 (-2.222262e+05 +/- 0.000000e+00) [K]
    Van der Waals (Tail)/kʙ-6.966582e+03 (-7.066079e+03 +/- 0.000000e+00) [K]
    Coulombic Real/kʙ      -6.124036e+04 (-6.918475e+04 +/- 0.000000e+00) [K]
    Coulombic Fourier/kʙ   -9.745741e+03 (-1.022139e+04 +/- 0.000000e+00) [K]
    Molecule Intra/kʙ       0.000000e+00 ( 0.000000e+00 +/- 0.000000e+00) [K]

Current cycle: 1500 out of 5000
===============================================================================

Box:      23.92642   0.00000   0.00000  Average:  23.91221   0.00000   0.00000
           0.00000  23.92642   0.00000             0.00000  23.91221   0.00000
           0.00000   0.00000  23.92642             0.00000   0.00000  23.91221
Lengths:  23.92642  23.92642  23.92642  Average:  23.91221  23.91221  23.91221
Angles:   90.00000  90.00000  90.00000  Average:  90.00000  90.00000  90.00000
Rectangular boundary conditions

net charge:   0.00000000

component 0 (CO2) lambda:  0 occupancy:  1 (1.000000)
    net charge:   0.00000000 [e]

Amount of molecules per component :
-------------------------------------------------------------------------------
Component 0 (CO2)
    molecules:      2.000000e+02 molecules  (2.000000e+02 +/- 0.000000e+00)
    number density: 1.460149e-02 molec./A^3 (1.463181e-02 +/- 0.000000e+00)
    density:        1.066810e+03 kg/m^3     (1.069025e+03 +/- 0.000000e+00)

Average pressure tensor: 
-------------------------------------------------------------------------------
 1.2482e+02  9.9636e+00  1.7286e+01 +/- 0.0000e+00 0.0000e+00 0.0000e+00 [bar]
 9.9636e+00  6.2156e+01  3.2029e+01 +/- 0.0000e+00 0.0000e+00 0.0000e+00 [bar]
 1.7286e+01  3.2029e+01  3.0443e+01 +/- 0.0000e+00 0.0000e+00 0.0000e+00 [bar]
Ideal-gas pressure:   5.050352e+02 +/ 0.000000e+00 [bar]
Excess pressure:     -4.325631e+02 +/ 0.000000e+00 [bar]
Pressure:             7.247215e+01 +/ 0.000000e+00 [bar]

Total potential energy/kʙ  -3.038503e+05 (-3.081631e+05 +/- 0.000000e+00) [K]
-------------------------------------------------------------------------------
ExternalField-molecule
    Van der Waals/kʙ        0.000000e+00 ( 0.000000e+00 +/- 0.000000e+00) [K]
Framework-molecule
    Van der Waals/kʙ        0.000000e+00 ( 0.000000e+00 +/- 0.000000e+00) [K]
    Van der Waals (Tail)/kʙ 0.000000e+00 ( 0.000000e+00 +/- 0.000000e+00) [K]
    Coulombic Real/kʙ       0.000000e+00 ( 0.000000e+00 +/- 0.000000e+00) [K]
    Coulombic Fourier/kʙ    0.000000e+00 ( 0.000000e+00 +/- 0.000000e+00) [K]
Molecule-molecule
    Van der Waals/kʙ       -2.242178e+05 (-2.218773e+05 +/- 0.000000e+00) [K]
    Van der Waals (Tail)/kʙ-7.040514e+03 (-7.057867e+03 +/- 0.000000e+00) [K]
    Coulombic Real/kʙ      -6.316087e+04 (-6.901784e+04 +/- 0.000000e+00) [K]
    Coulombic Fourier/kʙ   -9.431174e+03 (-1.021015e+04 +/- 0.000000e+00) [K]
    Molecule Intra/kʙ       0.000000e+00 ( 0.000000e+00 +/- 0.000000e+00) [K]

Current cycle: 1600 out of 5000
===============================================================================

Box:      23.78723   0.00000   0.00000  Average:  23.90849   0.00000   0.00000
           0.00000  23.78723   0.00000             0.00000  23.90849   0.00000
           0.00000   0.00000  23.78723             0.00000   0.00000  23.90849
Lengths:  23.78723  23.78723  23.78723  Average:  23.90849  23.90849  23.90849
Angles:   90.00000  90.00000  90.00000  Average:  90.00000  90.00000  90.00000
Rectangular boundary conditions

net charge:   0.00000000

component 0 (CO2) lambda:  0 occupancy:  1 (1.000000)
    net charge:   0.00000000 [e]

Amount of molecules per component :
-------------------------------------------------------------------------------
Component 0 (CO2)
    molecules:      2.000000e+02 molecules  (2.000000e+02 +/- 0.000000e+00)
    number density: 1.485930e-02 molec./A^3 (1.463846e-02 +/- 0.000000e+00)
    density:        1.085646e+03 kg/m^3     (1.069511e+03 +/- 0.000000e+00)

Average pressure tensor: 
-------------------------------------------------------------------------------
 1.2982e+02  4.3886e+00  2.4071e+01 +/- 0.0000e+00 0.0000e+00 0.0000e+00 [bar]
 4.3886e+00  7.4506e+01  3.6408e+01 +/- 0.0000e+00 0.0000e+00 0.0000e+00 [bar]
 2.4071e+01  3.6408e+01  2.6146e+01 +/- 0.0000e+00 0.0000e+00 0.0000e+00 [bar]
Ideal-gas pressure:   5.052649e+02 +/ 0.000000e+00 [bar]
Excess pressure:     -4.284416e+02 +/ 0.000000e+00 [bar]
Pressure:             7.682329e+01 +/ 0.000000e+00 [bar]

Total potential energy/kʙ  -3.086544e+05 (-3.081091e+05 +/- 0.000000e+00) [K]
-------------------------------------------------------------------------------
ExternalField-molecule
    Van der Waals/kʙ        0.000000e+00 ( 0.000000e+00 +/- 0.000000e+00) [K]
Framework-molecule
    Van der Waals/kʙ        0.000000e+00 ( 0.000000e+00 +/- 0.000000e+00) [K]
    Van der Waals (Tail)/kʙ 0.000000e+00 ( 0.000000e+00 +/- 0.000000e+00) [K]
    Coulombic Real/kʙ       0.000000e+00 ( 0.000000e+00 +/- 0.000000e+00) [K]
    Coulombic Fourier/kʙ    0.000000e+00 ( 0.000000e+00 +/- 0.000000e+00) [K]
Molecule-molecule
    Van der Waals/kʙ       -2.250936e+05 (-2.220464e+05 +/- 0.000000e+00) [K]
    Van der Waals (Tail)/kʙ-7.164825e+03 (-7.062666e+03 +/- 0.000000e+00) [K]
    Coulombic Real/kʙ      -6.607351e+04 (-6.880872e+04 +/- 0.000000e+00) [K]
    Coulombic Fourier/kʙ   -1.032256e+04 (-1.019130e+04 +/- 0.000000e+00) [K]
    Molecule Intra/kʙ       0.000000e+00 ( 0.000000e+00 +/- 0.000000e+00) [K]

Current cycle: 1700 out of 5000
===============================================================================

Box:      23.67955   0.00000   0.00000  Average:  23.89910   0.00000   0.00000
           0.00000  23.67955   0.00000             0.00000  23.89910   0.00000
           0.00000   0.00000  23.67955             0.00000   0.00000  23.89910
Lengths:  23.67955  23.67955  23.67955  Average:  23.89910  23.89910  23.89910
Angles:   90.00000  90.00000  90.00000  Average:  90.00000  90.00000  90.00000
Rectangular boundary conditions

net charge:   0.00000000

component 0 (CO2) lambda:  0 occupancy:  1 (1.000000)
    net charge:   0.00000000 [e]

Amount of molecules per component :
-------------------------------------------------------------------------------
Component 0 (CO2)
    molecules:      2.000000e+02 molecules  (2.000000e+02 +/- 0.000000e+00)
    number density: 1.506294e-02 molec./A^3 (1.465576e-02 +/- 0.000000e+00)
    density:        1.100524e+03 kg/m^3     (1.070775e+03 +/- 0.000000e+00)

Average pressure tensor: 
-------------------------------------------------------------------------------
 1.3598e+02  8.7789e-01  2.8770e+01 +/- 0.0000e+00 0.0000e+00 0.0000e+00 [bar]
 8.7789e-01  8.2232e+01  3.8056e+01 +/- 0.0000e+00 0.0000e+00 0.0000e+00 [bar]
 2.8770e+01  3.8056e+01  3.3283e+01 +/- 0.0000e+00 0.0000e+00 0.0000e+00 [bar]
Ideal-gas pressure:   5.058621e+02 +/ 0.000000e+00 [bar]
Excess pressure:     -4.220307e+02 +/ 0.000000e+00 [bar]
Pressure:             8.383139e+01 +/ 0.000000e+00 [bar]

Total potential energy/kʙ  -3.186100e+05 (-3.083724e+05 +/- 0.000000e+00) [K]
-------------------------------------------------------------------------------
ExternalField-molecule
    Van der Waals/kʙ        0.000000e+00 ( 0.000000e+00 +/- 0.000000e+00) [K]
Framework-molecule
    Van der Waals/kʙ        0.000000e+00 ( 0.000000e+00 +/- 0.000000e+00) [K]
    Van der Waals (Tail)/kʙ 0.000000e+00 ( 0.000000e+00 +/- 0.000000e+00) [K]
    Coulombic Real/kʙ       0.000000e+00 ( 0.000000e+00 +/- 0.000000e+00) [K]
    Coulombic Fourier/kʙ    0.000000e+00 ( 0.000000e+00 +/- 0.000000e+00) [K]
Molecule-molecule
    Van der Waals/kʙ       -2.290466e+05 (-2.222379e+05 +/- 0.000000e+00) [K]
    Van der Waals (Tail)/kʙ-7.263017e+03 (-7.071441e+03 +/- 0.000000e+00) [K]
    Coulombic Real/kʙ      -7.170387e+04 (-6.888285e+04 +/- 0.000000e+00) [K]
    Coulombic Fourier/kʙ   -1.059646e+04 (-1.018018e+04 +/- 0.000000e+00) [K]
    Molecule Intra/kʙ       0.000000e+00 ( 0.000000e+00 +/- 0.000000e+00) [K]

Current cycle: 1800 out of 5000
===============================================================================

Box:      23.75093   0.00000   0.00000  Average:  23.88592   0.00000   0.00000
           0.00000  23.75093   0.00000             0.00000  23.88592   0.00000
           0.00000   0.00000  23.75093             0.00000   0.00000  23.88592
Lengths:  23.75093  23.75093  23.75093  Average:  23.88592  23.88592  23.88592
Angles:   90.00000  90.00000  90.00000  Average:  90.00000  90.00000  90.00000
Rectangular boundary conditions

net charge:   0.00000000

component 0 (CO2) lambda:  0 occupancy:  1 (1.000000)
    net charge:   0.00000000 [e]

Amount of molecules per component :
-------------------------------------------------------------------------------
Component 0 (CO2)
    molecules:      2.000000e+02 molecules  (2.000000e+02 +/- 0.000000e+00)
    number density: 1.492753e-02 molec./A^3 (1.468033e-02 +/- 0.000000e+00)
    density:        1.090631e+03 kg/m^3     (1.072570e+03 +/- 0.000000e+00)

Average pressure tensor: 
-------------------------------------------------------------------------------
 1.2644e+02  1.4048e+00  2.9453e+01 +/- 0.0000e+00 0.0000e+00 0.0000e+00 [bar]
 1.4048e+00  7.9154e+01  4.2202e+01 +/- 0.0000e+00 0.0000e+00 0.0000e+00 [bar]
 2.9453e+01  4.2202e+01  4.9392e+01 +/- 0.0000e+00 0.0000e+00 0.0000e+00 [bar]
Ideal-gas pressure:   5.067100e+02 +/ 0.000000e+00 [bar]
Excess pressure:     -4.217135e+02 +/ 0.000000e+00 [bar]
Pressure:             8.499647e+01 +/ 0.000000e+00 [bar]

Total potential energy/kʙ  -3.099292e+05 (-3.089217e+05 +/- 0.000000e+00) [K]
-------------------------------------------------------------------------------
ExternalField-molecule
    Van der Waals/kʙ        0.000000e+00 ( 0.000000e+00 +/- 0.000000e+00) [K]
Framework-molecule
    Van der Waals/kʙ        0.000000e+00 ( 0.000000e+00 +/- 0.000000e+00) [K]
    Van der Waals (Tail)/kʙ 0.000000e+00 ( 0.000000e+00 +/- 0.000000e+00) [K]
    Coulombic Real/kʙ       0.000000e+00 ( 0.000000e+00 +/- 0.000000e+00) [K]
    Coulombic Fourier/kʙ    0.000000e+00 ( 0.000000e+00 +/- 0.000000e+00) [K]
Molecule-molecule
    Van der Waals/kʙ       -2.262265e+05 (-2.226391e+05 +/- 0.000000e+00) [K]
    Van der Waals (Tail)/kʙ-7.197726e+03 (-7.082018e+03 +/- 0.000000e+00) [K]
    Coulombic Real/kʙ      -6.540728e+04 (-6.898221e+04 +/- 0.000000e+00) [K]
    Coulombic Fourier/kʙ   -1.109762e+04 (-1.021830e+04 +/- 0.000000e+00) [K]
    Molecule Intra/kʙ       0.000000e+00 ( 0.000000e+00 +/- 0.000000e+00) [K]

Current cycle: 1900 out of 5000
===============================================================================

Box:      23.71470   0.00000   0.00000  Average:  23.86891   0.00000   0.00000
           0.00000  23.71470   0.00000             0.00000  23.86891   0.00000
           0.00000   0.00000  23.71470             0.00000   0.00000  23.86891
Lengths:  23.71470  23.71470  23.71470  Average:  23.86891  23.86891  23.86891
Angles:   90.00000  90.00000  90.00000  Average:  90.00000  90.00000  90.00000
Rectangular boundary conditions

net charge:   0.00000000

component 0 (CO2) lambda:  0 occupancy:  1 (1.000000)
    net charge:   0.00000000 [e]

Amount of molecules per component :
-------------------------------------------------------------------------------
Component 0 (CO2)
    molecules:      2.000000e+02 molecules  (2.000000e+02 +/- 0.000000e+00)
    number density: 1.499605e-02 molec./A^3 (1.471238e-02 +/- 0.000000e+00)
    density:        1.095637e+03 kg/m^3     (1.074911e+03 +/- 0.000000e+00)

Average pressure tensor: 
-------------------------------------------------------------------------------
 1.3755e+02  8.4383e+00  2.3961e+01 +/- 0.0000e+00 0.0000e+00 0.0000e+00 [bar]
 8.4383e+00  6.8242e+01  3.9566e+01 +/- 0.0000e+00 0.0000e+00 0.0000e+00 [bar]
 2.3961e+01  3.9566e+01  5.5943e+01 +/- 0.0000e+00 0.0000e+00 0.0000e+00 [bar]
Ideal-gas pressure:   5.078162e+02 +/ 0.000000e+00 [bar]
Excess pressure:     -4.205728e+02 +/ 0.000000e+00 [bar]
Pressure:             8.724345e+01 +/ 0.000000e+00 [bar]

Total potential energy/kʙ  -3.184168e+05 (-3.095609e+05 +/- 0.000000e+00) [K]
-------------------------------------------------------------------------------
ExternalField-molecule
    Van der Waals/kʙ        0.000000e+00 ( 0.000000e+00 +/- 0.000000e+00) [K]
Framework-molecule
    Van der Waals/kʙ        0.000000e+00 ( 0.000000e+00 +/- 0.000000e+00) [K]
    Van der Waals (Tail)/kʙ 0.000000e+00 ( 0.000000e+00 +/- 0.000000e+00) [K]
    Coulombic Real/kʙ       0.000000e+00 ( 0.000000e+00 +/- 0.000000e+00) [K]
    Coulombic Fourier/kʙ    0.000000e+00 ( 0.000000e+00 +/- 0.000000e+00) [K]
Molecule-molecule
    Van der Waals/kʙ       -2.316009e+05 (-2.232277e+05 +/- 0.000000e+00) [K]
    Van der Waals (Tail)/kʙ-7.230764e+03 (-7.096847e+03 +/- 0.000000e+00) [K]
    Coulombic Real/kʙ      -6.942114e+04 (-6.901471e+04 +/- 0.000000e+00) [K]
    Coulombic Fourier/kʙ   -1.016400e+04 (-1.022164e+04 +/- 0.000000e+00) [K]
    Molecule Intra/kʙ       0.000000e+00 ( 0.000000e+00 +/- 0.000000e+00) [K]

Current cycle: 2000 out of 5000
===============================================================================

Box:      23.93445   0.00000   0.00000  Average:  23.86381   0.00000   0.00000
           0.00000  23.93445   0.00000             0.00000  23.86381   0.00000
           0.00000   0.00000  23.93445             0.00000   0.00000  23.86381
Lengths:  23.93445  23.93445  23.93445  Average:  23.86381  23.86381  23.86381
Angles:   90.00000  90.00000  90.00000  Average:  90.00000  90.00000  90.00000
Rectangular boundary conditions

net charge:   0.00000000

component 0 (CO2) lambda:  0 occupancy:  1 (1.000000)
    net charge:   0.00000000 [e]

Amount of molecules per component :
-------------------------------------------------------------------------------
Component 0 (CO2)
    molecules:      2.000000e+02 molecules  (2.000000e+02 +/- 0.000000e+00)
    number density: 1.458679e-02 molec./A^3 (1.472170e-02 +/- 0.000000e+00)
    density:        1.065736e+03 kg/m^3     (1.075593e+03 +/- 0.000000e+00)

Average pressure tensor: 
-------------------------------------------------------------------------------
 1.3718e+02  1.4128e+01  2.3838e+01 +/- 0.0000e+00 0.0000e+00 0.0000e+00 [bar]
 1.4128e+01  7.2848e+01  4.1412e+01 +/- 0.0000e+00 0.0000e+00 0.0000e+00 [bar]
 2.3838e+01  4.1412e+01  6.0292e+01 +/- 0.0000e+00 0.0000e+00 0.0000e+00 [bar]
Ideal-gas pressure:   5.081381e+02 +/ 0.000000e+00 [bar]
Excess pressure:     -4.180317e+02 +/ 0.000000e+00 [bar]
Pressure:             9.010640e+01 +/ 0.000000e+00 [bar]

Total potential energy/kʙ  -3.102389e+05 (-3.097556e+05 +/- 0.000000e+00) [K]
-------------------------------------------------------------------------------
ExternalField-molecule
    Van der Waals/kʙ        0.000000e+00 ( 0.000000e+00 +/- 0.000000e+00) [K]
Framework-molecule
    Van der Waals/kʙ        0.000000e+00 ( 0.000000e+00 +/- 0.000000e+00) [K]
    Van der Waals (Tail)/kʙ 0.000000e+00 ( 0.000000e+00 +/- 0.000000e+00) [K]
    Coulombic Real/kʙ       0.000000e+00 ( 0.000000e+00 +/- 0.000000e+00) [K]
    Coulombic Fourier/kʙ    0.000000e+00 ( 0.000000e+00 +/- 0.000000e+00) [K]
Molecule-molecule
    Van der Waals/kʙ       -2.242808e+05 (-2.234225e+05 +/- 0.000000e+00) [K]
    Van der Waals (Tail)/kʙ-7.033428e+03 (-7.102091e+03 +/- 0.000000e+00) [K]
    Coulombic Real/kʙ      -6.827924e+04 (-6.900429e+04 +/- 0.000000e+00) [K]
    Coulombic Fourier/kʙ   -1.064549e+04 (-1.022669e+04 +/- 0.000000e+00) [K]
    Molecule Intra/kʙ       0.000000e+00 ( 0.000000e+00 +/- 0.000000e+00) [K]

Current cycle: 2100 out of 5000
===============================================================================

Box:      23.63668   0.00000   0.00000  Average:  23.86266   0.00000   0.00000
           0.00000  23.63668   0.00000             0.00000  23.86266   0.00000
           0.00000   0.00000  23.63668             0.00000   0.00000  23.86266
Lengths:  23.63668  23.63668  23.63668  Average:  23.86266  23.86266  23.86266
Angles:   90.00000  90.00000  90.00000  Average:  90.00000  90.00000  90.00000
Rectangular boundary conditions

net charge:   0.00000000

component 0 (CO2) lambda:  0 occupancy:  1 (1.000000)
    net charge:   0.00000000 [e]

Amount of molecules per component :
-------------------------------------------------------------------------------
Component 0 (CO2)
    molecules:      2.000000e+02 molecules  (2.000000e+02 +/- 0.000000e+00)
    number density: 1.514505e-02 molec./A^3 (1.472371e-02 +/- 0.000000e+00)
    density:        1.106523e+03 kg/m^3     (1.075739e+03 +/- 0.000000e+00)

Average pressure tensor: 
-------------------------------------------------------------------------------
 1.2398e+02  1.1667e+01  2.4764e+01 +/- 0.0000e+00 0.0000e+00 0.0000e+00 [bar]
 1.1667e+01  7.5131e+01  4.5096e+01 +/- 0.0000e+00 0.0000e+00 0.0000e+00 [bar]
 2.4764e+01  4.5096e+01  5.8140e+01 +/- 0.0000e+00 0.0000e+00 0.0000e+00 [bar]
Ideal-gas pressure:   5.082074e+02 +/ 0.000000e+00 [bar]
Excess pressure:     -4.224581e+02 +/ 0.000000e+00 [bar]
Pressure:             8.574931e+01 +/ 0.000000e+00 [bar]

Total potential energy/kʙ  -3.186733e+05 (-3.097641e+05 +/- 0.000000e+00) [K]
-------------------------------------------------------------------------------
ExternalField-molecule
    Van der Waals/kʙ        0.000000e+00 ( 0.000000e+00 +/- 0.000000e+00) [K]
Framework-molecule
    Van der Waals/kʙ        0.000000e+00 ( 0.000000e+00 +/- 0.000000e+00) [K]
    Van der Waals (Tail)/kʙ 0.000000e+00 ( 0.000000e+00 +/- 0.000000e+00) [K]
[...]
    Coulombic Fourier/kʙ    0.000000e+00 ( 0.000000e+00 +/- 0.000000e+00) [K]
Molecule-molecule
    Van der Waals/kʙ       -2.216296e+05 (-2.199098e+05 +/- 4.798822e+03) [K]
    Van der Waals (Tail)/kʙ-6.779852e+03 (-6.990341e+03 +/- 1.581645e+02) [K]
    Coulombic Real/kʙ      -6.734252e+04 (-6.802588e+04 +/- 2.136909e+03) [K]
    Coulombic Fourier/kʙ   -1.042052e+04 (-1.018304e+04 +/- 3.919661e+02) [K]
    Molecule Intra/kʙ       0.000000e+00 ( 0.000000e+00 +/- 0.000000e+00) [K]

Current cycle: 4700 out of 5000
===============================================================================

Box:      24.15774   0.00000   0.00000  Average:  23.99095   0.00000   0.00000
           0.00000  24.15774   0.00000             0.00000  23.99095   0.00000
           0.00000   0.00000  24.15774             0.00000   0.00000  23.99095
Lengths:  24.15774  24.15774  24.15774  Average:  23.99095  23.99095  23.99095
Angles:   90.00000  90.00000  90.00000  Average:  90.00000  90.00000  90.00000
Rectangular boundary conditions

net charge:   0.00000000

component 0 (CO2) lambda:  0 occupancy:  1 (1.000000)
    net charge:   0.00000000 [e]

Amount of molecules per component :
-------------------------------------------------------------------------------
Component 0 (CO2)
    molecules:      2.000000e+02 molecules  (2.000000e+02 +/- 0.000000e+00)
    number density: 1.418604e-02 molec./A^3 (1.449304e-02 +/- 3.247997e-04)
    density:        1.036456e+03 kg/m^3     (1.058886e+03 +/- 2.373042e+01)

Average pressure tensor: 
-------------------------------------------------------------------------------
 1.1905e+02 -1.1008e+01  4.3368e+00 +/- 4.8174e+01 3.0833e+01 4.4349e+01 [bar]
-1.1008e+01  4.6117e+01  1.6496e+01 +/- 3.0833e+01 8.7074e+01 7.0715e+01 [bar]
 4.3368e+00  1.6496e+01  8.1610e+01 +/- 4.4349e+01 7.0715e+01 6.1215e+01 [bar]
Ideal-gas pressure:   5.002454e+02 +/ 1.121087e+01 [bar]
Excess pressure:     -4.179855e+02 +/ 1.290084e+01 [bar]
Pressure:             8.225990e+01 +/ 1.389469e+01 [bar]

Total potential energy/kʙ  -3.025660e+05 (-3.050581e+05 +/- 7.023857e+03) [K]
-------------------------------------------------------------------------------
ExternalField-molecule
    Van der Waals/kʙ        0.000000e+00 ( 0.000000e+00 +/- 0.000000e+00) [K]
Framework-molecule
    Van der Waals/kʙ        0.000000e+00 ( 0.000000e+00 +/- 0.000000e+00) [K]
    Van der Waals (Tail)/kʙ 0.000000e+00 ( 0.000000e+00 +/- 0.000000e+00) [K]
    Coulombic Real/kʙ       0.000000e+00 ( 0.000000e+00 +/- 0.000000e+00) [K]
    Coulombic Fourier/kʙ    0.000000e+00 ( 0.000000e+00 +/- 0.000000e+00) [K]
Molecule-molecule
    Van der Waals/kʙ       -2.199885e+05 (-2.198672e+05 +/- 4.805720e+03) [K]
    Van der Waals (Tail)/kʙ-6.840193e+03 (-6.988791e+03 +/- 1.585387e+02) [K]
    Coulombic Real/kʙ      -6.556390e+04 (-6.801527e+04 +/- 2.063776e+03) [K]
    Coulombic Fourier/kʙ   -1.017344e+04 (-1.018687e+04 +/- 3.844417e+02) [K]
    Molecule Intra/kʙ       0.000000e+00 ( 0.000000e+00 +/- 0.000000e+00) [K]

Current cycle: 4800 out of 5000
===============================================================================

Box:      23.90432   0.00000   0.00000  Average:  23.98903   0.00000   0.00000
           0.00000  23.90432   0.00000             0.00000  23.98903   0.00000
           0.00000   0.00000  23.90432             0.00000   0.00000  23.98903
Lengths:  23.90432  23.90432  23.90432  Average:  23.98903  23.98903  23.98903
Angles:   90.00000  90.00000  90.00000  Average:  90.00000  90.00000  90.00000
Rectangular boundary conditions

net charge:   0.00000000

component 0 (CO2) lambda:  0 occupancy:  1 (1.000000)
    net charge:   0.00000000 [e]

Amount of molecules per component :
-------------------------------------------------------------------------------
Component 0 (CO2)
    molecules:      2.000000e+02 molecules  (2.000000e+02 +/- 0.000000e+00)
    number density: 1.464201e-02 molec./A^3 (1.449638e-02 +/- 3.239140e-04)
    density:        1.069770e+03 kg/m^3     (1.059131e+03 +/- 2.366571e+01)

Average pressure tensor: 
-------------------------------------------------------------------------------
 1.2276e+02 -9.1001e+00  2.4065e+00 +/- 4.8763e+01 3.1031e+01 4.1326e+01 [bar]
-9.1001e+00  4.5059e+01  1.7645e+01 +/- 3.1031e+01 8.3720e+01 6.4375e+01 [bar]
 2.4065e+00  1.7645e+01  8.2135e+01 +/- 4.1326e+01 6.4375e+01 5.9338e+01 [bar]
Ideal-gas pressure:   5.003609e+02 +/ 1.118030e+01 [bar]
Excess pressure:     -4.170439e+02 +/ 9.969546e+00 [bar]
Pressure:             8.331702e+01 +/ 1.056746e+01 [bar]

Total potential energy/kʙ  -3.096858e+05 (-3.051945e+05 +/- 7.071407e+03) [K]
-------------------------------------------------------------------------------
ExternalField-molecule
    Van der Waals/kʙ        0.000000e+00 ( 0.000000e+00 +/- 0.000000e+00) [K]
Framework-molecule
    Van der Waals/kʙ        0.000000e+00 ( 0.000000e+00 +/- 0.000000e+00) [K]
    Van der Waals (Tail)/kʙ 0.000000e+00 ( 0.000000e+00 +/- 0.000000e+00) [K]
    Coulombic Real/kʙ       0.000000e+00 ( 0.000000e+00 +/- 0.000000e+00) [K]
    Coulombic Fourier/kʙ    0.000000e+00 ( 0.000000e+00 +/- 0.000000e+00) [K]
Molecule-molecule
    Van der Waals/kʙ       -2.201669e+05 (-2.198874e+05 +/- 4.800224e+03) [K]
    Van der Waals (Tail)/kʙ-7.060052e+03 (-6.990276e+03 +/- 1.579999e+02) [K]
    Coulombic Real/kʙ      -7.174925e+04 (-6.812234e+04 +/- 2.183499e+03) [K]
    Coulombic Fourier/kʙ   -1.070961e+04 (-1.019443e+04 +/- 3.858780e+02) [K]
    Molecule Intra/kʙ       0.000000e+00 ( 0.000000e+00 +/- 0.000000e+00) [K]

Current cycle: 4900 out of 5000
===============================================================================

Box:      23.80794   0.00000   0.00000  Average:  23.98687   0.00000   0.00000
           0.00000  23.80794   0.00000             0.00000  23.98687   0.00000
           0.00000   0.00000  23.80794             0.00000   0.00000  23.98687
Lengths:  23.80794  23.80794  23.80794  Average:  23.98687  23.98687  23.98687
Angles:   90.00000  90.00000  90.00000  Average:  90.00000  90.00000  90.00000
Rectangular boundary conditions

net charge:   0.00000000

component 0 (CO2) lambda:  0 occupancy:  1 (1.000000)
    net charge:   0.00000000 [e]

Amount of molecules per component :
-------------------------------------------------------------------------------
Component 0 (CO2)
    molecules:      2.000000e+02 molecules  (2.000000e+02 +/- 0.000000e+00)
    number density: 1.482057e-02 molec./A^3 (1.450019e-02 +/- 3.236477e-04)
    density:        1.082816e+03 kg/m^3     (1.059409e+03 +/- 2.364626e+01)

Average pressure tensor: 
-------------------------------------------------------------------------------
 1.2487e+02 -7.2313e+00 -1.3565e+00 +/- 5.0050e+01 3.2170e+01 3.9923e+01 [bar]
-7.2313e+00  4.5312e+01  1.7259e+01 +/- 3.2170e+01 7.8308e+01 6.2686e+01 [bar]
-1.3565e+00  1.7259e+01  8.0444e+01 +/- 3.9923e+01 6.2686e+01 5.4031e+01 [bar]
Ideal-gas pressure:   5.004923e+02 +/ 1.117111e+01 [bar]
Excess pressure:     -4.169502e+02 +/ 9.513778e+00 [bar]
Pressure:             8.354205e+01 +/ 9.873756e+00 [bar]

Total potential energy/kʙ  -3.116145e+05 (-3.053133e+05 +/- 7.114928e+03) [K]
-------------------------------------------------------------------------------
ExternalField-molecule
    Van der Waals/kʙ        0.000000e+00 ( 0.000000e+00 +/- 0.000000e+00) [K]
Framework-molecule
    Van der Waals/kʙ        0.000000e+00 ( 0.000000e+00 +/- 0.000000e+00) [K]
    Van der Waals (Tail)/kʙ 0.000000e+00 ( 0.000000e+00 +/- 0.000000e+00) [K]
    Coulombic Real/kʙ       0.000000e+00 ( 0.000000e+00 +/- 0.000000e+00) [K]
    Coulombic Fourier/kʙ    0.000000e+00 ( 0.000000e+00 +/- 0.000000e+00) [K]
Molecule-molecule
    Van der Waals/kʙ       -2.243260e+05 (-2.199393e+05 +/- 4.795702e+03) [K]
    Van der Waals (Tail)/kʙ-7.146149e+03 (-6.991754e+03 +/- 1.577712e+02) [K]
    Coulombic Real/kʙ      -7.065983e+04 (-6.818251e+04 +/- 2.223548e+03) [K]
    Coulombic Fourier/kʙ   -9.482493e+03 (-1.019977e+04 +/- 3.840319e+02) [K]
    Molecule Intra/kʙ       0.000000e+00 ( 0.000000e+00 +/- 0.000000e+00) [K]


Energy statistics             |  Energy [K]   | Recomputed [K]|  Drift [K]    |
===============================================================================
Total potential energy/kʙ     | -3.067275e+05 | -3.067275e+05 |  6.760125e-10 |
    external field VDW/kʙ     |  0.000000e+00 |  0.000000e+00 |  0.000000e+00 |
    external field Real/kʙ    |  0.000000e+00 |  0.000000e+00 |  0.000000e+00 |
    framework-molecule VDW/kʙ |  0.000000e+00 |  0.000000e+00 |  0.000000e+00 |
    framework-molecule Real/kʙ|  0.000000e+00 |  0.000000e+00 |  0.000000e+00 |
    molecule-molecule VDW/kʙ  | -2.185901e+05 | -2.185901e+05 |  9.451049e-10 |
    molecule-molecule Real/kʙ | -7.111367e+04 | -7.111367e+04 | -2.712801e-10 |
    Van der Waals (Tail)/kʙ   | -6.941906e+03 | -6.941906e+03 |  0.000000e+00 |
    Ewald Fourier/kʙ          |  8.071259e+03 |  8.071259e+03 |  2.187743e-12 |
    Ewald self/kʙ             | -4.023739e+06 | -4.023739e+06 |  0.000000e+00 |
    Ewald exclusion/kʙ        |  4.005586e+06 |  4.005586e+06 |  0.000000e+00 |
    intra VDW/kʙ              |  0.000000e+00 |  0.000000e+00 |  0.000000e+00 |
    intra Coulombic/kʙ        |  0.000000e+00 |  0.000000e+00 |  0.000000e+00 |
    polarization/kʙ           |  0.000000e+00 |  0.000000e+00 |  0.000000e+00 |
    dU/dlambda VDW/kʙ         |  0.000000e+00 |  0.000000e+00 |  0.000000e+00 |
    dU/dlambda Real/kʙ        |  0.000000e+00 |  0.000000e+00 |  0.000000e+00 |
    dU/dlambda Ewald/kʙ       |  0.000000e+00 |  0.000000e+00 |  0.000000e+00 |
-------------------------------------------------------------------------------


Monte-Carlo moves statistics
===============================================================================

    Volume change        all:                6725
    Volume change        total:              6725
    Volume change        constructed:        6725
    Volume change        accepted:           2862
    Volume change        fraction:       0.425576
    Volume change        max-change:     0.033333

Component 0 [CO2]
    Reinsertion (CBMC)   all:              332246
    Reinsertion (CBMC)   total:            332246
    Reinsertion (CBMC)   constructed:      296018
    Reinsertion (CBMC)   accepted:           5014
    Reinsertion (CBMC)   fraction:       0.015091
    Reinsertion (CBMC)   max-change:     0.000000

    Translation          all:              330745
    Translation          total:            110507     110180     110058
    Translation          constructed:      110507     110180     110052
    Translation          accepted:          60172      46852      42471
    Translation          fraction:       0.544508   0.425231   0.385897
    Translation          max-change:     0.578947   0.842105   0.944056

    Rotation             all:              330284
    Rotation             total:            110198     109876     110210
    Rotation             constructed:      110126     109853     110172
    Rotation             accepted:          40762      44218      41923
    Rotation             fraction:       0.369898   0.402435   0.380392
    Rotation             max-change:     1.082353   0.966184   1.007407



Production run counting of the MC moves summed over systems and components
===============================================================================

Volume change                          6725 (0.6725 [%])
Reinsertion (CBMC)                   332246 (33.2246 [%])
Translation                          330745 (33.0745 [%])
Rotation                             330284 (33.0284 [%])

Production count MC-steps:          1000000 [-]
               All summed:          1000000 [-]
               difference:                0 [-]


Production run CPU timings of the MC moves
===============================================================================

Component 0 CO2

Rotation                             46.070988 [s]
    Ewald                            18.562982 [s]
    ExternalField-Molecule            0.012756 [s]
    Framework-Molecule                0.009879 [s]
    Molecule-Molecule                26.171347 [s]
    Overhead                          1.314024 [s]

Reinsertion (CBMC)                  194.381340 [s]
    Ewald                            16.772431 [s]
    NonEwald                        177.294240 [s]
    Overhead                          0.314669 [s]

Translation                          46.316612 [s]
    Ewald                            18.590486 [s]
    ExternalField-Molecule            0.011376 [s]
    Framework-Molecule                0.017608 [s]
    Molecule-Molecule                26.269128 [s]
    Overhead                          1.428014 [s]



Volume change                         43.597617 [s]
    Ewald                             14.955857 [s]
    NonEwald                          26.814825 [s]
    Tail                               1.592339 [s]

Property sampling                     0.286941 [s]
Energy/pressure sampling:             6.490169 [s]


Production run CPU timings of the MC moves summed over systems and components
===============================================================================


Translation                          46.316612 [s]
    Ewald                            18.590486 [s]
    ExternalField-Molecule            0.011376 [s]
    Framework-Molecule                0.017608 [s]
    Molecule-Molecule                26.269128 [s]
    Overhead                          1.428014 [s]

Rotation                             46.070988 [s]
    Ewald                            18.562982 [s]
    ExternalField-Molecule            0.012756 [s]
    Framework-Molecule                0.009879 [s]
    Molecule-Molecule                26.171347 [s]
    Overhead                          1.314024 [s]

Volume change                        43.597617 [s]
    Ewald                            14.955857 [s]
    NonEwald                         26.814825 [s]
    Tail                              1.592339 [s]
    Overhead                          0.234596 [s]

Reinsertion (CBMC)                  194.381340 [s]
    Ewald                            16.772431 [s]
    NonEwald                        177.294240 [s]
    Overhead                          0.314669 [s]

Property sampling:                    0.286941 [s]
Energy/pressure sampling:             6.490169 [s]

Production simulation time:         337.893969 [s]
                All summed:         337.143667 [s]
                  Overhead:           0.750302 [s]


Initalization simulation time:       64.435985 [s]
Equilibration simulation time:        0.000000 [s]
Production simulation time:         337.893969 [s]
Total simulation time:              402.329954 [s]


Energy averages and statistics:
===============================================================================

Framework-molecule energy:
-------------------------------------------------------------------------------



Framework-molecule energy contributions per energy type:
-------------------------------------------------------------------------------



Inter-molecular energy:
-------------------------------------------------------------------------------

    Inter-molecular energy/kʙ 0-0 [CO2-CO2]:
    ---------------------------------------------------------------------------
        Block[  0] -3.095931e+05
        Block[  1] -3.099133e+05
        Block[  2] -2.960325e+05
        Block[  3] -3.039281e+05
        Block[  4] -3.078878e+05
        -----------------------------------------------------------------------
        Average  -3.054710e+05 +/-  7.186342e+03 [K]



Inter-molecular energy contributions per energy type:
-------------------------------------------------------------------------------

    Van der Waals energy/kʙ 0-0 [CO2-CO2]:
    ---------------------------------------------------------------------------
        Block[  0] -2.227322e+05
        Block[  1] -2.241042e+05
        Block[  2] -2.141750e+05
        Block[  3] -2.187939e+05
        Block[  4] -2.200598e+05
        -----------------------------------------------------------------------
        Average  -2.199730e+05 +/-  4.795944e+03 [K]

    VDW Tail-Correction energy/kʙ 0-0 [CO2-CO2]:
    ---------------------------------------------------------------------------
        Block[  0] -7.097655e+03
        Block[  1] -7.107212e+03
        Block[  2] -6.792384e+03
        Block[  3] -6.975288e+03
        Block[  4] -6.993872e+03
        -----------------------------------------------------------------------
        Average  -6.993282e+03 +/-  1.577173e+02 [K]

    Coulomb Real energy/kʙ 0-0 [CO2-CO2]:
    ---------------------------------------------------------------------------
        Block[  0] -6.941824e+04
        Block[  1] -6.859759e+04
        Block[  2] -6.535124e+04
        Block[  3] -6.779559e+04
        Block[  4] -7.037119e+04
        -----------------------------------------------------------------------
        Average  -6.830677e+04 +/-  2.370046e+03 [K]

    Coulomb Fourier energy/kʙ 0-0 [CO2-CO2]:
    ---------------------------------------------------------------------------
        Block[  0] -1.034493e+04
        Block[  1] -1.010425e+04
        Block[  2] -9.713922e+03
        Block[  3] -1.036332e+04
        Block[  4] -1.046300e+04
        -----------------------------------------------------------------------
        Average  -1.019789e+04 +/-  3.736088e+02 [K]


Total energy/kʙ
-------------------------------------------------------------------------------
    Block[  0] -3.095931e+05
    Block[  1] -3.099133e+05
    Block[  2] -2.960325e+05
    Block[  3] -3.039281e+05
    Block[  4] -3.078878e+05
    ---------------------------------------------------------------------------
    Average  -3.054710e+05 +/-  7.186342e+03 [K]

Pressure averages and statistics:
===============================================================================

Average pressure tensor: 
-------------------------------------------------------------------------------
 1.2677e+02 -1.1240e+01 -3.9355e+00 +/- 5.1367e+01 3.0835e+01 4.0814e+01 [bar]
-1.1240e+01  5.1634e+01  1.4249e+01 +/- 3.0835e+01 6.3219e+01 6.6009e+01 [bar]
-3.9355e+00  1.4249e+01  7.4423e+01 +/- 4.0814e+01 6.6009e+01 4.6276e+01 [bar]

    Block[  0]  5.075613e+07
    Block[  1]  5.087196e+07
    Block[  2]  4.861633e+07
    Block[  3]  4.995427e+07
    Block[  4]  5.009126e+07
    ---------------------------------------------------------------------------
    Ideal gas pressure   5.005799e+07 +/-  6.728826e-02 [Pa]
                         5.005799e+02 +/-  1.117349e+01 [bar]


    Block[  0] -4.110256e+07
    Block[  1] -4.253228e+07
    Block[  2] -4.081682e+07
    Block[  3] -4.167532e+07
    Block[  4] -4.202572e+07
    ---------------------------------------------------------------------------
    Excess pressure  -4.163054e+07 +/-  8.583681e+05 [Pa]
                     -4.163054e+02 +/-  8.583681e+00 [bar]


    Block[  0]  9.653568e+06
    Block[  1]  8.339673e+06
    Block[  2]  7.799516e+06
    Block[  3]  8.278951e+06
    Block[  4]  8.065540e+06
    ---------------------------------------------------------------------------
    Pressure average   8.427450e+06 +/-  8.905731e+05 [Pa]
                       8.427450e+01 +/-  8.905731e+00 [bar]


Enthalpy of adsorption
===============================================================================

No fluctuating components present.


Densities
===============================================================================

Component 0 (CO2)
    Block[  0] 200
    Block[  1] 200
    Block[  2] 200
    Block[  3] 200
    Block[  4] 200
    -----------------------------------------------------------------------
    Density average   2.000000e+02 +/-  0.000000e+00 [molecules]
    Density average   1.450273e-02 +/-  3.237166e-04 [molec/A^3]
    Density average   1.059594e+03 +/-  2.365129e+01 [kg.m⁻³]

