Compiler and run-time data
===============================================================================
RASPA 3.0.4

Random seed: 1752295118

Compiled as a 64-bits application
Compiler: gcc Ubuntu Clang 18.1.3 (1ubuntu1)
Compile Date = Mar 15 2025, Compile Time = 19:39:45

2025-06-02 12:44:41.154720
Simulation started on Mon, Jun 02
The start time was 12:44:00

Hostname:    c061
OS type:     Linux on x86_64
OS release:  6.8.0-58-generic
OS version:  #60-Ubuntu SMP PREEMPT_DYNAMIC Fri Mar 14 18:29:48 UTC 2025


Mutual consistent basic set of units:
===============================================================================

Unit of temperature: 1 [K]
Unit of length:      1e-10 [m]
Unit of time:        1e-12 [s]
Unit of mass:        1.6605402e-27 [kg]
Unit of charge:      1.60217733e-19 [C/particle]


Boltzmann constant (internal units):          0.8314464919307584 [-]
represents conversion from energy (internal units) to temperature (in Kelvin)

Derived units and their conversion factors:
===============================================================================

Unit of energy:                           1.6605402000000002e-23 [J]
Unit of energy:                           10.000008872307538 [J.mol⁻¹]
Unit of velocity:                         100 [m.s⁻¹]
Unit of force:                            1.6605402000000002e-13 [N]
Unit of diffusion:                        1.0000000000000002e-08 [m².s⁻¹]
Unit of acceleration:                     1.0000000000000002e-08 [m².s⁻¹]
Unit of torque:                           1.6605402000000002e-23 [N.m]
Unit of pressure:                         16605402 [Pa]
Unit of volume:                           1e-30 [m³]
Unit of density:                          1660.5402 [kg.m⁻³]
Unit of dynamic viscosity:                1.6605401999999997e-05 [N.s.m⁻²]
Unit of enthalpy:                         1.6605402000000002e-23 [J]
Unit of polarizability:                   1.5458657349975198e-35 [-]
Unit of Coulomb potential:                167101.08000665612 [K]
Unit of dielectric constant:              1.5458657349975193e-05 [s².C².kg⁻¹.m⁻³]
Unit of dipole moment:                    1.60217733e-29 [C.m]
Unit of Debye:                            4.803206799099162 [C.m]
Unit of electric potential:               0.00010364272224473431 [V]
Unit of electric field:                   1036427.222447343 [V.m⁻¹]
Unit of isothermal compressibility:       6.02213665167516e-08 [Pa⁻¹]
Unit of heat capacity:                    10.000008872307538 [J.mol⁻¹.K⁻¹]
Unit of volumetric expansion coefficient: 1 [K⁻¹]


Internal conversion factors:
===============================================================================

Energy (internal units) to Kelvin:      1.202724284692786 [-]
Kelvin to energy (internal units):      0.8314457542157567 [-]


System definitions
===============================================================================

Temperature:          250 [K]
Beta:                 0.0048108928702210625 [-]
Pressure:             1.2e+07 [Pa]
Helium void fraction: 1 [-]

Box:      30.00000   0.00000   0.00000
           0.00000  30.00000   0.00000
           0.00000   0.00000  30.00000
Lengths:  30.00000  30.00000  30.00000
Angles:   90.00000  90.00000  90.00000
Rectangular boundary conditions



Property measurement settings
===============================================================================




Pseudo-atoms
===============================================================================

  0 - C_co2    framework-atom: false
  1 - O_co2    framework-atom: false

  0 - C_co2    mass: 12.00000, charge:  0.70000
  1 - O_co2    mass: 15.99940, charge: -0.35000

  0 - C_co2    polarizability:  0.00000
  1 - O_co2    polarizability:  0.00000

  0 - J. J. Potoff et al., AIChE J. 2001, 47, 1676–1682.
  1 - J. J. Potoff et al., AIChE J. 2001, 47, 1676–1682.

Force field status
===============================================================================

Cutoff Framework-Molecule VDW:  12.00000 [Å]
Cutoff Molecule-Molecule VDW:   12.00000 [Å]
Cutoff Coulomb:                 12.00000 [Å]

Overlap-criteria VDW:           1.000000e+05 [K]

C_co2    - C_co2    Lennard-Jones p₀/kʙ:  27.00000 [K], p₁:  2.80000 [Å]
                                  shift:   0.00000 [K], tailcorrections: true
C_co2    - O_co2    Lennard-Jones p₀/kʙ:  46.18441 [K], p₁:  2.92500 [Å]
                                  shift:   0.00000 [K], tailcorrections: true
O_co2    - O_co2    Lennard-Jones p₀/kʙ:  79.00000 [K], p₁:  3.05000 [Å]
                                  shift:   0.00000 [K], tailcorrections: true

Ewald precision: 1e-06
Ewald alpha: 0.26505830360350674
Ewald k-vectors: 8 8 8


Component definitions
===============================================================================

Component 0 [CO2]

    Type: Adsorbate

    Critical temperature:  304.1282 [K]
    Critical pressure:     7377300 [Pa]
    Acentric factor:       0.22394 [-]

    Mol-fraction:                 1 [-]
    Swappable:                   false

    Mass:                         43.9988 [-]
    Bulk fluid density:           0 [-]
    Compressibility:              0 [-]
    Excess molecules:             0 [-]

    Number Of Atoms:    3
    CBMC starting bead: 0
      0: O_co2  position  0.00000 -0.00000  1.16000, charge -0.35000
      1: C_co2  position  0.00000 -0.00000  0.00000, charge  0.70000
      2: O_co2  position  0.00000 -0.00000 -1.16000, charge -0.35000
    Diagonalized inertia-vector:      43.05758528 43.05758528 0.00000000
    Translational degrees of freedom: 3
    Rotational degrees of freedom:    2
    Shape of the molecule is: 'Linear'
    Net-charge:        0.00000000 [e]

    Move probabilities:
    Translation:                   0.331126 [-]
    Random translation:            0.000000 [-]
    Rotation:                      0.331126 [-]
    Random rotation:               0.000000 [-]
    Volume change:                 0.006623 [-]
    Reinsertion (CBMC):            0.331126 [-]
    Identity change (CBMC):        0.000000 [-]
    Swap:                          0.000000 [-]
    Swap (CBMC):                   0.000000 [-]
    Swap (CFCMC):                  0.000000 [-]
    Swap (CB/CFCMC):               0.000000 [-]
    Gibbs volume:                  0.000000 [-]
    Gibbs swap (CBMC):             0.000000 [-]
    Gibbs swap (CFCMC):            0.000000 [-]
    Widom:                         0.000000 [-]
    Widom (CFCMC):                 0.000000 [-]
    Widom (CB/CFCMC):              0.000000 [-]
    Parallel tempering:            0.000000 [-]
    Hybrid MC:                     0.000000 [-]

    number of blocking-pockets: 0

    number of bonds: 0





Number of pseudo-atoms
===============================================================================

Component   0 (CO2)
-------------------------------------------------------------------------------
    index   0 (C_co2): 200 atoms
    index   1 (O_co2): 400 atoms

Total number of pseudo-atoms:
-------------------------------------------------------------------------------
    index   0 (C_co2): 200 atoms
    index   1 (O_co2): 400 atoms




Energy status Recomputed from scratch
===============================================================================

Total potential energy/kʙ       -6.015558e+04 [K]
    external field VDW/kʙ        0.000000e+00 [K]
    external field Real/kʙ       0.000000e+00 [K]
    framework-molecule VDW/kʙ    0.000000e+00 [K]
    framework-molecule Real/kʙ   0.000000e+00 [K]
    molecule-molecule VDW/kʙ    -3.563205e+04 [K]
    molecule-molecule Real/kʙ   -2.089570e+04 [K]
    Van der Waals (Tail)/kʙ     -2.751265e+03 [K]
    Ewald Fourier/kʙ             1.088457e+04 [K]
    Ewald self/kʙ               -3.673356e+06 [K]
    Ewald exclusion/kʙ           3.661595e+06 [K]
    intra VDW/kʙ                 0.000000e+00 [K]
    intra Coulombic/kʙ           0.000000e+00 [K]
    polarization/kʙ              0.000000e+00 [K]
    dU/dlambda VDW/kʙ            0.000000e+00 [K]
    dU/dlambda Real/kʙ           0.000000e+00 [K]
    dU/dlambda Ewald/kʙ          0.000000e+00 [K]





Initialization: Current cycle: 0 out of 1000
===============================================================================

Box:      30.00000   0.00000   0.00000
           0.00000  30.00000   0.00000
           0.00000   0.00000  30.00000
Lengths:  30.00000  30.00000  30.00000
Angles:   90.00000  90.00000  90.00000
Rectangular boundary conditions

net charge:   0.00000000

component   0 (CO2) lambda:  0 occupancy:  1 (1.000000)
    net charge:   0.00000000 [e]

Amount of molecules per component :
-------------------------------------------------------------------------------
Component 0 (CO2)
    molecules:         2.000000e+02 molecules
    number density:    7.407407e-03 molec/A^3
    density:           5.411979e+02 kg/m^3

Total potential energy/kʙ       -1.365786e+05 [K]
-------------------------------------------------------------------------------
    external field VDW/kʙ        0.000000e+00 [K]
    external field Real/kʙ       0.000000e+00 [K]
    framework-molecule VDW/kʙ    0.000000e+00 [K]
    framework-molecule Real/kʙ   0.000000e+00 [K]
    molecule-molecule VDW/kʙ    -1.094322e+05 [K]
    molecule-molecule Real/kʙ   -2.281029e+04 [K]
    Van der Waals (Tail)/kʙ     -2.751265e+03 [K]
    Ewald Fourier/kʙ             1.017630e+04 [K]
    Ewald self/kʙ               -3.673356e+06 [K]
    Ewald exclusion/kʙ           3.661595e+06 [K]
    intra VDW/kʙ                 0.000000e+00 [K]
    intra Coulombic/kʙ           0.000000e+00 [K]
    polarization/kʙ              0.000000e+00 [K]
    dU/dlambda VDW/kʙ            0.000000e+00 [K]
    dU/dlambda Real/kʙ           0.000000e+00 [K]
    dU/dlambda Ewald/kʙ          0.000000e+00 [K]


Initialization: Current cycle: 100 out of 1000
===============================================================================

Box:      27.39677   0.00000   0.00000
           0.00000  27.39677   0.00000
           0.00000   0.00000  27.39677
Lengths:  27.39677  27.39677  27.39677
Angles:   90.00000  90.00000  90.00000
Rectangular boundary conditions

net charge:   0.00000000

component   0 (CO2) lambda:  0 occupancy:  1 (1.000000)
    net charge:   0.00000000 [e]

Amount of molecules per component :
-------------------------------------------------------------------------------
Component 0 (CO2)
    molecules:         2.000000e+02 molecules
    number density:    9.725951e-03 molec/A^3
    density:           7.105946e+02 kg/m^3

Total potential energy/kʙ       -2.153151e+05 [K]
-------------------------------------------------------------------------------
    external field VDW/kʙ        0.000000e+00 [K]
    external field Real/kʙ       0.000000e+00 [K]
    framework-molecule VDW/kʙ    0.000000e+00 [K]
    framework-molecule Real/kʙ   0.000000e+00 [K]
    molecule-molecule VDW/kʙ    -1.561479e+05 [K]
    molecule-molecule Real/kʙ   -5.084892e+04 [K]
    Van der Waals (Tail)/kʙ     -3.612420e+03 [K]
    Ewald Fourier/kʙ             7.055270e+03 [K]
    Ewald self/kʙ               -3.673356e+06 [K]
    Ewald exclusion/kʙ           3.661595e+06 [K]
    intra VDW/kʙ                 0.000000e+00 [K]
    intra Coulombic/kʙ           0.000000e+00 [K]
    polarization/kʙ              0.000000e+00 [K]
    dU/dlambda VDW/kʙ            0.000000e+00 [K]
    dU/dlambda Real/kʙ           0.000000e+00 [K]
    dU/dlambda Ewald/kʙ          0.000000e+00 [K]


Initialization: Current cycle: 200 out of 1000
===============================================================================

Box:      25.50038   0.00000   0.00000
           0.00000  25.50038   0.00000
           0.00000   0.00000  25.50038
Lengths:  25.50038  25.50038  25.50038
Angles:   90.00000  90.00000  90.00000
Rectangular boundary conditions

net charge:   0.00000000

component   0 (CO2) lambda:  0 occupancy:  1 (1.000000)
    net charge:   0.00000000 [e]

Amount of molecules per component :
-------------------------------------------------------------------------------
Component 0 (CO2)
    molecules:         2.000000e+02 molecules
    number density:    1.206119e-02 molec/A^3
    density:           8.812110e+02 kg/m^3

Total potential energy/kʙ       -2.438893e+05 [K]
-------------------------------------------------------------------------------
    external field VDW/kʙ        0.000000e+00 [K]
    external field Real/kʙ       0.000000e+00 [K]
    framework-molecule VDW/kʙ    0.000000e+00 [K]
    framework-molecule Real/kʙ   0.000000e+00 [K]
    molecule-molecule VDW/kʙ    -1.780619e+05 [K]
    molecule-molecule Real/kʙ   -5.603672e+04 [K]
    Van der Waals (Tail)/kʙ     -4.479776e+03 [K]
    Ewald Fourier/kʙ             6.450222e+03 [K]
    Ewald self/kʙ               -3.673356e+06 [K]
    Ewald exclusion/kʙ           3.661595e+06 [K]
    intra VDW/kʙ                 0.000000e+00 [K]
    intra Coulombic/kʙ           0.000000e+00 [K]
    polarization/kʙ              0.000000e+00 [K]
    dU/dlambda VDW/kʙ            0.000000e+00 [K]
    dU/dlambda Real/kʙ           0.000000e+00 [K]
    dU/dlambda Ewald/kʙ          0.000000e+00 [K]


Initialization: Current cycle: 300 out of 1000
===============================================================================

Box:      24.57878   0.00000   0.00000
           0.00000  24.57878   0.00000
           0.00000   0.00000  24.57878
Lengths:  24.57878  24.57878  24.57878
Angles:   90.00000  90.00000  90.00000
Rectangular boundary conditions

net charge:   0.00000000

component   0 (CO2) lambda:  0 occupancy:  1 (1.000000)
    net charge:   0.00000000 [e]

Amount of molecules per component :
-------------------------------------------------------------------------------
Component 0 (CO2)
    molecules:         2.000000e+02 molecules
    number density:    1.346943e-02 molec/A^3
    density:           9.840997e+02 kg/m^3

Total potential energy/kʙ       -2.805700e+05 [K]
-------------------------------------------------------------------------------
    external field VDW/kʙ        0.000000e+00 [K]
    external field Real/kʙ       0.000000e+00 [K]
    framework-molecule VDW/kʙ    0.000000e+00 [K]
    framework-molecule Real/kʙ   0.000000e+00 [K]
    molecule-molecule VDW/kʙ    -2.063581e+05 [K]
    molecule-molecule Real/kʙ   -6.269168e+04 [K]
    Van der Waals (Tail)/kʙ     -5.002827e+03 [K]
    Ewald Fourier/kʙ             5.243748e+03 [K]
    Ewald self/kʙ               -3.673356e+06 [K]
    Ewald exclusion/kʙ           3.661595e+06 [K]
    intra VDW/kʙ                 0.000000e+00 [K]
    intra Coulombic/kʙ           0.000000e+00 [K]
    polarization/kʙ              0.000000e+00 [K]
    dU/dlambda VDW/kʙ            0.000000e+00 [K]
    dU/dlambda Real/kʙ           0.000000e+00 [K]
    dU/dlambda Ewald/kʙ          0.000000e+00 [K]


Initialization: Current cycle: 400 out of 1000
===============================================================================

Box:      24.01770   0.00000   0.00000
           0.00000  24.01770   0.00000
           0.00000   0.00000  24.01770
Lengths:  24.01770  24.01770  24.01770
Angles:   90.00000  90.00000  90.00000
Rectangular boundary conditions

net charge:   0.00000000

component   0 (CO2) lambda:  0 occupancy:  1 (1.000000)
    net charge:   0.00000000 [e]

Amount of molecules per component :
-------------------------------------------------------------------------------
Component 0 (CO2)
    molecules:         2.000000e+02 molecules
    number density:    1.443564e-02 molec/A^3
    density:           1.054692e+03 kg/m^3

Total potential energy/kʙ       -3.129236e+05 [K]
-------------------------------------------------------------------------------
    external field VDW/kʙ        0.000000e+00 [K]
    external field Real/kʙ       0.000000e+00 [K]
    framework-molecule VDW/kʙ    0.000000e+00 [K]
    framework-molecule Real/kʙ   0.000000e+00 [K]
    molecule-molecule VDW/kʙ    -2.223206e+05 [K]
    molecule-molecule Real/kʙ   -7.928757e+04 [K]
    Van der Waals (Tail)/kʙ     -5.361696e+03 [K]
    Ewald Fourier/kʙ             5.807416e+03 [K]
    Ewald self/kʙ               -3.673356e+06 [K]
    Ewald exclusion/kʙ           3.661595e+06 [K]
    intra VDW/kʙ                 0.000000e+00 [K]
    intra Coulombic/kʙ           0.000000e+00 [K]
    polarization/kʙ              0.000000e+00 [K]
    dU/dlambda VDW/kʙ            0.000000e+00 [K]
    dU/dlambda Real/kʙ           0.000000e+00 [K]
    dU/dlambda Ewald/kʙ          0.000000e+00 [K]


Initialization: Current cycle: 500 out of 1000
===============================================================================

Box:      24.00198   0.00000   0.00000
           0.00000  24.00198   0.00000
           0.00000   0.00000  24.00198
Lengths:  24.00198  24.00198  24.00198
Angles:   90.00000  90.00000  90.00000
Rectangular boundary conditions

net charge:   0.00000000

component   0 (CO2) lambda:  0 occupancy:  1 (1.000000)
    net charge:   0.00000000 [e]

Amount of molecules per component :
-------------------------------------------------------------------------------
Component 0 (CO2)
    molecules:         2.000000e+02 molecules
    number density:    1.446402e-02 molec/A^3
    density:           1.056766e+03 kg/m^3

Total potential energy/kʙ       -3.101886e+05 [K]
-------------------------------------------------------------------------------
    external field VDW/kʙ        0.000000e+00 [K]
    external field Real/kʙ       0.000000e+00 [K]
    framework-molecule VDW/kʙ    0.000000e+00 [K]
    framework-molecule Real/kʙ   0.000000e+00 [K]
    molecule-molecule VDW/kʙ    -2.241235e+05 [K]
    molecule-molecule Real/kʙ   -7.347947e+04 [K]
    Van der Waals (Tail)/kʙ     -5.372238e+03 [K]
    Ewald Fourier/kʙ             4.547754e+03 [K]
    Ewald self/kʙ               -3.673356e+06 [K]
    Ewald exclusion/kʙ           3.661595e+06 [K]
    intra VDW/kʙ                 0.000000e+00 [K]
    intra Coulombic/kʙ           0.000000e+00 [K]
    polarization/kʙ              0.000000e+00 [K]
    dU/dlambda VDW/kʙ            0.000000e+00 [K]
    dU/dlambda Real/kʙ           0.000000e+00 [K]
    dU/dlambda Ewald/kʙ          0.000000e+00 [K]


Initialization: Current cycle: 600 out of 1000
===============================================================================

Box:      23.74551   0.00000   0.00000
           0.00000  23.74551   0.00000
           0.00000   0.00000  23.74551
Lengths:  23.74551  23.74551  23.74551
Angles:   90.00000  90.00000  90.00000
Rectangular boundary conditions

net charge:   0.00000000

component   0 (CO2) lambda:  0 occupancy:  1 (1.000000)
    net charge:   0.00000000 [e]

Amount of molecules per component :
-------------------------------------------------------------------------------
Component 0 (CO2)
    molecules:         2.000000e+02 molecules
    number density:    1.493776e-02 molec/A^3
    density:           1.091378e+03 kg/m^3

Total potential energy/kʙ       -3.151505e+05 [K]
-------------------------------------------------------------------------------
    external field VDW/kʙ        0.000000e+00 [K]
    external field Real/kʙ       0.000000e+00 [K]
    framework-molecule VDW/kʙ    0.000000e+00 [K]
    framework-molecule Real/kʙ   0.000000e+00 [K]
    molecule-molecule VDW/kʙ    -2.259711e+05 [K]
    molecule-molecule Real/kʙ   -7.735531e+04 [K]
    Van der Waals (Tail)/kʙ     -5.548195e+03 [K]
    Ewald Fourier/kʙ             5.485273e+03 [K]
    Ewald self/kʙ               -3.673356e+06 [K]
    Ewald exclusion/kʙ           3.661595e+06 [K]
    intra VDW/kʙ                 0.000000e+00 [K]
    intra Coulombic/kʙ           0.000000e+00 [K]
    polarization/kʙ              0.000000e+00 [K]
    dU/dlambda VDW/kʙ            0.000000e+00 [K]
    dU/dlambda Real/kʙ           0.000000e+00 [K]
    dU/dlambda Ewald/kʙ          0.000000e+00 [K]


Initialization: Current cycle: 700 out of 1000
===============================================================================

Box:      23.86930   0.00000   0.00000
           0.00000  23.86930   0.00000
           0.00000   0.00000  23.86930
Lengths:  23.86930  23.86930  23.86930
Angles:   90.00000  90.00000  90.00000
Rectangular boundary conditions

net charge:   0.00000000

component   0 (CO2) lambda:  0 occupancy:  1 (1.000000)
    net charge:   0.00000000 [e]

Amount of molecules per component :
-------------------------------------------------------------------------------
Component 0 (CO2)
    molecules:         2.000000e+02 molecules
    number density:    1.470655e-02 molec/A^3
    density:           1.074486e+03 kg/m^3

Total potential energy/kʙ       -3.073788e+05 [K]
-------------------------------------------------------------------------------
    external field VDW/kʙ        0.000000e+00 [K]
    external field Real/kʙ       0.000000e+00 [K]
    framework-molecule VDW/kʙ    0.000000e+00 [K]
    framework-molecule Real/kʙ   0.000000e+00 [K]
    molecule-molecule VDW/kʙ    -2.227058e+05 [K]
    molecule-molecule Real/kʙ   -7.242717e+04 [K]
    Van der Waals (Tail)/kʙ     -5.462319e+03 [K]
    Ewald Fourier/kʙ             4.977671e+03 [K]
    Ewald self/kʙ               -3.673356e+06 [K]
    Ewald exclusion/kʙ           3.661595e+06 [K]
    intra VDW/kʙ                 0.000000e+00 [K]
    intra Coulombic/kʙ           0.000000e+00 [K]
    polarization/kʙ              0.000000e+00 [K]
    dU/dlambda VDW/kʙ            0.000000e+00 [K]
    dU/dlambda Real/kʙ           0.000000e+00 [K]
    dU/dlambda Ewald/kʙ          0.000000e+00 [K]


Initialization: Current cycle: 800 out of 1000
===============================================================================

Box:      23.87810   0.00000   0.00000
           0.00000  23.87810   0.00000
           0.00000   0.00000  23.87810
Lengths:  23.87810  23.87810  23.87810
Angles:   90.00000  90.00000  90.00000
Rectangular boundary conditions

net charge:   0.00000000

component   0 (CO2) lambda:  0 occupancy:  1 (1.000000)
    net charge:   0.00000000 [e]

Amount of molecules per component :
-------------------------------------------------------------------------------
Component 0 (CO2)
    molecules:         2.000000e+02 molecules
    number density:    1.469030e-02 molec/A^3
    density:           1.073299e+03 kg/m^3

Total potential energy/kʙ       -3.035789e+05 [K]
-------------------------------------------------------------------------------
    external field VDW/kʙ        0.000000e+00 [K]
    external field Real/kʙ       0.000000e+00 [K]
    framework-molecule VDW/kʙ    0.000000e+00 [K]
    framework-molecule Real/kʙ   0.000000e+00 [K]
    molecule-molecule VDW/kʙ    -2.253691e+05 [K]
    molecule-molecule Real/kʙ   -6.648028e+04 [K]
    Van der Waals (Tail)/kʙ     -5.456284e+03 [K]
    Ewald Fourier/kʙ             5.487930e+03 [K]
    Ewald self/kʙ               -3.673356e+06 [K]
    Ewald exclusion/kʙ           3.661595e+06 [K]
    intra VDW/kʙ                 0.000000e+00 [K]
    intra Coulombic/kʙ           0.000000e+00 [K]
    polarization/kʙ              0.000000e+00 [K]
    dU/dlambda VDW/kʙ            0.000000e+00 [K]
    dU/dlambda Real/kʙ           0.000000e+00 [K]
    dU/dlambda Ewald/kʙ          0.000000e+00 [K]


Initialization: Current cycle: 900 out of 1000
===============================================================================

Box:      24.27142   0.00000   0.00000
           0.00000  24.27142   0.00000
           0.00000   0.00000  24.27142
Lengths:  24.27142  24.27142  24.27142
Angles:   90.00000  90.00000  90.00000
Rectangular boundary conditions

net charge:   0.00000000

component   0 (CO2) lambda:  0 occupancy:  1 (1.000000)
    net charge:   0.00000000 [e]

Amount of molecules per component :
-------------------------------------------------------------------------------
Component 0 (CO2)
    molecules:         2.000000e+02 molecules
    number density:    1.398764e-02 molec/A^3
    density:           1.021961e+03 kg/m^3

Total potential energy/kʙ       -2.934852e+05 [K]
-------------------------------------------------------------------------------
    external field VDW/kʙ        0.000000e+00 [K]
    external field Real/kʙ       0.000000e+00 [K]
    framework-molecule VDW/kʙ    0.000000e+00 [K]
    framework-molecule Real/kʙ   0.000000e+00 [K]
    molecule-molecule VDW/kʙ    -2.148933e+05 [K]
    molecule-molecule Real/kʙ   -6.695480e+04 [K]
    Van der Waals (Tail)/kʙ     -5.195301e+03 [K]
    Ewald Fourier/kʙ             5.319282e+03 [K]
    Ewald self/kʙ               -3.673356e+06 [K]
    Ewald exclusion/kʙ           3.661595e+06 [K]
    intra VDW/kʙ                 0.000000e+00 [K]
    intra Coulombic/kʙ           0.000000e+00 [K]
    polarization/kʙ              0.000000e+00 [K]
    dU/dlambda VDW/kʙ            0.000000e+00 [K]
    dU/dlambda Real/kʙ           0.000000e+00 [K]
    dU/dlambda Ewald/kʙ          0.000000e+00 [K]


Current cycle: 0 out of 5000
===============================================================================

Box:      23.76788   0.00000   0.00000  Average:  23.76788   0.00000   0.00000
           0.00000  23.76788   0.00000             0.00000  23.76788   0.00000
           0.00000   0.00000  23.76788             0.00000   0.00000  23.76788
Lengths:  23.76788  23.76788  23.76788  Average:  23.76788  23.76788  23.76788
Angles:   90.00000  90.00000  90.00000  Average:  90.00000  90.00000  90.00000
Rectangular boundary conditions

net charge:   0.00000000

component 0 (CO2) lambda:  0 occupancy:  1 (1.000000)
    net charge:   0.00000000 [e]

Amount of molecules per component :
-------------------------------------------------------------------------------
Component 0 (CO2)
    molecules:      2.000000e+02 molecules  (2.000000e+02 +/- 0.000000e+00)
    number density: 1.489563e-02 molec./A^3 (1.489563e-02 +/- 0.000000e+00)
    density:        1.088300e+03 kg/m^3     (1.088300e+03 +/- 0.000000e+00)

Average pressure tensor: 
-------------------------------------------------------------------------------
 5.1414e+02  0.0000e+00  0.0000e+00 +/- 0.0000e+00 0.0000e+00 0.0000e+00 [bar]
 0.0000e+00  5.1414e+02  0.0000e+00 +/- 0.0000e+00 0.0000e+00 0.0000e+00 [bar]
 0.0000e+00  0.0000e+00  5.1414e+02 +/- 0.0000e+00 0.0000e+00 0.0000e+00 [bar]
Ideal-gas pressure:   5.141414e+02 +/ 0.000000e+00 [bar]
Excess pressure:      0.000000e+00 +/ 0.000000e+00 [bar]
Pressure:             5.141414e+02 +/ 0.000000e+00 [bar]

Total potential energy/kʙ  -3.158923e+05 (-3.158923e+05 +/- 0.000000e+00) [K]
-------------------------------------------------------------------------------
ExternalField-molecule
    Van der Waals/kʙ        0.000000e+00 ( 0.000000e+00 +/- 0.000000e+00) [K]
Framework-molecule
    Van der Waals/kʙ        0.000000e+00 ( 0.000000e+00 +/- 0.000000e+00) [K]
    Van der Waals (Tail)/kʙ 0.000000e+00 ( 0.000000e+00 +/- 0.000000e+00) [K]
    Coulombic Real/kʙ       0.000000e+00 ( 0.000000e+00 +/- 0.000000e+00) [K]
    Coulombic Fourier/kʙ    0.000000e+00 ( 0.000000e+00 +/- 0.000000e+00) [K]
Molecule-molecule
    Van der Waals/kʙ       -2.293338e+05 (-2.293338e+05 +/- 0.000000e+00) [K]
    Van der Waals (Tail)/kʙ-5.532547e+03 (-5.532547e+03 +/- 0.000000e+00) [K]
    Coulombic Real/kʙ      -7.456280e+04 (-7.456280e+04 +/- 0.000000e+00) [K]
    Coulombic Fourier/kʙ   -6.463135e+03 (-6.463135e+03 +/- 0.000000e+00) [K]
    Molecule Intra/kʙ       0.000000e+00 ( 0.000000e+00 +/- 0.000000e+00) [K]

Current cycle: 100 out of 5000
===============================================================================

Box:      23.49723   0.00000   0.00000  Average:  23.73874   0.00000   0.00000
           0.00000  23.49723   0.00000             0.00000  23.73874   0.00000
           0.00000   0.00000  23.49723             0.00000   0.00000  23.73874
Lengths:  23.49723  23.49723  23.49723  Average:  23.73874  23.73874  23.73874
Angles:   90.00000  90.00000  90.00000  Average:  90.00000  90.00000  90.00000
Rectangular boundary conditions

net charge:   0.00000000

component 0 (CO2) lambda:  0 occupancy:  1 (1.000000)
    net charge:   0.00000000 [e]

Amount of molecules per component :
-------------------------------------------------------------------------------
Component 0 (CO2)
    molecules:      2.000000e+02 molecules  (2.000000e+02 +/- 0.000000e+00)
    number density: 1.541629e-02 molec./A^3 (1.495230e-02 +/- 0.000000e+00)
    density:        1.126341e+03 kg/m^3     (1.092440e+03 +/- 0.000000e+00)

Average pressure tensor: 
-------------------------------------------------------------------------------
 3.1495e+02  1.3987e+02  5.3908e+00 +/- 0.0000e+00 0.0000e+00 0.0000e+00 [bar]
 1.3987e+02  9.8303e+00 -1.5503e+02 +/- 0.0000e+00 0.0000e+00 0.0000e+00 [bar]
 5.3908e+00 -1.5503e+02 -4.0314e+02 +/- 0.0000e+00 0.0000e+00 0.0000e+00 [bar]
Ideal-gas pressure:   5.160973e+02 +/ 0.000000e+00 [bar]
Excess pressure:     -5.422174e+02 +/ 0.000000e+00 [bar]
Pressure:            -2.612007e+01 +/ 0.000000e+00 [bar]

Total potential energy/kʙ  -3.137231e+05 (-3.139277e+05 +/- 0.000000e+00) [K]
-------------------------------------------------------------------------------
ExternalField-molecule
    Van der Waals/kʙ        0.000000e+00 ( 0.000000e+00 +/- 0.000000e+00) [K]
Framework-molecule
    Van der Waals/kʙ        0.000000e+00 ( 0.000000e+00 +/- 0.000000e+00) [K]
    Van der Waals (Tail)/kʙ 0.000000e+00 ( 0.000000e+00 +/- 0.000000e+00) [K]
    Coulombic Real/kʙ       0.000000e+00 ( 0.000000e+00 +/- 0.000000e+00) [K]
    Coulombic Fourier/kʙ    0.000000e+00 ( 0.000000e+00 +/- 0.000000e+00) [K]
Molecule-molecule
    Van der Waals/kʙ       -2.276887e+05 (-2.291856e+05 +/- 0.000000e+00) [K]
    Van der Waals (Tail)/kʙ-5.725931e+03 (-5.547694e+03 +/- 0.000000e+00) [K]
    Coulombic Real/kʙ      -7.336738e+04 (-7.199170e+04 +/- 0.000000e+00) [K]
    Coulombic Fourier/kʙ   -6.941157e+03 (-7.202727e+03 +/- 0.000000e+00) [K]
    Molecule Intra/kʙ       0.000000e+00 ( 0.000000e+00 +/- 0.000000e+00) [K]

Current cycle: 200 out of 5000
===============================================================================

Box:      23.76837   0.00000   0.00000  Average:  23.72627   0.00000   0.00000
           0.00000  23.76837   0.00000             0.00000  23.72627   0.00000
           0.00000   0.00000  23.76837             0.00000   0.00000  23.72627
Lengths:  23.76837  23.76837  23.76837  Average:  23.72627  23.72627  23.72627
Angles:   90.00000  90.00000  90.00000  Average:  90.00000  90.00000  90.00000
Rectangular boundary conditions

net charge:   0.00000000

component 0 (CO2) lambda:  0 occupancy:  1 (1.000000)
    net charge:   0.00000000 [e]

Amount of molecules per component :
-------------------------------------------------------------------------------
Component 0 (CO2)
    molecules:      2.000000e+02 molecules  (2.000000e+02 +/- 0.000000e+00)
    number density: 1.489469e-02 molec./A^3 (1.497554e-02 +/- 0.000000e+00)
    density:        1.088232e+03 kg/m^3     (1.094138e+03 +/- 0.000000e+00)

Average pressure tensor: 
-------------------------------------------------------------------------------
 3.0972e+02  1.4042e+02 -4.3360e+01 +/- 0.0000e+00 0.0000e+00 0.0000e+00 [bar]
 1.4042e+02  1.7798e+02 -3.8900e+01 +/- 0.0000e+00 0.0000e+00 0.0000e+00 [bar]
-4.3360e+01 -3.8900e+01 -2.0125e+02 +/- 0.0000e+00 0.0000e+00 0.0000e+00 [bar]
Ideal-gas pressure:   5.168995e+02 +/ 0.000000e+00 [bar]
Excess pressure:     -4.214171e+02 +/ 0.000000e+00 [bar]
Pressure:             9.548247e+01 +/ 0.000000e+00 [bar]

Total potential energy/kʙ  -3.132740e+05 (-3.129069e+05 +/- 0.000000e+00) [K]
-------------------------------------------------------------------------------
ExternalField-molecule
    Van der Waals/kʙ        0.000000e+00 ( 0.000000e+00 +/- 0.000000e+00) [K]
Framework-molecule
    Van der Waals/kʙ        0.000000e+00 ( 0.000000e+00 +/- 0.000000e+00) [K]
    Van der Waals (Tail)/kʙ 0.000000e+00 ( 0.000000e+00 +/- 0.000000e+00) [K]
    Coulombic Real/kʙ       0.000000e+00 ( 0.000000e+00 +/- 0.000000e+00) [K]
    Coulombic Fourier/kʙ    0.000000e+00 ( 0.000000e+00 +/- 0.000000e+00) [K]
Molecule-molecule
    Van der Waals/kʙ       -2.279538e+05 (-2.291169e+05 +/- 0.000000e+00) [K]
    Van der Waals (Tail)/kʙ-5.532199e+03 (-5.553669e+03 +/- 0.000000e+00) [K]
    Coulombic Real/kʙ      -7.276352e+04 (-7.132936e+04 +/- 0.000000e+00) [K]
    Coulombic Fourier/kʙ   -7.024396e+03 (-6.907034e+03 +/- 0.000000e+00) [K]
    Molecule Intra/kʙ       0.000000e+00 ( 0.000000e+00 +/- 0.000000e+00) [K]

Current cycle: 300 out of 5000
===============================================================================

Box:      24.10691   0.00000   0.00000  Average:  23.76035   0.00000   0.00000
           0.00000  24.10691   0.00000             0.00000  23.76035   0.00000
           0.00000   0.00000  24.10691             0.00000   0.00000  23.76035
Lengths:  24.10691  24.10691  24.10691  Average:  23.76035  23.76035  23.76035
Angles:   90.00000  90.00000  90.00000  Average:  90.00000  90.00000  90.00000
Rectangular boundary conditions

net charge:   0.00000000

component 0 (CO2) lambda:  0 occupancy:  1 (1.000000)
    net charge:   0.00000000 [e]

Amount of molecules per component :
-------------------------------------------------------------------------------
Component 0 (CO2)
    molecules:      2.000000e+02 molecules  (2.000000e+02 +/- 0.000000e+00)
    number density: 1.427597e-02 molec./A^3 (1.491165e-02 +/- 0.000000e+00)
    density:        1.043027e+03 kg/m^3     (1.089470e+03 +/- 0.000000e+00)

Average pressure tensor: 
-------------------------------------------------------------------------------
 2.5028e+02  1.0610e+02  3.7602e+01 +/- 0.0000e+00 0.0000e+00 0.0000e+00 [bar]
 1.0610e+02  1.5295e+02 -3.5757e+01 +/- 0.0000e+00 0.0000e+00 0.0000e+00 [bar]
 3.7602e+01 -3.5757e+01 -1.4251e+02 +/- 0.0000e+00 0.0000e+00 0.0000e+00 [bar]
Ideal-gas pressure:   5.146943e+02 +/ 0.000000e+00 [bar]
Excess pressure:     -4.277873e+02 +/ 0.000000e+00 [bar]
Pressure:             8.690698e+01 +/ 0.000000e+00 [bar]

Total potential energy/kʙ  -3.004465e+05 (-3.112164e+05 +/- 0.000000e+00) [K]
-------------------------------------------------------------------------------
ExternalField-molecule
    Van der Waals/kʙ        0.000000e+00 ( 0.000000e+00 +/- 0.000000e+00) [K]
Framework-molecule
    Van der Waals/kʙ        0.000000e+00 ( 0.000000e+00 +/- 0.000000e+00) [K]
    Van der Waals (Tail)/kʙ 0.000000e+00 ( 0.000000e+00 +/- 0.000000e+00) [K]
    Coulombic Real/kʙ       0.000000e+00 ( 0.000000e+00 +/- 0.000000e+00) [K]
    Coulombic Fourier/kʙ    0.000000e+00 ( 0.000000e+00 +/- 0.000000e+00) [K]
Molecule-molecule
    Van der Waals/kʙ       -2.201527e+05 (-2.279882e+05 +/- 0.000000e+00) [K]
    Van der Waals (Tail)/kʙ-5.302392e+03 (-5.526255e+03 +/- 0.000000e+00) [K]
    Coulombic Real/kʙ      -6.877576e+04 (-7.094699e+04 +/- 0.000000e+00) [K]
    Coulombic Fourier/kʙ   -6.215643e+03 (-6.754930e+03 +/- 0.000000e+00) [K]
    Molecule Intra/kʙ       0.000000e+00 ( 0.000000e+00 +/- 0.000000e+00) [K]

Current cycle: 400 out of 5000
===============================================================================

Box:      23.97496   0.00000   0.00000  Average:  23.83084   0.00000   0.00000
           0.00000  23.97496   0.00000             0.00000  23.83084   0.00000
           0.00000   0.00000  23.97496             0.00000   0.00000  23.83084
Lengths:  23.97496  23.97496  23.97496  Average:  23.83084  23.83084  23.83084
Angles:   90.00000  90.00000  90.00000  Average:  90.00000  90.00000  90.00000
Rectangular boundary conditions

net charge:   0.00000000

component 0 (CO2) lambda:  0 occupancy:  1 (1.000000)
    net charge:   0.00000000 [e]

Amount of molecules per component :
-------------------------------------------------------------------------------
Component 0 (CO2)
    molecules:      2.000000e+02 molecules  (2.000000e+02 +/- 0.000000e+00)
    number density: 1.451297e-02 molec./A^3 (1.478202e-02 +/- 0.000000e+00)
    density:        1.060343e+03 kg/m^3     (1.080000e+03 +/- 0.000000e+00)

Average pressure tensor: 
-------------------------------------------------------------------------------
 2.1411e+02  4.5844e+01  1.3869e+01 +/- 0.0000e+00 0.0000e+00 0.0000e+00 [bar]
 4.5844e+01  2.1248e+02 -1.6596e+01 +/- 0.0000e+00 0.0000e+00 0.0000e+00 [bar]
 1.3869e+01 -1.6596e+01 -8.7471e+01 +/- 0.0000e+00 0.0000e+00 0.0000e+00 [bar]
Ideal-gas pressure:   5.102201e+02 +/ 0.000000e+00 [bar]
Excess pressure:     -3.971802e+02 +/ 0.000000e+00 [bar]
Pressure:             1.130399e+02 +/ 0.000000e+00 [bar]

Total potential energy/kʙ  -3.029982e+05 (-3.088260e+05 +/- 0.000000e+00) [K]
-------------------------------------------------------------------------------
ExternalField-molecule
    Van der Waals/kʙ        0.000000e+00 ( 0.000000e+00 +/- 0.000000e+00) [K]
Framework-molecule
    Van der Waals/kʙ        0.000000e+00 ( 0.000000e+00 +/- 0.000000e+00) [K]
    Van der Waals (Tail)/kʙ 0.000000e+00 ( 0.000000e+00 +/- 0.000000e+00) [K]
    Coulombic Real/kʙ       0.000000e+00 ( 0.000000e+00 +/- 0.000000e+00) [K]
    Coulombic Fourier/kʙ    0.000000e+00 ( 0.000000e+00 +/- 0.000000e+00) [K]
Molecule-molecule
    Van der Waals/kʙ       -2.182545e+05 (-2.254428e+05 +/- 0.000000e+00) [K]
    Van der Waals (Tail)/kʙ-5.390420e+03 (-5.487639e+03 +/- 0.000000e+00) [K]
    Coulombic Real/kʙ      -7.194034e+04 (-7.113145e+04 +/- 0.000000e+00) [K]
    Coulombic Fourier/kʙ   -7.412950e+03 (-6.764046e+03 +/- 0.000000e+00) [K]
    Molecule Intra/kʙ       0.000000e+00 ( 0.000000e+00 +/- 0.000000e+00) [K]

Current cycle: 500 out of 5000
===============================================================================

Box:      24.03492   0.00000   0.00000  Average:  23.84444   0.00000   0.00000
           0.00000  24.03492   0.00000             0.00000  23.84444   0.00000
           0.00000   0.00000  24.03492             0.00000   0.00000  23.84444
Lengths:  24.03492  24.03492  24.03492  Average:  23.84444  23.84444  23.84444
Angles:   90.00000  90.00000  90.00000  Average:  90.00000  90.00000  90.00000
Rectangular boundary conditions

net charge:   0.00000000

component 0 (CO2) lambda:  0 occupancy:  1 (1.000000)
    net charge:   0.00000000 [e]

Amount of molecules per component :
-------------------------------------------------------------------------------
Component 0 (CO2)
    molecules:      2.000000e+02 molecules  (2.000000e+02 +/- 0.000000e+00)
    number density: 1.440462e-02 molec./A^3 (1.475634e-02 +/- 0.000000e+00)
    density:        1.052426e+03 kg/m^3     (1.078123e+03 +/- 0.000000e+00)

Average pressure tensor: 
-------------------------------------------------------------------------------
 1.8333e+02  5.2378e+01  1.0806e+01 +/- 0.0000e+00 0.0000e+00 0.0000e+00 [bar]
 5.2378e+01  2.4029e+02 -3.6358e+01 +/- 0.0000e+00 0.0000e+00 0.0000e+00 [bar]
 1.0806e+01 -3.6358e+01 -9.5894e+01 +/- 0.0000e+00 0.0000e+00 0.0000e+00 [bar]
Ideal-gas pressure:   5.093335e+02 +/ 0.000000e+00 [bar]
Excess pressure:     -4.000906e+02 +/ 0.000000e+00 [bar]
Pressure:             1.092429e+02 +/ 0.000000e+00 [bar]

Total potential energy/kʙ  -2.985340e+05 (-3.084419e+05 +/- 0.000000e+00) [K]
-------------------------------------------------------------------------------
ExternalField-molecule
    Van der Waals/kʙ        0.000000e+00 ( 0.000000e+00 +/- 0.000000e+00) [K]
Framework-molecule
    Van der Waals/kʙ        0.000000e+00 ( 0.000000e+00 +/- 0.000000e+00) [K]
    Van der Waals (Tail)/kʙ 0.000000e+00 ( 0.000000e+00 +/- 0.000000e+00) [K]
    Coulombic Real/kʙ       0.000000e+00 ( 0.000000e+00 +/- 0.000000e+00) [K]
    Coulombic Fourier/kʙ    0.000000e+00 ( 0.000000e+00 +/- 0.000000e+00) [K]
Molecule-molecule
    Van der Waals/kʙ       -2.192278e+05 (-2.250023e+05 +/- 0.000000e+00) [K]
    Van der Waals (Tail)/kʙ-5.350176e+03 (-5.478378e+03 +/- 0.000000e+00) [K]
    Coulombic Real/kʙ      -6.796032e+04 (-7.116698e+04 +/- 0.000000e+00) [K]
    Coulombic Fourier/kʙ   -5.995666e+03 (-6.794268e+03 +/- 0.000000e+00) [K]
    Molecule Intra/kʙ       0.000000e+00 ( 0.000000e+00 +/- 0.000000e+00) [K]

Current cycle: 600 out of 5000
===============================================================================

Box:      24.21683   0.00000   0.00000  Average:  23.88220   0.00000   0.00000
           0.00000  24.21683   0.00000             0.00000  23.88220   0.00000
           0.00000   0.00000  24.21683             0.00000   0.00000  23.88220
Lengths:  24.21683  24.21683  24.21683  Average:  23.88220  23.88220  23.88220
Angles:   90.00000  90.00000  90.00000  Average:  90.00000  90.00000  90.00000
Rectangular boundary conditions

net charge:   0.00000000

component 0 (CO2) lambda:  0 occupancy:  1 (1.000000)
    net charge:   0.00000000 [e]

Amount of molecules per component :
-------------------------------------------------------------------------------
Component 0 (CO2)
    molecules:      2.000000e+02 molecules  (2.000000e+02 +/- 0.000000e+00)
    number density: 1.408245e-02 molec./A^3 (1.468724e-02 +/- 0.000000e+00)
    density:        1.028888e+03 kg/m^3     (1.073075e+03 +/- 0.000000e+00)

Average pressure tensor: 
-------------------------------------------------------------------------------
 1.8100e+02  3.2489e+01  4.5459e+01 +/- 0.0000e+00 0.0000e+00 0.0000e+00 [bar]
 3.2489e+01  1.8930e+02 -3.5280e+01 +/- 0.0000e+00 0.0000e+00 0.0000e+00 [bar]
 4.5459e+01 -3.5280e+01 -6.3951e+01 +/- 0.0000e+00 0.0000e+00 0.0000e+00 [bar]
Ideal-gas pressure:   5.069486e+02 +/ 0.000000e+00 [bar]
Excess pressure:     -4.048319e+02 +/ 0.000000e+00 [bar]
Pressure:             1.021167e+02 +/ 0.000000e+00 [bar]

Total potential energy/kʙ  -2.985122e+05 (-3.072668e+05 +/- 0.000000e+00) [K]
-------------------------------------------------------------------------------
ExternalField-molecule
    Van der Waals/kʙ        0.000000e+00 ( 0.000000e+00 +/- 0.000000e+00) [K]
Framework-molecule
    Van der Waals/kʙ        0.000000e+00 ( 0.000000e+00 +/- 0.000000e+00) [K]
    Van der Waals (Tail)/kʙ 0.000000e+00 ( 0.000000e+00 +/- 0.000000e+00) [K]
    Coulombic Real/kʙ       0.000000e+00 ( 0.000000e+00 +/- 0.000000e+00) [K]
    Coulombic Fourier/kʙ    0.000000e+00 ( 0.000000e+00 +/- 0.000000e+00) [K]
Molecule-molecule
    Van der Waals/kʙ       -2.175320e+05 (-2.237865e+05 +/- 0.000000e+00) [K]
    Van der Waals (Tail)/kʙ-5.230516e+03 (-5.449708e+03 +/- 0.000000e+00) [K]
    Coulombic Real/kʙ      -6.920606e+04 (-7.123267e+04 +/- 0.000000e+00) [K]
    Coulombic Fourier/kʙ   -6.543611e+03 (-6.797959e+03 +/- 0.000000e+00) [K]
    Molecule Intra/kʙ       0.000000e+00 ( 0.000000e+00 +/- 0.000000e+00) [K]

Current cycle: 700 out of 5000
===============================================================================

Box:      24.04309   0.00000   0.00000  Average:  23.90294   0.00000   0.00000
           0.00000  24.04309   0.00000             0.00000  23.90294   0.00000
           0.00000   0.00000  24.04309             0.00000   0.00000  23.90294
Lengths:  24.04309  24.04309  24.04309  Average:  23.90294  23.90294  23.90294
Angles:   90.00000  90.00000  90.00000  Average:  90.00000  90.00000  90.00000
Rectangular boundary conditions

net charge:   0.00000000

component 0 (CO2) lambda:  0 occupancy:  1 (1.000000)
    net charge:   0.00000000 [e]

Amount of molecules per component :
-------------------------------------------------------------------------------
Component 0 (CO2)
    molecules:      2.000000e+02 molecules  (2.000000e+02 +/- 0.000000e+00)
    number density: 1.438994e-02 molec./A^3 (1.464904e-02 +/- 0.000000e+00)
    density:        1.051354e+03 kg/m^3     (1.070284e+03 +/- 0.000000e+00)

Average pressure tensor: 
-------------------------------------------------------------------------------
 1.5821e+02  2.1657e+01  4.6522e+01 +/- 0.0000e+00 0.0000e+00 0.0000e+00 [bar]
 2.1657e+01  1.8601e+02 -6.4300e+00 +/- 0.0000e+00 0.0000e+00 0.0000e+00 [bar]
 4.6522e+01 -6.4300e+00 -3.0157e+01 +/- 0.0000e+00 0.0000e+00 0.0000e+00 [bar]
Ideal-gas pressure:   5.056302e+02 +/ 0.000000e+00 [bar]
Excess pressure:     -4.009433e+02 +/ 0.000000e+00 [bar]
Pressure:             1.046869e+02 +/ 0.000000e+00 [bar]

Total potential energy/kʙ  -3.053183e+05 (-3.068896e+05 +/- 0.000000e+00) [K]
-------------------------------------------------------------------------------
ExternalField-molecule
    Van der Waals/kʙ        0.000000e+00 ( 0.000000e+00 +/- 0.000000e+00) [K]
Framework-molecule
    Van der Waals/kʙ        0.000000e+00 ( 0.000000e+00 +/- 0.000000e+00) [K]
    Van der Waals (Tail)/kʙ 0.000000e+00 ( 0.000000e+00 +/- 0.000000e+00) [K]
    Coulombic Real/kʙ       0.000000e+00 ( 0.000000e+00 +/- 0.000000e+00) [K]
    Coulombic Fourier/kʙ    0.000000e+00 ( 0.000000e+00 +/- 0.000000e+00) [K]
Molecule-molecule
    Van der Waals/kʙ       -2.202077e+05 (-2.231991e+05 +/- 0.000000e+00) [K]
    Van der Waals (Tail)/kʙ-5.344723e+03 (-5.435815e+03 +/- 0.000000e+00) [K]
    Coulombic Real/kʙ      -7.314869e+04 (-7.147341e+04 +/- 0.000000e+00) [K]
    Coulombic Fourier/kʙ   -6.617138e+03 (-6.781287e+03 +/- 0.000000e+00) [K]
    Molecule Intra/kʙ       0.000000e+00 ( 0.000000e+00 +/- 0.000000e+00) [K]

Current cycle: 800 out of 5000
===============================================================================

Box:      24.20657   0.00000   0.00000  Average:  23.92047   0.00000   0.00000
           0.00000  24.20657   0.00000             0.00000  23.92047   0.00000
           0.00000   0.00000  24.20657             0.00000   0.00000  23.92047
Lengths:  24.20657  24.20657  24.20657  Average:  23.92047  23.92047  23.92047
Angles:   90.00000  90.00000  90.00000  Average:  90.00000  90.00000  90.00000
Rectangular boundary conditions

net charge:   0.00000000

component 0 (CO2) lambda:  0 occupancy:  1 (1.000000)
    net charge:   0.00000000 [e]

Amount of molecules per component :
-------------------------------------------------------------------------------
Component 0 (CO2)
    molecules:      2.000000e+02 molecules  (2.000000e+02 +/- 0.000000e+00)
    number density: 1.410037e-02 molec./A^3 (1.461693e-02 +/- 0.000000e+00)
    density:        1.030197e+03 kg/m^3     (1.067938e+03 +/- 0.000000e+00)

Average pressure tensor: 
-------------------------------------------------------------------------------
 1.3336e+02  2.0193e+01  5.4187e+01 +/- 0.0000e+00 0.0000e+00 0.0000e+00 [bar]
 2.0193e+01  1.7625e+02 -2.5491e+01 +/- 0.0000e+00 0.0000e+00 0.0000e+00 [bar]
 5.4187e+01 -2.5491e+01  7.2741e+00 +/- 0.0000e+00 0.0000e+00 0.0000e+00 [bar]
Ideal-gas pressure:   5.045218e+02 +/ 0.000000e+00 [bar]
Excess pressure:     -3.988921e+02 +/ 0.000000e+00 [bar]
Pressure:             1.056297e+02 +/ 0.000000e+00 [bar]

Total potential energy/kʙ  -2.951218e+05 (-3.062833e+05 +/- 0.000000e+00) [K]
-------------------------------------------------------------------------------
ExternalField-molecule
    Van der Waals/kʙ        0.000000e+00 ( 0.000000e+00 +/- 0.000000e+00) [K]
Framework-molecule
    Van der Waals/kʙ        0.000000e+00 ( 0.000000e+00 +/- 0.000000e+00) [K]
    Van der Waals (Tail)/kʙ 0.000000e+00 ( 0.000000e+00 +/- 0.000000e+00) [K]
    Coulombic Real/kʙ       0.000000e+00 ( 0.000000e+00 +/- 0.000000e+00) [K]
    Coulombic Fourier/kʙ    0.000000e+00 ( 0.000000e+00 +/- 0.000000e+00) [K]
Molecule-molecule
    Van der Waals/kʙ       -2.138341e+05 (-2.226437e+05 +/- 0.000000e+00) [K]
    Van der Waals (Tail)/kʙ-5.237170e+03 (-5.424014e+03 +/- 0.000000e+00) [K]
    Coulombic Real/kʙ      -6.924599e+04 (-7.143698e+04 +/- 0.000000e+00) [K]
    Coulombic Fourier/kʙ   -6.804617e+03 (-6.778583e+03 +/- 0.000000e+00) [K]
    Molecule Intra/kʙ       0.000000e+00 ( 0.000000e+00 +/- 0.000000e+00) [K]

Current cycle: 900 out of 5000
===============================================================================

Box:      23.69814   0.00000   0.00000  Average:  23.92227   0.00000   0.00000
           0.00000  23.69814   0.00000             0.00000  23.92227   0.00000
           0.00000   0.00000  23.69814             0.00000   0.00000  23.92227
Lengths:  23.69814  23.69814  23.69814  Average:  23.92227  23.92227  23.92227
Angles:   90.00000  90.00000  90.00000  Average:  90.00000  90.00000  90.00000
Rectangular boundary conditions

net charge:   0.00000000

component 0 (CO2) lambda:  0 occupancy:  1 (1.000000)
    net charge:   0.00000000 [e]

Amount of molecules per component :
-------------------------------------------------------------------------------
Component 0 (CO2)
    molecules:      2.000000e+02 molecules  (2.000000e+02 +/- 0.000000e+00)
    number density: 1.502752e-02 molec./A^3 (1.461348e-02 +/- 0.000000e+00)
    density:        1.097936e+03 kg/m^3     (1.067686e+03 +/- 0.000000e+00)

Average pressure tensor: 
-------------------------------------------------------------------------------
 1.2750e+02  1.6569e+01  5.6752e+01 +/- 0.0000e+00 0.0000e+00 0.0000e+00 [bar]
 1.6569e+01  1.5886e+02 -4.2126e+01 +/- 0.0000e+00 0.0000e+00 0.0000e+00 [bar]
 5.6752e+01 -4.2126e+01  2.5800e+01 +/- 0.0000e+00 0.0000e+00 0.0000e+00 [bar]
Ideal-gas pressure:   5.044026e+02 +/ 0.000000e+00 [bar]
Excess pressure:     -4.003464e+02 +/ 0.000000e+00 [bar]
Pressure:             1.040562e+02 +/ 0.000000e+00 [bar]

Total potential energy/kʙ  -3.136205e+05 (-3.063119e+05 +/- 0.000000e+00) [K]
-------------------------------------------------------------------------------
ExternalField-molecule
    Van der Waals/kʙ        0.000000e+00 ( 0.000000e+00 +/- 0.000000e+00) [K]
Framework-molecule
    Van der Waals/kʙ        0.000000e+00 ( 0.000000e+00 +/- 0.000000e+00) [K]
    Van der Waals (Tail)/kʙ 0.000000e+00 ( 0.000000e+00 +/- 0.000000e+00) [K]
    Coulombic Real/kʙ       0.000000e+00 ( 0.000000e+00 +/- 0.000000e+00) [K]
    Coulombic Fourier/kʙ    0.000000e+00 ( 0.000000e+00 +/- 0.000000e+00) [K]
Molecule-molecule
    Van der Waals/kʙ       -2.295673e+05 (-2.227617e+05 +/- 0.000000e+00) [K]
    Van der Waals (Tail)/kʙ-5.581533e+03 (-5.425577e+03 +/- 0.000000e+00) [K]
    Coulombic Real/kʙ      -7.180201e+04 (-7.132635e+04 +/- 0.000000e+00) [K]
    Coulombic Fourier/kʙ   -6.669667e+03 (-6.798238e+03 +/- 0.000000e+00) [K]
    Molecule Intra/kʙ       0.000000e+00 ( 0.000000e+00 +/- 0.000000e+00) [K]

Current cycle: 1000 out of 5000
===============================================================================

Box:      23.81746   0.00000   0.00000  Average:  23.90193   0.00000   0.00000
           0.00000  23.81746   0.00000             0.00000  23.90193   0.00000
           0.00000   0.00000  23.81746             0.00000   0.00000  23.90193
Lengths:  23.81746  23.81746  23.81746  Average:  23.90193  23.90193  23.90193
Angles:   90.00000  90.00000  90.00000  Average:  90.00000  90.00000  90.00000
Rectangular boundary conditions

net charge:   0.00000000

component 0 (CO2) lambda:  0 occupancy:  1 (1.000000)
    net charge:   0.00000000 [e]

Amount of molecules per component :
-------------------------------------------------------------------------------
Component 0 (CO2)
    molecules:      2.000000e+02 molecules  (2.000000e+02 +/- 0.000000e+00)
    number density: 1.480279e-02 molec./A^3 (1.465106e-02 +/- 0.000000e+00)
    density:        1.081517e+03 kg/m^3     (1.070431e+03 +/- 0.000000e+00)

Average pressure tensor: 
-------------------------------------------------------------------------------
 1.2055e+02 -7.0119e+00  3.8353e+01 +/- 0.0000e+00 0.0000e+00 0.0000e+00 [bar]
-7.0119e+00  1.7858e+02 -2.3864e+01 +/- 0.0000e+00 0.0000e+00 0.0000e+00 [bar]
 3.8353e+01 -2.3864e+01  7.5061e+01 +/- 0.0000e+00 0.0000e+00 0.0000e+00 [bar]
Ideal-gas pressure:   5.056997e+02 +/ 0.000000e+00 [bar]
Excess pressure:     -3.809684e+02 +/ 0.000000e+00 [bar]
Pressure:             1.247314e+02 +/ 0.000000e+00 [bar]

Total potential energy/kʙ  -3.090515e+05 (-3.075006e+05 +/- 0.000000e+00) [K]
-------------------------------------------------------------------------------
ExternalField-molecule
    Van der Waals/kʙ        0.000000e+00 ( 0.000000e+00 +/- 0.000000e+00) [K]
Framework-molecule
    Van der Waals/kʙ        0.000000e+00 ( 0.000000e+00 +/- 0.000000e+00) [K]
    Van der Waals (Tail)/kʙ 0.000000e+00 ( 0.000000e+00 +/- 0.000000e+00) [K]
    Coulombic Real/kʙ       0.000000e+00 ( 0.000000e+00 +/- 0.000000e+00) [K]
    Coulombic Fourier/kʙ    0.000000e+00 ( 0.000000e+00 +/- 0.000000e+00) [K]
Molecule-molecule
    Van der Waals/kʙ       -2.276069e+05 (-2.234714e+05 +/- 0.000000e+00) [K]
    Van der Waals (Tail)/kʙ-5.498065e+03 (-5.441667e+03 +/- 0.000000e+00) [K]
    Coulombic Real/kʙ      -6.901816e+04 (-7.174641e+04 +/- 0.000000e+00) [K]
    Coulombic Fourier/kʙ   -6.928411e+03 (-6.841029e+03 +/- 0.000000e+00) [K]
    Molecule Intra/kʙ       0.000000e+00 ( 0.000000e+00 +/- 0.000000e+00) [K]

Current cycle: 1100 out of 5000
===============================================================================

Box:      23.64841   0.00000   0.00000  Average:  23.87999   0.00000   0.00000
           0.00000  23.64841   0.00000             0.00000  23.87999   0.00000
           0.00000   0.00000  23.64841             0.00000   0.00000  23.87999
Lengths:  23.64841  23.64841  23.64841  Average:  23.87999  23.87999  23.87999
Angles:   90.00000  90.00000  90.00000  Average:  90.00000  90.00000  90.00000
Rectangular boundary conditions

net charge:   0.00000000

component 0 (CO2) lambda:  0 occupancy:  1 (1.000000)
    net charge:   0.00000000 [e]

Amount of molecules per component :
-------------------------------------------------------------------------------
Component 0 (CO2)
    molecules:      2.000000e+02 molecules  (2.000000e+02 +/- 0.000000e+00)
    number density: 1.512252e-02 molec./A^3 (1.469187e-02 +/- 0.000000e+00)
    density:        1.104877e+03 kg/m^3     (1.073413e+03 +/- 0.000000e+00)

Average pressure tensor: 
-------------------------------------------------------------------------------
 1.1650e+02 -4.4311e+00  4.2606e+01 +/- 0.0000e+00 0.0000e+00 0.0000e+00 [bar]
-4.4311e+00  1.5946e+02 -1.6379e+01 +/- 0.0000e+00 0.0000e+00 0.0000e+00 [bar]
 4.2606e+01 -1.6379e+01  1.0073e+02 +/- 0.0000e+00 0.0000e+00 0.0000e+00 [bar]
Ideal-gas pressure:   5.071083e+02 +/ 0.000000e+00 [bar]
Excess pressure:     -3.815456e+02 +/ 0.000000e+00 [bar]
Pressure:             1.255627e+02 +/ 0.000000e+00 [bar]

Total potential energy/kʙ  -3.259892e+05 (-3.088464e+05 +/- 0.000000e+00) [K]
-------------------------------------------------------------------------------
ExternalField-molecule
    Van der Waals/kʙ        0.000000e+00 ( 0.000000e+00 +/- 0.000000e+00) [K]
Framework-molecule
    Van der Waals/kʙ        0.000000e+00 ( 0.000000e+00 +/- 0.000000e+00) [K]
    Van der Waals (Tail)/kʙ 0.000000e+00 ( 0.000000e+00 +/- 0.000000e+00) [K]
    Coulombic Real/kʙ       0.000000e+00 ( 0.000000e+00 +/- 0.000000e+00) [K]
    Coulombic Fourier/kʙ    0.000000e+00 ( 0.000000e+00 +/- 0.000000e+00) [K]
Molecule-molecule
    Van der Waals/kʙ       -2.305288e+05 (-2.241565e+05 +/- 0.000000e+00) [K]
    Van der Waals (Tail)/kʙ-5.616820e+03 (-5.457593e+03 +/- 0.000000e+00) [K]
    Coulombic Real/kʙ      -8.258809e+04 (-7.237533e+04 +/- 0.000000e+00) [K]
    Coulombic Fourier/kʙ   -7.255425e+03 (-6.856964e+03 +/- 0.000000e+00) [K]
    Molecule Intra/kʙ       0.000000e+00 ( 0.000000e+00 +/- 0.000000e+00) [K]

Current cycle: 1200 out of 5000
===============================================================================

Box:      24.00589   0.00000   0.00000  Average:  23.88808   0.00000   0.00000
           0.00000  24.00589   0.00000             0.00000  23.88808   0.00000
           0.00000   0.00000  24.00589             0.00000   0.00000  23.88808
Lengths:  24.00589  24.00589  24.00589  Average:  23.88808  23.88808  23.88808
Angles:   90.00000  90.00000  90.00000  Average:  90.00000  90.00000  90.00000
Rectangular boundary conditions

net charge:   0.00000000

component 0 (CO2) lambda:  0 occupancy:  1 (1.000000)
    net charge:   0.00000000 [e]

Amount of molecules per component :
-------------------------------------------------------------------------------
Component 0 (CO2)
    molecules:      2.000000e+02 molecules  (2.000000e+02 +/- 0.000000e+00)
    number density: 1.445695e-02 molec./A^3 (1.467712e-02 +/- 0.000000e+00)
    density:        1.056249e+03 kg/m^3     (1.072335e+03 +/- 0.000000e+00)

Average pressure tensor: 
-------------------------------------------------------------------------------
 1.2378e+02 -1.1041e+01  3.6860e+01 +/- 0.0000e+00 0.0000e+00 0.0000e+00 [bar]
-1.1041e+01  1.5634e+02 -8.1018e+00 +/- 0.0000e+00 0.0000e+00 0.0000e+00 [bar]
 3.6860e+01 -8.1018e+00  8.7410e+01 +/- 0.0000e+00 0.0000e+00 0.0000e+00 [bar]
Ideal-gas pressure:   5.065992e+02 +/ 0.000000e+00 [bar]
Excess pressure:     -3.840915e+02 +/ 0.000000e+00 [bar]
Pressure:             1.225077e+02 +/ 0.000000e+00 [bar]

Total potential energy/kʙ  -3.044568e+05 (-3.088814e+05 +/- 0.000000e+00) [K]
-------------------------------------------------------------------------------
ExternalField-molecule
    Van der Waals/kʙ        0.000000e+00 ( 0.000000e+00 +/- 0.000000e+00) [K]
Framework-molecule
    Van der Waals/kʙ        0.000000e+00 ( 0.000000e+00 +/- 0.000000e+00) [K]
    Van der Waals (Tail)/kʙ 0.000000e+00 ( 0.000000e+00 +/- 0.000000e+00) [K]
    Coulombic Real/kʙ       0.000000e+00 ( 0.000000e+00 +/- 0.000000e+00) [K]
    Coulombic Fourier/kʙ    0.000000e+00 ( 0.000000e+00 +/- 0.000000e+00) [K]
Molecule-molecule
    Van der Waals/kʙ       -2.179009e+05 (-2.238671e+05 +/- 0.000000e+00) [K]
    Van der Waals (Tail)/kʙ-5.369610e+03 (-5.450908e+03 +/- 0.000000e+00) [K]
    Coulombic Real/kʙ      -7.465247e+04 (-7.269854e+04 +/- 0.000000e+00) [K]
    Coulombic Fourier/kʙ   -6.533858e+03 (-6.864858e+03 +/- 0.000000e+00) [K]
    Molecule Intra/kʙ       0.000000e+00 ( 0.000000e+00 +/- 0.000000e+00) [K]

Current cycle: 1300 out of 5000
===============================================================================

Box:      23.85552   0.00000   0.00000  Average:  23.89691   0.00000   0.00000
           0.00000  23.85552   0.00000             0.00000  23.89691   0.00000
           0.00000   0.00000  23.85552             0.00000   0.00000  23.89691
Lengths:  23.85552  23.85552  23.85552  Average:  23.89691  23.89691  23.89691
Angles:   90.00000  90.00000  90.00000  Average:  90.00000  90.00000  90.00000
Rectangular boundary conditions

net charge:   0.00000000

component 0 (CO2) lambda:  0 occupancy:  1 (1.000000)
    net charge:   0.00000000 [e]

Amount of molecules per component :
-------------------------------------------------------------------------------
Component 0 (CO2)
    molecules:      2.000000e+02 molecules  (2.000000e+02 +/- 0.000000e+00)
    number density: 1.473206e-02 molec./A^3 (1.466070e-02 +/- 0.000000e+00)
    density:        1.076349e+03 kg/m^3     (1.071136e+03 +/- 0.000000e+00)

Average pressure tensor: 
-------------------------------------------------------------------------------
 1.1753e+02 -1.2626e+01  3.4770e+01 +/- 0.0000e+00 0.0000e+00 0.0000e+00 [bar]
-1.2626e+01  1.5072e+02 -1.3749e+01 +/- 0.0000e+00 0.0000e+00 0.0000e+00 [bar]
 3.4770e+01 -1.3749e+01  9.0491e+01 +/- 0.0000e+00 0.0000e+00 0.0000e+00 [bar]
Ideal-gas pressure:   5.060325e+02 +/ 0.000000e+00 [bar]
Excess pressure:     -3.864522e+02 +/ 0.000000e+00 [bar]
Pressure:             1.195803e+02 +/ 0.000000e+00 [bar]

Total potential energy/kʙ  -2.975887e+05 (-3.087796e+05 +/- 0.000000e+00) [K]
-------------------------------------------------------------------------------
ExternalField-molecule
    Van der Waals/kʙ        0.000000e+00 ( 0.000000e+00 +/- 0.000000e+00) [K]
Framework-molecule
    Van der Waals/kʙ        0.000000e+00 ( 0.000000e+00 +/- 0.000000e+00) [K]
    Van der Waals (Tail)/kʙ 0.000000e+00 ( 0.000000e+00 +/- 0.000000e+00) [K]
    Coulombic Real/kʙ       0.000000e+00 ( 0.000000e+00 +/- 0.000000e+00) [K]
    Coulombic Fourier/kʙ    0.000000e+00 ( 0.000000e+00 +/- 0.000000e+00) [K]
Molecule-molecule
    Van der Waals/kʙ       -2.194485e+05 (-2.236610e+05 +/- 0.000000e+00) [K]
    Van der Waals (Tail)/kʙ-5.471792e+03 (-5.444288e+03 +/- 0.000000e+00) [K]
    Coulombic Real/kʙ      -6.583628e+04 (-7.278709e+04 +/- 0.000000e+00) [K]
    Coulombic Fourier/kʙ   -6.832099e+03 (-6.887257e+03 +/- 0.000000e+00) [K]
    Molecule Intra/kʙ       0.000000e+00 ( 0.000000e+00 +/- 0.000000e+00) [K]

Current cycle: 1400 out of 5000
===============================================================================

Box:      24.07848   0.00000   0.00000  Average:  23.90783   0.00000   0.00000
           0.00000  24.07848   0.00000             0.00000  23.90783   0.00000
           0.00000   0.00000  24.07848             0.00000   0.00000  23.90783
Lengths:  24.07848  24.07848  24.07848  Average:  23.90783  23.90783  23.90783
Angles:   90.00000  90.00000  90.00000  Average:  90.00000  90.00000  90.00000
Rectangular boundary conditions

net charge:   0.00000000

component 0 (CO2) lambda:  0 occupancy:  1 (1.000000)
    net charge:   0.00000000 [e]

Amount of molecules per component :
-------------------------------------------------------------------------------
Component 0 (CO2)
    molecules:      2.000000e+02 molecules  (2.000000e+02 +/- 0.000000e+00)
    number density: 1.432659e-02 molec./A^3 (1.464061e-02 +/- 0.000000e+00)
    density:        1.046725e+03 kg/m^3     (1.069668e+03 +/- 0.000000e+00)

Average pressure tensor: 
-------------------------------------------------------------------------------
 1.2222e+02 -3.7953e+00  2.8581e+01 +/- 0.0000e+00 0.0000e+00 0.0000e+00 [bar]
-3.7953e+00  1.5481e+02 -9.2638e-01 +/- 0.0000e+00 0.0000e+00 0.0000e+00 [bar]
 2.8581e+01 -9.2638e-01  9.7785e+01 +/- 0.0000e+00 0.0000e+00 0.0000e+00 [bar]
Ideal-gas pressure:   5.053389e+02 +/ 0.000000e+00 [bar]
Excess pressure:     -3.804006e+02 +/ 0.000000e+00 [bar]
Pressure:             1.249383e+02 +/ 0.000000e+00 [bar]

Total potential energy/kʙ  -3.034886e+05 (-3.081340e+05 +/- 0.000000e+00) [K]
-------------------------------------------------------------------------------
ExternalField-molecule
    Van der Waals/kʙ        0.000000e+00 ( 0.000000e+00 +/- 0.000000e+00) [K]
Framework-molecule
    Van der Waals/kʙ        0.000000e+00 ( 0.000000e+00 +/- 0.000000e+00) [K]
    Van der Waals (Tail)/kʙ 0.000000e+00 ( 0.000000e+00 +/- 0.000000e+00) [K]
    Coulombic Real/kʙ       0.000000e+00 ( 0.000000e+00 +/- 0.000000e+00) [K]
    Coulombic Fourier/kʙ    0.000000e+00 ( 0.000000e+00 +/- 0.000000e+00) [K]
Molecule-molecule
    Van der Waals/kʙ       -2.240200e+05 (-2.233699e+05 +/- 0.000000e+00) [K]
    Van der Waals (Tail)/kʙ-5.321193e+03 (-5.436224e+03 +/- 0.000000e+00) [K]
    Coulombic Real/kʙ      -6.683647e+04 (-7.244399e+04 +/- 0.000000e+00) [K]
    Coulombic Fourier/kʙ   -7.310990e+03 (-6.883892e+03 +/- 0.000000e+00) [K]
    Molecule Intra/kʙ       0.000000e+00 ( 0.000000e+00 +/- 0.000000e+00) [K]

Current cycle: 1500 out of 5000
===============================================================================

Box:      24.12934   0.00000   0.00000  Average:  23.91869   0.00000   0.00000
           0.00000  24.12934   0.00000             0.00000  23.91869   0.00000
           0.00000   0.00000  24.12934             0.00000   0.00000  23.91869
Lengths:  24.12934  24.12934  24.12934  Average:  23.91869  23.91869  23.91869
Angles:   90.00000  90.00000  90.00000  Average:  90.00000  90.00000  90.00000
Rectangular boundary conditions

net charge:   0.00000000

component 0 (CO2) lambda:  0 occupancy:  1 (1.000000)
    net charge:   0.00000000 [e]

Amount of molecules per component :
-------------------------------------------------------------------------------
Component 0 (CO2)
    molecules:      2.000000e+02 molecules  (2.000000e+02 +/- 0.000000e+00)
    number density: 1.423619e-02 molec./A^3 (1.462068e-02 +/- 0.000000e+00)
    density:        1.040120e+03 kg/m^3     (1.068212e+03 +/- 0.000000e+00)

Average pressure tensor: 
-------------------------------------------------------------------------------
 1.1873e+02 -6.0423e-01  2.9139e+01 +/- 0.0000e+00 0.0000e+00 0.0000e+00 [bar]
-6.0423e-01  1.4906e+02  1.2816e+01 +/- 0.0000e+00 0.0000e+00 0.0000e+00 [bar]
 2.9139e+01  1.2816e+01  1.0554e+02 +/- 0.0000e+00 0.0000e+00 0.0000e+00 [bar]
Ideal-gas pressure:   5.046513e+02 +/ 0.000000e+00 [bar]
Excess pressure:     -3.802097e+02 +/ 0.000000e+00 [bar]
Pressure:             1.244416e+02 +/ 0.000000e+00 [bar]

Total potential energy/kʙ  -3.025122e+05 (-3.075993e+05 +/- 0.000000e+00) [K]
-------------------------------------------------------------------------------
ExternalField-molecule
    Van der Waals/kʙ        0.000000e+00 ( 0.000000e+00 +/- 0.000000e+00) [K]
Framework-molecule
    Van der Waals/kʙ        0.000000e+00 ( 0.000000e+00 +/- 0.000000e+00) [K]
    Van der Waals (Tail)/kʙ 0.000000e+00 ( 0.000000e+00 +/- 0.000000e+00) [K]
    Coulombic Real/kʙ       0.000000e+00 ( 0.000000e+00 +/- 0.000000e+00) [K]
    Coulombic Fourier/kʙ    0.000000e+00 ( 0.000000e+00 +/- 0.000000e+00) [K]
Molecule-molecule
    Van der Waals/kʙ       -2.214664e+05 (-2.231343e+05 +/- 0.000000e+00) [K]
    Van der Waals (Tail)/kʙ-5.287615e+03 (-5.428847e+03 +/- 0.000000e+00) [K]
    Coulombic Real/kʙ      -6.914389e+04 (-7.215547e+04 +/- 0.000000e+00) [K]
    Coulombic Fourier/kʙ   -6.614268e+03 (-6.880668e+03 +/- 0.000000e+00) [K]
    Molecule Intra/kʙ       0.000000e+00 ( 0.000000e+00 +/- 0.000000e+00) [K]

Current cycle: 1600 out of 5000
===============================================================================

Box:      24.05054   0.00000   0.00000  Average:  23.92490   0.00000   0.00000
           0.00000  24.05054   0.00000             0.00000  23.92490   0.00000
           0.00000   0.00000  24.05054             0.00000   0.00000  23.92490
Lengths:  24.05054  24.05054  24.05054  Average:  23.92490  23.92490  23.92490
Angles:   90.00000  90.00000  90.00000  Average:  90.00000  90.00000  90.00000
Rectangular boundary conditions

net charge:   0.00000000

component 0 (CO2) lambda:  0 occupancy:  1 (1.000000)
    net charge:   0.00000000 [e]

Amount of molecules per component :
-------------------------------------------------------------------------------
Component 0 (CO2)
    molecules:      2.000000e+02 molecules  (2.000000e+02 +/- 0.000000e+00)
    number density: 1.437657e-02 molec./A^3 (1.460921e-02 +/- 0.000000e+00)
    density:        1.050377e+03 kg/m^3     (1.067374e+03 +/- 0.000000e+00)

Average pressure tensor: 
-------------------------------------------------------------------------------
 1.2303e+02  1.6688e-01  2.6279e+01 +/- 0.0000e+00 0.0000e+00 0.0000e+00 [bar]
 1.6688e-01  1.5733e+02  1.7947e+01 +/- 0.0000e+00 0.0000e+00 0.0000e+00 [bar]
 2.6279e+01  1.7947e+01  1.0730e+02 +/- 0.0000e+00 0.0000e+00 0.0000e+00 [bar]
Ideal-gas pressure:   5.042553e+02 +/ 0.000000e+00 [bar]
Excess pressure:     -3.750368e+02 +/ 0.000000e+00 [bar]
Pressure:             1.292185e+02 +/ 0.000000e+00 [bar]

Total potential energy/kʙ  -2.957774e+05 (-3.071749e+05 +/- 0.000000e+00) [K]
-------------------------------------------------------------------------------
ExternalField-molecule
    Van der Waals/kʙ        0.000000e+00 ( 0.000000e+00 +/- 0.000000e+00) [K]
Framework-molecule
    Van der Waals/kʙ        0.000000e+00 ( 0.000000e+00 +/- 0.000000e+00) [K]
    Van der Waals (Tail)/kʙ 0.000000e+00 ( 0.000000e+00 +/- 0.000000e+00) [K]
    Coulombic Real/kʙ       0.000000e+00 ( 0.000000e+00 +/- 0.000000e+00) [K]
    Coulombic Fourier/kʙ    0.000000e+00 ( 0.000000e+00 +/- 0.000000e+00) [K]
Molecule-molecule
    Van der Waals/kʙ       -2.214123e+05 (-2.229512e+05 +/- 0.000000e+00) [K]
    Van der Waals (Tail)/kʙ-5.339758e+03 (-5.425546e+03 +/- 0.000000e+00) [K]
    Coulombic Real/kʙ      -6.263729e+04 (-7.193813e+04 +/- 0.000000e+00) [K]
    Coulombic Fourier/kʙ   -6.388067e+03 (-6.860038e+03 +/- 0.000000e+00) [K]
    Molecule Intra/kʙ       0.000000e+00 ( 0.000000e+00 +/- 0.000000e+00) [K]

Current cycle: 1700 out of 5000
===============================================================================

Box:      24.06639   0.00000   0.00000  Average:  23.93633   0.00000   0.00000
           0.00000  24.06639   0.00000             0.00000  23.93633   0.00000
           0.00000   0.00000  24.06639             0.00000   0.00000  23.93633
Lengths:  24.06639  24.06639  24.06639  Average:  23.93633  23.93633  23.93633
Angles:   90.00000  90.00000  90.00000  Average:  90.00000  90.00000  90.00000
Rectangular boundary conditions

net charge:   0.00000000

component 0 (CO2) lambda:  0 occupancy:  1 (1.000000)
    net charge:   0.00000000 [e]

Amount of molecules per component :
-------------------------------------------------------------------------------
Component 0 (CO2)
    molecules:      2.000000e+02 molecules  (2.000000e+02 +/- 0.000000e+00)
    number density: 1.434819e-02 molec./A^3 (1.458845e-02 +/- 0.000000e+00)
    density:        1.048303e+03 kg/m^3     (1.065857e+03 +/- 0.000000e+00)

Average pressure tensor: 
-------------------------------------------------------------------------------
 1.1184e+02 -8.6783e+00  2.3385e+01 +/- 0.0000e+00 0.0000e+00 0.0000e+00 [bar]
-8.6783e+00  1.6831e+02  1.0888e+01 +/- 0.0000e+00 0.0000e+00 0.0000e+00 [bar]
 2.3385e+01  1.0888e+01  1.0925e+02 +/- 0.0000e+00 0.0000e+00 0.0000e+00 [bar]
Ideal-gas pressure:   5.035386e+02 +/ 0.000000e+00 [bar]
Excess pressure:     -3.737389e+02 +/ 0.000000e+00 [bar]
Pressure:             1.297997e+02 +/ 0.000000e+00 [bar]

Total potential energy/kʙ  -2.929217e+05 (-3.066191e+05 +/- 0.000000e+00) [K]
-------------------------------------------------------------------------------
ExternalField-molecule
    Van der Waals/kʙ        0.000000e+00 ( 0.000000e+00 +/- 0.000000e+00) [K]
Framework-molecule
    Van der Waals/kʙ        0.000000e+00 ( 0.000000e+00 +/- 0.000000e+00) [K]
    Van der Waals (Tail)/kʙ 0.000000e+00 ( 0.000000e+00 +/- 0.000000e+00) [K]
    Coulombic Real/kʙ       0.000000e+00 ( 0.000000e+00 +/- 0.000000e+00) [K]
    Coulombic Fourier/kʙ    0.000000e+00 ( 0.000000e+00 +/- 0.000000e+00) [K]
Molecule-molecule
    Van der Waals/kʙ       -2.160894e+05 (-2.226551e+05 +/- 0.000000e+00) [K]
    Van der Waals (Tail)/kʙ-5.329215e+03 (-5.418885e+03 +/- 0.000000e+00) [K]
    Coulombic Real/kʙ      -6.503108e+04 (-7.170353e+04 +/- 0.000000e+00) [K]
    Coulombic Fourier/kʙ   -6.471960e+03 (-6.841593e+03 +/- 0.000000e+00) [K]
    Molecule Intra/kʙ       0.000000e+00 ( 0.000000e+00 +/- 0.000000e+00) [K]

Current cycle: 1800 out of 5000
===============================================================================

Box:      24.52396   0.00000   0.00000  Average:  23.95610   0.00000   0.00000
           0.00000  24.52396   0.00000             0.00000  23.95610   0.00000
           0.00000   0.00000  24.52396             0.00000   0.00000  23.95610
Lengths:  24.52396  24.52396  24.52396  Average:  23.95610  23.95610  23.95610
Angles:   90.00000  90.00000  90.00000  Average:  90.00000  90.00000  90.00000
Rectangular boundary conditions

net charge:   0.00000000

component 0 (CO2) lambda:  0 occupancy:  1 (1.000000)
    net charge:   0.00000000 [e]

Amount of molecules per component :
-------------------------------------------------------------------------------
Component 0 (CO2)
    molecules:      2.000000e+02 molecules  (2.000000e+02 +/- 0.000000e+00)
    number density: 1.355996e-02 molec./A^3 (1.455325e-02 +/- 0.000000e+00)
    density:        9.907136e+02 kg/m^3     (1.063286e+03 +/- 0.000000e+00)

Average pressure tensor: 
-------------------------------------------------------------------------------
 1.1519e+02 -5.4831e+00  2.6900e+01 +/- 0.0000e+00 0.0000e+00 0.0000e+00 [bar]
-5.4831e+00  1.7857e+02  1.1055e+01 +/- 0.0000e+00 0.0000e+00 0.0000e+00 [bar]
 2.6900e+01  1.1055e+01  1.0462e+02 +/- 0.0000e+00 0.0000e+00 0.0000e+00 [bar]
Ideal-gas pressure:   5.023238e+02 +/ 0.000000e+00 [bar]
Excess pressure:     -3.695285e+02 +/ 0.000000e+00 [bar]
Pressure:             1.327953e+02 +/ 0.000000e+00 [bar]

Total potential energy/kʙ  -2.829028e+05 (-3.056052e+05 +/- 0.000000e+00) [K]
-------------------------------------------------------------------------------
ExternalField-molecule
    Van der Waals/kʙ        0.000000e+00 ( 0.000000e+00 +/- 0.000000e+00) [K]
Framework-molecule
    Van der Waals/kʙ        0.000000e+00 ( 0.000000e+00 +/- 0.000000e+00) [K]
    Van der Waals (Tail)/kʙ 0.000000e+00 ( 0.000000e+00 +/- 0.000000e+00) [K]
    Coulombic Real/kʙ       0.000000e+00 ( 0.000000e+00 +/- 0.000000e+00) [K]
    Coulombic Fourier/kʙ    0.000000e+00 ( 0.000000e+00 +/- 0.000000e+00) [K]
Molecule-molecule
    Van der Waals/kʙ       -2.124621e+05 (-2.221135e+05 +/- 0.000000e+00) [K]
    Van der Waals (Tail)/kʙ-5.036449e+03 (-5.405461e+03 +/- 0.000000e+00) [K]
    Coulombic Real/kʙ      -5.966202e+04 (-7.126308e+04 +/- 0.000000e+00) [K]
    Coulombic Fourier/kʙ   -5.742272e+03 (-6.823217e+03 +/- 0.000000e+00) [K]
    Molecule Intra/kʙ       0.000000e+00 ( 0.000000e+00 +/- 0.000000e+00) [K]

Current cycle: 1900 out of 5000
===============================================================================

Box:      24.01741   0.00000   0.00000  Average:  23.96532   0.00000   0.00000
           0.00000  24.01741   0.00000             0.00000  23.96532   0.00000
           0.00000   0.00000  24.01741             0.00000   0.00000  23.96532
Lengths:  24.01741  24.01741  24.01741  Average:  23.96532  23.96532  23.96532
Angles:   90.00000  90.00000  90.00000  Average:  90.00000  90.00000  90.00000
Rectangular boundary conditions

net charge:   0.00000000

component 0 (CO2) lambda:  0 occupancy:  1 (1.000000)
    net charge:   0.00000000 [e]

Amount of molecules per component :
-------------------------------------------------------------------------------
Component 0 (CO2)
    molecules:      2.000000e+02 molecules  (2.000000e+02 +/- 0.000000e+00)
    number density: 1.443616e-02 molec./A^3 (1.453648e-02 +/- 0.000000e+00)
    density:        1.054730e+03 kg/m^3     (1.062060e+03 +/- 0.000000e+00)

Average pressure tensor: 
-------------------------------------------------------------------------------
 1.1541e+02 -8.0972e+00  1.3914e+01 +/- 0.0000e+00 0.0000e+00 0.0000e+00 [bar]
-8.0972e+00  1.7763e+02  8.9074e+00 +/- 0.0000e+00 0.0000e+00 0.0000e+00 [bar]
 1.3914e+01  8.9074e+00  1.0249e+02 +/- 0.0000e+00 0.0000e+00 0.0000e+00 [bar]
Ideal-gas pressure:   5.017450e+02 +/ 0.000000e+00 [bar]
Excess pressure:     -3.699026e+02 +/ 0.000000e+00 [bar]
Pressure:             1.318424e+02 +/ 0.000000e+00 [bar]

Total potential energy/kʙ  -3.014024e+05 (-3.052083e+05 +/- 0.000000e+00) [K]
-------------------------------------------------------------------------------
ExternalField-molecule
    Van der Waals/kʙ        0.000000e+00 ( 0.000000e+00 +/- 0.000000e+00) [K]
Framework-molecule
    Van der Waals/kʙ        0.000000e+00 ( 0.000000e+00 +/- 0.000000e+00) [K]
    Van der Waals (Tail)/kʙ 0.000000e+00 ( 0.000000e+00 +/- 0.000000e+00) [K]
    Coulombic Real/kʙ       0.000000e+00 ( 0.000000e+00 +/- 0.000000e+00) [K]
    Coulombic Fourier/kʙ    0.000000e+00 ( 0.000000e+00 +/- 0.000000e+00) [K]
Molecule-molecule
    Van der Waals/kʙ       -2.233539e+05 (-2.218397e+05 +/- 0.000000e+00) [K]
    Van der Waals (Tail)/kʙ-5.361889e+03 (-5.399488e+03 +/- 0.000000e+00) [K]
    Coulombic Real/kʙ      -6.597224e+04 (-7.115803e+04 +/- 0.000000e+00) [K]
    Coulombic Fourier/kʙ   -6.714354e+03 (-6.811134e+03 +/- 0.000000e+00) [K]
    Molecule Intra/kʙ       0.000000e+00 ( 0.000000e+00 +/- 0.000000e+00) [K]

Current cycle: 2000 out of 5000
===============================================================================

Box:      24.15315   0.00000   0.00000  Average:  23.97167   0.00000   0.00000
           0.00000  24.15315   0.00000             0.00000  23.97167   0.00000
           0.00000   0.00000  24.15315             0.00000   0.00000  23.97167
Lengths:  24.15315  24.15315  24.15315  Average:  23.97167  23.97167  23.97167
Angles:   90.00000  90.00000  90.00000  Average:  90.00000  90.00000  90.00000
Rectangular boundary conditions

net charge:   0.00000000

component 0 (CO2) lambda:  0 occupancy:  1 (1.000000)
    net charge:   0.00000000 [e]

Amount of molecules per component :
-------------------------------------------------------------------------------
Component 0 (CO2)
    molecules:      2.000000e+02 molecules  (2.000000e+02 +/- 0.000000e+00)
    number density: 1.419413e-02 molec./A^3 (1.452481e-02 +/- 0.000000e+00)
    density:        1.037047e+03 kg/m^3     (1.061208e+03 +/- 0.000000e+00)

Average pressure tensor: 
-------------------------------------------------------------------------------
 1.0402e+02 -7.9789e+00  1.6067e+01 +/- 0.0000e+00 0.0000e+00 0.0000e+00 [bar]
-7.9789e+00  1.7607e+02  1.0534e+01 +/- 0.0000e+00 0.0000e+00 0.0000e+00 [bar]
 1.6067e+01  1.0534e+01  9.6357e+01 +/- 0.0000e+00 0.0000e+00 0.0000e+00 [bar]
Ideal-gas pressure:   5.013422e+02 +/ 0.000000e+00 [bar]
Excess pressure:     -3.758591e+02 +/ 0.000000e+00 [bar]
Pressure:             1.254831e+02 +/ 0.000000e+00 [bar]

Total potential energy/kʙ  -2.959930e+05 (-3.049885e+05 +/- 0.000000e+00) [K]
-------------------------------------------------------------------------------
ExternalField-molecule
    Van der Waals/kʙ        0.000000e+00 ( 0.000000e+00 +/- 0.000000e+00) [K]
Framework-molecule
    Van der Waals/kʙ        0.000000e+00 ( 0.000000e+00 +/- 0.000000e+00) [K]
    Van der Waals (Tail)/kʙ 0.000000e+00 ( 0.000000e+00 +/- 0.000000e+00) [K]
    Coulombic Real/kʙ       0.000000e+00 ( 0.000000e+00 +/- 0.000000e+00) [K]
    Coulombic Fourier/kʙ    0.000000e+00 ( 0.000000e+00 +/- 0.000000e+00) [K]
Molecule-molecule
    Van der Waals/kʙ       -2.184722e+05 (-2.217325e+05 +/- 0.000000e+00) [K]
    Van der Waals (Tail)/kʙ-5.271994e+03 (-5.393967e+03 +/- 0.000000e+00) [K]
    Coulombic Real/kʙ      -6.658304e+04 (-7.108080e+04 +/- 0.000000e+00) [K]
    Coulombic Fourier/kʙ   -5.665814e+03 (-6.781285e+03 +/- 0.000000e+00) [K]
    Molecule Intra/kʙ       0.000000e+00 ( 0.000000e+00 +/- 0.000000e+00) [K]

Current cycle: 2100 out of 5000
===============================================================================

Box:      23.77644   0.00000   0.00000  Average:  23.97201   0.00000   0.00000
           0.00000  23.77644   0.00000             0.00000  23.97201   0.00000
           0.00000   0.00000  23.77644             0.00000   0.00000  23.97201
Lengths:  23.77644  23.77644  23.77644  Average:  23.97201  23.97201  23.97201
Angles:   90.00000  90.00000  90.00000  Average:  90.00000  90.00000  90.00000
Rectangular boundary conditions

net charge:   0.00000000

component 0 (CO2) lambda:  0 occupancy:  1 (1.000000)
    net charge:   0.00000000 [e]

Amount of molecules per component :
-------------------------------------------------------------------------------
Component 0 (CO2)
    molecules:      2.000000e+02 molecules  (2.000000e+02 +/- 0.000000e+00)
    number density: 1.487953e-02 molec./A^3 (1.452399e-02 +/- 0.000000e+00)
    density:        1.087124e+03 kg/m^3     (1.061147e+03 +/- 0.000000e+00)

Average pressure tensor: 
-------------------------------------------------------------------------------
 9.9504e+01 -6.2021e+00  2.4278e+01 +/- 0.0000e+00 0.0000e+00 0.0000e+00 [bar]
-6.2021e+00  1.9553e+02  1.1392e+01 +/- 0.0000e+00 0.0000e+00 0.0000e+00 [bar]
 2.4278e+01  1.1392e+01  9.5910e+01 +/- 0.0000e+00 0.0000e+00 0.0000e+00 [bar]
Ideal-gas pressure:   5.013136e+02 +/ 0.000000e+00 [bar]
Excess pressure:     -3.709980e+02 +/ 0.000000e+00 [bar]
Pressure:             1.303156e+02 +/ 0.000000e+00 [bar]

Total potential energy/kʙ  -3.083803e+05 (-3.046576e+05 +/- 0.000000e+00) [K]
-------------------------------------------------------------------------------
ExternalField-molecule
    Van der Waals/kʙ        0.000000e+00 ( 0.000000e+00 +/- 0.000000e+00) [K]
Framework-molecule
    Van der Waals/kʙ        0.000000e+00 ( 0.000000e+00 +/- 0.000000e+00) [K]
    Van der Waals (Tail)/kʙ 0.000000e+00 ( 0.000000e+00 +/- 0.000000e+00) [K]
[...]
    Coulombic Fourier/kʙ    0.000000e+00 ( 0.000000e+00 +/- 0.000000e+00) [K]
Molecule-molecule
    Van der Waals/kʙ       -2.203810e+05 (-2.234398e+05 +/- 3.742337e+03) [K]
    Van der Waals (Tail)/kʙ-5.264045e+03 (-5.436332e+03 +/- 8.930428e+01) [K]
    Coulombic Real/kʙ      -6.988550e+04 (-7.252453e+04 +/- 2.402754e+03) [K]
    Coulombic Fourier/kʙ   -6.976978e+03 (-6.820513e+03 +/- 1.870791e+02) [K]
    Molecule Intra/kʙ       0.000000e+00 ( 0.000000e+00 +/- 0.000000e+00) [K]

Current cycle: 4700 out of 5000
===============================================================================

Box:      24.13450   0.00000   0.00000  Average:  23.91271   0.00000   0.00000
           0.00000  24.13450   0.00000             0.00000  23.91271   0.00000
           0.00000   0.00000  24.13450             0.00000   0.00000  23.91271
Lengths:  24.13450  24.13450  24.13450  Average:  23.91271  23.91271  23.91271
Angles:   90.00000  90.00000  90.00000  Average:  90.00000  90.00000  90.00000
Rectangular boundary conditions

net charge:   0.00000000

component 0 (CO2) lambda:  0 occupancy:  1 (1.000000)
    net charge:   0.00000000 [e]

Amount of molecules per component :
-------------------------------------------------------------------------------
Component 0 (CO2)
    molecules:      2.000000e+02 molecules  (2.000000e+02 +/- 0.000000e+00)
    number density: 1.422706e-02 molec./A^3 (1.463292e-02 +/- 2.449334e-04)
    density:        1.039453e+03 kg/m^3     (1.069106e+03 +/- 1.789526e+01)

Average pressure tensor: 
-------------------------------------------------------------------------------
 1.2509e+02 -3.3261e+01  1.6525e+01 +/- 5.1779e+01 4.4370e+01 4.2377e+01 [bar]
-3.3261e+01  1.5506e+02  1.3693e+01 +/- 4.4370e+01 5.2541e+01 7.0568e+01 [bar]
 1.6525e+01  1.3693e+01  7.6035e+01 +/- 4.2377e+01 7.0568e+01 5.9279e+01 [bar]
Ideal-gas pressure:   5.050735e+02 +/ 8.454186e+00 [bar]
Excess pressure:     -3.863457e+02 +/ 2.153685e+01 [bar]
Pressure:             1.187278e+02 +/ 1.346637e+01 [bar]

Total potential energy/kʙ  -2.932185e+05 (-3.080074e+05 +/- 6.226602e+03) [K]
-------------------------------------------------------------------------------
ExternalField-molecule
    Van der Waals/kʙ        0.000000e+00 ( 0.000000e+00 +/- 0.000000e+00) [K]
Framework-molecule
    Van der Waals/kʙ        0.000000e+00 ( 0.000000e+00 +/- 0.000000e+00) [K]
    Van der Waals (Tail)/kʙ 0.000000e+00 ( 0.000000e+00 +/- 0.000000e+00) [K]
    Coulombic Real/kʙ       0.000000e+00 ( 0.000000e+00 +/- 0.000000e+00) [K]
    Coulombic Fourier/kʙ    0.000000e+00 ( 0.000000e+00 +/- 0.000000e+00) [K]
Molecule-molecule
    Van der Waals/kʙ       -2.151589e+05 (-2.233430e+05 +/- 3.789004e+03) [K]
    Van der Waals (Tail)/kʙ-5.284226e+03 (-5.433775e+03 +/- 8.978467e+01) [K]
    Coulombic Real/kʙ      -6.629000e+04 (-7.241611e+04 +/- 2.282879e+03) [K]
    Coulombic Fourier/kʙ   -6.485307e+03 (-6.814551e+03 +/- 1.845199e+02) [K]
    Molecule Intra/kʙ       0.000000e+00 ( 0.000000e+00 +/- 0.000000e+00) [K]

Current cycle: 4800 out of 5000
===============================================================================

Box:      24.31338   0.00000   0.00000  Average:  23.91869   0.00000   0.00000
           0.00000  24.31338   0.00000             0.00000  23.91869   0.00000
           0.00000   0.00000  24.31338             0.00000   0.00000  23.91869
Lengths:  24.31338  24.31338  24.31338  Average:  23.91869  23.91869  23.91869
Angles:   90.00000  90.00000  90.00000  Average:  90.00000  90.00000  90.00000
Rectangular boundary conditions

net charge:   0.00000000

component 0 (CO2) lambda:  0 occupancy:  1 (1.000000)
    net charge:   0.00000000 [e]

Amount of molecules per component :
-------------------------------------------------------------------------------
Component 0 (CO2)
    molecules:      2.000000e+02 molecules  (2.000000e+02 +/- 0.000000e+00)
    number density: 1.391535e-02 molec./A^3 (1.462211e-02 +/- 2.508992e-04)
    density:        1.016679e+03 kg/m^3     (1.068316e+03 +/- 1.833112e+01)

Average pressure tensor: 
-------------------------------------------------------------------------------
 1.2746e+02 -3.2557e+01  1.4985e+01 +/- 5.4174e+01 4.0123e+01 4.3376e+01 [bar]
-3.2557e+01  1.5720e+02  1.6345e+01 +/- 4.0123e+01 4.0912e+01 7.2478e+01 [bar]
 1.4985e+01  1.6345e+01  7.3541e+01 +/- 4.3376e+01 7.2478e+01 5.9275e+01 [bar]
Ideal-gas pressure:   5.047004e+02 +/ 8.660100e+00 [bar]
Excess pressure:     -3.852996e+02 +/ 2.210641e+01 [bar]
Pressure:             1.194008e+02 +/ 1.381868e+01 [bar]

Total potential energy/kʙ  -2.949794e+05 (-3.077809e+05 +/- 6.314157e+03) [K]
-------------------------------------------------------------------------------
ExternalField-molecule
    Van der Waals/kʙ        0.000000e+00 ( 0.000000e+00 +/- 0.000000e+00) [K]
Framework-molecule
    Van der Waals/kʙ        0.000000e+00 ( 0.000000e+00 +/- 0.000000e+00) [K]
    Van der Waals (Tail)/kʙ 0.000000e+00 ( 0.000000e+00 +/- 0.000000e+00) [K]
    Coulombic Real/kʙ       0.000000e+00 ( 0.000000e+00 +/- 0.000000e+00) [K]
    Coulombic Fourier/kʙ    0.000000e+00 ( 0.000000e+00 +/- 0.000000e+00) [K]
Molecule-molecule
    Van der Waals/kʙ       -2.120080e+05 (-2.231716e+05 +/- 3.912130e+03) [K]
    Van der Waals (Tail)/kʙ-5.168450e+03 (-5.430043e+03 +/- 9.165117e+01) [K]
    Coulombic Real/kʙ      -7.078639e+04 (-7.236569e+04 +/- 2.265092e+03) [K]
    Coulombic Fourier/kʙ   -7.016615e+03 (-6.813559e+03 +/- 1.844530e+02) [K]
    Molecule Intra/kʙ       0.000000e+00 ( 0.000000e+00 +/- 0.000000e+00) [K]

Current cycle: 4900 out of 5000
===============================================================================

Box:      24.03377   0.00000   0.00000  Average:  23.92410   0.00000   0.00000
           0.00000  24.03377   0.00000             0.00000  23.92410   0.00000
           0.00000   0.00000  24.03377             0.00000   0.00000  23.92410
Lengths:  24.03377  24.03377  24.03377  Average:  23.92410  23.92410  23.92410
Angles:   90.00000  90.00000  90.00000  Average:  90.00000  90.00000  90.00000
Rectangular boundary conditions

net charge:   0.00000000

component 0 (CO2) lambda:  0 occupancy:  1 (1.000000)
    net charge:   0.00000000 [e]

Amount of molecules per component :
-------------------------------------------------------------------------------
Component 0 (CO2)
    molecules:      2.000000e+02 molecules  (2.000000e+02 +/- 0.000000e+00)
    number density: 1.440669e-02 molec./A^3 (1.461234e-02 +/- 2.577172e-04)
    density:        1.052578e+03 kg/m^3     (1.067603e+03 +/- 1.882926e+01)

Average pressure tensor: 
-------------------------------------------------------------------------------
 1.2450e+02 -2.9265e+01  1.6634e+01 +/- 4.1392e+01 3.3039e+01 4.2070e+01 [bar]
-2.9265e+01  1.5094e+02  1.8015e+01 +/- 3.3039e+01 5.5207e+01 7.1746e+01 [bar]
 1.6634e+01  1.8015e+01  6.9344e+01 +/- 4.2070e+01 7.1746e+01 6.1414e+01 [bar]
Ideal-gas pressure:   5.043634e+02 +/ 8.895434e+00 [bar]
Excess pressure:     -3.894350e+02 +/ 2.272152e+01 [bar]
Pressure:             1.149284e+02 +/ 1.703398e+01 [bar]

Total potential energy/kʙ  -3.028067e+05 (-3.075516e+05 +/- 6.443855e+03) [K]
-------------------------------------------------------------------------------
ExternalField-molecule
    Van der Waals/kʙ        0.000000e+00 ( 0.000000e+00 +/- 0.000000e+00) [K]
Framework-molecule
    Van der Waals/kʙ        0.000000e+00 ( 0.000000e+00 +/- 0.000000e+00) [K]
    Van der Waals (Tail)/kʙ 0.000000e+00 ( 0.000000e+00 +/- 0.000000e+00) [K]
    Coulombic Real/kʙ       0.000000e+00 ( 0.000000e+00 +/- 0.000000e+00) [K]
    Coulombic Fourier/kʙ    0.000000e+00 ( 0.000000e+00 +/- 0.000000e+00) [K]
Molecule-molecule
    Van der Waals/kʙ       -2.225129e+05 (-2.230408e+05 +/- 4.007412e+03) [K]
    Van der Waals (Tail)/kʙ-5.350945e+03 (-5.426310e+03 +/- 9.416715e+01) [K]
    Coulombic Real/kʙ      -6.809134e+04 (-7.227759e+04 +/- 2.269209e+03) [K]
    Coulombic Fourier/kʙ   -6.851502e+03 (-6.806961e+03 +/- 1.853842e+02) [K]
    Molecule Intra/kʙ       0.000000e+00 ( 0.000000e+00 +/- 0.000000e+00) [K]


Energy statistics             |  Energy [K]   | Recomputed [K]|  Drift [K]    |
===============================================================================
Total potential energy/kʙ     | -3.076424e+05 | -3.076424e+05 |  5.513112e-10 |
    external field VDW/kʙ     |  0.000000e+00 |  0.000000e+00 |  0.000000e+00 |
    external field Real/kʙ    |  0.000000e+00 |  0.000000e+00 |  0.000000e+00 |
    framework-molecule VDW/kʙ |  0.000000e+00 |  0.000000e+00 |  0.000000e+00 |
    framework-molecule Real/kʙ|  0.000000e+00 |  0.000000e+00 |  0.000000e+00 |
    molecule-molecule VDW/kʙ  | -2.207219e+05 | -2.207219e+05 |  7.700854e-10 |
    molecule-molecule Real/kʙ | -7.519651e+04 | -7.519651e+04 | -2.012723e-10 |
    Van der Waals (Tail)/kʙ   | -5.266839e+03 | -5.266839e+03 |  0.000000e+00 |
    Ewald Fourier/kʙ          |  5.303959e+03 |  5.303959e+03 | -1.750194e-11 |
    Ewald self/kʙ             | -3.673356e+06 | -3.673356e+06 |  0.000000e+00 |
    Ewald exclusion/kʙ        |  3.661595e+06 |  3.661595e+06 |  0.000000e+00 |
    intra VDW/kʙ              |  0.000000e+00 |  0.000000e+00 |  0.000000e+00 |
    intra Coulombic/kʙ        |  0.000000e+00 |  0.000000e+00 |  0.000000e+00 |
    polarization/kʙ           |  0.000000e+00 |  0.000000e+00 |  0.000000e+00 |
    dU/dlambda VDW/kʙ         |  0.000000e+00 |  0.000000e+00 |  0.000000e+00 |
    dU/dlambda Real/kʙ        |  0.000000e+00 |  0.000000e+00 |  0.000000e+00 |
    dU/dlambda Ewald/kʙ       |  0.000000e+00 |  0.000000e+00 |  0.000000e+00 |
-------------------------------------------------------------------------------


Monte-Carlo moves statistics
===============================================================================

    Volume change        all:                6708
    Volume change        total:              6708
    Volume change        constructed:        6708
    Volume change        accepted:           3545
    Volume change        fraction:       0.528473
    Volume change        max-change:     0.025000

Component 0 [CO2]
    Reinsertion (CBMC)   all:              331294
    Reinsertion (CBMC)   total:            331294
    Reinsertion (CBMC)   constructed:      293431
    Reinsertion (CBMC)   accepted:           4583
    Reinsertion (CBMC)   fraction:       0.013834
    Reinsertion (CBMC)   max-change:     0.000000

    Translation          all:              331104
    Translation          total:            110442     110408     110254
    Translation          constructed:      110014     110408     110254
    Translation          accepted:          34868      54757      59738
    Translation          fraction:       0.315713   0.495951   0.541822
    Translation          max-change:     1.188571   0.666667   0.578947

    Rotation             all:              330894
    Rotation             total:            110504     110420     109970
    Rotation             constructed:      110340     110420     109970
    Rotation             accepted:          38213      56707      63775
    Rotation             fraction:       0.345806   0.513557   0.579931
    Rotation             max-change:     1.171625   0.653763   0.523810



Production run counting of the MC moves summed over systems and components
===============================================================================

Volume change                          6708 (0.6708 [%])
Reinsertion (CBMC)                   331294 (33.1294 [%])
Translation                          331104 (33.1104 [%])
Rotation                             330894 (33.0894 [%])

Production count MC-steps:          1000000 [-]
               All summed:          1000000 [-]
               difference:                0 [-]


Production run CPU timings of the MC moves
===============================================================================

Component 0 CO2

Rotation                             46.915487 [s]
    Ewald                            13.199942 [s]
    ExternalField-Molecule            0.010889 [s]
    Framework-Molecule                0.013974 [s]
    Molecule-Molecule                32.554743 [s]
    Overhead                          1.135939 [s]

Reinsertion (CBMC)                  222.214702 [s]
    Ewald                            11.833411 [s]
    NonEwald                        210.080918 [s]
    Overhead                          0.300373 [s]

Translation                          46.590179 [s]
    Ewald                            13.303423 [s]
    ExternalField-Molecule            0.009492 [s]
    Framework-Molecule                0.020298 [s]
    Molecule-Molecule                32.197193 [s]
    Overhead                          1.059773 [s]



Volume change                         47.378594 [s]
    Ewald                              9.564999 [s]
    NonEwald                          36.326706 [s]
    Tail                               1.254553 [s]

Property sampling                     0.281210 [s]
Energy/pressure sampling:             6.363463 [s]


Production run CPU timings of the MC moves summed over systems and components
===============================================================================


Translation                          46.590179 [s]
    Ewald                            13.303423 [s]
    ExternalField-Molecule            0.009492 [s]
    Framework-Molecule                0.020298 [s]
    Molecule-Molecule                32.197193 [s]
    Overhead                          1.059773 [s]

Rotation                             46.915487 [s]
    Ewald                            13.199942 [s]
    ExternalField-Molecule            0.010889 [s]
    Framework-Molecule                0.013974 [s]
    Molecule-Molecule                32.554743 [s]
    Overhead                          1.135939 [s]

Volume change                        47.378594 [s]
    Ewald                             9.564999 [s]
    NonEwald                         36.326706 [s]
    Tail                              1.254553 [s]
    Overhead                          0.232336 [s]

Reinsertion (CBMC)                  222.214702 [s]
    Ewald                            11.833411 [s]
    NonEwald                        210.080918 [s]
    Overhead                          0.300373 [s]

Property sampling:                    0.281210 [s]
Energy/pressure sampling:             6.363463 [s]

Production simulation time:         370.450802 [s]
                All summed:         369.743635 [s]
                  Overhead:           0.707167 [s]


Initalization simulation time:       71.992265 [s]
Equilibration simulation time:        0.000000 [s]
Production simulation time:         370.450802 [s]
Total simulation time:              442.443067 [s]


Energy averages and statistics:
===============================================================================

Framework-molecule energy:
-------------------------------------------------------------------------------



Framework-molecule energy contributions per energy type:
-------------------------------------------------------------------------------



Inter-molecular energy:
-------------------------------------------------------------------------------

    Inter-molecular energy/kʙ 0-0 [CO2-CO2]:
    ---------------------------------------------------------------------------
        Block[  0] -3.074850e+05
        Block[  1] -3.025819e+05
        Block[  2] -3.062169e+05
        Block[  3] -3.162099e+05
        Block[  4] -3.049721e+05
        -----------------------------------------------------------------------
        Average  -3.074932e+05 +/-  6.453403e+03 [K]



Inter-molecular energy contributions per energy type:
-------------------------------------------------------------------------------

    Van der Waals energy/kʙ 0-0 [CO2-CO2]:
    ---------------------------------------------------------------------------
        Block[  0] -2.234301e+05
        Block[  1] -2.200674e+05
        Block[  2] -2.223803e+05
        Block[  3] -2.282798e+05
        Block[  4] -2.206432e+05
        -----------------------------------------------------------------------
        Average  -2.229601e+05 +/-  4.051037e+03 [K]

    VDW Tail-Correction energy/kʙ 0-0 [CO2-CO2]:
    ---------------------------------------------------------------------------
        Block[  0] -5.441103e+03
        Block[  1] -5.348050e+03
        Block[  2] -5.409367e+03
        Block[  3] -5.546580e+03
        Block[  4] -5.378515e+03
        -----------------------------------------------------------------------
        Average  -5.424723e+03 +/-  9.488723e+01 [K]

    Coulomb Real energy/kʙ 0-0 [CO2-CO2]:
    ---------------------------------------------------------------------------
        Block[  0] -7.177369e+04
        Block[  1] -7.043290e+04
        Block[  2] -7.178763e+04
        Block[  3] -7.534425e+04
        Block[  4] -7.218369e+04
        -----------------------------------------------------------------------
        Average  -7.230443e+04 +/-  2.264311e+03 [K]

    Coulomb Fourier energy/kʙ 0-0 [CO2-CO2]:
    ---------------------------------------------------------------------------
        Block[  0] -6.840155e+03
        Block[  1] -6.733569e+03
        Block[  2] -6.639662e+03
        Block[  3] -7.039282e+03
        Block[  4] -6.766684e+03
        -----------------------------------------------------------------------
        Average  -6.803870e+03 +/-  1.862452e+02 [K]


Total energy/kʙ
-------------------------------------------------------------------------------
    Block[  0] -3.074850e+05
    Block[  1] -3.025819e+05
    Block[  2] -3.062169e+05
    Block[  3] -3.162099e+05
    Block[  4] -3.049721e+05
    ---------------------------------------------------------------------------
    Average  -3.074932e+05 +/-  6.453403e+03 [K]

Pressure averages and statistics:
===============================================================================

Average pressure tensor: 
-------------------------------------------------------------------------------
 1.2359e+02 -2.7523e+01  1.7228e+01 +/- 3.6448e+01 3.0882e+01 4.1817e+01 [bar]
-2.7523e+01  1.5263e+02  1.7373e+01 +/- 3.0882e+01 4.6830e+01 6.6032e+01 [bar]
 1.7228e+01  1.7373e+01  6.9212e+01 +/- 4.1817e+01 6.6032e+01 6.1153e+01 [bar]

    Block[  0]  5.056945e+07
    Block[  1]  4.970013e+07
    Block[  2]  5.029315e+07
    Block[  3]  5.157105e+07
    Block[  4]  4.996633e+07
    ---------------------------------------------------------------------------
    Ideal gas pressure   5.042002e+07 +/-  5.400748e-02 [Pa]
                         5.042002e+02 +/-  8.968159e+00 [bar]


    Block[  0] -3.813162e+07
    Block[  1] -3.700034e+07
    Block[  2] -3.806092e+07
    Block[  3] -4.157967e+07
    Block[  4] -3.975495e+07
    ---------------------------------------------------------------------------
    Excess pressure  -3.890550e+07 +/-  2.222066e+06 [Pa]
                     -3.890550e+02 +/-  2.222066e+01 [bar]


    Block[  0]  1.243783e+07
    Block[  1]  1.269980e+07
    Block[  2]  1.223223e+07
    Block[  3]  9.991380e+06
    Block[  4]  1.021138e+07
    ---------------------------------------------------------------------------
    Pressure average   1.151452e+07 +/-  1.617555e+06 [Pa]
                       1.151452e+02 +/-  1.617555e+01 [bar]


Enthalpy of adsorption
===============================================================================

No fluctuating components present.


Densities
===============================================================================

Component 0 (CO2)
    Block[  0] 200
    Block[  1] 200
    Block[  2] 200
    Block[  3] 200
    Block[  4] 200
    -----------------------------------------------------------------------
    Density average   2.000000e+02 +/-  0.000000e+00 [molecules]
    Density average   1.460762e-02 +/-  2.598242e-04 [molec/A^3]
    Density average   1.067257e+03 +/-  1.898320e+01 [kg.m⁻³]

