Compiler and run-time data
===============================================================================
RASPA 3.0.4

Random seed: 3307704981

Compiled as a 64-bits application
Compiler: gcc Ubuntu Clang 18.1.3 (1ubuntu1)
Compile Date = Mar 15 2025, Compile Time = 19:39:45

2025-06-02 14:17:00.099360
Simulation started on Mon, Jun 02
The start time was 14:17:00

Hostname:    c062
OS type:     Linux on x86_64
OS release:  6.8.0-58-generic
OS version:  #60-Ubuntu SMP PREEMPT_DYNAMIC Fri Mar 14 18:29:48 UTC 2025


Mutual consistent basic set of units:
===============================================================================

Unit of temperature: 1 [K]
Unit of length:      1e-10 [m]
Unit of time:        1e-12 [s]
Unit of mass:        1.6605402e-27 [kg]
Unit of charge:      1.60217733e-19 [C/particle]


Boltzmann constant (internal units):          0.8314464919307584 [-]
represents conversion from energy (internal units) to temperature (in Kelvin)

Derived units and their conversion factors:
===============================================================================

Unit of energy:                           1.6605402000000002e-23 [J]
Unit of energy:                           10.000008872307538 [J.mol⁻¹]
Unit of velocity:                         100 [m.s⁻¹]
Unit of force:                            1.6605402000000002e-13 [N]
Unit of diffusion:                        1.0000000000000002e-08 [m².s⁻¹]
Unit of acceleration:                     1.0000000000000002e-08 [m².s⁻¹]
Unit of torque:                           1.6605402000000002e-23 [N.m]
Unit of pressure:                         16605402 [Pa]
Unit of volume:                           1e-30 [m³]
Unit of density:                          1660.5402 [kg.m⁻³]
Unit of dynamic viscosity:                1.6605401999999997e-05 [N.s.m⁻²]
Unit of enthalpy:                         1.6605402000000002e-23 [J]
Unit of polarizability:                   1.5458657349975198e-35 [-]
Unit of Coulomb potential:                167101.08000665612 [K]
Unit of dielectric constant:              1.5458657349975193e-05 [s².C².kg⁻¹.m⁻³]
Unit of dipole moment:                    1.60217733e-29 [C.m]
Unit of Debye:                            4.803206799099162 [C.m]
Unit of electric potential:               0.00010364272224473431 [V]
Unit of electric field:                   1036427.222447343 [V.m⁻¹]
Unit of isothermal compressibility:       6.02213665167516e-08 [Pa⁻¹]
Unit of heat capacity:                    10.000008872307538 [J.mol⁻¹.K⁻¹]
Unit of volumetric expansion coefficient: 1 [K⁻¹]


Internal conversion factors:
===============================================================================

Energy (internal units) to Kelvin:      1.202724284692786 [-]
Kelvin to energy (internal units):      0.8314457542157567 [-]


System definitions
===============================================================================

Temperature:          250 [K]
Beta:                 0.0048108928702210625 [-]
Pressure:             2e+07 [Pa]
Helium void fraction: 1 [-]

Box:      30.00000   0.00000   0.00000
           0.00000  30.00000   0.00000
           0.00000   0.00000  30.00000
Lengths:  30.00000  30.00000  30.00000
Angles:   90.00000  90.00000  90.00000
Rectangular boundary conditions



Property measurement settings
===============================================================================




Pseudo-atoms
===============================================================================

  0 - C_co2    framework-atom: false
  1 - O_co2    framework-atom: false

  0 - C_co2    mass: 12.00000, charge:  0.70000
  1 - O_co2    mass: 15.99940, charge: -0.35000

  0 - C_co2    polarizability:  0.00000
  1 - O_co2    polarizability:  0.00000

  0 - J. J. Potoff et al., AIChE J. 2001, 47, 1676–1682.
  1 - J. J. Potoff et al., AIChE J. 2001, 47, 1676–1682.

Force field status
===============================================================================

Cutoff Framework-Molecule VDW:  10.00000 [Å]
Cutoff Molecule-Molecule VDW:   10.00000 [Å]
Cutoff Coulomb:                 10.00000 [Å]

Overlap-criteria VDW:           1.000000e+05 [K]

C_co2    - C_co2    Lennard-Jones p₀/kʙ:  27.00000 [K], p₁:  2.80000 [Å]
                                  shift:   0.00000 [K], tailcorrections: true
C_co2    - O_co2    Lennard-Jones p₀/kʙ:  46.18441 [K], p₁:  2.92500 [Å]
                                  shift:   0.00000 [K], tailcorrections: true
O_co2    - O_co2    Lennard-Jones p₀/kʙ:  79.00000 [K], p₁:  3.05000 [Å]
                                  shift:   0.00000 [K], tailcorrections: true

Ewald precision: 1e-06
Ewald alpha: 0.32079885109097883
Ewald k-vectors: 10 10 10


Component definitions
===============================================================================

Component 0 [CO2]

    Type: Adsorbate

    Critical temperature:  304.1282 [K]
    Critical pressure:     7377300 [Pa]
    Acentric factor:       0.22394 [-]

    Mol-fraction:                 1 [-]
    Swappable:                   false

    Mass:                         43.9988 [-]
    Bulk fluid density:           0 [-]
    Compressibility:              0 [-]
    Excess molecules:             0 [-]

    Number Of Atoms:    3
    CBMC starting bead: 0
      0: O_co2  position  0.00000 -0.00000  1.16000, charge -0.35000
      1: C_co2  position  0.00000 -0.00000  0.00000, charge  0.70000
      2: O_co2  position  0.00000 -0.00000 -1.16000, charge -0.35000
    Diagonalized inertia-vector:      43.05758528 43.05758528 0.00000000
    Translational degrees of freedom: 3
    Rotational degrees of freedom:    2
    Shape of the molecule is: 'Linear'
    Net-charge:        0.00000000 [e]

    Move probabilities:
    Translation:                   0.331126 [-]
    Random translation:            0.000000 [-]
    Rotation:                      0.331126 [-]
    Random rotation:               0.000000 [-]
    Volume change:                 0.006623 [-]
    Reinsertion (CBMC):            0.331126 [-]
    Identity change (CBMC):        0.000000 [-]
    Swap:                          0.000000 [-]
    Swap (CBMC):                   0.000000 [-]
    Swap (CFCMC):                  0.000000 [-]
    Swap (CB/CFCMC):               0.000000 [-]
    Gibbs volume:                  0.000000 [-]
    Gibbs swap (CBMC):             0.000000 [-]
    Gibbs swap (CFCMC):            0.000000 [-]
    Widom:                         0.000000 [-]
    Widom (CFCMC):                 0.000000 [-]
    Widom (CB/CFCMC):              0.000000 [-]
    Parallel tempering:            0.000000 [-]
    Hybrid MC:                     0.000000 [-]

    number of blocking-pockets: 0

    number of bonds: 0





Number of pseudo-atoms
===============================================================================

Component   0 (CO2)
-------------------------------------------------------------------------------
    index   0 (C_co2): 100 atoms
    index   1 (O_co2): 200 atoms

Total number of pseudo-atoms:
-------------------------------------------------------------------------------
    index   0 (C_co2): 100 atoms
    index   1 (O_co2): 200 atoms




Energy status Recomputed from scratch
===============================================================================

Total potential energy/kʙ       -4.134792e+03 [K]
    external field VDW/kʙ        0.000000e+00 [K]
    external field Real/kʙ       0.000000e+00 [K]
    framework-molecule VDW/kʙ    0.000000e+00 [K]
    framework-molecule Real/kʙ   0.000000e+00 [K]
    molecule-molecule VDW/kʙ    -5.412412e+02 [K]
    molecule-molecule Real/kʙ   -2.528339e+03 [K]
    Van der Waals (Tail)/kʙ     -1.188352e+03 [K]
    Ewald Fourier/kʙ             1.465399e+04 [K]
    Ewald self/kʙ               -2.222923e+06 [K]
    Ewald exclusion/kʙ           2.208392e+06 [K]
    intra VDW/kʙ                 0.000000e+00 [K]
    intra Coulombic/kʙ           0.000000e+00 [K]
    polarization/kʙ              0.000000e+00 [K]
    dU/dlambda VDW/kʙ            0.000000e+00 [K]
    dU/dlambda Real/kʙ           0.000000e+00 [K]
    dU/dlambda Ewald/kʙ          0.000000e+00 [K]





Initialization: Current cycle: 0 out of 1000
===============================================================================

Box:      30.00000   0.00000   0.00000
           0.00000  30.00000   0.00000
           0.00000   0.00000  30.00000
Lengths:  30.00000  30.00000  30.00000
Angles:   90.00000  90.00000  90.00000
Rectangular boundary conditions

net charge:   0.00000000

component   0 (CO2) lambda:  0 occupancy:  1 (1.000000)
    net charge:   0.00000000 [e]

Amount of molecules per component :
-------------------------------------------------------------------------------
Component 0 (CO2)
    molecules:         1.000000e+02 molecules
    number density:    3.703704e-03 molec/A^3
    density:           2.705989e+02 kg/m^3

Total potential energy/kʙ       -3.747447e+04 [K]
-------------------------------------------------------------------------------
    external field VDW/kʙ        0.000000e+00 [K]
    external field Real/kʙ       0.000000e+00 [K]
    framework-molecule VDW/kʙ    0.000000e+00 [K]
    framework-molecule Real/kʙ   0.000000e+00 [K]
    molecule-molecule VDW/kʙ    -3.115505e+04 [K]
    molecule-molecule Real/kʙ   -4.233331e+03 [K]
    Van der Waals (Tail)/kʙ     -1.188352e+03 [K]
    Ewald Fourier/kʙ             1.363311e+04 [K]
    Ewald self/kʙ               -2.222923e+06 [K]
    Ewald exclusion/kʙ           2.208392e+06 [K]
    intra VDW/kʙ                 0.000000e+00 [K]
    intra Coulombic/kʙ           0.000000e+00 [K]
    polarization/kʙ              0.000000e+00 [K]
    dU/dlambda VDW/kʙ            0.000000e+00 [K]
    dU/dlambda Real/kʙ           0.000000e+00 [K]
    dU/dlambda Ewald/kʙ          0.000000e+00 [K]


Initialization: Current cycle: 100 out of 1000
===============================================================================

Box:      26.16318   0.00000   0.00000
           0.00000  26.16318   0.00000
           0.00000   0.00000  26.16318
Lengths:  26.16318  26.16318  26.16318
Angles:   90.00000  90.00000  90.00000
Rectangular boundary conditions

net charge:   0.00000000

component   0 (CO2) lambda:  0 occupancy:  1 (1.000000)
    net charge:   0.00000000 [e]

Amount of molecules per component :
-------------------------------------------------------------------------------
Component 0 (CO2)
    molecules:         1.000000e+02 molecules
    number density:    5.583784e-03 molec/A^3
    density:           4.079608e+02 kg/m^3

Total potential energy/kʙ       -6.989915e+04 [K]
-------------------------------------------------------------------------------
    external field VDW/kʙ        0.000000e+00 [K]
    external field Real/kʙ       0.000000e+00 [K]
    framework-molecule VDW/kʙ    0.000000e+00 [K]
    framework-molecule Real/kʙ   0.000000e+00 [K]
    molecule-molecule VDW/kʙ    -5.142217e+04 [K]
    molecule-molecule Real/kʙ   -1.339550e+04 [K]
    Van der Waals (Tail)/kʙ     -1.791585e+03 [K]
    Ewald Fourier/kʙ             1.124095e+04 [K]
    Ewald self/kʙ               -2.222923e+06 [K]
    Ewald exclusion/kʙ           2.208392e+06 [K]
    intra VDW/kʙ                 0.000000e+00 [K]
    intra Coulombic/kʙ           0.000000e+00 [K]
    polarization/kʙ              0.000000e+00 [K]
    dU/dlambda VDW/kʙ            0.000000e+00 [K]
    dU/dlambda Real/kʙ           0.000000e+00 [K]
    dU/dlambda Ewald/kʙ          0.000000e+00 [K]


Initialization: Current cycle: 200 out of 1000
===============================================================================

Box:      23.54601   0.00000   0.00000
           0.00000  23.54601   0.00000
           0.00000   0.00000  23.54601
Lengths:  23.54601  23.54601  23.54601
Angles:   90.00000  90.00000  90.00000
Rectangular boundary conditions

net charge:   0.00000000

component   0 (CO2) lambda:  0 occupancy:  1 (1.000000)
    net charge:   0.00000000 [e]

Amount of molecules per component :
-------------------------------------------------------------------------------
Component 0 (CO2)
    molecules:         1.000000e+02 molecules
    number density:    7.660340e-03 molec/A^3
    density:           5.596775e+02 kg/m^3

Total potential energy/kʙ       -9.026167e+04 [K]
-------------------------------------------------------------------------------
    external field VDW/kʙ        0.000000e+00 [K]
    external field Real/kʙ       0.000000e+00 [K]
    framework-molecule VDW/kʙ    0.000000e+00 [K]
    framework-molecule Real/kʙ   0.000000e+00 [K]
    molecule-molecule VDW/kʙ    -6.217623e+04 [K]
    molecule-molecule Real/kʙ   -2.131204e+04 [K]
    Van der Waals (Tail)/kʙ     -2.457858e+03 [K]
    Ewald Fourier/kʙ             1.021531e+04 [K]
    Ewald self/kʙ               -2.222923e+06 [K]
    Ewald exclusion/kʙ           2.208392e+06 [K]
    intra VDW/kʙ                 0.000000e+00 [K]
    intra Coulombic/kʙ           0.000000e+00 [K]
    polarization/kʙ              0.000000e+00 [K]
    dU/dlambda VDW/kʙ            0.000000e+00 [K]
    dU/dlambda Real/kʙ           0.000000e+00 [K]
    dU/dlambda Ewald/kʙ          0.000000e+00 [K]


Initialization: Current cycle: 300 out of 1000
===============================================================================

Box:      21.90181   0.00000   0.00000
           0.00000  21.90181   0.00000
           0.00000   0.00000  21.90181
Lengths:  21.90181  21.90181  21.90181
Angles:   90.00000  90.00000  90.00000
Rectangular boundary conditions

net charge:   0.00000000

component   0 (CO2) lambda:  0 occupancy:  1 (1.000000)
    net charge:   0.00000000 [e]

Amount of molecules per component :
-------------------------------------------------------------------------------
Component 0 (CO2)
    molecules:         1.000000e+02 molecules
    number density:    9.518316e-03 molec/A^3
    density:           6.954244e+02 kg/m^3

Total potential energy/kʙ       -1.024692e+05 [K]
-------------------------------------------------------------------------------
    external field VDW/kʙ        0.000000e+00 [K]
    external field Real/kʙ       0.000000e+00 [K]
    framework-molecule VDW/kʙ    0.000000e+00 [K]
    framework-molecule Real/kʙ   0.000000e+00 [K]
    molecule-molecule VDW/kʙ    -7.602256e+04 [K]
    molecule-molecule Real/kʙ   -1.752422e+04 [K]
    Van der Waals (Tail)/kʙ     -3.053998e+03 [K]
    Ewald Fourier/kʙ             8.662459e+03 [K]
    Ewald self/kʙ               -2.222923e+06 [K]
    Ewald exclusion/kʙ           2.208392e+06 [K]
    intra VDW/kʙ                 0.000000e+00 [K]
    intra Coulombic/kʙ           0.000000e+00 [K]
    polarization/kʙ              0.000000e+00 [K]
    dU/dlambda VDW/kʙ            0.000000e+00 [K]
    dU/dlambda Real/kʙ           0.000000e+00 [K]
    dU/dlambda Ewald/kʙ          0.000000e+00 [K]


Initialization: Current cycle: 400 out of 1000
===============================================================================

Box:      19.75324   0.00000   0.00000
           0.00000  19.75324   0.00000
           0.00000   0.00000  19.75324
Lengths:  19.75324  19.75324  19.75324
Angles:   90.00000  90.00000  90.00000
Rectangular boundary conditions

net charge:   0.00000000

component   0 (CO2) lambda:  0 occupancy:  1 (1.000000)
    net charge:   0.00000000 [e]

Amount of molecules per component :
-------------------------------------------------------------------------------
Component 0 (CO2)
    molecules:         1.000000e+02 molecules
    number density:    1.297433e-02 molec/A^3
    density:           9.479264e+02 kg/m^3

Total potential energy/kʙ       -1.289394e+05 [K]
-------------------------------------------------------------------------------
    external field VDW/kʙ        0.000000e+00 [K]
    external field Real/kʙ       0.000000e+00 [K]
    framework-molecule VDW/kʙ    0.000000e+00 [K]
    framework-molecule Real/kʙ   0.000000e+00 [K]
    molecule-molecule VDW/kʙ    -9.577445e+04 [K]
    molecule-molecule Real/kʙ   -2.359746e+04 [K]
    Van der Waals (Tail)/kʙ     -4.162876e+03 [K]
    Ewald Fourier/kʙ             9.126213e+03 [K]
    Ewald self/kʙ               -2.222923e+06 [K]
    Ewald exclusion/kʙ           2.208392e+06 [K]
    intra VDW/kʙ                 0.000000e+00 [K]
    intra Coulombic/kʙ           0.000000e+00 [K]
    polarization/kʙ              0.000000e+00 [K]
    dU/dlambda VDW/kʙ            0.000000e+00 [K]
    dU/dlambda Real/kʙ           0.000000e+00 [K]
    dU/dlambda Ewald/kʙ          0.000000e+00 [K]


Initialization: Current cycle: 500 out of 1000
===============================================================================

Box:      19.28411   0.00000   0.00000
           0.00000  19.28411   0.00000
           0.00000   0.00000  19.28411
Lengths:  19.28411  19.28411  19.28411
Angles:   90.00000  90.00000  90.00000
Rectangular boundary conditions

net charge:   0.00000000

component   0 (CO2) lambda:  0 occupancy:  1 (1.000000)
    net charge:   0.00000000 [e]

Amount of molecules per component :
-------------------------------------------------------------------------------
Component 0 (CO2)
    molecules:         1.000000e+02 molecules
    number density:    1.394445e-02 molec/A^3
    density:           1.018806e+03 kg/m^3

Total potential energy/kʙ       -1.452340e+05 [K]
-------------------------------------------------------------------------------
    external field VDW/kʙ        0.000000e+00 [K]
    external field Real/kʙ       0.000000e+00 [K]
    framework-molecule VDW/kʙ    0.000000e+00 [K]
    framework-molecule Real/kʙ   0.000000e+00 [K]
    molecule-molecule VDW/kʙ    -1.046756e+05 [K]
    molecule-molecule Real/kʙ   -2.941477e+04 [K]
    Van der Waals (Tail)/kʙ     -4.474146e+03 [K]
    Ewald Fourier/kʙ             7.861441e+03 [K]
    Ewald self/kʙ               -2.222923e+06 [K]
    Ewald exclusion/kʙ           2.208392e+06 [K]
    intra VDW/kʙ                 0.000000e+00 [K]
    intra Coulombic/kʙ           0.000000e+00 [K]
    polarization/kʙ              0.000000e+00 [K]
    dU/dlambda VDW/kʙ            0.000000e+00 [K]
    dU/dlambda Real/kʙ           0.000000e+00 [K]
    dU/dlambda Ewald/kʙ          0.000000e+00 [K]


Initialization: Current cycle: 600 out of 1000
===============================================================================

Box:      19.03189   0.00000   0.00000
           0.00000  19.03189   0.00000
           0.00000   0.00000  19.03189
Lengths:  19.03189  19.03189  19.03189
Angles:   90.00000  90.00000  90.00000
Rectangular boundary conditions

net charge:   0.00000000

component   0 (CO2) lambda:  0 occupancy:  1 (1.000000)
    net charge:   0.00000000 [e]

Amount of molecules per component :
-------------------------------------------------------------------------------
Component 0 (CO2)
    molecules:         1.000000e+02 molecules
    number density:    1.450623e-02 molec/A^3
    density:           1.059850e+03 kg/m^3

Total potential energy/kʙ       -1.456593e+05 [K]
-------------------------------------------------------------------------------
    external field VDW/kʙ        0.000000e+00 [K]
    external field Real/kʙ       0.000000e+00 [K]
    framework-molecule VDW/kʙ    0.000000e+00 [K]
    framework-molecule Real/kʙ   0.000000e+00 [K]
    molecule-molecule VDW/kʙ    -1.088125e+05 [K]
    molecule-molecule Real/kʙ   -2.586970e+04 [K]
    Van der Waals (Tail)/kʙ     -4.654395e+03 [K]
    Ewald Fourier/kʙ             8.208158e+03 [K]
    Ewald self/kʙ               -2.222923e+06 [K]
    Ewald exclusion/kʙ           2.208392e+06 [K]
    intra VDW/kʙ                 0.000000e+00 [K]
    intra Coulombic/kʙ           0.000000e+00 [K]
    polarization/kʙ              0.000000e+00 [K]
    dU/dlambda VDW/kʙ            0.000000e+00 [K]
    dU/dlambda Real/kʙ           0.000000e+00 [K]
    dU/dlambda Ewald/kʙ          0.000000e+00 [K]


Initialization: Current cycle: 700 out of 1000
===============================================================================

Box:      19.11741   0.00000   0.00000
           0.00000  19.11741   0.00000
           0.00000   0.00000  19.11741
Lengths:  19.11741  19.11741  19.11741
Angles:   90.00000  90.00000  90.00000
Rectangular boundary conditions

net charge:   0.00000000

component   0 (CO2) lambda:  0 occupancy:  1 (1.000000)
    net charge:   0.00000000 [e]

Amount of molecules per component :
-------------------------------------------------------------------------------
Component 0 (CO2)
    molecules:         1.000000e+02 molecules
    number density:    1.431241e-02 molec/A^3
    density:           1.045689e+03 kg/m^3

Total potential energy/kʙ       -1.540224e+05 [K]
-------------------------------------------------------------------------------
    external field VDW/kʙ        0.000000e+00 [K]
    external field Real/kʙ       0.000000e+00 [K]
    framework-molecule VDW/kʙ    0.000000e+00 [K]
    framework-molecule Real/kʙ   0.000000e+00 [K]
    molecule-molecule VDW/kʙ    -1.090015e+05 [K]
    molecule-molecule Real/kʙ   -3.270801e+04 [K]
    Van der Waals (Tail)/kʙ     -4.592208e+03 [K]
    Ewald Fourier/kʙ             6.810173e+03 [K]
    Ewald self/kʙ               -2.222923e+06 [K]
    Ewald exclusion/kʙ           2.208392e+06 [K]
    intra VDW/kʙ                 0.000000e+00 [K]
    intra Coulombic/kʙ           0.000000e+00 [K]
    polarization/kʙ              0.000000e+00 [K]
    dU/dlambda VDW/kʙ            0.000000e+00 [K]
    dU/dlambda Real/kʙ           0.000000e+00 [K]
    dU/dlambda Ewald/kʙ          0.000000e+00 [K]


Initialization: Current cycle: 800 out of 1000
===============================================================================

Box:      19.24250   0.00000   0.00000
           0.00000  19.24250   0.00000
           0.00000   0.00000  19.24250
Lengths:  19.24250  19.24250  19.24250
Angles:   90.00000  90.00000  90.00000
Rectangular boundary conditions

net charge:   0.00000000

component   0 (CO2) lambda:  0 occupancy:  1 (1.000000)
    net charge:   0.00000000 [e]

Amount of molecules per component :
-------------------------------------------------------------------------------
Component 0 (CO2)
    molecules:         1.000000e+02 molecules
    number density:    1.403510e-02 molec/A^3
    density:           1.025429e+03 kg/m^3

Total potential energy/kʙ       -1.500040e+05 [K]
-------------------------------------------------------------------------------
    external field VDW/kʙ        0.000000e+00 [K]
    external field Real/kʙ       0.000000e+00 [K]
    framework-molecule VDW/kʙ    0.000000e+00 [K]
    framework-molecule Real/kʙ   0.000000e+00 [K]
    molecule-molecule VDW/kʙ    -1.054730e+05 [K]
    molecule-molecule Real/kʙ   -3.242758e+04 [K]
    Van der Waals (Tail)/kʙ     -4.503232e+03 [K]
    Ewald Fourier/kʙ             6.930610e+03 [K]
    Ewald self/kʙ               -2.222923e+06 [K]
    Ewald exclusion/kʙ           2.208392e+06 [K]
    intra VDW/kʙ                 0.000000e+00 [K]
    intra Coulombic/kʙ           0.000000e+00 [K]
    polarization/kʙ              0.000000e+00 [K]
    dU/dlambda VDW/kʙ            0.000000e+00 [K]
    dU/dlambda Real/kʙ           0.000000e+00 [K]
    dU/dlambda Ewald/kʙ          0.000000e+00 [K]


Initialization: Current cycle: 900 out of 1000
===============================================================================

Box:      19.04379   0.00000   0.00000
           0.00000  19.04379   0.00000
           0.00000   0.00000  19.04379
Lengths:  19.04379  19.04379  19.04379
Angles:   90.00000  90.00000  90.00000
Rectangular boundary conditions

net charge:   0.00000000

component   0 (CO2) lambda:  0 occupancy:  1 (1.000000)
    net charge:   0.00000000 [e]

Amount of molecules per component :
-------------------------------------------------------------------------------
Component 0 (CO2)
    molecules:         1.000000e+02 molecules
    number density:    1.447904e-02 molec/A^3
    density:           1.057864e+03 kg/m^3

Total potential energy/kʙ       -1.528851e+05 [K]
-------------------------------------------------------------------------------
    external field VDW/kʙ        0.000000e+00 [K]
    external field Real/kʙ       0.000000e+00 [K]
    framework-molecule VDW/kʙ    0.000000e+00 [K]
    framework-molecule Real/kʙ   0.000000e+00 [K]
    molecule-molecule VDW/kʙ    -1.106259e+05 [K]
    molecule-molecule Real/kʙ   -3.093620e+04 [K]
    Van der Waals (Tail)/kʙ     -4.645672e+03 [K]
    Ewald Fourier/kʙ             7.853481e+03 [K]
    Ewald self/kʙ               -2.222923e+06 [K]
    Ewald exclusion/kʙ           2.208392e+06 [K]
    intra VDW/kʙ                 0.000000e+00 [K]
    intra Coulombic/kʙ           0.000000e+00 [K]
    polarization/kʙ              0.000000e+00 [K]
    dU/dlambda VDW/kʙ            0.000000e+00 [K]
    dU/dlambda Real/kʙ           0.000000e+00 [K]
    dU/dlambda Ewald/kʙ          0.000000e+00 [K]


Current cycle: 0 out of 5000
===============================================================================

Box:      18.84907   0.00000   0.00000  Average:  18.84907   0.00000   0.00000
           0.00000  18.84907   0.00000             0.00000  18.84907   0.00000
           0.00000   0.00000  18.84907             0.00000   0.00000  18.84907
Lengths:  18.84907  18.84907  18.84907  Average:  18.84907  18.84907  18.84907
Angles:   90.00000  90.00000  90.00000  Average:  90.00000  90.00000  90.00000
Rectangular boundary conditions

net charge:   0.00000000

component 0 (CO2) lambda:  0 occupancy:  1 (1.000000)
    net charge:   0.00000000 [e]

Amount of molecules per component :
-------------------------------------------------------------------------------
Component 0 (CO2)
    molecules:      1.000000e+02 molecules  (1.000000e+02 +/- 0.000000e+00)
    number density: 1.493241e-02 molec./A^3 (1.493241e-02 +/- 0.000000e+00)
    density:        1.090988e+03 kg/m^3     (1.090988e+03 +/- 0.000000e+00)

Average pressure tensor: 
-------------------------------------------------------------------------------
 5.1541e+02  0.0000e+00  0.0000e+00 +/- 0.0000e+00 0.0000e+00 0.0000e+00 [bar]
 0.0000e+00  5.1541e+02  0.0000e+00 +/- 0.0000e+00 0.0000e+00 0.0000e+00 [bar]
 0.0000e+00  0.0000e+00  5.1541e+02 +/- 0.0000e+00 0.0000e+00 0.0000e+00 [bar]
Ideal-gas pressure:   5.154111e+02 +/ 0.000000e+00 [bar]
Excess pressure:      0.000000e+00 +/ 0.000000e+00 [bar]
Pressure:             5.154111e+02 +/ 0.000000e+00 [bar]

Total potential energy/kʙ  -1.552810e+05 (-1.552810e+05 +/- 0.000000e+00) [K]
-------------------------------------------------------------------------------
ExternalField-molecule
    Van der Waals/kʙ        0.000000e+00 ( 0.000000e+00 +/- 0.000000e+00) [K]
Framework-molecule
    Van der Waals/kʙ        0.000000e+00 ( 0.000000e+00 +/- 0.000000e+00) [K]
    Van der Waals (Tail)/kʙ 0.000000e+00 ( 0.000000e+00 +/- 0.000000e+00) [K]
    Coulombic Real/kʙ       0.000000e+00 ( 0.000000e+00 +/- 0.000000e+00) [K]
    Coulombic Fourier/kʙ    0.000000e+00 ( 0.000000e+00 +/- 0.000000e+00) [K]
Molecule-molecule
    Van der Waals/kʙ       -1.146741e+05 (-1.146741e+05 +/- 0.000000e+00) [K]
    Van der Waals (Tail)/kʙ-4.791138e+03 (-4.791138e+03 +/- 0.000000e+00) [K]
    Coulombic Real/kʙ      -2.887712e+04 (-2.887712e+04 +/- 0.000000e+00) [K]
    Coulombic Fourier/kʙ   -6.938678e+03 (-6.938678e+03 +/- 0.000000e+00) [K]
    Molecule Intra/kʙ       0.000000e+00 ( 0.000000e+00 +/- 0.000000e+00) [K]

Current cycle: 100 out of 5000
===============================================================================

Box:      18.94808   0.00000   0.00000  Average:  18.88146   0.00000   0.00000
           0.00000  18.94808   0.00000             0.00000  18.88146   0.00000
           0.00000   0.00000  18.94808             0.00000   0.00000  18.88146
Lengths:  18.94808  18.94808  18.94808  Average:  18.88146  18.88146  18.88146
Angles:   90.00000  90.00000  90.00000  Average:  90.00000  90.00000  90.00000
Rectangular boundary conditions

net charge:   0.00000000

component 0 (CO2) lambda:  0 occupancy:  1 (1.000000)
    net charge:   0.00000000 [e]

Amount of molecules per component :
-------------------------------------------------------------------------------
Component 0 (CO2)
    molecules:      1.000000e+02 molecules  (1.000000e+02 +/- 0.000000e+00)
    number density: 1.469956e-02 molec./A^3 (1.485800e-02 +/- 0.000000e+00)
    density:        1.073975e+03 kg/m^3     (1.085551e+03 +/- 0.000000e+00)

Average pressure tensor: 
-------------------------------------------------------------------------------
 1.0878e+02  2.3821e+02  5.8581e+01 +/- 0.0000e+00 0.0000e+00 0.0000e+00 [bar]
 2.3821e+02  6.6568e+02 -1.3887e+02 +/- 0.0000e+00 0.0000e+00 0.0000e+00 [bar]
 5.8581e+01 -1.3887e+02  1.2804e+01 +/- 0.0000e+00 0.0000e+00 0.0000e+00 [bar]
Ideal-gas pressure:   5.128427e+02 +/ 0.000000e+00 [bar]
Excess pressure:     -2.504221e+02 +/ 0.000000e+00 [bar]
Pressure:             2.624205e+02 +/ 0.000000e+00 [bar]

Total potential energy/kʙ  -1.527481e+05 (-1.546723e+05 +/- 0.000000e+00) [K]
-------------------------------------------------------------------------------
ExternalField-molecule
    Van der Waals/kʙ        0.000000e+00 ( 0.000000e+00 +/- 0.000000e+00) [K]
Framework-molecule
    Van der Waals/kʙ        0.000000e+00 ( 0.000000e+00 +/- 0.000000e+00) [K]
    Van der Waals (Tail)/kʙ 0.000000e+00 ( 0.000000e+00 +/- 0.000000e+00) [K]
    Coulombic Real/kʙ       0.000000e+00 ( 0.000000e+00 +/- 0.000000e+00) [K]
    Coulombic Fourier/kʙ    0.000000e+00 ( 0.000000e+00 +/- 0.000000e+00) [K]
Molecule-molecule
    Van der Waals/kʙ       -1.087970e+05 (-1.106642e+05 +/- 0.000000e+00) [K]
    Van der Waals (Tail)/kʙ-4.716427e+03 (-4.754457e+03 +/- 0.000000e+00) [K]
    Coulombic Real/kʙ      -3.165926e+04 (-3.153523e+04 +/- 0.000000e+00) [K]
    Coulombic Fourier/kʙ   -7.575430e+03 (-7.718451e+03 +/- 0.000000e+00) [K]
    Molecule Intra/kʙ       0.000000e+00 ( 0.000000e+00 +/- 0.000000e+00) [K]

Current cycle: 200 out of 5000
===============================================================================

Box:      18.82012   0.00000   0.00000  Average:  18.88395   0.00000   0.00000
           0.00000  18.82012   0.00000             0.00000  18.88395   0.00000
           0.00000   0.00000  18.82012             0.00000   0.00000  18.88395
Lengths:  18.82012  18.82012  18.82012  Average:  18.88395  18.88395  18.88395
Angles:   90.00000  90.00000  90.00000  Average:  90.00000  90.00000  90.00000
Rectangular boundary conditions

net charge:   0.00000000

component 0 (CO2) lambda:  0 occupancy:  1 (1.000000)
    net charge:   0.00000000 [e]

Amount of molecules per component :
-------------------------------------------------------------------------------
Component 0 (CO2)
    molecules:      1.000000e+02 molecules  (1.000000e+02 +/- 0.000000e+00)
    number density: 1.500144e-02 molec./A^3 (1.485210e-02 +/- 0.000000e+00)
    density:        1.096031e+03 kg/m^3     (1.085120e+03 +/- 0.000000e+00)

Average pressure tensor: 
-------------------------------------------------------------------------------
 4.3911e+01  1.5830e+02 -3.6471e+01 +/- 0.0000e+00 0.0000e+00 0.0000e+00 [bar]
 1.5830e+02  3.5092e+02  3.0073e+01 +/- 0.0000e+00 0.0000e+00 0.0000e+00 [bar]
-3.6471e+01  3.0073e+01  2.6822e+01 +/- 0.0000e+00 0.0000e+00 0.0000e+00 [bar]
Ideal-gas pressure:   5.126388e+02 +/ 0.000000e+00 [bar]
Excess pressure:     -3.720869e+02 +/ 0.000000e+00 [bar]
Pressure:             1.405519e+02 +/ 0.000000e+00 [bar]

Total potential energy/kʙ  -1.590783e+05 (-1.565694e+05 +/- 0.000000e+00) [K]
-------------------------------------------------------------------------------
ExternalField-molecule
    Van der Waals/kʙ        0.000000e+00 ( 0.000000e+00 +/- 0.000000e+00) [K]
Framework-molecule
    Van der Waals/kʙ        0.000000e+00 ( 0.000000e+00 +/- 0.000000e+00) [K]
    Van der Waals (Tail)/kʙ 0.000000e+00 ( 0.000000e+00 +/- 0.000000e+00) [K]
    Coulombic Real/kʙ       0.000000e+00 ( 0.000000e+00 +/- 0.000000e+00) [K]
    Coulombic Fourier/kʙ    0.000000e+00 ( 0.000000e+00 +/- 0.000000e+00) [K]
Molecule-molecule
    Van der Waals/kʙ       -1.130033e+05 (-1.114537e+05 +/- 0.000000e+00) [K]
    Van der Waals (Tail)/kʙ-4.813284e+03 (-4.760027e+03 +/- 0.000000e+00) [K]
    Coulombic Real/kʙ      -3.332099e+04 (-3.247907e+04 +/- 0.000000e+00) [K]
    Coulombic Fourier/kʙ   -7.940665e+03 (-7.876566e+03 +/- 0.000000e+00) [K]
    Molecule Intra/kʙ       0.000000e+00 ( 0.000000e+00 +/- 0.000000e+00) [K]

Current cycle: 300 out of 5000
===============================================================================

Box:      19.03094   0.00000   0.00000  Average:  18.89400   0.00000   0.00000
           0.00000  19.03094   0.00000             0.00000  18.89400   0.00000
           0.00000   0.00000  19.03094             0.00000   0.00000  18.89400
Lengths:  19.03094  19.03094  19.03094  Average:  18.89400  18.89400  18.89400
Angles:   90.00000  90.00000  90.00000  Average:  90.00000  90.00000  90.00000
Rectangular boundary conditions

net charge:   0.00000000

component 0 (CO2) lambda:  0 occupancy:  1 (1.000000)
    net charge:   0.00000000 [e]

Amount of molecules per component :
-------------------------------------------------------------------------------
Component 0 (CO2)
    molecules:      1.000000e+02 molecules  (1.000000e+02 +/- 0.000000e+00)
    number density: 1.450840e-02 molec./A^3 (1.482815e-02 +/- 0.000000e+00)
    density:        1.060008e+03 kg/m^3     (1.083370e+03 +/- 0.000000e+00)

Average pressure tensor: 
-------------------------------------------------------------------------------
 1.7927e+02  1.4675e+02 -6.5173e+01 +/- 0.0000e+00 0.0000e+00 0.0000e+00 [bar]
 1.4675e+02  3.3623e+02 -5.1046e+01 +/- 0.0000e+00 0.0000e+00 0.0000e+00 [bar]
-6.5173e+01 -5.1046e+01 -4.7320e+01 +/- 0.0000e+00 0.0000e+00 0.0000e+00 [bar]
Ideal-gas pressure:   5.118122e+02 +/ 0.000000e+00 [bar]
Excess pressure:     -3.557496e+02 +/ 0.000000e+00 [bar]
Pressure:             1.560626e+02 +/ 0.000000e+00 [bar]

Total potential energy/kʙ  -1.573795e+05 (-1.566951e+05 +/- 0.000000e+00) [K]
-------------------------------------------------------------------------------
ExternalField-molecule
    Van der Waals/kʙ        0.000000e+00 ( 0.000000e+00 +/- 0.000000e+00) [K]
Framework-molecule
    Van der Waals/kʙ        0.000000e+00 ( 0.000000e+00 +/- 0.000000e+00) [K]
    Van der Waals (Tail)/kʙ 0.000000e+00 ( 0.000000e+00 +/- 0.000000e+00) [K]
    Coulombic Real/kʙ       0.000000e+00 ( 0.000000e+00 +/- 0.000000e+00) [K]
    Coulombic Fourier/kʙ    0.000000e+00 ( 0.000000e+00 +/- 0.000000e+00) [K]
Molecule-molecule
    Van der Waals/kʙ       -1.110602e+05 (-1.110588e+05 +/- 0.000000e+00) [K]
    Van der Waals (Tail)/kʙ-4.655091e+03 (-4.755125e+03 +/- 0.000000e+00) [K]
    Coulombic Real/kʙ      -3.360685e+04 (-3.293886e+04 +/- 0.000000e+00) [K]
    Coulombic Fourier/kʙ   -8.057383e+03 (-7.942317e+03 +/- 0.000000e+00) [K]
    Molecule Intra/kʙ       0.000000e+00 ( 0.000000e+00 +/- 0.000000e+00) [K]

Current cycle: 400 out of 5000
===============================================================================

Box:      18.84041   0.00000   0.00000  Average:  18.88491   0.00000   0.00000
           0.00000  18.84041   0.00000             0.00000  18.88491   0.00000
           0.00000   0.00000  18.84041             0.00000   0.00000  18.88491
Lengths:  18.84041  18.84041  18.84041  Average:  18.88491  18.88491  18.88491
Angles:   90.00000  90.00000  90.00000  Average:  90.00000  90.00000  90.00000
Rectangular boundary conditions

net charge:   0.00000000

component 0 (CO2) lambda:  0 occupancy:  1 (1.000000)
    net charge:   0.00000000 [e]

Amount of molecules per component :
-------------------------------------------------------------------------------
Component 0 (CO2)
    molecules:      1.000000e+02 molecules  (1.000000e+02 +/- 0.000000e+00)
    number density: 1.495302e-02 molec./A^3 (1.484945e-02 +/- 0.000000e+00)
    density:        1.092493e+03 kg/m^3     (1.084927e+03 +/- 0.000000e+00)

Average pressure tensor: 
-------------------------------------------------------------------------------
 1.8058e+02  9.4434e+01 -9.4581e+01 +/- 0.0000e+00 0.0000e+00 0.0000e+00 [bar]
 9.4434e+01  3.1792e+02 -1.0687e+02 +/- 0.0000e+00 0.0000e+00 0.0000e+00 [bar]
-9.4581e+01 -1.0687e+02 -4.2155e+00 +/- 0.0000e+00 0.0000e+00 0.0000e+00 [bar]
Ideal-gas pressure:   5.125476e+02 +/ 0.000000e+00 [bar]
Excess pressure:     -3.477854e+02 +/ 0.000000e+00 [bar]
Pressure:             1.647622e+02 +/ 0.000000e+00 [bar]

Total potential energy/kʙ  -1.652909e+05 (-1.577997e+05 +/- 0.000000e+00) [K]
-------------------------------------------------------------------------------
ExternalField-molecule
    Van der Waals/kʙ        0.000000e+00 ( 0.000000e+00 +/- 0.000000e+00) [K]
Framework-molecule
    Van der Waals/kʙ        0.000000e+00 ( 0.000000e+00 +/- 0.000000e+00) [K]
    Van der Waals (Tail)/kʙ 0.000000e+00 ( 0.000000e+00 +/- 0.000000e+00) [K]
    Coulombic Real/kʙ       0.000000e+00 ( 0.000000e+00 +/- 0.000000e+00) [K]
    Coulombic Fourier/kʙ    0.000000e+00 ( 0.000000e+00 +/- 0.000000e+00) [K]
Molecule-molecule
    Van der Waals/kʙ       -1.127121e+05 (-1.112372e+05 +/- 0.000000e+00) [K]
    Van der Waals (Tail)/kʙ-4.797751e+03 (-4.764070e+03 +/- 0.000000e+00) [K]
    Coulombic Real/kʙ      -3.926887e+04 (-3.369313e+04 +/- 0.000000e+00) [K]
    Coulombic Fourier/kʙ   -8.512186e+03 (-8.105234e+03 +/- 0.000000e+00) [K]
    Molecule Intra/kʙ       0.000000e+00 ( 0.000000e+00 +/- 0.000000e+00) [K]

Current cycle: 500 out of 5000
===============================================================================

Box:      18.71233   0.00000   0.00000  Average:  18.85982   0.00000   0.00000
           0.00000  18.71233   0.00000             0.00000  18.85982   0.00000
           0.00000   0.00000  18.71233             0.00000   0.00000  18.85982
Lengths:  18.71233  18.71233  18.71233  Average:  18.85982  18.85982  18.85982
Angles:   90.00000  90.00000  90.00000  Average:  90.00000  90.00000  90.00000
Rectangular boundary conditions

net charge:   0.00000000

component 0 (CO2) lambda:  0 occupancy:  1 (1.000000)
    net charge:   0.00000000 [e]

Amount of molecules per component :
-------------------------------------------------------------------------------
Component 0 (CO2)
    molecules:      1.000000e+02 molecules  (1.000000e+02 +/- 0.000000e+00)
    number density: 1.526218e-02 molec./A^3 (1.490944e-02 +/- 0.000000e+00)
    density:        1.115081e+03 kg/m^3     (1.089309e+03 +/- 0.000000e+00)

Average pressure tensor: 
-------------------------------------------------------------------------------
 1.3317e+02  8.8907e+01 -1.5411e+02 +/- 0.0000e+00 0.0000e+00 0.0000e+00 [bar]
 8.8907e+01  3.0613e+02 -8.1676e+01 +/- 0.0000e+00 0.0000e+00 0.0000e+00 [bar]
-1.5411e+02 -8.1676e+01  4.7120e+01 +/- 0.0000e+00 0.0000e+00 0.0000e+00 [bar]
Ideal-gas pressure:   5.146182e+02 +/ 0.000000e+00 [bar]
Excess pressure:     -3.524794e+02 +/ 0.000000e+00 [bar]
Pressure:             1.621388e+02 +/ 0.000000e+00 [bar]

Total potential energy/kʙ  -1.603713e+05 (-1.582786e+05 +/- 0.000000e+00) [K]
-------------------------------------------------------------------------------
ExternalField-molecule
    Van der Waals/kʙ        0.000000e+00 ( 0.000000e+00 +/- 0.000000e+00) [K]
Framework-molecule
    Van der Waals/kʙ        0.000000e+00 ( 0.000000e+00 +/- 0.000000e+00) [K]
    Van der Waals (Tail)/kʙ 0.000000e+00 ( 0.000000e+00 +/- 0.000000e+00) [K]
    Coulombic Real/kʙ       0.000000e+00 ( 0.000000e+00 +/- 0.000000e+00) [K]
    Coulombic Fourier/kʙ    0.000000e+00 ( 0.000000e+00 +/- 0.000000e+00) [K]
Molecule-molecule
    Van der Waals/kʙ       -1.160154e+05 (-1.117548e+05 +/- 0.000000e+00) [K]
    Van der Waals (Tail)/kʙ-4.896946e+03 (-4.783316e+03 +/- 0.000000e+00) [K]
    Coulombic Real/kʙ      -3.163218e+04 (-3.361934e+04 +/- 0.000000e+00) [K]
    Coulombic Fourier/kʙ   -7.826804e+03 (-8.121129e+03 +/- 0.000000e+00) [K]
    Molecule Intra/kʙ       0.000000e+00 ( 0.000000e+00 +/- 0.000000e+00) [K]

Current cycle: 600 out of 5000
===============================================================================

Box:      18.70581   0.00000   0.00000  Average:  18.82623   0.00000   0.00000
           0.00000  18.70581   0.00000             0.00000  18.82623   0.00000
           0.00000   0.00000  18.70581             0.00000   0.00000  18.82623
Lengths:  18.70581  18.70581  18.70581  Average:  18.82623  18.82623  18.82623
Angles:   90.00000  90.00000  90.00000  Average:  90.00000  90.00000  90.00000
Rectangular boundary conditions

net charge:   0.00000000

component 0 (CO2) lambda:  0 occupancy:  1 (1.000000)
    net charge:   0.00000000 [e]

Amount of molecules per component :
-------------------------------------------------------------------------------
Component 0 (CO2)
    molecules:      1.000000e+02 molecules  (1.000000e+02 +/- 0.000000e+00)
    number density: 1.527813e-02 molec./A^3 (1.499063e-02 +/- 0.000000e+00)
    density:        1.116247e+03 kg/m^3     (1.095241e+03 +/- 0.000000e+00)

Average pressure tensor: 
-------------------------------------------------------------------------------
 1.5886e+02  7.6485e+01 -1.8622e+02 +/- 0.0000e+00 0.0000e+00 0.0000e+00 [bar]
 7.6485e+01  2.6702e+02 -7.0501e+01 +/- 0.0000e+00 0.0000e+00 0.0000e+00 [bar]
-1.8622e+02 -7.0501e+01  6.6223e+01 +/- 0.0000e+00 0.0000e+00 0.0000e+00 [bar]
Ideal-gas pressure:   5.174204e+02 +/ 0.000000e+00 [bar]
Excess pressure:     -3.533843e+02 +/ 0.000000e+00 [bar]
Pressure:             1.640361e+02 +/ 0.000000e+00 [bar]

Total potential energy/kʙ  -1.600018e+05 (-1.589926e+05 +/- 0.000000e+00) [K]
-------------------------------------------------------------------------------
ExternalField-molecule
    Van der Waals/kʙ        0.000000e+00 ( 0.000000e+00 +/- 0.000000e+00) [K]
Framework-molecule
    Van der Waals/kʙ        0.000000e+00 ( 0.000000e+00 +/- 0.000000e+00) [K]
    Van der Waals (Tail)/kʙ 0.000000e+00 ( 0.000000e+00 +/- 0.000000e+00) [K]
    Coulombic Real/kʙ       0.000000e+00 ( 0.000000e+00 +/- 0.000000e+00) [K]
    Coulombic Fourier/kʙ    0.000000e+00 ( 0.000000e+00 +/- 0.000000e+00) [K]
Molecule-molecule
    Van der Waals/kʙ       -1.139881e+05 (-1.123448e+05 +/- 0.000000e+00) [K]
    Van der Waals (Tail)/kʙ-4.902064e+03 (-4.807251e+03 +/- 0.000000e+00) [K]
    Coulombic Real/kʙ      -3.266077e+04 (-3.369160e+04 +/- 0.000000e+00) [K]
    Coulombic Fourier/kʙ   -8.450848e+03 (-8.148892e+03 +/- 0.000000e+00) [K]
    Molecule Intra/kʙ       0.000000e+00 ( 0.000000e+00 +/- 0.000000e+00) [K]

Current cycle: 700 out of 5000
===============================================================================

Box:      18.85092   0.00000   0.00000  Average:  18.82061   0.00000   0.00000
           0.00000  18.85092   0.00000             0.00000  18.82061   0.00000
           0.00000   0.00000  18.85092             0.00000   0.00000  18.82061
Lengths:  18.85092  18.85092  18.85092  Average:  18.82061  18.82061  18.82061
Angles:   90.00000  90.00000  90.00000  Average:  90.00000  90.00000  90.00000
Rectangular boundary conditions

net charge:   0.00000000

component 0 (CO2) lambda:  0 occupancy:  1 (1.000000)
    net charge:   0.00000000 [e]

Amount of molecules per component :
-------------------------------------------------------------------------------
Component 0 (CO2)
    molecules:      1.000000e+02 molecules  (1.000000e+02 +/- 0.000000e+00)
    number density: 1.492802e-02 molec./A^3 (1.500404e-02 +/- 0.000000e+00)
    density:        1.090666e+03 kg/m^3     (1.096221e+03 +/- 0.000000e+00)

Average pressure tensor: 
-------------------------------------------------------------------------------
 1.5113e+02  9.1195e+01 -1.5708e+02 +/- 0.0000e+00 0.0000e+00 0.0000e+00 [bar]
 9.1195e+01  2.8019e+02 -5.5789e+01 +/- 0.0000e+00 0.0000e+00 0.0000e+00 [bar]
-1.5708e+02 -5.5789e+01  4.1243e+01 +/- 0.0000e+00 0.0000e+00 0.0000e+00 [bar]
Ideal-gas pressure:   5.178835e+02 +/ 0.000000e+00 [bar]
Excess pressure:     -3.603638e+02 +/ 0.000000e+00 [bar]
Pressure:             1.575197e+02 +/ 0.000000e+00 [bar]

Total potential energy/kʙ  -1.568452e+05 (-1.592109e+05 +/- 0.000000e+00) [K]
-------------------------------------------------------------------------------
ExternalField-molecule
    Van der Waals/kʙ        0.000000e+00 ( 0.000000e+00 +/- 0.000000e+00) [K]
Framework-molecule
    Van der Waals/kʙ        0.000000e+00 ( 0.000000e+00 +/- 0.000000e+00) [K]
    Van der Waals (Tail)/kʙ 0.000000e+00 ( 0.000000e+00 +/- 0.000000e+00) [K]
    Coulombic Real/kʙ       0.000000e+00 ( 0.000000e+00 +/- 0.000000e+00) [K]
    Coulombic Fourier/kʙ    0.000000e+00 ( 0.000000e+00 +/- 0.000000e+00) [K]
Molecule-molecule
    Van der Waals/kʙ       -1.106855e+05 (-1.124477e+05 +/- 0.000000e+00) [K]
    Van der Waals (Tail)/kʙ-4.789727e+03 (-4.813617e+03 +/- 0.000000e+00) [K]
    Coulombic Real/kʙ      -3.366274e+04 (-3.373464e+04 +/- 0.000000e+00) [K]
    Coulombic Fourier/kʙ   -7.707199e+03 (-8.214965e+03 +/- 0.000000e+00) [K]
    Molecule Intra/kʙ       0.000000e+00 ( 0.000000e+00 +/- 0.000000e+00) [K]

Current cycle: 800 out of 5000
===============================================================================

Box:      19.08026   0.00000   0.00000  Average:  18.83817   0.00000   0.00000
           0.00000  19.08026   0.00000             0.00000  18.83817   0.00000
           0.00000   0.00000  19.08026             0.00000   0.00000  18.83817
Lengths:  19.08026  19.08026  19.08026  Average:  18.83817  18.83817  18.83817
Angles:   90.00000  90.00000  90.00000  Average:  90.00000  90.00000  90.00000
Rectangular boundary conditions

net charge:   0.00000000

component 0 (CO2) lambda:  0 occupancy:  1 (1.000000)
    net charge:   0.00000000 [e]

Amount of molecules per component :
-------------------------------------------------------------------------------
Component 0 (CO2)
    molecules:      1.000000e+02 molecules  (1.000000e+02 +/- 0.000000e+00)
    number density: 1.439618e-02 molec./A^3 (1.496249e-02 +/- 0.000000e+00)
    density:        1.051809e+03 kg/m^3     (1.093185e+03 +/- 0.000000e+00)

Average pressure tensor: 
-------------------------------------------------------------------------------
 1.5383e+02  3.5957e+01 -1.0481e+02 +/- 0.0000e+00 0.0000e+00 0.0000e+00 [bar]
 3.5957e+01  3.0963e+02 -6.9425e+01 +/- 0.0000e+00 0.0000e+00 0.0000e+00 [bar]
-1.0481e+02 -6.9425e+01  4.0290e+01 +/- 0.0000e+00 0.0000e+00 0.0000e+00 [bar]
Ideal-gas pressure:   5.164493e+02 +/ 0.000000e+00 [bar]
Excess pressure:     -3.485324e+02 +/ 0.000000e+00 [bar]
Pressure:             1.679169e+02 +/ 0.000000e+00 [bar]

Total potential energy/kʙ  -1.497006e+05 (-1.580813e+05 +/- 0.000000e+00) [K]
-------------------------------------------------------------------------------
ExternalField-molecule
    Van der Waals/kʙ        0.000000e+00 ( 0.000000e+00 +/- 0.000000e+00) [K]
Framework-molecule
    Van der Waals/kʙ        0.000000e+00 ( 0.000000e+00 +/- 0.000000e+00) [K]
    Van der Waals (Tail)/kʙ 0.000000e+00 ( 0.000000e+00 +/- 0.000000e+00) [K]
    Coulombic Real/kʙ       0.000000e+00 ( 0.000000e+00 +/- 0.000000e+00) [K]
    Coulombic Fourier/kʙ    0.000000e+00 ( 0.000000e+00 +/- 0.000000e+00) [K]
Molecule-molecule
    Van der Waals/kʙ       -1.071275e+05 (-1.119739e+05 +/- 0.000000e+00) [K]
    Van der Waals (Tail)/kʙ-4.619084e+03 (-4.797899e+03 +/- 0.000000e+00) [K]
    Coulombic Real/kʙ      -3.023890e+04 (-3.322788e+04 +/- 0.000000e+00) [K]
    Coulombic Fourier/kʙ   -7.715026e+03 (-8.081616e+03 +/- 0.000000e+00) [K]
    Molecule Intra/kʙ       0.000000e+00 ( 0.000000e+00 +/- 0.000000e+00) [K]

Current cycle: 900 out of 5000
===============================================================================

Box:      19.16893   0.00000   0.00000  Average:  18.86394   0.00000   0.00000
           0.00000  19.16893   0.00000             0.00000  18.86394   0.00000
           0.00000   0.00000  19.16893             0.00000   0.00000  18.86394
Lengths:  19.16893  19.16893  19.16893  Average:  18.86394  18.86394  18.86394
Angles:   90.00000  90.00000  90.00000  Average:  90.00000  90.00000  90.00000
Rectangular boundary conditions

net charge:   0.00000000

component 0 (CO2) lambda:  0 occupancy:  1 (1.000000)
    net charge:   0.00000000 [e]

Amount of molecules per component :
-------------------------------------------------------------------------------
Component 0 (CO2)
    molecules:      1.000000e+02 molecules  (1.000000e+02 +/- 0.000000e+00)
    number density: 1.419733e-02 molec./A^3 (1.490226e-02 +/- 0.000000e+00)
    density:        1.037281e+03 kg/m^3     (1.088785e+03 +/- 0.000000e+00)

Average pressure tensor: 
-------------------------------------------------------------------------------
 1.6152e+02  2.6465e+01 -9.3125e+01 +/- 0.0000e+00 0.0000e+00 0.0000e+00 [bar]
 2.6465e+01  2.8829e+02 -4.5665e+01 +/- 0.0000e+00 0.0000e+00 0.0000e+00 [bar]
-9.3125e+01 -4.5665e+01  2.5976e+01 +/- 0.0000e+00 0.0000e+00 0.0000e+00 [bar]
Ideal-gas pressure:   5.143704e+02 +/ 0.000000e+00 [bar]
Excess pressure:     -3.557773e+02 +/ 0.000000e+00 [bar]
Pressure:             1.585931e+02 +/ 0.000000e+00 [bar]

Total potential energy/kʙ  -1.503318e+05 (-1.574152e+05 +/- 0.000000e+00) [K]
-------------------------------------------------------------------------------
ExternalField-molecule
    Van der Waals/kʙ        0.000000e+00 ( 0.000000e+00 +/- 0.000000e+00) [K]
Framework-molecule
    Van der Waals/kʙ        0.000000e+00 ( 0.000000e+00 +/- 0.000000e+00) [K]
    Van der Waals (Tail)/kʙ 0.000000e+00 ( 0.000000e+00 +/- 0.000000e+00) [K]
    Coulombic Real/kʙ       0.000000e+00 ( 0.000000e+00 +/- 0.000000e+00) [K]
    Coulombic Fourier/kʙ    0.000000e+00 ( 0.000000e+00 +/- 0.000000e+00) [K]
Molecule-molecule
    Van der Waals/kʙ       -1.081670e+05 (-1.114843e+05 +/- 0.000000e+00) [K]
    Van der Waals (Tail)/kʙ-4.555283e+03 (-4.777370e+03 +/- 0.000000e+00) [K]
    Coulombic Real/kʙ      -2.964578e+04 (-3.308298e+04 +/- 0.000000e+00) [K]
    Coulombic Fourier/kʙ   -7.963778e+03 (-8.070505e+03 +/- 0.000000e+00) [K]
    Molecule Intra/kʙ       0.000000e+00 ( 0.000000e+00 +/- 0.000000e+00) [K]

Current cycle: 1000 out of 5000
===============================================================================

Box:      18.94796   0.00000   0.00000  Average:  18.86415   0.00000   0.00000
           0.00000  18.94796   0.00000             0.00000  18.86415   0.00000
           0.00000   0.00000  18.94796             0.00000   0.00000  18.86415
Lengths:  18.94796  18.94796  18.94796  Average:  18.86415  18.86415  18.86415
Angles:   90.00000  90.00000  90.00000  Average:  90.00000  90.00000  90.00000
Rectangular boundary conditions

net charge:   0.00000000

component 0 (CO2) lambda:  0 occupancy:  1 (1.000000)
    net charge:   0.00000000 [e]

Amount of molecules per component :
-------------------------------------------------------------------------------
Component 0 (CO2)
    molecules:      1.000000e+02 molecules  (1.000000e+02 +/- 0.000000e+00)
    number density: 1.469984e-02 molec./A^3 (1.490157e-02 +/- 0.000000e+00)
    density:        1.073996e+03 kg/m^3     (1.088734e+03 +/- 0.000000e+00)

Average pressure tensor: 
-------------------------------------------------------------------------------
 1.5653e+02  2.5154e+01 -7.9161e+01 +/- 0.0000e+00 0.0000e+00 0.0000e+00 [bar]
 2.5154e+01  2.5981e+02 -8.6630e+01 +/- 0.0000e+00 0.0000e+00 0.0000e+00 [bar]
-7.9161e+01 -8.6630e+01  3.2786e+01 +/- 0.0000e+00 0.0000e+00 0.0000e+00 [bar]
Ideal-gas pressure:   5.143466e+02 +/ 0.000000e+00 [bar]
Excess pressure:     -3.646360e+02 +/ 0.000000e+00 [bar]
Pressure:             1.497105e+02 +/ 0.000000e+00 [bar]

Total potential energy/kʙ  -1.580234e+05 (-1.574449e+05 +/- 0.000000e+00) [K]
-------------------------------------------------------------------------------
ExternalField-molecule
    Van der Waals/kʙ        0.000000e+00 ( 0.000000e+00 +/- 0.000000e+00) [K]
Framework-molecule
    Van der Waals/kʙ        0.000000e+00 ( 0.000000e+00 +/- 0.000000e+00) [K]
    Van der Waals (Tail)/kʙ 0.000000e+00 ( 0.000000e+00 +/- 0.000000e+00) [K]
    Coulombic Real/kʙ       0.000000e+00 ( 0.000000e+00 +/- 0.000000e+00) [K]
    Coulombic Fourier/kʙ    0.000000e+00 ( 0.000000e+00 +/- 0.000000e+00) [K]
Molecule-molecule
    Van der Waals/kʙ       -1.104935e+05 (-1.113959e+05 +/- 0.000000e+00) [K]
    Van der Waals (Tail)/kʙ-4.716516e+03 (-4.777096e+03 +/- 0.000000e+00) [K]
    Coulombic Real/kʙ      -3.455055e+04 (-3.315798e+04 +/- 0.000000e+00) [K]
    Coulombic Fourier/kʙ   -8.262892e+03 (-8.113952e+03 +/- 0.000000e+00) [K]
    Molecule Intra/kʙ       0.000000e+00 ( 0.000000e+00 +/- 0.000000e+00) [K]

Current cycle: 1100 out of 5000
===============================================================================

Box:      19.16665   0.00000   0.00000  Average:  18.87507   0.00000   0.00000
           0.00000  19.16665   0.00000             0.00000  18.87507   0.00000
           0.00000   0.00000  19.16665             0.00000   0.00000  18.87507
Lengths:  19.16665  19.16665  19.16665  Average:  18.87507  18.87507  18.87507
Angles:   90.00000  90.00000  90.00000  Average:  90.00000  90.00000  90.00000
Rectangular boundary conditions

net charge:   0.00000000

component 0 (CO2) lambda:  0 occupancy:  1 (1.000000)
    net charge:   0.00000000 [e]

Amount of molecules per component :
-------------------------------------------------------------------------------
Component 0 (CO2)
    molecules:      1.000000e+02 molecules  (1.000000e+02 +/- 0.000000e+00)
    number density: 1.420240e-02 molec./A^3 (1.487573e-02 +/- 0.000000e+00)
    density:        1.037651e+03 kg/m^3     (1.086846e+03 +/- 0.000000e+00)

Average pressure tensor: 
-------------------------------------------------------------------------------
 1.5456e+02  3.3344e+01 -6.5296e+01 +/- 0.0000e+00 0.0000e+00 0.0000e+00 [bar]
 3.3344e+01  2.2956e+02 -1.1341e+02 +/- 0.0000e+00 0.0000e+00 0.0000e+00 [bar]
-6.5296e+01 -1.1341e+02  1.8040e+01 +/- 0.0000e+00 0.0000e+00 0.0000e+00 [bar]
Ideal-gas pressure:   5.134546e+02 +/ 0.000000e+00 [bar]
Excess pressure:     -3.794015e+02 +/ 0.000000e+00 [bar]
Pressure:             1.340531e+02 +/ 0.000000e+00 [bar]

Total potential energy/kʙ  -1.488169e+05 (-1.569627e+05 +/- 0.000000e+00) [K]
-------------------------------------------------------------------------------
ExternalField-molecule
    Van der Waals/kʙ        0.000000e+00 ( 0.000000e+00 +/- 0.000000e+00) [K]
Framework-molecule
    Van der Waals/kʙ        0.000000e+00 ( 0.000000e+00 +/- 0.000000e+00) [K]
    Van der Waals (Tail)/kʙ 0.000000e+00 ( 0.000000e+00 +/- 0.000000e+00) [K]
    Coulombic Real/kʙ       0.000000e+00 ( 0.000000e+00 +/- 0.000000e+00) [K]
    Coulombic Fourier/kʙ    0.000000e+00 ( 0.000000e+00 +/- 0.000000e+00) [K]
Molecule-molecule
    Van der Waals/kʙ       -1.077753e+05 (-1.112453e+05 +/- 0.000000e+00) [K]
    Van der Waals (Tail)/kʙ-4.556908e+03 (-4.768373e+03 +/- 0.000000e+00) [K]
    Coulombic Real/kʙ      -2.910577e+04 (-3.291896e+04 +/- 0.000000e+00) [K]
    Coulombic Fourier/kʙ   -7.378937e+03 (-8.030056e+03 +/- 0.000000e+00) [K]
    Molecule Intra/kʙ       0.000000e+00 ( 0.000000e+00 +/- 0.000000e+00) [K]

Current cycle: 1200 out of 5000
===============================================================================

Box:      19.07490   0.00000   0.00000  Average:  18.89293   0.00000   0.00000
           0.00000  19.07490   0.00000             0.00000  18.89293   0.00000
           0.00000   0.00000  19.07490             0.00000   0.00000  18.89293
Lengths:  19.07490  19.07490  19.07490  Average:  18.89293  18.89293  18.89293
Angles:   90.00000  90.00000  90.00000  Average:  90.00000  90.00000  90.00000
Rectangular boundary conditions

net charge:   0.00000000

component 0 (CO2) lambda:  0 occupancy:  1 (1.000000)
    net charge:   0.00000000 [e]

Amount of molecules per component :
-------------------------------------------------------------------------------
Component 0 (CO2)
    molecules:      1.000000e+02 molecules  (1.000000e+02 +/- 0.000000e+00)
    number density: 1.440832e-02 molec./A^3 (1.483429e-02 +/- 0.000000e+00)
    density:        1.052696e+03 kg/m^3     (1.083818e+03 +/- 0.000000e+00)

Average pressure tensor: 
-------------------------------------------------------------------------------
 1.4210e+02  3.2727e+01 -6.7195e+01 +/- 0.0000e+00 0.0000e+00 0.0000e+00 [bar]
 3.2727e+01  2.0857e+02 -1.1140e+02 +/- 0.0000e+00 0.0000e+00 0.0000e+00 [bar]
-6.7195e+01 -1.1140e+02  3.0896e+01 +/- 0.0000e+00 0.0000e+00 0.0000e+00 [bar]
Ideal-gas pressure:   5.120241e+02 +/ 0.000000e+00 [bar]
Excess pressure:     -3.848327e+02 +/ 0.000000e+00 [bar]
Pressure:             1.271914e+02 +/ 0.000000e+00 [bar]

Total potential energy/kʙ  -1.495486e+05 (-1.563880e+05 +/- 0.000000e+00) [K]
-------------------------------------------------------------------------------
ExternalField-molecule
    Van der Waals/kʙ        0.000000e+00 ( 0.000000e+00 +/- 0.000000e+00) [K]
Framework-molecule
    Van der Waals/kʙ        0.000000e+00 ( 0.000000e+00 +/- 0.000000e+00) [K]
    Van der Waals (Tail)/kʙ 0.000000e+00 ( 0.000000e+00 +/- 0.000000e+00) [K]
    Coulombic Real/kʙ       0.000000e+00 ( 0.000000e+00 +/- 0.000000e+00) [K]
    Coulombic Fourier/kʙ    0.000000e+00 ( 0.000000e+00 +/- 0.000000e+00) [K]
Molecule-molecule
    Van der Waals/kʙ       -1.022640e+05 (-1.109074e+05 +/- 0.000000e+00) [K]
    Van der Waals (Tail)/kʙ-4.622979e+03 (-4.756975e+03 +/- 0.000000e+00) [K]
    Coulombic Real/kʙ      -3.480840e+04 (-3.271559e+04 +/- 0.000000e+00) [K]
    Coulombic Fourier/kʙ   -7.853248e+03 (-8.008129e+03 +/- 0.000000e+00) [K]
    Molecule Intra/kʙ       0.000000e+00 ( 0.000000e+00 +/- 0.000000e+00) [K]

Current cycle: 1300 out of 5000
===============================================================================

Box:      19.01501   0.00000   0.00000  Average:  18.92464   0.00000   0.00000
           0.00000  19.01501   0.00000             0.00000  18.92464   0.00000
           0.00000   0.00000  19.01501             0.00000   0.00000  18.92464
Lengths:  19.01501  19.01501  19.01501  Average:  18.92464  18.92464  18.92464
Angles:   90.00000  90.00000  90.00000  Average:  90.00000  90.00000  90.00000
Rectangular boundary conditions

net charge:   0.00000000

component 0 (CO2) lambda:  0 occupancy:  1 (1.000000)
    net charge:   0.00000000 [e]

Amount of molecules per component :
-------------------------------------------------------------------------------
Component 0 (CO2)
    molecules:      1.000000e+02 molecules  (1.000000e+02 +/- 0.000000e+00)
    number density: 1.454488e-02 molec./A^3 (1.476269e-02 +/- 0.000000e+00)
    density:        1.062674e+03 kg/m^3     (1.078587e+03 +/- 0.000000e+00)

Average pressure tensor: 
-------------------------------------------------------------------------------
 1.6015e+02  3.5101e+01 -7.4147e+01 +/- 0.0000e+00 0.0000e+00 0.0000e+00 [bar]
 3.5101e+01  2.0796e+02 -1.1046e+02 +/- 0.0000e+00 0.0000e+00 0.0000e+00 [bar]
-7.4147e+01 -1.1046e+02  4.8215e+01 +/- 0.0000e+00 0.0000e+00 0.0000e+00 [bar]
Ideal-gas pressure:   5.095527e+02 +/ 0.000000e+00 [bar]
Excess pressure:     -3.707756e+02 +/ 0.000000e+00 [bar]
Pressure:             1.387772e+02 +/ 0.000000e+00 [bar]

Total potential energy/kʙ  -1.450893e+05 (-1.555997e+05 +/- 0.000000e+00) [K]
-------------------------------------------------------------------------------
ExternalField-molecule
    Van der Waals/kʙ        0.000000e+00 ( 0.000000e+00 +/- 0.000000e+00) [K]
Framework-molecule
    Van der Waals/kʙ        0.000000e+00 ( 0.000000e+00 +/- 0.000000e+00) [K]
    Van der Waals (Tail)/kʙ 0.000000e+00 ( 0.000000e+00 +/- 0.000000e+00) [K]
    Coulombic Real/kʙ       0.000000e+00 ( 0.000000e+00 +/- 0.000000e+00) [K]
    Coulombic Fourier/kʙ    0.000000e+00 ( 0.000000e+00 +/- 0.000000e+00) [K]
Molecule-molecule
    Van der Waals/kʙ       -1.026350e+05 (-1.102971e+05 +/- 0.000000e+00) [K]
    Van der Waals (Tail)/kʙ-4.666797e+03 (-4.734688e+03 +/- 0.000000e+00) [K]
    Coulombic Real/kʙ      -3.055258e+04 (-3.260064e+04 +/- 0.000000e+00) [K]
    Coulombic Fourier/kʙ   -7.234919e+03 (-7.967313e+03 +/- 0.000000e+00) [K]
    Molecule Intra/kʙ       0.000000e+00 ( 0.000000e+00 +/- 0.000000e+00) [K]

Current cycle: 1400 out of 5000
===============================================================================

Box:      18.86349   0.00000   0.00000  Average:  18.92979   0.00000   0.00000
           0.00000  18.86349   0.00000             0.00000  18.92979   0.00000
           0.00000   0.00000  18.86349             0.00000   0.00000  18.92979
Lengths:  18.86349  18.86349  18.86349  Average:  18.92979  18.92979  18.92979
Angles:   90.00000  90.00000  90.00000  Average:  90.00000  90.00000  90.00000
Rectangular boundary conditions

net charge:   0.00000000

component 0 (CO2) lambda:  0 occupancy:  1 (1.000000)
    net charge:   0.00000000 [e]

Amount of molecules per component :
-------------------------------------------------------------------------------
Component 0 (CO2)
    molecules:      1.000000e+02 molecules  (1.000000e+02 +/- 0.000000e+00)
    number density: 1.489820e-02 molec./A^3 (1.475036e-02 +/- 0.000000e+00)
    density:        1.088488e+03 kg/m^3     (1.077687e+03 +/- 0.000000e+00)

Average pressure tensor: 
-------------------------------------------------------------------------------
 1.9291e+02  2.0679e+01 -8.4430e+01 +/- 0.0000e+00 0.0000e+00 0.0000e+00 [bar]
 2.0679e+01  2.0242e+02 -1.0956e+02 +/- 0.0000e+00 0.0000e+00 0.0000e+00 [bar]
-8.4430e+01 -1.0956e+02  7.1857e+01 +/- 0.0000e+00 0.0000e+00 0.0000e+00 [bar]
Ideal-gas pressure:   5.091274e+02 +/ 0.000000e+00 [bar]
Excess pressure:     -3.533992e+02 +/ 0.000000e+00 [bar]
Pressure:             1.557281e+02 +/ 0.000000e+00 [bar]

Total potential energy/kʙ  -1.475595e+05 (-1.551109e+05 +/- 0.000000e+00) [K]
-------------------------------------------------------------------------------
ExternalField-molecule
    Van der Waals/kʙ        0.000000e+00 ( 0.000000e+00 +/- 0.000000e+00) [K]
Framework-molecule
    Van der Waals/kʙ        0.000000e+00 ( 0.000000e+00 +/- 0.000000e+00) [K]
    Van der Waals (Tail)/kʙ 0.000000e+00 ( 0.000000e+00 +/- 0.000000e+00) [K]
    Coulombic Real/kʙ       0.000000e+00 ( 0.000000e+00 +/- 0.000000e+00) [K]
    Coulombic Fourier/kʙ    0.000000e+00 ( 0.000000e+00 +/- 0.000000e+00) [K]
Molecule-molecule
    Van der Waals/kʙ       -1.076027e+05 (-1.101810e+05 +/- 0.000000e+00) [K]
    Van der Waals (Tail)/kʙ-4.780162e+03 (-4.732656e+03 +/- 0.000000e+00) [K]
    Coulombic Real/kʙ      -2.847130e+04 (-3.230752e+04 +/- 0.000000e+00) [K]
    Coulombic Fourier/kʙ   -6.705307e+03 (-7.889784e+03 +/- 0.000000e+00) [K]
    Molecule Intra/kʙ       0.000000e+00 ( 0.000000e+00 +/- 0.000000e+00) [K]

Current cycle: 1500 out of 5000
===============================================================================

Box:      18.81410   0.00000   0.00000  Average:  18.93464   0.00000   0.00000
           0.00000  18.81410   0.00000             0.00000  18.93464   0.00000
           0.00000   0.00000  18.81410             0.00000   0.00000  18.93464
Lengths:  18.81410  18.81410  18.81410  Average:  18.93464  18.93464  18.93464
Angles:   90.00000  90.00000  90.00000  Average:  90.00000  90.00000  90.00000
Rectangular boundary conditions

net charge:   0.00000000

component 0 (CO2) lambda:  0 occupancy:  1 (1.000000)
    net charge:   0.00000000 [e]

Amount of molecules per component :
-------------------------------------------------------------------------------
Component 0 (CO2)
    molecules:      1.000000e+02 molecules  (1.000000e+02 +/- 0.000000e+00)
    number density: 1.501583e-02 molec./A^3 (1.473885e-02 +/- 0.000000e+00)
    density:        1.097082e+03 kg/m^3     (1.076846e+03 +/- 0.000000e+00)

Average pressure tensor: 
-------------------------------------------------------------------------------
 1.9344e+02  5.8592e+00 -7.5306e+01 +/- 0.0000e+00 0.0000e+00 0.0000e+00 [bar]
 5.8592e+00  2.0277e+02 -1.2933e+02 +/- 0.0000e+00 0.0000e+00 0.0000e+00 [bar]
-7.5306e+01 -1.2933e+02  8.2167e+01 +/- 0.0000e+00 0.0000e+00 0.0000e+00 [bar]
Ideal-gas pressure:   5.087300e+02 +/ 0.000000e+00 [bar]
Excess pressure:     -3.492701e+02 +/ 0.000000e+00 [bar]
Pressure:             1.594599e+02 +/ 0.000000e+00 [bar]

Total potential energy/kʙ  -1.567460e+05 (-1.548199e+05 +/- 0.000000e+00) [K]
-------------------------------------------------------------------------------
ExternalField-molecule
    Van der Waals/kʙ        0.000000e+00 ( 0.000000e+00 +/- 0.000000e+00) [K]
Framework-molecule
    Van der Waals/kʙ        0.000000e+00 ( 0.000000e+00 +/- 0.000000e+00) [K]
    Van der Waals (Tail)/kʙ 0.000000e+00 ( 0.000000e+00 +/- 0.000000e+00) [K]
    Coulombic Real/kʙ       0.000000e+00 ( 0.000000e+00 +/- 0.000000e+00) [K]
    Coulombic Fourier/kʙ    0.000000e+00 ( 0.000000e+00 +/- 0.000000e+00) [K]
Molecule-molecule
    Van der Waals/kʙ       -1.102058e+05 (-1.100218e+05 +/- 0.000000e+00) [K]
    Van der Waals (Tail)/kʙ-4.817903e+03 (-4.729470e+03 +/- 0.000000e+00) [K]
    Coulombic Real/kʙ      -3.351805e+04 (-3.219933e+04 +/- 0.000000e+00) [K]
    Coulombic Fourier/kʙ   -8.204260e+03 (-7.869220e+03 +/- 0.000000e+00) [K]
    Molecule Intra/kʙ       0.000000e+00 ( 0.000000e+00 +/- 0.000000e+00) [K]

Current cycle: 1600 out of 5000
===============================================================================

Box:      19.10889   0.00000   0.00000  Average:  18.93846   0.00000   0.00000
           0.00000  19.10889   0.00000             0.00000  18.93846   0.00000
           0.00000   0.00000  19.10889             0.00000   0.00000  18.93846
Lengths:  19.10889  19.10889  19.10889  Average:  18.93846  18.93846  18.93846
Angles:   90.00000  90.00000  90.00000  Average:  90.00000  90.00000  90.00000
Rectangular boundary conditions

net charge:   0.00000000

component 0 (CO2) lambda:  0 occupancy:  1 (1.000000)
    net charge:   0.00000000 [e]

Amount of molecules per component :
-------------------------------------------------------------------------------
Component 0 (CO2)
    molecules:      1.000000e+02 molecules  (1.000000e+02 +/- 0.000000e+00)
    number density: 1.433155e-02 molec./A^3 (1.472977e-02 +/- 0.000000e+00)
    density:        1.047088e+03 kg/m^3     (1.076183e+03 +/- 0.000000e+00)

Average pressure tensor: 
-------------------------------------------------------------------------------
 1.8367e+02 -7.0708e-01 -5.4063e+01 +/- 0.0000e+00 0.0000e+00 0.0000e+00 [bar]
-7.0708e-01  1.8060e+02 -1.0720e+02 +/- 0.0000e+00 0.0000e+00 0.0000e+00 [bar]
-5.4063e+01 -1.0720e+02  8.0628e+01 +/- 0.0000e+00 0.0000e+00 0.0000e+00 [bar]
Ideal-gas pressure:   5.084167e+02 +/ 0.000000e+00 [bar]
Excess pressure:     -3.601165e+02 +/ 0.000000e+00 [bar]
Pressure:             1.483002e+02 +/ 0.000000e+00 [bar]

Total potential energy/kʙ  -1.467293e+05 (-1.546867e+05 +/- 0.000000e+00) [K]
-------------------------------------------------------------------------------
ExternalField-molecule
    Van der Waals/kʙ        0.000000e+00 ( 0.000000e+00 +/- 0.000000e+00) [K]
Framework-molecule
    Van der Waals/kʙ        0.000000e+00 ( 0.000000e+00 +/- 0.000000e+00) [K]
    Van der Waals (Tail)/kʙ 0.000000e+00 ( 0.000000e+00 +/- 0.000000e+00) [K]
    Coulombic Real/kʙ       0.000000e+00 ( 0.000000e+00 +/- 0.000000e+00) [K]
    Coulombic Fourier/kʙ    0.000000e+00 ( 0.000000e+00 +/- 0.000000e+00) [K]
Molecule-molecule
    Van der Waals/kʙ       -1.078456e+05 (-1.100300e+05 +/- 0.000000e+00) [K]
    Van der Waals (Tail)/kʙ-4.598349e+03 (-4.725037e+03 +/- 0.000000e+00) [K]
    Coulombic Real/kʙ      -2.693469e+04 (-3.206749e+04 +/- 0.000000e+00) [K]
    Coulombic Fourier/kʙ   -7.350706e+03 (-7.864131e+03 +/- 0.000000e+00) [K]
    Molecule Intra/kʙ       0.000000e+00 ( 0.000000e+00 +/- 0.000000e+00) [K]

Current cycle: 1700 out of 5000
===============================================================================

Box:      19.13068   0.00000   0.00000  Average:  18.95099   0.00000   0.00000
           0.00000  19.13068   0.00000             0.00000  18.95099   0.00000
           0.00000   0.00000  19.13068             0.00000   0.00000  18.95099
Lengths:  19.13068  19.13068  19.13068  Average:  18.95099  18.95099  18.95099
Angles:   90.00000  90.00000  90.00000  Average:  90.00000  90.00000  90.00000
Rectangular boundary conditions

net charge:   0.00000000

component 0 (CO2) lambda:  0 occupancy:  1 (1.000000)
    net charge:   0.00000000 [e]

Amount of molecules per component :
-------------------------------------------------------------------------------
Component 0 (CO2)
    molecules:      1.000000e+02 molecules  (1.000000e+02 +/- 0.000000e+00)
    number density: 1.428266e-02 molec./A^3 (1.470087e-02 +/- 0.000000e+00)
    density:        1.043516e+03 kg/m^3     (1.074071e+03 +/- 0.000000e+00)

Average pressure tensor: 
-------------------------------------------------------------------------------
 1.8130e+02 -8.1219e-01 -4.6527e+01 +/- 0.0000e+00 0.0000e+00 0.0000e+00 [bar]
-8.1219e-01  1.7027e+02 -1.0623e+02 +/- 0.0000e+00 0.0000e+00 0.0000e+00 [bar]
-4.6527e+01 -1.0623e+02  7.4255e+01 +/- 0.0000e+00 0.0000e+00 0.0000e+00 [bar]
Ideal-gas pressure:   5.074192e+02 +/ 0.000000e+00 [bar]
Excess pressure:     -3.654783e+02 +/ 0.000000e+00 [bar]
Pressure:             1.419409e+02 +/ 0.000000e+00 [bar]

Total potential energy/kʙ  -1.516954e+05 (-1.542003e+05 +/- 0.000000e+00) [K]
-------------------------------------------------------------------------------
ExternalField-molecule
    Van der Waals/kʙ        0.000000e+00 ( 0.000000e+00 +/- 0.000000e+00) [K]
Framework-molecule
    Van der Waals/kʙ        0.000000e+00 ( 0.000000e+00 +/- 0.000000e+00) [K]
    Van der Waals (Tail)/kʙ 0.000000e+00 ( 0.000000e+00 +/- 0.000000e+00) [K]
    Coulombic Real/kʙ       0.000000e+00 ( 0.000000e+00 +/- 0.000000e+00) [K]
    Coulombic Fourier/kʙ    0.000000e+00 ( 0.000000e+00 +/- 0.000000e+00) [K]
Molecule-molecule
    Van der Waals/kʙ       -1.100842e+05 (-1.098298e+05 +/- 0.000000e+00) [K]
    Van der Waals (Tail)/kʙ-4.582662e+03 (-4.714925e+03 +/- 0.000000e+00) [K]
    Coulombic Real/kʙ      -2.955890e+04 (-3.183985e+04 +/- 0.000000e+00) [K]
    Coulombic Fourier/kʙ   -7.469715e+03 (-7.815651e+03 +/- 0.000000e+00) [K]
    Molecule Intra/kʙ       0.000000e+00 ( 0.000000e+00 +/- 0.000000e+00) [K]

Current cycle: 1800 out of 5000
===============================================================================

Box:      19.03685   0.00000   0.00000  Average:  18.95945   0.00000   0.00000
           0.00000  19.03685   0.00000             0.00000  18.95945   0.00000
           0.00000   0.00000  19.03685             0.00000   0.00000  18.95945
Lengths:  19.03685  19.03685  19.03685  Average:  18.95945  18.95945  18.95945
Angles:   90.00000  90.00000  90.00000  Average:  90.00000  90.00000  90.00000
Rectangular boundary conditions

net charge:   0.00000000

component 0 (CO2) lambda:  0 occupancy:  1 (1.000000)
    net charge:   0.00000000 [e]

Amount of molecules per component :
-------------------------------------------------------------------------------
Component 0 (CO2)
    molecules:      1.000000e+02 molecules  (1.000000e+02 +/- 0.000000e+00)
    number density: 1.449488e-02 molec./A^3 (1.468120e-02 +/- 0.000000e+00)
    density:        1.059021e+03 kg/m^3     (1.072634e+03 +/- 0.000000e+00)

Average pressure tensor: 
-------------------------------------------------------------------------------
 2.0999e+02 -1.0748e+01 -4.8074e+01 +/- 0.0000e+00 0.0000e+00 0.0000e+00 [bar]
-1.0748e+01  1.6663e+02 -1.1568e+02 +/- 0.0000e+00 0.0000e+00 0.0000e+00 [bar]
-4.8074e+01 -1.1568e+02  5.1445e+01 +/- 0.0000e+00 0.0000e+00 0.0000e+00 [bar]
Ideal-gas pressure:   5.067403e+02 +/ 0.000000e+00 [bar]
Excess pressure:     -3.640524e+02 +/ 0.000000e+00 [bar]
Pressure:             1.426878e+02 +/ 0.000000e+00 [bar]

Total potential energy/kʙ  -1.513299e+05 (-1.539038e+05 +/- 0.000000e+00) [K]
-------------------------------------------------------------------------------
ExternalField-molecule
    Van der Waals/kʙ        0.000000e+00 ( 0.000000e+00 +/- 0.000000e+00) [K]
Framework-molecule
    Van der Waals/kʙ        0.000000e+00 ( 0.000000e+00 +/- 0.000000e+00) [K]
    Van der Waals (Tail)/kʙ 0.000000e+00 ( 0.000000e+00 +/- 0.000000e+00) [K]
    Coulombic Real/kʙ       0.000000e+00 ( 0.000000e+00 +/- 0.000000e+00) [K]
    Coulombic Fourier/kʙ    0.000000e+00 ( 0.000000e+00 +/- 0.000000e+00) [K]
Molecule-molecule
    Van der Waals/kʙ       -1.091732e+05 (-1.096662e+05 +/- 0.000000e+00) [K]
    Van der Waals (Tail)/kʙ-4.650754e+03 (-4.709329e+03 +/- 0.000000e+00) [K]
    Coulombic Real/kʙ      -2.952911e+04 (-3.172778e+04 +/- 0.000000e+00) [K]
    Coulombic Fourier/kʙ   -7.976824e+03 (-7.800503e+03 +/- 0.000000e+00) [K]
    Molecule Intra/kʙ       0.000000e+00 ( 0.000000e+00 +/- 0.000000e+00) [K]

Current cycle: 1900 out of 5000
===============================================================================

Box:      18.84254   0.00000   0.00000  Average:  18.95732   0.00000   0.00000
           0.00000  18.84254   0.00000             0.00000  18.95732   0.00000
           0.00000   0.00000  18.84254             0.00000   0.00000  18.95732
Lengths:  18.84254  18.84254  18.84254  Average:  18.95732  18.95732  18.95732
Angles:   90.00000  90.00000  90.00000  Average:  90.00000  90.00000  90.00000
Rectangular boundary conditions

net charge:   0.00000000

component 0 (CO2) lambda:  0 occupancy:  1 (1.000000)
    net charge:   0.00000000 [e]

Amount of molecules per component :
-------------------------------------------------------------------------------
Component 0 (CO2)
    molecules:      1.000000e+02 molecules  (1.000000e+02 +/- 0.000000e+00)
    number density: 1.494796e-02 molec./A^3 (1.468595e-02 +/- 0.000000e+00)
    density:        1.092124e+03 kg/m^3     (1.072980e+03 +/- 0.000000e+00)

Average pressure tensor: 
-------------------------------------------------------------------------------
 1.9396e+02 -1.0312e+01 -3.4735e+01 +/- 0.0000e+00 0.0000e+00 0.0000e+00 [bar]
-1.0312e+01  1.6716e+02 -1.1700e+02 +/- 0.0000e+00 0.0000e+00 0.0000e+00 [bar]
-3.4735e+01 -1.1700e+02  3.7027e+01 +/- 0.0000e+00 0.0000e+00 0.0000e+00 [bar]
Ideal-gas pressure:   5.069039e+02 +/ 0.000000e+00 [bar]
Excess pressure:     -3.741894e+02 +/ 0.000000e+00 [bar]
Pressure:             1.327145e+02 +/ 0.000000e+00 [bar]

Total potential energy/kʙ  -1.584205e+05 (-1.539292e+05 +/- 0.000000e+00) [K]
-------------------------------------------------------------------------------
ExternalField-molecule
    Van der Waals/kʙ        0.000000e+00 ( 0.000000e+00 +/- 0.000000e+00) [K]
Framework-molecule
    Van der Waals/kʙ        0.000000e+00 ( 0.000000e+00 +/- 0.000000e+00) [K]
    Van der Waals (Tail)/kʙ 0.000000e+00 ( 0.000000e+00 +/- 0.000000e+00) [K]
    Coulombic Real/kʙ       0.000000e+00 ( 0.000000e+00 +/- 0.000000e+00) [K]
    Coulombic Fourier/kʙ    0.000000e+00 ( 0.000000e+00 +/- 0.000000e+00) [K]
Molecule-molecule
    Van der Waals/kʙ       -1.119650e+05 (-1.097219e+05 +/- 0.000000e+00) [K]
    Van der Waals (Tail)/kʙ-4.796127e+03 (-4.710147e+03 +/- 0.000000e+00) [K]
    Coulombic Real/kʙ      -3.321588e+04 (-3.169935e+04 +/- 0.000000e+00) [K]
    Coulombic Fourier/kʙ   -8.443484e+03 (-7.797715e+03 +/- 0.000000e+00) [K]
    Molecule Intra/kʙ       0.000000e+00 ( 0.000000e+00 +/- 0.000000e+00) [K]

Current cycle: 2000 out of 5000
===============================================================================

Box:      19.22842   0.00000   0.00000  Average:  18.95549   0.00000   0.00000
           0.00000  19.22842   0.00000             0.00000  18.95549   0.00000
           0.00000   0.00000  19.22842             0.00000   0.00000  18.95549
Lengths:  19.22842  19.22842  19.22842  Average:  18.95549  18.95549  18.95549
Angles:   90.00000  90.00000  90.00000  Average:  90.00000  90.00000  90.00000
Rectangular boundary conditions

net charge:   0.00000000

component 0 (CO2) lambda:  0 occupancy:  1 (1.000000)
    net charge:   0.00000000 [e]

Amount of molecules per component :
-------------------------------------------------------------------------------
Component 0 (CO2)
    molecules:      1.000000e+02 molecules  (1.000000e+02 +/- 0.000000e+00)
    number density: 1.406595e-02 molec./A^3 (1.468994e-02 +/- 0.000000e+00)
    density:        1.027683e+03 kg/m^3     (1.073272e+03 +/- 0.000000e+00)

Average pressure tensor: 
-------------------------------------------------------------------------------
 1.7934e+02 -1.0871e+01 -1.7677e+01 +/- 0.0000e+00 0.0000e+00 0.0000e+00 [bar]
-1.0871e+01  1.6260e+02 -1.1951e+02 +/- 0.0000e+00 0.0000e+00 0.0000e+00 [bar]
-1.7677e+01 -1.1951e+02  3.8238e+01 +/- 0.0000e+00 0.0000e+00 0.0000e+00 [bar]
Ideal-gas pressure:   5.070417e+02 +/ 0.000000e+00 [bar]
Excess pressure:     -3.803144e+02 +/ 0.000000e+00 [bar]
Pressure:             1.267273e+02 +/ 0.000000e+00 [bar]

Total potential energy/kʙ  -1.446229e+05 (-1.538865e+05 +/- 0.000000e+00) [K]
-------------------------------------------------------------------------------
ExternalField-molecule
    Van der Waals/kʙ        0.000000e+00 ( 0.000000e+00 +/- 0.000000e+00) [K]
Framework-molecule
    Van der Waals/kʙ        0.000000e+00 ( 0.000000e+00 +/- 0.000000e+00) [K]
    Van der Waals (Tail)/kʙ 0.000000e+00 ( 0.000000e+00 +/- 0.000000e+00) [K]
    Coulombic Real/kʙ       0.000000e+00 ( 0.000000e+00 +/- 0.000000e+00) [K]
    Coulombic Fourier/kʙ    0.000000e+00 ( 0.000000e+00 +/- 0.000000e+00) [K]
Molecule-molecule
    Van der Waals/kʙ       -1.078952e+05 (-1.097646e+05 +/- 0.000000e+00) [K]
    Van der Waals (Tail)/kʙ-4.513131e+03 (-4.710322e+03 +/- 0.000000e+00) [K]
    Coulombic Real/kʙ      -2.560902e+04 (-3.161155e+04 +/- 0.000000e+00) [K]
    Coulombic Fourier/kʙ   -6.605561e+03 (-7.800018e+03 +/- 0.000000e+00) [K]
    Molecule Intra/kʙ       0.000000e+00 ( 0.000000e+00 +/- 0.000000e+00) [K]

Current cycle: 2100 out of 5000
===============================================================================

Box:      18.90847   0.00000   0.00000  Average:  18.95595   0.00000   0.00000
           0.00000  18.90847   0.00000             0.00000  18.95595   0.00000
           0.00000   0.00000  18.90847             0.00000   0.00000  18.95595
Lengths:  18.90847  18.90847  18.90847  Average:  18.95595  18.95595  18.95595
Angles:   90.00000  90.00000  90.00000  Average:  90.00000  90.00000  90.00000
Rectangular boundary conditions

net charge:   0.00000000

component 0 (CO2) lambda:  0 occupancy:  1 (1.000000)
    net charge:   0.00000000 [e]

Amount of molecules per component :
-------------------------------------------------------------------------------
Component 0 (CO2)
    molecules:      1.000000e+02 molecules  (1.000000e+02 +/- 0.000000e+00)
    number density: 1.479213e-02 molec./A^3 (1.468861e-02 +/- 0.000000e+00)
    density:        1.080738e+03 kg/m^3     (1.073175e+03 +/- 0.000000e+00)

Average pressure tensor: 
-------------------------------------------------------------------------------
 1.8579e+02 -5.8727e+00 -2.4173e+01 +/- 0.0000e+00 0.0000e+00 0.0000e+00 [bar]
-5.8727e+00  1.5657e+02 -1.2257e+02 +/- 0.0000e+00 0.0000e+00 0.0000e+00 [bar]
-2.4173e+01 -1.2257e+02  3.7681e+01 +/- 0.0000e+00 0.0000e+00 0.0000e+00 [bar]
Ideal-gas pressure:   5.069958e+02 +/ 0.000000e+00 [bar]
Excess pressure:     -3.803144e+02 +/ 0.000000e+00 [bar]
Pressure:             1.266814e+02 +/ 0.000000e+00 [bar]

Total potential energy/kʙ  -1.544932e+05 (-1.537973e+05 +/- 0.000000e+00) [K]
-------------------------------------------------------------------------------
ExternalField-molecule
    Van der Waals/kʙ        0.000000e+00 ( 0.000000e+00 +/- 0.000000e+00) [K]
Framework-molecule
    Van der Waals/kʙ        0.000000e+00 ( 0.000000e+00 +/- 0.000000e+00) [K]
    Van der Waals (Tail)/kʙ 0.000000e+00 ( 0.000000e+00 +/- 0.000000e+00) [K]
[...]
    Coulombic Fourier/kʙ    0.000000e+00 ( 0.000000e+00 +/- 0.000000e+00) [K]
Molecule-molecule
    Van der Waals/kʙ       -1.051965e+05 (-1.106687e+05 +/- 2.544554e+03) [K]
    Van der Waals (Tail)/kʙ-4.414781e+03 (-4.756968e+03 +/- 1.073261e+02) [K]
    Coulombic Real/kʙ      -2.748445e+04 (-3.242645e+04 +/- 1.778142e+03) [K]
    Coulombic Fourier/kʙ   -6.823577e+03 (-7.845927e+03 +/- 3.603307e+02) [K]
    Molecule Intra/kʙ       0.000000e+00 ( 0.000000e+00 +/- 0.000000e+00) [K]

Current cycle: 4700 out of 5000
===============================================================================

Box:      19.04011   0.00000   0.00000  Average:  18.90423   0.00000   0.00000
           0.00000  19.04011   0.00000             0.00000  18.90423   0.00000
           0.00000   0.00000  19.04011             0.00000   0.00000  18.90423
Lengths:  19.04011  19.04011  19.04011  Average:  18.90423  18.90423  18.90423
Angles:   90.00000  90.00000  90.00000  Average:  90.00000  90.00000  90.00000
Rectangular boundary conditions

net charge:   0.00000000

component 0 (CO2) lambda:  0 occupancy:  1 (1.000000)
    net charge:   0.00000000 [e]

Amount of molecules per component :
-------------------------------------------------------------------------------
Component 0 (CO2)
    molecules:      1.000000e+02 molecules  (1.000000e+02 +/- 0.000000e+00)
    number density: 1.448744e-02 molec./A^3 (1.481162e-02 +/- 3.469701e-04)
    density:        1.058477e+03 kg/m^3     (1.082162e+03 +/- 2.535023e+01)

Average pressure tensor: 
-------------------------------------------------------------------------------
 1.5628e+02  8.8217e+00  3.2404e+01 +/- 7.7067e+01 7.5265e+01 8.5695e+01 [bar]
 8.8217e+00  2.4440e+02 -8.5811e+01 +/- 7.5265e+01 1.4473e+02 6.4703e+01 [bar]
 3.2404e+01 -8.5811e+01  1.3049e+02 +/- 8.5695e+01 6.4703e+01 1.3091e+02 [bar]
Ideal-gas pressure:   5.112416e+02 +/ 1.197611e+01 [bar]
Excess pressure:     -3.341840e+02 +/ 5.717543e+01 [bar]
Pressure:             1.770576e+02 +/ 6.569926e+01 [bar]

Total potential energy/kʙ  -1.567589e+05 (-1.555648e+05 +/- 4.775357e+03) [K]
-------------------------------------------------------------------------------
ExternalField-molecule
    Van der Waals/kʙ        0.000000e+00 ( 0.000000e+00 +/- 0.000000e+00) [K]
Framework-molecule
    Van der Waals/kʙ        0.000000e+00 ( 0.000000e+00 +/- 0.000000e+00) [K]
    Van der Waals (Tail)/kʙ 0.000000e+00 ( 0.000000e+00 +/- 0.000000e+00) [K]
    Coulombic Real/kʙ       0.000000e+00 ( 0.000000e+00 +/- 0.000000e+00) [K]
    Coulombic Fourier/kʙ    0.000000e+00 ( 0.000000e+00 +/- 0.000000e+00) [K]
Molecule-molecule
    Van der Waals/kʙ       -1.125825e+05 (-1.106111e+05 +/- 2.580234e+03) [K]
    Van der Waals (Tail)/kʙ-4.648367e+03 (-4.752776e+03 +/- 1.117113e+02) [K]
    Coulombic Real/kʙ      -3.216412e+04 (-3.236420e+04 +/- 1.827245e+03) [K]
    Coulombic Fourier/kʙ   -7.364005e+03 (-7.836767e+03 +/- 3.653727e+02) [K]
    Molecule Intra/kʙ       0.000000e+00 ( 0.000000e+00 +/- 0.000000e+00) [K]

Current cycle: 4800 out of 5000
===============================================================================

Box:      18.95656   0.00000   0.00000  Average:  18.90300   0.00000   0.00000
           0.00000  18.95656   0.00000             0.00000  18.90300   0.00000
           0.00000   0.00000  18.95656             0.00000   0.00000  18.90300
Lengths:  18.95656  18.95656  18.95656  Average:  18.90300  18.90300  18.90300
Angles:   90.00000  90.00000  90.00000  Average:  90.00000  90.00000  90.00000
Rectangular boundary conditions

net charge:   0.00000000

component 0 (CO2) lambda:  0 occupancy:  1 (1.000000)
    net charge:   0.00000000 [e]

Amount of molecules per component :
-------------------------------------------------------------------------------
Component 0 (CO2)
    molecules:      1.000000e+02 molecules  (1.000000e+02 +/- 0.000000e+00)
    number density: 1.467984e-02 molec./A^3 (1.481437e-02 +/- 3.346571e-04)
    density:        1.072534e+03 kg/m^3     (1.082363e+03 +/- 2.445062e+01)

Average pressure tensor: 
-------------------------------------------------------------------------------
 1.5324e+02  1.1858e+01  2.9760e+01 +/- 8.0057e+01 7.7636e+01 8.5387e+01 [bar]
 1.1858e+01  2.4883e+02 -8.3745e+01 +/- 7.7636e+01 1.4268e+02 6.4121e+01 [bar]
 2.9760e+01 -8.3745e+01  1.3293e+02 +/- 8.5387e+01 6.4121e+01 1.2927e+02 [bar]
Ideal-gas pressure:   5.113365e+02 +/ 1.155111e+01 [bar]
Excess pressure:     -3.330037e+02 +/ 5.775516e+01 [bar]
Pressure:             1.783328e+02 +/ 6.608215e+01 [bar]

Total potential energy/kʙ  -1.556058e+05 (-1.556212e+05 +/- 4.634555e+03) [K]
-------------------------------------------------------------------------------
ExternalField-molecule
    Van der Waals/kʙ        0.000000e+00 ( 0.000000e+00 +/- 0.000000e+00) [K]
Framework-molecule
    Van der Waals/kʙ        0.000000e+00 ( 0.000000e+00 +/- 0.000000e+00) [K]
    Van der Waals (Tail)/kʙ 0.000000e+00 ( 0.000000e+00 +/- 0.000000e+00) [K]
    Coulombic Real/kʙ       0.000000e+00 ( 0.000000e+00 +/- 0.000000e+00) [K]
    Coulombic Fourier/kʙ    0.000000e+00 ( 0.000000e+00 +/- 0.000000e+00) [K]
Molecule-molecule
    Van der Waals/kʙ       -1.104268e+05 (-1.106332e+05 +/- 2.509984e+03) [K]
    Van der Waals (Tail)/kʙ-4.710100e+03 (-4.753874e+03 +/- 1.076492e+02) [K]
    Coulombic Real/kʙ      -3.250040e+04 (-3.239331e+04 +/- 1.782682e+03) [K]
    Coulombic Fourier/kʙ   -7.968461e+03 (-7.840806e+03 +/- 3.469871e+02) [K]
    Molecule Intra/kʙ       0.000000e+00 ( 0.000000e+00 +/- 0.000000e+00) [K]

Current cycle: 4900 out of 5000
===============================================================================

Box:      18.74303   0.00000   0.00000  Average:  18.90172   0.00000   0.00000
           0.00000  18.74303   0.00000             0.00000  18.90172   0.00000
           0.00000   0.00000  18.74303             0.00000   0.00000  18.90172
Lengths:  18.74303  18.74303  18.74303  Average:  18.90172  18.90172  18.90172
Angles:   90.00000  90.00000  90.00000  Average:  90.00000  90.00000  90.00000
Rectangular boundary conditions

net charge:   0.00000000

component 0 (CO2) lambda:  0 occupancy:  1 (1.000000)
    net charge:   0.00000000 [e]

Amount of molecules per component :
-------------------------------------------------------------------------------
Component 0 (CO2)
    molecules:      1.000000e+02 molecules  (1.000000e+02 +/- 0.000000e+00)
    number density: 1.518731e-02 molec./A^3 (1.481724e-02 +/- 3.262137e-04)
    density:        1.109611e+03 kg/m^3     (1.082573e+03 +/- 2.383373e+01)

Average pressure tensor: 
-------------------------------------------------------------------------------
 1.5005e+02  5.8102e+00  2.1777e+01 +/- 8.3101e+01 7.3233e+01 8.9243e+01 [bar]
 5.8102e+00  2.4012e+02 -8.8209e+01 +/- 7.3233e+01 1.4634e+02 6.5681e+01 [bar]
 2.1777e+01 -8.8209e+01  1.3986e+02 +/- 8.9243e+01 6.5681e+01 1.3823e+02 [bar]
Ideal-gas pressure:   5.114357e+02 +/ 1.125967e+01 [bar]
Excess pressure:     -3.347591e+02 +/ 5.658726e+01 [bar]
Pressure:             1.766766e+02 +/ 6.557434e+01 [bar]

Total potential energy/kʙ  -1.649041e+05 (-1.557338e+05 +/- 4.503186e+03) [K]
-------------------------------------------------------------------------------
ExternalField-molecule
    Van der Waals/kʙ        0.000000e+00 ( 0.000000e+00 +/- 0.000000e+00) [K]
Framework-molecule
    Van der Waals/kʙ        0.000000e+00 ( 0.000000e+00 +/- 0.000000e+00) [K]
    Van der Waals (Tail)/kʙ 0.000000e+00 ( 0.000000e+00 +/- 0.000000e+00) [K]
    Coulombic Real/kʙ       0.000000e+00 ( 0.000000e+00 +/- 0.000000e+00) [K]
    Coulombic Fourier/kʙ    0.000000e+00 ( 0.000000e+00 +/- 0.000000e+00) [K]
Molecule-molecule
    Van der Waals/kʙ       -1.170226e+05 (-1.106696e+05 +/- 2.451285e+03) [K]
    Van der Waals (Tail)/kʙ-4.872922e+03 (-4.754868e+03 +/- 1.050404e+02) [K]
    Coulombic Real/kʙ      -3.516773e+04 (-3.246404e+04 +/- 1.740135e+03) [K]
    Coulombic Fourier/kʙ   -7.840836e+03 (-7.845247e+03 +/- 3.339889e+02) [K]
    Molecule Intra/kʙ       0.000000e+00 ( 0.000000e+00 +/- 0.000000e+00) [K]


Energy statistics             |  Energy [K]   | Recomputed [K]|  Drift [K]    |
===============================================================================
Total potential energy/kʙ     | -1.630169e+05 | -1.630169e+05 | -4.233282e-10 |
    external field VDW/kʙ     |  0.000000e+00 |  0.000000e+00 |  0.000000e+00 |
    external field Real/kʙ    |  0.000000e+00 |  0.000000e+00 |  0.000000e+00 |
    framework-molecule VDW/kʙ |  0.000000e+00 |  0.000000e+00 |  0.000000e+00 |
    framework-molecule Real/kʙ|  0.000000e+00 |  0.000000e+00 |  0.000000e+00 |
    molecule-molecule VDW/kʙ  | -1.131284e+05 | -1.131284e+05 | -2.625291e-10 |
    molecule-molecule Real/kʙ | -3.659693e+04 | -3.659693e+04 | -1.487665e-10 |
    Van der Waals (Tail)/kʙ   | -4.920309e+03 | -4.920309e+03 |  0.000000e+00 |
    Ewald Fourier/kʙ          |  6.159543e+03 |  6.159543e+03 | -1.203259e-11 |
    Ewald self/kʙ             | -2.222923e+06 | -2.222923e+06 |  0.000000e+00 |
    Ewald exclusion/kʙ        |  2.208392e+06 |  2.208392e+06 |  0.000000e+00 |
    intra VDW/kʙ              |  0.000000e+00 |  0.000000e+00 |  0.000000e+00 |
    intra Coulombic/kʙ        |  0.000000e+00 |  0.000000e+00 |  0.000000e+00 |
    polarization/kʙ           |  0.000000e+00 |  0.000000e+00 |  0.000000e+00 |
    dU/dlambda VDW/kʙ         |  0.000000e+00 |  0.000000e+00 |  0.000000e+00 |
    dU/dlambda Real/kʙ        |  0.000000e+00 |  0.000000e+00 |  0.000000e+00 |
    dU/dlambda Ewald/kʙ       |  0.000000e+00 |  0.000000e+00 |  0.000000e+00 |
-------------------------------------------------------------------------------


Monte-Carlo moves statistics
===============================================================================

    Volume change        all:                3288
    Volume change        total:              3288
    Volume change        constructed:        3288
    Volume change        accepted:           2200
    Volume change        fraction:       0.669100
    Volume change        max-change:     0.025000

Component 0 [CO2]
    Reinsertion (CBMC)   all:              165645
    Reinsertion (CBMC)   total:            165645
    Reinsertion (CBMC)   constructed:      144970
    Reinsertion (CBMC)   accepted:           1995
    Reinsertion (CBMC)   fraction:       0.012044
    Reinsertion (CBMC)   max-change:     0.000000

    Translation          all:              165403
    Translation          total:             55056      55315      55032
    Translation          constructed:       55056      55315      54241
    Translation          accepted:          25771      25423      15150
    Translation          fraction:       0.468087   0.459604   0.275294
    Translation          max-change:     0.714286   0.727273   1.367521

    Rotation             all:              165664
    Rotation             total:             55118      55372      55174
    Rotation             constructed:       55098      55300      55155
    Rotation             accepted:          20803      19084      21009
    Rotation             fraction:       0.377427   0.344651   0.380777
    Rotation             max-change:     1.025641   1.142857   1.000000



Production run counting of the MC moves summed over systems and components
===============================================================================

Volume change                          3288 (0.6576 [%])
Reinsertion (CBMC)                   165645 (33.1290 [%])
Translation                          165403 (33.0806 [%])
Rotation                             165664 (33.1328 [%])

Production count MC-steps:           500000 [-]
               All summed:           500000 [-]
               difference:                0 [-]


Production run CPU timings of the MC moves
===============================================================================

Component 0 CO2

Rotation                             22.281283 [s]
    Ewald                            12.391618 [s]
    ExternalField-Molecule            0.005925 [s]
    Framework-Molecule                0.005241 [s]
    Molecule-Molecule                 9.056130 [s]
    Overhead                          0.822369 [s]

Reinsertion (CBMC)                   70.018282 [s]
    Ewald                            10.909002 [s]
    NonEwald                         58.949699 [s]
    Overhead                          0.159581 [s]

Translation                          22.260781 [s]
    Ewald                            12.322608 [s]
    ExternalField-Molecule            0.006674 [s]
    Framework-Molecule                0.009903 [s]
    Molecule-Molecule                 9.063253 [s]
    Overhead                          0.858343 [s]



Volume change                          9.462230 [s]
    Ewald                              4.710021 [s]
    NonEwald                           4.521497 [s]
    Tail                               0.147184 [s]

Property sampling                     0.238772 [s]
Energy/pressure sampling:             3.457985 [s]


Production run CPU timings of the MC moves summed over systems and components
===============================================================================


Translation                          22.260781 [s]
    Ewald                            12.322608 [s]
    ExternalField-Molecule            0.006674 [s]
    Framework-Molecule                0.009903 [s]
    Molecule-Molecule                 9.063253 [s]
    Overhead                          0.858343 [s]

Rotation                             22.281283 [s]
    Ewald                            12.391618 [s]
    ExternalField-Molecule            0.005925 [s]
    Framework-Molecule                0.005241 [s]
    Molecule-Molecule                 9.056130 [s]
    Overhead                          0.822369 [s]

Volume change                         9.462230 [s]
    Ewald                             4.710021 [s]
    NonEwald                          4.521497 [s]
    Tail                              0.147184 [s]
    Overhead                          0.083528 [s]

Reinsertion (CBMC)                   70.018282 [s]
    Ewald                            10.909002 [s]
    NonEwald                         58.949699 [s]
    Overhead                          0.159581 [s]

Property sampling:                    0.238772 [s]
Energy/pressure sampling:             3.457985 [s]

Production simulation time:         128.107134 [s]
                All summed:         127.719333 [s]
                  Overhead:           0.387801 [s]


Initalization simulation time:       23.741769 [s]
Equilibration simulation time:        0.000000 [s]
Production simulation time:         128.107134 [s]
Total simulation time:              151.848903 [s]


Energy averages and statistics:
===============================================================================

Framework-molecule energy:
-------------------------------------------------------------------------------



Framework-molecule energy contributions per energy type:
-------------------------------------------------------------------------------



Inter-molecular energy:
-------------------------------------------------------------------------------

    Inter-molecular energy/kʙ 0-0 [CO2-CO2]:
    ---------------------------------------------------------------------------
        Block[  0] -1.574391e+05
        Block[  1] -1.504265e+05
        Block[  2] -1.563400e+05
        Block[  3] -1.600879e+05
        Block[  4] -1.546895e+05
        -----------------------------------------------------------------------
        Average  -1.557966e+05 +/-  4.453398e+03 [K]



Inter-molecular energy contributions per energy type:
-------------------------------------------------------------------------------

    Van der Waals energy/kʙ 0-0 [CO2-CO2]:
    ---------------------------------------------------------------------------
        Block[  0] -1.114049e+05
        Block[  1] -1.081430e+05
        Block[  2] -1.105837e+05
        Block[  3] -1.134432e+05
        Block[  4] -1.098394e+05
        -----------------------------------------------------------------------
        Average  -1.106828e+05 +/-  2.429057e+03 [K]

    VDW Tail-Correction energy/kʙ 0-0 [CO2-CO2]:
    ---------------------------------------------------------------------------
        Block[  0] -4.777701e+03
        Block[  1] -4.644915e+03
        Block[  2] -4.777311e+03
        Block[  3] -4.867668e+03
        Block[  4] -4.712848e+03
        -----------------------------------------------------------------------
        Average  -4.756089e+03 +/-  1.031180e+02 [K]

    Coulomb Real energy/kʙ 0-0 [CO2-CO2]:
    ---------------------------------------------------------------------------
        Block[  0] -3.314406e+04
        Block[  1] -3.013908e+04
        Block[  2] -3.310913e+04
        Block[  3] -3.369336e+04
        Block[  4] -3.245710e+04
        -----------------------------------------------------------------------
        Average  -3.250854e+04 +/-  1.731987e+03 [K]

    Coulomb Fourier energy/kʙ 0-0 [CO2-CO2]:
    ---------------------------------------------------------------------------
        Block[  0] -8.112462e+03
        Block[  1] -7.499519e+03
        Block[  2] -7.869869e+03
        Block[  3] -8.083670e+03
        Block[  4] -7.680180e+03
        -----------------------------------------------------------------------
        Average  -7.849140e+03 +/-  3.258433e+02 [K]


Total energy/kʙ
-------------------------------------------------------------------------------
    Block[  0] -1.574391e+05
    Block[  1] -1.504265e+05
    Block[  2] -1.563400e+05
    Block[  3] -1.600879e+05
    Block[  4] -1.546895e+05
    ---------------------------------------------------------------------------
    Average  -1.557966e+05 +/-  4.453398e+03 [K]

Pressure averages and statistics:
===============================================================================

Average pressure tensor: 
-------------------------------------------------------------------------------
 1.5564e+02  4.7519e+00  2.1498e+01 +/- 6.8961e+01 7.3052e+01 8.8859e+01 [bar]
 4.7519e+00  2.3471e+02 -8.6734e+01 +/- 7.3052e+01 1.4964e+02 6.4744e+01 [bar]
 2.1498e+01 -8.6734e+01  1.4248e+02 +/- 8.8859e+01 6.4744e+01 1.3730e+02 [bar]

    Block[  0]  5.143535e+07
    Block[  1]  4.997514e+07
    Block[  2]  5.135160e+07
    Block[  3]  5.234596e+07
    Block[  4]  5.067467e+07
    ---------------------------------------------------------------------------
    Ideal gas pressure   5.115654e+07 +/-  6.643395e-02 [Pa]
                         5.115654e+02 +/-  1.103162e+01 [bar]


    Block[  0] -3.640452e+07
    Block[  1] -3.961257e+07
    Block[  2] -3.053311e+07
    Block[  3] -2.826102e+07
    Block[  4] -3.216619e+07
    ---------------------------------------------------------------------------
    Excess pressure  -3.339548e+07 +/-  5.681434e+06 [Pa]
                     -3.339548e+02 +/-  5.681434e+01 [bar]


    Block[  0]  1.503084e+07
    Block[  1]  1.036256e+07
    Block[  2]  2.081849e+07
    Block[  3]  2.408494e+07
    Block[  4]  1.850848e+07
    ---------------------------------------------------------------------------
    Pressure average   1.776106e+07 +/-  6.571850e+06 [Pa]
                       1.776106e+02 +/-  6.571850e+01 [bar]


Enthalpy of adsorption
===============================================================================

No fluctuating components present.


Densities
===============================================================================

Component 0 (CO2)
    Block[  0] 100
    Block[  1] 100
    Block[  2] 100
    Block[  3] 100
    Block[  4] 100
    -----------------------------------------------------------------------
    Density average   1.000000e+02 +/-  0.000000e+00 [molecules]
    Density average   1.482100e-02 +/-  3.196066e-04 [molec/A^3]
    Density average   1.082848e+03 +/-  2.335100e+01 [kg.m⁻³]

