Compiler and run-time data
===============================================================================
RASPA 3.0.4

Random seed: 3989145977

Compiled as a 64-bits application
Compiler: gcc Ubuntu Clang 18.1.3 (1ubuntu1)
Compile Date = Mar 15 2025, Compile Time = 19:39:45

2025-06-02 13:38:55.148315
Simulation started on Mon, Jun 02
The start time was 13:38:00

Hostname:    c061
OS type:     Linux on x86_64
OS release:  6.8.0-58-generic
OS version:  #60-Ubuntu SMP PREEMPT_DYNAMIC Fri Mar 14 18:29:48 UTC 2025


Mutual consistent basic set of units:
===============================================================================

Unit of temperature: 1 [K]
Unit of length:      1e-10 [m]
Unit of time:        1e-12 [s]
Unit of mass:        1.6605402e-27 [kg]
Unit of charge:      1.60217733e-19 [C/particle]


Boltzmann constant (internal units):          0.8314464919307584 [-]
represents conversion from energy (internal units) to temperature (in Kelvin)

Derived units and their conversion factors:
===============================================================================

Unit of energy:                           1.6605402000000002e-23 [J]
Unit of energy:                           10.000008872307538 [J.mol⁻¹]
Unit of velocity:                         100 [m.s⁻¹]
Unit of force:                            1.6605402000000002e-13 [N]
Unit of diffusion:                        1.0000000000000002e-08 [m².s⁻¹]
Unit of acceleration:                     1.0000000000000002e-08 [m².s⁻¹]
Unit of torque:                           1.6605402000000002e-23 [N.m]
Unit of pressure:                         16605402 [Pa]
Unit of volume:                           1e-30 [m³]
Unit of density:                          1660.5402 [kg.m⁻³]
Unit of dynamic viscosity:                1.6605401999999997e-05 [N.s.m⁻²]
Unit of enthalpy:                         1.6605402000000002e-23 [J]
Unit of polarizability:                   1.5458657349975198e-35 [-]
Unit of Coulomb potential:                167101.08000665612 [K]
Unit of dielectric constant:              1.5458657349975193e-05 [s².C².kg⁻¹.m⁻³]
Unit of dipole moment:                    1.60217733e-29 [C.m]
Unit of Debye:                            4.803206799099162 [C.m]
Unit of electric potential:               0.00010364272224473431 [V]
Unit of electric field:                   1036427.222447343 [V.m⁻¹]
Unit of isothermal compressibility:       6.02213665167516e-08 [Pa⁻¹]
Unit of heat capacity:                    10.000008872307538 [J.mol⁻¹.K⁻¹]
Unit of volumetric expansion coefficient: 1 [K⁻¹]


Internal conversion factors:
===============================================================================

Energy (internal units) to Kelvin:      1.202724284692786 [-]
Kelvin to energy (internal units):      0.8314457542157567 [-]


System definitions
===============================================================================

Temperature:          250 [K]
Beta:                 0.0048108928702210625 [-]
Pressure:             1.4e+07 [Pa]
Helium void fraction: 1 [-]

Box:      30.00000   0.00000   0.00000
           0.00000  30.00000   0.00000
           0.00000   0.00000  30.00000
Lengths:  30.00000  30.00000  30.00000
Angles:   90.00000  90.00000  90.00000
Rectangular boundary conditions



Property measurement settings
===============================================================================




Pseudo-atoms
===============================================================================

  0 - C_co2    framework-atom: false
  1 - O_co2    framework-atom: false

  0 - C_co2    mass: 12.00000, charge:  0.70000
  1 - O_co2    mass: 15.99940, charge: -0.35000

  0 - C_co2    polarizability:  0.00000
  1 - O_co2    polarizability:  0.00000

  0 - J. J. Potoff et al., AIChE J. 2001, 47, 1676–1682.
  1 - J. J. Potoff et al., AIChE J. 2001, 47, 1676–1682.

Force field status
===============================================================================

Cutoff Framework-Molecule VDW:  10.00000 [Å]
Cutoff Molecule-Molecule VDW:   10.00000 [Å]
Cutoff Coulomb:                 10.00000 [Å]

Overlap-criteria VDW:           1.000000e+05 [K]

C_co2    - C_co2    Lennard-Jones p₀/kʙ:  27.00000 [K], p₁:  2.80000 [Å]
                                  shift:   0.00000 [K], tailcorrections: true
C_co2    - O_co2    Lennard-Jones p₀/kʙ:  46.18441 [K], p₁:  2.92500 [Å]
                                  shift:   0.00000 [K], tailcorrections: true
O_co2    - O_co2    Lennard-Jones p₀/kʙ:  79.00000 [K], p₁:  3.05000 [Å]
                                  shift:   0.00000 [K], tailcorrections: true

Ewald precision: 1e-06
Ewald alpha: 0.32079885109097883
Ewald k-vectors: 10 10 10


Component definitions
===============================================================================

Component 0 [CO2]

    Type: Adsorbate

    Critical temperature:  304.1282 [K]
    Critical pressure:     7377300 [Pa]
    Acentric factor:       0.22394 [-]

    Mol-fraction:                 1 [-]
    Swappable:                   false

    Mass:                         43.9988 [-]
    Bulk fluid density:           0 [-]
    Compressibility:              0 [-]
    Excess molecules:             0 [-]

    Number Of Atoms:    3
    CBMC starting bead: 0
      0: O_co2  position  0.00000 -0.00000  1.16000, charge -0.35000
      1: C_co2  position  0.00000 -0.00000  0.00000, charge  0.70000
      2: O_co2  position  0.00000 -0.00000 -1.16000, charge -0.35000
    Diagonalized inertia-vector:      43.05758528 43.05758528 0.00000000
    Translational degrees of freedom: 3
    Rotational degrees of freedom:    2
    Shape of the molecule is: 'Linear'
    Net-charge:        0.00000000 [e]

    Move probabilities:
    Translation:                   0.331126 [-]
    Random translation:            0.000000 [-]
    Rotation:                      0.331126 [-]
    Random rotation:               0.000000 [-]
    Volume change:                 0.006623 [-]
    Reinsertion (CBMC):            0.331126 [-]
    Identity change (CBMC):        0.000000 [-]
    Swap:                          0.000000 [-]
    Swap (CBMC):                   0.000000 [-]
    Swap (CFCMC):                  0.000000 [-]
    Swap (CB/CFCMC):               0.000000 [-]
    Gibbs volume:                  0.000000 [-]
    Gibbs swap (CBMC):             0.000000 [-]
    Gibbs swap (CFCMC):            0.000000 [-]
    Widom:                         0.000000 [-]
    Widom (CFCMC):                 0.000000 [-]
    Widom (CB/CFCMC):              0.000000 [-]
    Parallel tempering:            0.000000 [-]
    Hybrid MC:                     0.000000 [-]

    number of blocking-pockets: 0

    number of bonds: 0





Number of pseudo-atoms
===============================================================================

Component   0 (CO2)
-------------------------------------------------------------------------------
    index   0 (C_co2): 200 atoms
    index   1 (O_co2): 400 atoms

Total number of pseudo-atoms:
-------------------------------------------------------------------------------
    index   0 (C_co2): 200 atoms
    index   1 (O_co2): 400 atoms




Energy status Recomputed from scratch
===============================================================================

Total potential energy/kʙ       -9.448652e+04 [K]
    external field VDW/kʙ        0.000000e+00 [K]
    external field Real/kʙ       0.000000e+00 [K]
    framework-molecule VDW/kʙ    0.000000e+00 [K]
    framework-molecule Real/kʙ   0.000000e+00 [K]
    molecule-molecule VDW/kʙ    -7.357158e+04 [K]
    molecule-molecule Real/kʙ   -1.358810e+04 [K]
    Van der Waals (Tail)/kʙ     -4.753406e+03 [K]
    Ewald Fourier/kʙ             2.648827e+04 [K]
    Ewald self/kʙ               -4.445846e+06 [K]
    Ewald exclusion/kʙ           4.416785e+06 [K]
    intra VDW/kʙ                 0.000000e+00 [K]
    intra Coulombic/kʙ           0.000000e+00 [K]
    polarization/kʙ              0.000000e+00 [K]
    dU/dlambda VDW/kʙ            0.000000e+00 [K]
    dU/dlambda Real/kʙ           0.000000e+00 [K]
    dU/dlambda Ewald/kʙ          0.000000e+00 [K]





Initialization: Current cycle: 0 out of 1000
===============================================================================

Box:      30.26724   0.00000   0.00000
           0.00000  30.26724   0.00000
           0.00000   0.00000  30.26724
Lengths:  30.26724  30.26724  30.26724
Angles:   90.00000  90.00000  90.00000
Rectangular boundary conditions

net charge:   0.00000000

component   0 (CO2) lambda:  0 occupancy:  1 (1.000000)
    net charge:   0.00000000 [e]

Amount of molecules per component :
-------------------------------------------------------------------------------
Component 0 (CO2)
    molecules:         2.000000e+02 molecules
    number density:    7.212926e-03 molec/A^3
    density:           5.269887e+02 kg/m^3

Total potential energy/kʙ       -1.329527e+05 [K]
-------------------------------------------------------------------------------
    external field VDW/kʙ        0.000000e+00 [K]
    external field Real/kʙ       0.000000e+00 [K]
    framework-molecule VDW/kʙ    0.000000e+00 [K]
    framework-molecule Real/kʙ   0.000000e+00 [K]
    molecule-molecule VDW/kʙ    -1.048653e+05 [K]
    molecule-molecule Real/kʙ   -1.819748e+04 [K]
    Van der Waals (Tail)/kʙ     -4.628606e+03 [K]
    Ewald Fourier/kʙ             2.380037e+04 [K]
    Ewald self/kʙ               -4.445846e+06 [K]
    Ewald exclusion/kʙ           4.416785e+06 [K]
    intra VDW/kʙ                 0.000000e+00 [K]
    intra Coulombic/kʙ           0.000000e+00 [K]
    polarization/kʙ              0.000000e+00 [K]
    dU/dlambda VDW/kʙ            0.000000e+00 [K]
    dU/dlambda Real/kʙ           0.000000e+00 [K]
    dU/dlambda Ewald/kʙ          0.000000e+00 [K]


Initialization: Current cycle: 100 out of 1000
===============================================================================

Box:      27.50639   0.00000   0.00000
           0.00000  27.50639   0.00000
           0.00000   0.00000  27.50639
Lengths:  27.50639  27.50639  27.50639
Angles:   90.00000  90.00000  90.00000
Rectangular boundary conditions

net charge:   0.00000000

component   0 (CO2) lambda:  0 occupancy:  1 (1.000000)
    net charge:   0.00000000 [e]

Amount of molecules per component :
-------------------------------------------------------------------------------
Component 0 (CO2)
    molecules:         2.000000e+02 molecules
    number density:    9.610131e-03 molec/A^3
    density:           7.021326e+02 kg/m^3

Total potential energy/kʙ       -2.122176e+05 [K]
-------------------------------------------------------------------------------
    external field VDW/kʙ        0.000000e+00 [K]
    external field Real/kʙ       0.000000e+00 [K]
    framework-molecule VDW/kʙ    0.000000e+00 [K]
    framework-molecule Real/kʙ   0.000000e+00 [K]
    molecule-molecule VDW/kʙ    -1.530966e+05 [K]
    molecule-molecule Real/kʙ   -4.180710e+04 [K]
    Van der Waals (Tail)/kʙ     -6.166915e+03 [K]
    Ewald Fourier/kʙ             1.791469e+04 [K]
    Ewald self/kʙ               -4.445846e+06 [K]
    Ewald exclusion/kʙ           4.416785e+06 [K]
    intra VDW/kʙ                 0.000000e+00 [K]
    intra Coulombic/kʙ           0.000000e+00 [K]
    polarization/kʙ              0.000000e+00 [K]
    dU/dlambda VDW/kʙ            0.000000e+00 [K]
    dU/dlambda Real/kʙ           0.000000e+00 [K]
    dU/dlambda Ewald/kʙ          0.000000e+00 [K]


Initialization: Current cycle: 200 out of 1000
===============================================================================

Box:      25.45797   0.00000   0.00000
           0.00000  25.45797   0.00000
           0.00000   0.00000  25.45797
Lengths:  25.45797  25.45797  25.45797
Angles:   90.00000  90.00000  90.00000
Rectangular boundary conditions

net charge:   0.00000000

component   0 (CO2) lambda:  0 occupancy:  1 (1.000000)
    net charge:   0.00000000 [e]

Amount of molecules per component :
-------------------------------------------------------------------------------
Component 0 (CO2)
    molecules:         2.000000e+02 molecules
    number density:    1.212157e-02 molec/A^3
    density:           8.856227e+02 kg/m^3

Total potential energy/kʙ       -2.521002e+05 [K]
-------------------------------------------------------------------------------
    external field VDW/kʙ        0.000000e+00 [K]
    external field Real/kʙ       0.000000e+00 [K]
    framework-molecule VDW/kʙ    0.000000e+00 [K]
    framework-molecule Real/kʙ   0.000000e+00 [K]
    molecule-molecule VDW/kʙ    -1.831094e+05 [K]
    molecule-molecule Real/kʙ   -4.812674e+04 [K]
    Van der Waals (Tail)/kʙ     -7.778531e+03 [K]
    Ewald Fourier/kʙ             1.597617e+04 [K]
    Ewald self/kʙ               -4.445846e+06 [K]
    Ewald exclusion/kʙ           4.416785e+06 [K]
    intra VDW/kʙ                 0.000000e+00 [K]
    intra Coulombic/kʙ           0.000000e+00 [K]
    polarization/kʙ              0.000000e+00 [K]
    dU/dlambda VDW/kʙ            0.000000e+00 [K]
    dU/dlambda Real/kʙ           0.000000e+00 [K]
    dU/dlambda Ewald/kʙ          0.000000e+00 [K]


Initialization: Current cycle: 300 out of 1000
===============================================================================

Box:      24.29370   0.00000   0.00000
           0.00000  24.29370   0.00000
           0.00000   0.00000  24.29370
Lengths:  24.29370  24.29370  24.29370
Angles:   90.00000  90.00000  90.00000
Rectangular boundary conditions

net charge:   0.00000000

component   0 (CO2) lambda:  0 occupancy:  1 (1.000000)
    net charge:   0.00000000 [e]

Amount of molecules per component :
-------------------------------------------------------------------------------
Component 0 (CO2)
    molecules:         2.000000e+02 molecules
    number density:    1.394918e-02 molec/A^3
    density:           1.019151e+03 kg/m^3

Total potential energy/kʙ       -2.922763e+05 [K]
-------------------------------------------------------------------------------
    external field VDW/kʙ        0.000000e+00 [K]
    external field Real/kʙ       0.000000e+00 [K]
    framework-molecule VDW/kʙ    0.000000e+00 [K]
    framework-molecule Real/kʙ   0.000000e+00 [K]
    molecule-molecule VDW/kʙ    -2.126114e+05 [K]
    molecule-molecule Real/kʙ   -5.600505e+04 [K]
    Van der Waals (Tail)/kʙ     -8.951327e+03 [K]
    Ewald Fourier/kʙ             1.435322e+04 [K]
    Ewald self/kʙ               -4.445846e+06 [K]
    Ewald exclusion/kʙ           4.416785e+06 [K]
    intra VDW/kʙ                 0.000000e+00 [K]
    intra Coulombic/kʙ           0.000000e+00 [K]
    polarization/kʙ              0.000000e+00 [K]
    dU/dlambda VDW/kʙ            0.000000e+00 [K]
    dU/dlambda Real/kʙ           0.000000e+00 [K]
    dU/dlambda Ewald/kʙ          0.000000e+00 [K]


Initialization: Current cycle: 400 out of 1000
===============================================================================

Box:      24.07021   0.00000   0.00000
           0.00000  24.07021   0.00000
           0.00000   0.00000  24.07021
Lengths:  24.07021  24.07021  24.07021
Angles:   90.00000  90.00000  90.00000
Rectangular boundary conditions

net charge:   0.00000000

component   0 (CO2) lambda:  0 occupancy:  1 (1.000000)
    net charge:   0.00000000 [e]

Amount of molecules per component :
-------------------------------------------------------------------------------
Component 0 (CO2)
    molecules:         2.000000e+02 molecules
    number density:    1.434137e-02 molec/A^3
    density:           1.047805e+03 kg/m^3

Total potential energy/kʙ       -3.002493e+05 [K]
-------------------------------------------------------------------------------
    external field VDW/kʙ        0.000000e+00 [K]
    external field Real/kʙ       0.000000e+00 [K]
    framework-molecule VDW/kʙ    0.000000e+00 [K]
    framework-molecule Real/kʙ   0.000000e+00 [K]
    molecule-molecule VDW/kʙ    -2.155761e+05 [K]
    molecule-molecule Real/kʙ   -5.978796e+04 [K]
    Van der Waals (Tail)/kʙ     -9.202995e+03 [K]
    Ewald Fourier/kʙ             1.337951e+04 [K]
    Ewald self/kʙ               -4.445846e+06 [K]
    Ewald exclusion/kʙ           4.416785e+06 [K]
    intra VDW/kʙ                 0.000000e+00 [K]
    intra Coulombic/kʙ           0.000000e+00 [K]
    polarization/kʙ              0.000000e+00 [K]
    dU/dlambda VDW/kʙ            0.000000e+00 [K]
    dU/dlambda Real/kʙ           0.000000e+00 [K]
    dU/dlambda Ewald/kʙ          0.000000e+00 [K]


Initialization: Current cycle: 500 out of 1000
===============================================================================

Box:      24.06281   0.00000   0.00000
           0.00000  24.06281   0.00000
           0.00000   0.00000  24.06281
Lengths:  24.06281  24.06281  24.06281
Angles:   90.00000  90.00000  90.00000
Rectangular boundary conditions

net charge:   0.00000000

component   0 (CO2) lambda:  0 occupancy:  1 (1.000000)
    net charge:   0.00000000 [e]

Amount of molecules per component :
-------------------------------------------------------------------------------
Component 0 (CO2)
    molecules:         2.000000e+02 molecules
    number density:    1.435460e-02 molec/A^3
    density:           1.048772e+03 kg/m^3

Total potential energy/kʙ       -2.975908e+05 [K]
-------------------------------------------------------------------------------
    external field VDW/kʙ        0.000000e+00 [K]
    external field Real/kʙ       0.000000e+00 [K]
    framework-molecule VDW/kʙ    0.000000e+00 [K]
    framework-molecule Real/kʙ   0.000000e+00 [K]
    molecule-molecule VDW/kʙ    -2.122009e+05 [K]
    molecule-molecule Real/kʙ   -6.173812e+04 [K]
    Van der Waals (Tail)/kʙ     -9.211491e+03 [K]
    Ewald Fourier/kʙ             1.462138e+04 [K]
    Ewald self/kʙ               -4.445846e+06 [K]
    Ewald exclusion/kʙ           4.416785e+06 [K]
    intra VDW/kʙ                 0.000000e+00 [K]
    intra Coulombic/kʙ           0.000000e+00 [K]
    polarization/kʙ              0.000000e+00 [K]
    dU/dlambda VDW/kʙ            0.000000e+00 [K]
    dU/dlambda Real/kʙ           0.000000e+00 [K]
    dU/dlambda Ewald/kʙ          0.000000e+00 [K]


Initialization: Current cycle: 600 out of 1000
===============================================================================

Box:      24.27026   0.00000   0.00000
           0.00000  24.27026   0.00000
           0.00000   0.00000  24.27026
Lengths:  24.27026  24.27026  24.27026
Angles:   90.00000  90.00000  90.00000
Rectangular boundary conditions

net charge:   0.00000000

component   0 (CO2) lambda:  0 occupancy:  1 (1.000000)
    net charge:   0.00000000 [e]

Amount of molecules per component :
-------------------------------------------------------------------------------
Component 0 (CO2)
    molecules:         2.000000e+02 molecules
    number density:    1.398965e-02 molec/A^3
    density:           1.022108e+03 kg/m^3

Total potential energy/kʙ       -2.902188e+05 [K]
-------------------------------------------------------------------------------
    external field VDW/kʙ        0.000000e+00 [K]
    external field Real/kʙ       0.000000e+00 [K]
    framework-molecule VDW/kʙ    0.000000e+00 [K]
    framework-molecule Real/kʙ   0.000000e+00 [K]
    molecule-molecule VDW/kʙ    -2.057252e+05 [K]
    molecule-molecule Real/kʙ   -6.034366e+04 [K]
    Van der Waals (Tail)/kʙ     -8.977296e+03 [K]
    Ewald Fourier/kʙ             1.388900e+04 [K]
    Ewald self/kʙ               -4.445846e+06 [K]
    Ewald exclusion/kʙ           4.416785e+06 [K]
    intra VDW/kʙ                 0.000000e+00 [K]
    intra Coulombic/kʙ           0.000000e+00 [K]
    polarization/kʙ              0.000000e+00 [K]
    dU/dlambda VDW/kʙ            0.000000e+00 [K]
    dU/dlambda Real/kʙ           0.000000e+00 [K]
    dU/dlambda Ewald/kʙ          0.000000e+00 [K]


Initialization: Current cycle: 700 out of 1000
===============================================================================

Box:      24.36438   0.00000   0.00000
           0.00000  24.36438   0.00000
           0.00000   0.00000  24.36438
Lengths:  24.36438  24.36438  24.36438
Angles:   90.00000  90.00000  90.00000
Rectangular boundary conditions

net charge:   0.00000000

component   0 (CO2) lambda:  0 occupancy:  1 (1.000000)
    net charge:   0.00000000 [e]

Amount of molecules per component :
-------------------------------------------------------------------------------
Component 0 (CO2)
    molecules:         2.000000e+02 molecules
    number density:    1.382814e-02 molec/A^3
    density:           1.010308e+03 kg/m^3

Total potential energy/kʙ       -2.987723e+05 [K]
-------------------------------------------------------------------------------
    external field VDW/kʙ        0.000000e+00 [K]
    external field Real/kʙ       0.000000e+00 [K]
    framework-molecule VDW/kʙ    0.000000e+00 [K]
    framework-molecule Real/kʙ   0.000000e+00 [K]
    molecule-molecule VDW/kʙ    -2.094360e+05 [K]
    molecule-molecule Real/kʙ   -6.507291e+04 [K]
    Van der Waals (Tail)/kʙ     -8.873653e+03 [K]
    Ewald Fourier/kʙ             1.367192e+04 [K]
    Ewald self/kʙ               -4.445846e+06 [K]
    Ewald exclusion/kʙ           4.416785e+06 [K]
    intra VDW/kʙ                 0.000000e+00 [K]
    intra Coulombic/kʙ           0.000000e+00 [K]
    polarization/kʙ              0.000000e+00 [K]
    dU/dlambda VDW/kʙ            0.000000e+00 [K]
    dU/dlambda Real/kʙ           0.000000e+00 [K]
    dU/dlambda Ewald/kʙ          0.000000e+00 [K]


Initialization: Current cycle: 800 out of 1000
===============================================================================

Box:      24.14638   0.00000   0.00000
           0.00000  24.14638   0.00000
           0.00000   0.00000  24.14638
Lengths:  24.14638  24.14638  24.14638
Angles:   90.00000  90.00000  90.00000
Rectangular boundary conditions

net charge:   0.00000000

component   0 (CO2) lambda:  0 occupancy:  1 (1.000000)
    net charge:   0.00000000 [e]

Amount of molecules per component :
-------------------------------------------------------------------------------
Component 0 (CO2)
    molecules:         2.000000e+02 molecules
    number density:    1.420607e-02 molec/A^3
    density:           1.037920e+03 kg/m^3

Total potential energy/kʙ       -2.856941e+05 [K]
-------------------------------------------------------------------------------
    external field VDW/kʙ        0.000000e+00 [K]
    external field Real/kʙ       0.000000e+00 [K]
    framework-molecule VDW/kʙ    0.000000e+00 [K]
    framework-molecule Real/kʙ   0.000000e+00 [K]
    molecule-molecule VDW/kʙ    -2.065708e+05 [K]
    molecule-molecule Real/kʙ   -5.575945e+04 [K]
    Van der Waals (Tail)/kʙ     -9.116176e+03 [K]
    Ewald Fourier/kʙ             1.481403e+04 [K]
    Ewald self/kʙ               -4.445846e+06 [K]
    Ewald exclusion/kʙ           4.416785e+06 [K]
    intra VDW/kʙ                 0.000000e+00 [K]
    intra Coulombic/kʙ           0.000000e+00 [K]
    polarization/kʙ              0.000000e+00 [K]
    dU/dlambda VDW/kʙ            0.000000e+00 [K]
    dU/dlambda Real/kʙ           0.000000e+00 [K]
    dU/dlambda Ewald/kʙ          0.000000e+00 [K]


Initialization: Current cycle: 900 out of 1000
===============================================================================

Box:      24.06694   0.00000   0.00000
           0.00000  24.06694   0.00000
           0.00000   0.00000  24.06694
Lengths:  24.06694  24.06694  24.06694
Angles:   90.00000  90.00000  90.00000
Rectangular boundary conditions

net charge:   0.00000000

component   0 (CO2) lambda:  0 occupancy:  1 (1.000000)
    net charge:   0.00000000 [e]

Amount of molecules per component :
-------------------------------------------------------------------------------
Component 0 (CO2)
    molecules:         2.000000e+02 molecules
    number density:    1.434721e-02 molec/A^3
    density:           1.048232e+03 kg/m^3

Total potential energy/kʙ       -3.110149e+05 [K]
-------------------------------------------------------------------------------
    external field VDW/kʙ        0.000000e+00 [K]
    external field Real/kʙ       0.000000e+00 [K]
    framework-molecule VDW/kʙ    0.000000e+00 [K]
    framework-molecule Real/kʙ   0.000000e+00 [K]
    molecule-molecule VDW/kʙ    -2.258061e+05 [K]
    molecule-molecule Real/kʙ   -5.973884e+04 [K]
    Van der Waals (Tail)/kʙ     -9.206747e+03 [K]
    Ewald Fourier/kʙ             1.279852e+04 [K]
    Ewald self/kʙ               -4.445846e+06 [K]
    Ewald exclusion/kʙ           4.416785e+06 [K]
    intra VDW/kʙ                 0.000000e+00 [K]
    intra Coulombic/kʙ           0.000000e+00 [K]
    polarization/kʙ              0.000000e+00 [K]
    dU/dlambda VDW/kʙ            0.000000e+00 [K]
    dU/dlambda Real/kʙ           0.000000e+00 [K]
    dU/dlambda Ewald/kʙ          0.000000e+00 [K]


Current cycle: 0 out of 5000
===============================================================================

Box:      23.86020   0.00000   0.00000  Average:  23.86020   0.00000   0.00000
           0.00000  23.86020   0.00000             0.00000  23.86020   0.00000
           0.00000   0.00000  23.86020             0.00000   0.00000  23.86020
Lengths:  23.86020  23.86020  23.86020  Average:  23.86020  23.86020  23.86020
Angles:   90.00000  90.00000  90.00000  Average:  90.00000  90.00000  90.00000
Rectangular boundary conditions

net charge:   0.00000000

component 0 (CO2) lambda:  0 occupancy:  1 (1.000000)
    net charge:   0.00000000 [e]

Amount of molecules per component :
-------------------------------------------------------------------------------
Component 0 (CO2)
    molecules:      2.000000e+02 molecules  (2.000000e+02 +/- 0.000000e+00)
    number density: 1.472338e-02 molec./A^3 (1.472338e-02 +/- 0.000000e+00)
    density:        1.075716e+03 kg/m^3     (1.075716e+03 +/- 0.000000e+00)

Average pressure tensor: 
-------------------------------------------------------------------------------
 5.0820e+02  0.0000e+00  0.0000e+00 +/- 0.0000e+00 0.0000e+00 0.0000e+00 [bar]
 0.0000e+00  5.0820e+02  0.0000e+00 +/- 0.0000e+00 0.0000e+00 0.0000e+00 [bar]
 0.0000e+00  0.0000e+00  5.0820e+02 +/- 0.0000e+00 0.0000e+00 0.0000e+00 [bar]
Ideal-gas pressure:   5.081961e+02 +/ 0.000000e+00 [bar]
Excess pressure:      0.000000e+00 +/ 0.000000e+00 [bar]
Pressure:             5.081961e+02 +/ 0.000000e+00 [bar]

Total potential energy/kʙ  -3.217572e+05 (-3.217572e+05 +/- 0.000000e+00) [K]
-------------------------------------------------------------------------------
ExternalField-molecule
    Van der Waals/kʙ        0.000000e+00 ( 0.000000e+00 +/- 0.000000e+00) [K]
Framework-molecule
    Van der Waals/kʙ        0.000000e+00 ( 0.000000e+00 +/- 0.000000e+00) [K]
    Van der Waals (Tail)/kʙ 0.000000e+00 ( 0.000000e+00 +/- 0.000000e+00) [K]
    Coulombic Real/kʙ       0.000000e+00 ( 0.000000e+00 +/- 0.000000e+00) [K]
    Coulombic Fourier/kʙ    0.000000e+00 ( 0.000000e+00 +/- 0.000000e+00) [K]
Molecule-molecule
    Van der Waals/kʙ       -2.233596e+05 (-2.233596e+05 +/- 0.000000e+00) [K]
    Van der Waals (Tail)/kʙ-9.448139e+03 (-9.448139e+03 +/- 0.000000e+00) [K]
    Coulombic Real/kʙ      -7.234385e+04 (-7.234385e+04 +/- 0.000000e+00) [K]
    Coulombic Fourier/kʙ   -1.660561e+04 (-1.660561e+04 +/- 0.000000e+00) [K]
    Molecule Intra/kʙ       0.000000e+00 ( 0.000000e+00 +/- 0.000000e+00) [K]

Current cycle: 100 out of 5000
===============================================================================

Box:      23.87718   0.00000   0.00000  Average:  23.86537   0.00000   0.00000
           0.00000  23.87718   0.00000             0.00000  23.86537   0.00000
           0.00000   0.00000  23.87718             0.00000   0.00000  23.86537
Lengths:  23.87718  23.87718  23.87718  Average:  23.86537  23.86537  23.86537
Angles:   90.00000  90.00000  90.00000  Average:  90.00000  90.00000  90.00000
Rectangular boundary conditions

net charge:   0.00000000

component 0 (CO2) lambda:  0 occupancy:  1 (1.000000)
    net charge:   0.00000000 [e]

Amount of molecules per component :
-------------------------------------------------------------------------------
Component 0 (CO2)
    molecules:      2.000000e+02 molecules  (2.000000e+02 +/- 0.000000e+00)
    number density: 1.469200e-02 molec./A^3 (1.471563e-02 +/- 0.000000e+00)
    density:        1.073423e+03 kg/m^3     (1.075149e+03 +/- 0.000000e+00)

Average pressure tensor: 
-------------------------------------------------------------------------------
 3.1568e+02 -7.6471e+01 -2.2604e+02 +/- 0.0000e+00 0.0000e+00 0.0000e+00 [bar]
-7.6471e+01  4.0953e+01  7.1854e+00 +/- 0.0000e+00 0.0000e+00 0.0000e+00 [bar]
-2.2604e+02  7.1854e+00  4.5555e+01 +/- 0.0000e+00 0.0000e+00 0.0000e+00 [bar]
Ideal-gas pressure:   5.079284e+02 +/ 0.000000e+00 [bar]
Excess pressure:     -3.738667e+02 +/ 0.000000e+00 [bar]
Pressure:             1.340618e+02 +/ 0.000000e+00 [bar]

Total potential energy/kʙ  -3.148035e+05 (-3.126030e+05 +/- 0.000000e+00) [K]
-------------------------------------------------------------------------------
ExternalField-molecule
    Van der Waals/kʙ        0.000000e+00 ( 0.000000e+00 +/- 0.000000e+00) [K]
Framework-molecule
    Van der Waals/kʙ        0.000000e+00 ( 0.000000e+00 +/- 0.000000e+00) [K]
    Van der Waals (Tail)/kʙ 0.000000e+00 ( 0.000000e+00 +/- 0.000000e+00) [K]
    Coulombic Real/kʙ       0.000000e+00 ( 0.000000e+00 +/- 0.000000e+00) [K]
    Coulombic Fourier/kʙ    0.000000e+00 ( 0.000000e+00 +/- 0.000000e+00) [K]
Molecule-molecule
    Van der Waals/kʙ       -2.214443e+05 (-2.216221e+05 +/- 0.000000e+00) [K]
    Van der Waals (Tail)/kʙ-9.427999e+03 (-9.455712e+03 +/- 0.000000e+00) [K]
    Coulombic Real/kʙ      -6.762571e+04 (-6.610433e+04 +/- 0.000000e+00) [K]
    Coulombic Fourier/kʙ   -1.630549e+04 (-1.542083e+04 +/- 0.000000e+00) [K]
    Molecule Intra/kʙ       0.000000e+00 ( 0.000000e+00 +/- 0.000000e+00) [K]

Current cycle: 200 out of 5000
===============================================================================

Box:      23.81990   0.00000   0.00000  Average:  23.81750   0.00000   0.00000
           0.00000  23.81990   0.00000             0.00000  23.81750   0.00000
           0.00000   0.00000  23.81990             0.00000   0.00000  23.81750
Lengths:  23.81990  23.81990  23.81990  Average:  23.81750  23.81750  23.81750
Angles:   90.00000  90.00000  90.00000  Average:  90.00000  90.00000  90.00000
Rectangular boundary conditions

net charge:   0.00000000

component 0 (CO2) lambda:  0 occupancy:  1 (1.000000)
    net charge:   0.00000000 [e]

Amount of molecules per component :
-------------------------------------------------------------------------------
Component 0 (CO2)
    molecules:      2.000000e+02 molecules  (2.000000e+02 +/- 0.000000e+00)
    number density: 1.479825e-02 molec./A^3 (1.480493e-02 +/- 0.000000e+00)
    density:        1.081185e+03 kg/m^3     (1.081674e+03 +/- 0.000000e+00)

Average pressure tensor: 
-------------------------------------------------------------------------------
 2.4166e+02  1.1481e+01 -6.2172e+01 +/- 0.0000e+00 0.0000e+00 0.0000e+00 [bar]
 1.1481e+01  9.3496e+01  3.9671e+01 +/- 0.0000e+00 0.0000e+00 0.0000e+00 [bar]
-6.2172e+01  3.9671e+01 -4.1028e+01 +/- 0.0000e+00 0.0000e+00 0.0000e+00 [bar]
Ideal-gas pressure:   5.110108e+02 +/ 0.000000e+00 [bar]
Excess pressure:     -4.129675e+02 +/ 0.000000e+00 [bar]
Pressure:             9.804334e+01 +/ 0.000000e+00 [bar]

Total potential energy/kʙ  -3.213934e+05 (-3.155749e+05 +/- 0.000000e+00) [K]
-------------------------------------------------------------------------------
ExternalField-molecule
    Van der Waals/kʙ        0.000000e+00 ( 0.000000e+00 +/- 0.000000e+00) [K]
Framework-molecule
    Van der Waals/kʙ        0.000000e+00 ( 0.000000e+00 +/- 0.000000e+00) [K]
    Van der Waals (Tail)/kʙ 0.000000e+00 ( 0.000000e+00 +/- 0.000000e+00) [K]
    Coulombic Real/kʙ       0.000000e+00 ( 0.000000e+00 +/- 0.000000e+00) [K]
    Coulombic Fourier/kʙ    0.000000e+00 ( 0.000000e+00 +/- 0.000000e+00) [K]
Molecule-molecule
    Van der Waals/kʙ       -2.286649e+05 (-2.239326e+05 +/- 0.000000e+00) [K]
    Van der Waals (Tail)/kʙ-9.496179e+03 (-9.513341e+03 +/- 0.000000e+00) [K]
    Coulombic Real/kʙ      -6.710609e+04 (-6.640333e+04 +/- 0.000000e+00) [K]
    Coulombic Fourier/kʙ   -1.612621e+04 (-1.572573e+04 +/- 0.000000e+00) [K]
    Molecule Intra/kʙ       0.000000e+00 ( 0.000000e+00 +/- 0.000000e+00) [K]

Current cycle: 300 out of 5000
===============================================================================

Box:      23.62923   0.00000   0.00000  Average:  23.79908   0.00000   0.00000
           0.00000  23.62923   0.00000             0.00000  23.79908   0.00000
           0.00000   0.00000  23.62923             0.00000   0.00000  23.79908
Lengths:  23.62923  23.62923  23.62923  Average:  23.79908  23.79908  23.79908
Angles:   90.00000  90.00000  90.00000  Average:  90.00000  90.00000  90.00000
Rectangular boundary conditions

net charge:   0.00000000

component 0 (CO2) lambda:  0 occupancy:  1 (1.000000)
    net charge:   0.00000000 [e]

Amount of molecules per component :
-------------------------------------------------------------------------------
Component 0 (CO2)
    molecules:      2.000000e+02 molecules  (2.000000e+02 +/- 0.000000e+00)
    number density: 1.515938e-02 molec./A^3 (1.483905e-02 +/- 0.000000e+00)
    density:        1.107570e+03 kg/m^3     (1.084166e+03 +/- 0.000000e+00)

Average pressure tensor: 
-------------------------------------------------------------------------------
 1.4619e+02 -2.8480e+01 -6.3069e+01 +/- 0.0000e+00 0.0000e+00 0.0000e+00 [bar]
-2.8480e+01  1.2799e+02  3.3498e+01 +/- 0.0000e+00 0.0000e+00 0.0000e+00 [bar]
-6.3069e+01  3.3498e+01 -1.6154e+01 +/- 0.0000e+00 0.0000e+00 0.0000e+00 [bar]
Ideal-gas pressure:   5.121884e+02 +/ 0.000000e+00 [bar]
Excess pressure:     -4.261813e+02 +/ 0.000000e+00 [bar]
Pressure:             8.600712e+01 +/ 0.000000e+00 [bar]

Total potential energy/kʙ  -3.124574e+05 (-3.155506e+05 +/- 0.000000e+00) [K]
-------------------------------------------------------------------------------
ExternalField-molecule
    Van der Waals/kʙ        0.000000e+00 ( 0.000000e+00 +/- 0.000000e+00) [K]
Framework-molecule
    Van der Waals/kʙ        0.000000e+00 ( 0.000000e+00 +/- 0.000000e+00) [K]
    Van der Waals (Tail)/kʙ 0.000000e+00 ( 0.000000e+00 +/- 0.000000e+00) [K]
    Coulombic Real/kʙ       0.000000e+00 ( 0.000000e+00 +/- 0.000000e+00) [K]
    Coulombic Fourier/kʙ    0.000000e+00 ( 0.000000e+00 +/- 0.000000e+00) [K]
Molecule-molecule
    Van der Waals/kʙ       -2.239791e+05 (-2.247991e+05 +/- 0.000000e+00) [K]
    Van der Waals (Tail)/kʙ-9.727920e+03 (-9.532237e+03 +/- 0.000000e+00) [K]
    Coulombic Real/kʙ      -6.457475e+04 (-6.570340e+04 +/- 0.000000e+00) [K]
    Coulombic Fourier/kʙ   -1.417568e+04 (-1.551586e+04 +/- 0.000000e+00) [K]
    Molecule Intra/kʙ       0.000000e+00 ( 0.000000e+00 +/- 0.000000e+00) [K]

Current cycle: 400 out of 5000
===============================================================================

Box:      23.74589   0.00000   0.00000  Average:  23.76004   0.00000   0.00000
           0.00000  23.74589   0.00000             0.00000  23.76004   0.00000
           0.00000   0.00000  23.74589             0.00000   0.00000  23.76004
Lengths:  23.74589  23.74589  23.74589  Average:  23.76004  23.76004  23.76004
Angles:   90.00000  90.00000  90.00000  Average:  90.00000  90.00000  90.00000
Rectangular boundary conditions

net charge:   0.00000000

component 0 (CO2) lambda:  0 occupancy:  1 (1.000000)
    net charge:   0.00000000 [e]

Amount of molecules per component :
-------------------------------------------------------------------------------
Component 0 (CO2)
    molecules:      2.000000e+02 molecules  (2.000000e+02 +/- 0.000000e+00)
    number density: 1.493704e-02 molec./A^3 (1.491277e-02 +/- 0.000000e+00)
    density:        1.091325e+03 kg/m^3     (1.089553e+03 +/- 0.000000e+00)

Average pressure tensor: 
-------------------------------------------------------------------------------
 1.2144e+02 -1.4607e+01  6.7124e+00 +/- 0.0000e+00 0.0000e+00 0.0000e+00 [bar]
-1.4607e+01  1.1511e+02  4.7805e+01 +/- 0.0000e+00 0.0000e+00 0.0000e+00 [bar]
 6.7124e+00  4.7805e+01  9.4637e+01 +/- 0.0000e+00 0.0000e+00 0.0000e+00 [bar]
Ideal-gas pressure:   5.147331e+02 +/ 0.000000e+00 [bar]
Excess pressure:     -4.043389e+02 +/ 0.000000e+00 [bar]
Pressure:             1.103942e+02 +/ 0.000000e+00 [bar]

Total potential energy/kʙ  -3.161476e+05 (-3.170022e+05 +/- 0.000000e+00) [K]
-------------------------------------------------------------------------------
ExternalField-molecule
    Van der Waals/kʙ        0.000000e+00 ( 0.000000e+00 +/- 0.000000e+00) [K]
Framework-molecule
    Van der Waals/kʙ        0.000000e+00 ( 0.000000e+00 +/- 0.000000e+00) [K]
    Van der Waals (Tail)/kʙ 0.000000e+00 ( 0.000000e+00 +/- 0.000000e+00) [K]
    Coulombic Real/kʙ       0.000000e+00 ( 0.000000e+00 +/- 0.000000e+00) [K]
    Coulombic Fourier/kʙ    0.000000e+00 ( 0.000000e+00 +/- 0.000000e+00) [K]
Molecule-molecule
    Van der Waals/kʙ       -2.241984e+05 (-2.259538e+05 +/- 0.000000e+00) [K]
    Van der Waals (Tail)/kʙ-9.585242e+03 (-9.576570e+03 +/- 0.000000e+00) [K]
    Coulombic Real/kʙ      -6.652892e+04 (-6.591642e+04 +/- 0.000000e+00) [K]
    Coulombic Fourier/kʙ   -1.583506e+04 (-1.555543e+04 +/- 0.000000e+00) [K]
    Molecule Intra/kʙ       0.000000e+00 ( 0.000000e+00 +/- 0.000000e+00) [K]

Current cycle: 500 out of 5000
===============================================================================

Box:      23.73093   0.00000   0.00000  Average:  23.74753   0.00000   0.00000
           0.00000  23.73093   0.00000             0.00000  23.74753   0.00000
           0.00000   0.00000  23.73093             0.00000   0.00000  23.74753
Lengths:  23.73093  23.73093  23.73093  Average:  23.74753  23.74753  23.74753
Angles:   90.00000  90.00000  90.00000  Average:  90.00000  90.00000  90.00000
Rectangular boundary conditions

net charge:   0.00000000

component 0 (CO2) lambda:  0 occupancy:  1 (1.000000)
    net charge:   0.00000000 [e]

Amount of molecules per component :
-------------------------------------------------------------------------------
Component 0 (CO2)
    molecules:      2.000000e+02 molecules  (2.000000e+02 +/- 0.000000e+00)
    number density: 1.496531e-02 molec./A^3 (1.493627e-02 +/- 0.000000e+00)
    density:        1.093391e+03 kg/m^3     (1.091270e+03 +/- 0.000000e+00)

Average pressure tensor: 
-------------------------------------------------------------------------------
 8.6493e+01  1.0983e+01  2.9730e+01 +/- 0.0000e+00 0.0000e+00 0.0000e+00 [bar]
 1.0983e+01  1.3120e+02  2.2334e+01 +/- 0.0000e+00 0.0000e+00 0.0000e+00 [bar]
 2.9730e+01  2.2334e+01  1.0498e+02 +/- 0.0000e+00 0.0000e+00 0.0000e+00 [bar]
Ideal-gas pressure:   5.155443e+02 +/ 0.000000e+00 [bar]
Excess pressure:     -4.079865e+02 +/ 0.000000e+00 [bar]
Pressure:             1.075578e+02 +/ 0.000000e+00 [bar]

Total potential energy/kʙ  -3.118302e+05 (-3.166634e+05 +/- 0.000000e+00) [K]
-------------------------------------------------------------------------------
ExternalField-molecule
    Van der Waals/kʙ        0.000000e+00 ( 0.000000e+00 +/- 0.000000e+00) [K]
Framework-molecule
    Van der Waals/kʙ        0.000000e+00 ( 0.000000e+00 +/- 0.000000e+00) [K]
    Van der Waals (Tail)/kʙ 0.000000e+00 ( 0.000000e+00 +/- 0.000000e+00) [K]
    Coulombic Real/kʙ       0.000000e+00 ( 0.000000e+00 +/- 0.000000e+00) [K]
    Coulombic Fourier/kʙ    0.000000e+00 ( 0.000000e+00 +/- 0.000000e+00) [K]
Molecule-molecule
    Van der Waals/kʙ       -2.287550e+05 (-2.258161e+05 +/- 0.000000e+00) [K]
    Van der Waals (Tail)/kʙ-9.603384e+03 (-9.582611e+03 +/- 0.000000e+00) [K]
    Coulombic Real/kʙ      -5.758529e+04 (-6.566643e+04 +/- 0.000000e+00) [K]
    Coulombic Fourier/kʙ   -1.588648e+04 (-1.559827e+04 +/- 0.000000e+00) [K]
    Molecule Intra/kʙ       0.000000e+00 ( 0.000000e+00 +/- 0.000000e+00) [K]

Current cycle: 600 out of 5000
===============================================================================

Box:      23.78943   0.00000   0.00000  Average:  23.74473   0.00000   0.00000
           0.00000  23.78943   0.00000             0.00000  23.74473   0.00000
           0.00000   0.00000  23.78943             0.00000   0.00000  23.74473
Lengths:  23.78943  23.78943  23.78943  Average:  23.74473  23.74473  23.74473
Angles:   90.00000  90.00000  90.00000  Average:  90.00000  90.00000  90.00000
Rectangular boundary conditions

net charge:   0.00000000

component 0 (CO2) lambda:  0 occupancy:  1 (1.000000)
    net charge:   0.00000000 [e]

Amount of molecules per component :
-------------------------------------------------------------------------------
Component 0 (CO2)
    molecules:      2.000000e+02 molecules  (2.000000e+02 +/- 0.000000e+00)
    number density: 1.485517e-02 molec./A^3 (1.494149e-02 +/- 0.000000e+00)
    density:        1.085344e+03 kg/m^3     (1.091651e+03 +/- 0.000000e+00)

Average pressure tensor: 
-------------------------------------------------------------------------------
 9.0836e+01  2.4096e+01  5.2156e+01 +/- 0.0000e+00 0.0000e+00 0.0000e+00 [bar]
 2.4096e+01  1.3611e+02  3.4009e+01 +/- 0.0000e+00 0.0000e+00 0.0000e+00 [bar]
 5.2156e+01  3.4009e+01  9.4209e+01 +/- 0.0000e+00 0.0000e+00 0.0000e+00 [bar]
Ideal-gas pressure:   5.157243e+02 +/ 0.000000e+00 [bar]
Excess pressure:     -4.086718e+02 +/ 0.000000e+00 [bar]
Pressure:             1.070525e+02 +/ 0.000000e+00 [bar]

Total potential energy/kʙ  -3.171071e+05 (-3.167081e+05 +/- 0.000000e+00) [K]
-------------------------------------------------------------------------------
ExternalField-molecule
    Van der Waals/kʙ        0.000000e+00 ( 0.000000e+00 +/- 0.000000e+00) [K]
Framework-molecule
    Van der Waals/kʙ        0.000000e+00 ( 0.000000e+00 +/- 0.000000e+00) [K]
    Van der Waals (Tail)/kʙ 0.000000e+00 ( 0.000000e+00 +/- 0.000000e+00) [K]
    Coulombic Real/kʙ       0.000000e+00 ( 0.000000e+00 +/- 0.000000e+00) [K]
    Coulombic Fourier/kʙ    0.000000e+00 ( 0.000000e+00 +/- 0.000000e+00) [K]
Molecule-molecule
    Van der Waals/kʙ       -2.219696e+05 (-2.257790e+05 +/- 0.000000e+00) [K]
    Van der Waals (Tail)/kʙ-9.532710e+03 (-9.589287e+03 +/- 0.000000e+00) [K]
    Coulombic Real/kʙ      -6.904226e+04 (-6.563327e+04 +/- 0.000000e+00) [K]
    Coulombic Fourier/kʙ   -1.656248e+04 (-1.570652e+04 +/- 0.000000e+00) [K]
    Molecule Intra/kʙ       0.000000e+00 ( 0.000000e+00 +/- 0.000000e+00) [K]

Current cycle: 700 out of 5000
===============================================================================

Box:      23.79496   0.00000   0.00000  Average:  23.74805   0.00000   0.00000
           0.00000  23.79496   0.00000             0.00000  23.74805   0.00000
           0.00000   0.00000  23.79496             0.00000   0.00000  23.74805
Lengths:  23.79496  23.79496  23.79496  Average:  23.74805  23.74805  23.74805
Angles:   90.00000  90.00000  90.00000  Average:  90.00000  90.00000  90.00000
Rectangular boundary conditions

net charge:   0.00000000

component 0 (CO2) lambda:  0 occupancy:  1 (1.000000)
    net charge:   0.00000000 [e]

Amount of molecules per component :
-------------------------------------------------------------------------------
Component 0 (CO2)
    molecules:      2.000000e+02 molecules  (2.000000e+02 +/- 0.000000e+00)
    number density: 1.484482e-02 molec./A^3 (1.493512e-02 +/- 0.000000e+00)
    density:        1.084588e+03 kg/m^3     (1.091186e+03 +/- 0.000000e+00)

Average pressure tensor: 
-------------------------------------------------------------------------------
 1.1319e+02  7.4746e+00  1.2244e+01 +/- 0.0000e+00 0.0000e+00 0.0000e+00 [bar]
 7.4746e+00  1.1858e+02  2.7217e+01 +/- 0.0000e+00 0.0000e+00 0.0000e+00 [bar]
 1.2244e+01  2.7217e+01  7.7865e+01 +/- 0.0000e+00 0.0000e+00 0.0000e+00 [bar]
Ideal-gas pressure:   5.155046e+02 +/ 0.000000e+00 [bar]
Excess pressure:     -4.122908e+02 +/ 0.000000e+00 [bar]
Pressure:             1.032138e+02 +/ 0.000000e+00 [bar]

Total potential energy/kʙ  -3.187666e+05 (-3.165326e+05 +/- 0.000000e+00) [K]
-------------------------------------------------------------------------------
ExternalField-molecule
    Van der Waals/kʙ        0.000000e+00 ( 0.000000e+00 +/- 0.000000e+00) [K]
Framework-molecule
    Van der Waals/kʙ        0.000000e+00 ( 0.000000e+00 +/- 0.000000e+00) [K]
    Van der Waals (Tail)/kʙ 0.000000e+00 ( 0.000000e+00 +/- 0.000000e+00) [K]
    Coulombic Real/kʙ       0.000000e+00 ( 0.000000e+00 +/- 0.000000e+00) [K]
    Coulombic Fourier/kʙ    0.000000e+00 ( 0.000000e+00 +/- 0.000000e+00) [K]
Molecule-molecule
    Van der Waals/kʙ       -2.279445e+05 (-2.257347e+05 +/- 0.000000e+00) [K]
    Van der Waals (Tail)/kʙ-9.526069e+03 (-9.584555e+03 +/- 0.000000e+00) [K]
    Coulombic Real/kʙ      -6.582153e+04 (-6.549831e+04 +/- 0.000000e+00) [K]
    Coulombic Fourier/kʙ   -1.547453e+04 (-1.571502e+04 +/- 0.000000e+00) [K]
    Molecule Intra/kʙ       0.000000e+00 ( 0.000000e+00 +/- 0.000000e+00) [K]

Current cycle: 800 out of 5000
===============================================================================

Box:      23.60927   0.00000   0.00000  Average:  23.74254   0.00000   0.00000
           0.00000  23.60927   0.00000             0.00000  23.74254   0.00000
           0.00000   0.00000  23.60927             0.00000   0.00000  23.74254
Lengths:  23.60927  23.60927  23.60927  Average:  23.74254  23.74254  23.74254
Angles:   90.00000  90.00000  90.00000  Average:  90.00000  90.00000  90.00000
Rectangular boundary conditions

net charge:   0.00000000

component 0 (CO2) lambda:  0 occupancy:  1 (1.000000)
    net charge:   0.00000000 [e]

Amount of molecules per component :
-------------------------------------------------------------------------------
Component 0 (CO2)
    molecules:      2.000000e+02 molecules  (2.000000e+02 +/- 0.000000e+00)
    number density: 1.519785e-02 molec./A^3 (1.494543e-02 +/- 0.000000e+00)
    density:        1.110381e+03 kg/m^3     (1.091938e+03 +/- 0.000000e+00)

Average pressure tensor: 
-------------------------------------------------------------------------------
 1.0357e+02 -8.7711e+00  1.0123e+01 +/- 0.0000e+00 0.0000e+00 0.0000e+00 [bar]
-8.7711e+00  1.0780e+02  2.6180e+01 +/- 0.0000e+00 0.0000e+00 0.0000e+00 [bar]
 1.0123e+01  2.6180e+01  9.1819e+01 +/- 0.0000e+00 0.0000e+00 0.0000e+00 [bar]
Ideal-gas pressure:   5.158602e+02 +/ 0.000000e+00 [bar]
Excess pressure:     -4.147994e+02 +/ 0.000000e+00 [bar]
Pressure:             1.010607e+02 +/ 0.000000e+00 [bar]

Total potential energy/kʙ  -3.190868e+05 (-3.168093e+05 +/- 0.000000e+00) [K]
-------------------------------------------------------------------------------
ExternalField-molecule
    Van der Waals/kʙ        0.000000e+00 ( 0.000000e+00 +/- 0.000000e+00) [K]
Framework-molecule
    Van der Waals/kʙ        0.000000e+00 ( 0.000000e+00 +/- 0.000000e+00) [K]
    Van der Waals (Tail)/kʙ 0.000000e+00 ( 0.000000e+00 +/- 0.000000e+00) [K]
    Coulombic Real/kʙ       0.000000e+00 ( 0.000000e+00 +/- 0.000000e+00) [K]
    Coulombic Fourier/kʙ    0.000000e+00 ( 0.000000e+00 +/- 0.000000e+00) [K]
Molecule-molecule
    Van der Waals/kʙ       -2.241977e+05 (-2.260082e+05 +/- 0.000000e+00) [K]
    Van der Waals (Tail)/kʙ-9.752613e+03 (-9.594485e+03 +/- 0.000000e+00) [K]
    Coulombic Real/kʙ      -6.948437e+04 (-6.552476e+04 +/- 0.000000e+00) [K]
    Coulombic Fourier/kʙ   -1.565213e+04 (-1.568192e+04 +/- 0.000000e+00) [K]
    Molecule Intra/kʙ       0.000000e+00 ( 0.000000e+00 +/- 0.000000e+00) [K]

Current cycle: 900 out of 5000
===============================================================================

Box:      23.71296   0.00000   0.00000  Average:  23.73311   0.00000   0.00000
           0.00000  23.71296   0.00000             0.00000  23.73311   0.00000
           0.00000   0.00000  23.71296             0.00000   0.00000  23.73311
Lengths:  23.71296  23.71296  23.71296  Average:  23.73311  23.73311  23.73311
Angles:   90.00000  90.00000  90.00000  Average:  90.00000  90.00000  90.00000
Rectangular boundary conditions

net charge:   0.00000000

component 0 (CO2) lambda:  0 occupancy:  1 (1.000000)
    net charge:   0.00000000 [e]

Amount of molecules per component :
-------------------------------------------------------------------------------
Component 0 (CO2)
    molecules:      2.000000e+02 molecules  (2.000000e+02 +/- 0.000000e+00)
    number density: 1.499936e-02 molec./A^3 (1.496327e-02 +/- 0.000000e+00)
    density:        1.095879e+03 kg/m^3     (1.093242e+03 +/- 0.000000e+00)

Average pressure tensor: 
-------------------------------------------------------------------------------
 9.6737e+01 -2.9702e+01 -1.6248e+01 +/- 0.0000e+00 0.0000e+00 0.0000e+00 [bar]
-2.9702e+01  9.9916e+01  3.5090e+01 +/- 0.0000e+00 0.0000e+00 0.0000e+00 [bar]
-1.6248e+01  3.5090e+01  1.4641e+02 +/- 0.0000e+00 0.0000e+00 0.0000e+00 [bar]
Ideal-gas pressure:   5.164759e+02 +/ 0.000000e+00 [bar]
Excess pressure:     -4.021214e+02 +/ 0.000000e+00 [bar]
Pressure:             1.143545e+02 +/ 0.000000e+00 [bar]

Total potential energy/kʙ  -3.237066e+05 (-3.172150e+05 +/- 0.000000e+00) [K]
-------------------------------------------------------------------------------
ExternalField-molecule
    Van der Waals/kʙ        0.000000e+00 ( 0.000000e+00 +/- 0.000000e+00) [K]
Framework-molecule
    Van der Waals/kʙ        0.000000e+00 ( 0.000000e+00 +/- 0.000000e+00) [K]
    Van der Waals (Tail)/kʙ 0.000000e+00 ( 0.000000e+00 +/- 0.000000e+00) [K]
    Coulombic Real/kʙ       0.000000e+00 ( 0.000000e+00 +/- 0.000000e+00) [K]
    Coulombic Fourier/kʙ    0.000000e+00 ( 0.000000e+00 +/- 0.000000e+00) [K]
Molecule-molecule
    Van der Waals/kʙ       -2.337082e+05 (-2.261568e+05 +/- 0.000000e+00) [K]
    Van der Waals (Tail)/kʙ-9.625236e+03 (-9.605773e+03 +/- 0.000000e+00) [K]
    Coulombic Real/kʙ      -6.495670e+04 (-6.574653e+04 +/- 0.000000e+00) [K]
    Coulombic Fourier/kʙ   -1.541654e+04 (-1.570592e+04 +/- 0.000000e+00) [K]
    Molecule Intra/kʙ       0.000000e+00 ( 0.000000e+00 +/- 0.000000e+00) [K]

Current cycle: 1000 out of 5000
===============================================================================

Box:      23.67560   0.00000   0.00000  Average:  23.71625   0.00000   0.00000
           0.00000  23.67560   0.00000             0.00000  23.71625   0.00000
           0.00000   0.00000  23.67560             0.00000   0.00000  23.71625
Lengths:  23.67560  23.67560  23.67560  Average:  23.71625  23.71625  23.71625
Angles:   90.00000  90.00000  90.00000  Average:  90.00000  90.00000  90.00000
Rectangular boundary conditions

net charge:   0.00000000

component 0 (CO2) lambda:  0 occupancy:  1 (1.000000)
    net charge:   0.00000000 [e]

Amount of molecules per component :
-------------------------------------------------------------------------------
Component 0 (CO2)
    molecules:      2.000000e+02 molecules  (2.000000e+02 +/- 0.000000e+00)
    number density: 1.507047e-02 molec./A^3 (1.499558e-02 +/- 0.000000e+00)
    density:        1.101074e+03 kg/m^3     (1.095603e+03 +/- 0.000000e+00)

Average pressure tensor: 
-------------------------------------------------------------------------------
 9.0901e+01 -2.7572e+01 -3.5536e-01 +/- 0.0000e+00 0.0000e+00 0.0000e+00 [bar]
-2.7572e+01  9.2462e+01  1.7720e+01 +/- 0.0000e+00 0.0000e+00 0.0000e+00 [bar]
-3.5536e-01  1.7720e+01  1.2758e+02 +/- 0.0000e+00 0.0000e+00 0.0000e+00 [bar]
Ideal-gas pressure:   5.175914e+02 +/ 0.000000e+00 [bar]
Excess pressure:     -4.139454e+02 +/ 0.000000e+00 [bar]
Pressure:             1.036460e+02 +/ 0.000000e+00 [bar]

Total potential energy/kʙ  -3.231735e+05 (-3.180544e+05 +/- 0.000000e+00) [K]
-------------------------------------------------------------------------------
ExternalField-molecule
    Van der Waals/kʙ        0.000000e+00 ( 0.000000e+00 +/- 0.000000e+00) [K]
Framework-molecule
    Van der Waals/kʙ        0.000000e+00 ( 0.000000e+00 +/- 0.000000e+00) [K]
    Van der Waals (Tail)/kʙ 0.000000e+00 ( 0.000000e+00 +/- 0.000000e+00) [K]
    Coulombic Real/kʙ       0.000000e+00 ( 0.000000e+00 +/- 0.000000e+00) [K]
    Coulombic Fourier/kʙ    0.000000e+00 ( 0.000000e+00 +/- 0.000000e+00) [K]
Molecule-molecule
    Van der Waals/kʙ       -2.258334e+05 (-2.267601e+05 +/- 0.000000e+00) [K]
    Van der Waals (Tail)/kʙ-9.670868e+03 (-9.625067e+03 +/- 0.000000e+00) [K]
    Coulombic Real/kʙ      -7.095910e+04 (-6.591413e+04 +/- 0.000000e+00) [K]
    Coulombic Fourier/kʙ   -1.671013e+04 (-1.575512e+04 +/- 0.000000e+00) [K]
    Molecule Intra/kʙ       0.000000e+00 ( 0.000000e+00 +/- 0.000000e+00) [K]

Current cycle: 1100 out of 5000
===============================================================================

Box:      23.86547   0.00000   0.00000  Average:  23.72395   0.00000   0.00000
           0.00000  23.86547   0.00000             0.00000  23.72395   0.00000
           0.00000   0.00000  23.86547             0.00000   0.00000  23.72395
Lengths:  23.86547  23.86547  23.86547  Average:  23.72395  23.72395  23.72395
Angles:   90.00000  90.00000  90.00000  Average:  90.00000  90.00000  90.00000
Rectangular boundary conditions

net charge:   0.00000000

component 0 (CO2) lambda:  0 occupancy:  1 (1.000000)
    net charge:   0.00000000 [e]

Amount of molecules per component :
-------------------------------------------------------------------------------
Component 0 (CO2)
    molecules:      2.000000e+02 molecules  (2.000000e+02 +/- 0.000000e+00)
    number density: 1.471364e-02 molec./A^3 (1.498098e-02 +/- 0.000000e+00)
    density:        1.075004e+03 kg/m^3     (1.094536e+03 +/- 0.000000e+00)

Average pressure tensor: 
-------------------------------------------------------------------------------
 8.3550e+01 -3.8679e+01 -1.3516e+01 +/- 0.0000e+00 0.0000e+00 0.0000e+00 [bar]
-3.8679e+01  1.2008e+02  3.6325e+01 +/- 0.0000e+00 0.0000e+00 0.0000e+00 [bar]
-1.3516e+01  3.6325e+01  1.3172e+02 +/- 0.0000e+00 0.0000e+00 0.0000e+00 [bar]
Ideal-gas pressure:   5.170872e+02 +/ 0.000000e+00 [bar]
Excess pressure:     -4.053054e+02 +/ 0.000000e+00 [bar]
Pressure:             1.117818e+02 +/ 0.000000e+00 [bar]

Total potential energy/kʙ  -3.058659e+05 (-3.174897e+05 +/- 0.000000e+00) [K]
-------------------------------------------------------------------------------
ExternalField-molecule
    Van der Waals/kʙ        0.000000e+00 ( 0.000000e+00 +/- 0.000000e+00) [K]
Framework-molecule
    Van der Waals/kʙ        0.000000e+00 ( 0.000000e+00 +/- 0.000000e+00) [K]
    Van der Waals (Tail)/kʙ 0.000000e+00 ( 0.000000e+00 +/- 0.000000e+00) [K]
    Coulombic Real/kʙ       0.000000e+00 ( 0.000000e+00 +/- 0.000000e+00) [K]
    Coulombic Fourier/kʙ    0.000000e+00 ( 0.000000e+00 +/- 0.000000e+00) [K]
Molecule-molecule
    Van der Waals/kʙ       -2.208344e+05 (-2.262372e+05 +/- 0.000000e+00) [K]
    Van der Waals (Tail)/kʙ-9.441886e+03 (-9.615548e+03 +/- 0.000000e+00) [K]
    Coulombic Real/kʙ      -5.963324e+04 (-6.588162e+04 +/- 0.000000e+00) [K]
    Coulombic Fourier/kʙ   -1.595641e+04 (-1.575533e+04 +/- 0.000000e+00) [K]
    Molecule Intra/kʙ       0.000000e+00 ( 0.000000e+00 +/- 0.000000e+00) [K]

Current cycle: 1200 out of 5000
===============================================================================

Box:      23.80595   0.00000   0.00000  Average:  23.74331   0.00000   0.00000
           0.00000  23.80595   0.00000             0.00000  23.74331   0.00000
           0.00000   0.00000  23.80595             0.00000   0.00000  23.74331
Lengths:  23.80595  23.80595  23.80595  Average:  23.74331  23.74331  23.74331
Angles:   90.00000  90.00000  90.00000  Average:  90.00000  90.00000  90.00000
Rectangular boundary conditions

net charge:   0.00000000

component 0 (CO2) lambda:  0 occupancy:  1 (1.000000)
    net charge:   0.00000000 [e]

Amount of molecules per component :
-------------------------------------------------------------------------------
Component 0 (CO2)
    molecules:      2.000000e+02 molecules  (2.000000e+02 +/- 0.000000e+00)
    number density: 1.482427e-02 molec./A^3 (1.494507e-02 +/- 0.000000e+00)
    density:        1.083086e+03 kg/m^3     (1.091912e+03 +/- 0.000000e+00)

Average pressure tensor: 
-------------------------------------------------------------------------------
 9.9488e+01 -6.0052e+01 -2.4979e+01 +/- 0.0000e+00 0.0000e+00 0.0000e+00 [bar]
-6.0052e+01  1.3018e+02  3.9821e+01 +/- 0.0000e+00 0.0000e+00 0.0000e+00 [bar]
-2.4979e+01  3.9821e+01  1.2826e+02 +/- 0.0000e+00 0.0000e+00 0.0000e+00 [bar]
Ideal-gas pressure:   5.158478e+02 +/ 0.000000e+00 [bar]
Excess pressure:     -3.965390e+02 +/ 0.000000e+00 [bar]
Pressure:             1.193088e+02 +/ 0.000000e+00 [bar]

Total potential energy/kʙ  -3.158276e+05 (-3.163101e+05 +/- 0.000000e+00) [K]
-------------------------------------------------------------------------------
ExternalField-molecule
    Van der Waals/kʙ        0.000000e+00 ( 0.000000e+00 +/- 0.000000e+00) [K]
Framework-molecule
    Van der Waals/kʙ        0.000000e+00 ( 0.000000e+00 +/- 0.000000e+00) [K]
    Van der Waals (Tail)/kʙ 0.000000e+00 ( 0.000000e+00 +/- 0.000000e+00) [K]
    Coulombic Real/kʙ       0.000000e+00 ( 0.000000e+00 +/- 0.000000e+00) [K]
    Coulombic Fourier/kʙ    0.000000e+00 ( 0.000000e+00 +/- 0.000000e+00) [K]
Molecule-molecule
    Van der Waals/kʙ       -2.246465e+05 (-2.255262e+05 +/- 0.000000e+00) [K]
    Van der Waals (Tail)/kʙ-9.512878e+03 (-9.592570e+03 +/- 0.000000e+00) [K]
    Coulombic Real/kʙ      -6.564113e+04 (-6.544948e+04 +/- 0.000000e+00) [K]
    Coulombic Fourier/kʙ   -1.602712e+04 (-1.574189e+04 +/- 0.000000e+00) [K]
    Molecule Intra/kʙ       0.000000e+00 ( 0.000000e+00 +/- 0.000000e+00) [K]

Current cycle: 1300 out of 5000
===============================================================================

Box:      23.73552   0.00000   0.00000  Average:  23.74661   0.00000   0.00000
           0.00000  23.73552   0.00000             0.00000  23.74661   0.00000
           0.00000   0.00000  23.73552             0.00000   0.00000  23.74661
Lengths:  23.73552  23.73552  23.73552  Average:  23.74661  23.74661  23.74661
Angles:   90.00000  90.00000  90.00000  Average:  90.00000  90.00000  90.00000
Rectangular boundary conditions

net charge:   0.00000000

component 0 (CO2) lambda:  0 occupancy:  1 (1.000000)
    net charge:   0.00000000 [e]

Amount of molecules per component :
-------------------------------------------------------------------------------
Component 0 (CO2)
    molecules:      2.000000e+02 molecules  (2.000000e+02 +/- 0.000000e+00)
    number density: 1.495662e-02 molec./A^3 (1.493871e-02 +/- 0.000000e+00)
    density:        1.092756e+03 kg/m^3     (1.091448e+03 +/- 0.000000e+00)

Average pressure tensor: 
-------------------------------------------------------------------------------
 1.0847e+02 -6.7564e+01 -3.2474e+01 +/- 0.0000e+00 0.0000e+00 0.0000e+00 [bar]
-6.7564e+01  1.2473e+02  3.7055e+01 +/- 0.0000e+00 0.0000e+00 0.0000e+00 [bar]
-3.2474e+01  3.7055e+01  1.2582e+02 +/- 0.0000e+00 0.0000e+00 0.0000e+00 [bar]
Ideal-gas pressure:   5.156284e+02 +/ 0.000000e+00 [bar]
Excess pressure:     -3.959540e+02 +/ 0.000000e+00 [bar]
Pressure:             1.196744e+02 +/ 0.000000e+00 [bar]

Total potential energy/kʙ  -3.175077e+05 (-3.160493e+05 +/- 0.000000e+00) [K]
-------------------------------------------------------------------------------
ExternalField-molecule
    Van der Waals/kʙ        0.000000e+00 ( 0.000000e+00 +/- 0.000000e+00) [K]
Framework-molecule
    Van der Waals/kʙ        0.000000e+00 ( 0.000000e+00 +/- 0.000000e+00) [K]
    Van der Waals (Tail)/kʙ 0.000000e+00 ( 0.000000e+00 +/- 0.000000e+00) [K]
    Coulombic Real/kʙ       0.000000e+00 ( 0.000000e+00 +/- 0.000000e+00) [K]
    Coulombic Fourier/kʙ    0.000000e+00 ( 0.000000e+00 +/- 0.000000e+00) [K]
Molecule-molecule
    Van der Waals/kʙ       -2.285497e+05 (-2.254327e+05 +/- 0.000000e+00) [K]
    Van der Waals (Tail)/kʙ-9.597812e+03 (-9.588035e+03 +/- 0.000000e+00) [K]
    Coulombic Real/kʙ      -6.305352e+04 (-6.524796e+04 +/- 0.000000e+00) [K]
    Coulombic Fourier/kʙ   -1.630672e+04 (-1.578064e+04 +/- 0.000000e+00) [K]
    Molecule Intra/kʙ       0.000000e+00 ( 0.000000e+00 +/- 0.000000e+00) [K]

Current cycle: 1400 out of 5000
===============================================================================

Box:      23.63756   0.00000   0.00000  Average:  23.73994   0.00000   0.00000
           0.00000  23.63756   0.00000             0.00000  23.73994   0.00000
           0.00000   0.00000  23.63756             0.00000   0.00000  23.73994
Lengths:  23.63756  23.63756  23.63756  Average:  23.73994  23.73994  23.73994
Angles:   90.00000  90.00000  90.00000  Average:  90.00000  90.00000  90.00000
Rectangular boundary conditions

net charge:   0.00000000

component 0 (CO2) lambda:  0 occupancy:  1 (1.000000)
    net charge:   0.00000000 [e]

Amount of molecules per component :
-------------------------------------------------------------------------------
Component 0 (CO2)
    molecules:      2.000000e+02 molecules  (2.000000e+02 +/- 0.000000e+00)
    number density: 1.514336e-02 molec./A^3 (1.495132e-02 +/- 0.000000e+00)
    density:        1.106399e+03 kg/m^3     (1.092369e+03 +/- 0.000000e+00)

Average pressure tensor: 
-------------------------------------------------------------------------------
 1.2060e+02 -6.3593e+01 -4.8708e+01 +/- 0.0000e+00 0.0000e+00 0.0000e+00 [bar]
-6.3593e+01  1.1148e+02  3.4863e+01 +/- 0.0000e+00 0.0000e+00 0.0000e+00 [bar]
-4.8708e+01  3.4863e+01  1.3315e+02 +/- 0.0000e+00 0.0000e+00 0.0000e+00 [bar]
Ideal-gas pressure:   5.160636e+02 +/ 0.000000e+00 [bar]
Excess pressure:     -3.943205e+02 +/ 0.000000e+00 [bar]
Pressure:             1.217431e+02 +/ 0.000000e+00 [bar]

Total potential energy/kʙ  -3.171853e+05 (-3.163498e+05 +/- 0.000000e+00) [K]
-------------------------------------------------------------------------------
ExternalField-molecule
    Van der Waals/kʙ        0.000000e+00 ( 0.000000e+00 +/- 0.000000e+00) [K]
Framework-molecule
    Van der Waals/kʙ        0.000000e+00 ( 0.000000e+00 +/- 0.000000e+00) [K]
    Van der Waals (Tail)/kʙ 0.000000e+00 ( 0.000000e+00 +/- 0.000000e+00) [K]
    Coulombic Real/kʙ       0.000000e+00 ( 0.000000e+00 +/- 0.000000e+00) [K]
    Coulombic Fourier/kʙ    0.000000e+00 ( 0.000000e+00 +/- 0.000000e+00) [K]
Molecule-molecule
    Van der Waals/kʙ       -2.247714e+05 (-2.256214e+05 +/- 0.000000e+00) [K]
    Van der Waals (Tail)/kʙ-9.717640e+03 (-9.596819e+03 +/- 0.000000e+00) [K]
    Coulombic Real/kʙ      -6.705759e+04 (-6.536234e+04 +/- 0.000000e+00) [K]
    Coulombic Fourier/kʙ   -1.563866e+04 (-1.576920e+04 +/- 0.000000e+00) [K]
    Molecule Intra/kʙ       0.000000e+00 ( 0.000000e+00 +/- 0.000000e+00) [K]

Current cycle: 1500 out of 5000
===============================================================================

Box:      23.81863   0.00000   0.00000  Average:  23.73747   0.00000   0.00000
           0.00000  23.81863   0.00000             0.00000  23.73747   0.00000
           0.00000   0.00000  23.81863             0.00000   0.00000  23.73747
Lengths:  23.81863  23.81863  23.81863  Average:  23.73747  23.73747  23.73747
Angles:   90.00000  90.00000  90.00000  Average:  90.00000  90.00000  90.00000
Rectangular boundary conditions

net charge:   0.00000000

component 0 (CO2) lambda:  0 occupancy:  1 (1.000000)
    net charge:   0.00000000 [e]

Amount of molecules per component :
-------------------------------------------------------------------------------
Component 0 (CO2)
    molecules:      2.000000e+02 molecules  (2.000000e+02 +/- 0.000000e+00)
    number density: 1.480061e-02 molec./A^3 (1.495589e-02 +/- 0.000000e+00)
    density:        1.081358e+03 kg/m^3     (1.092703e+03 +/- 0.000000e+00)

Average pressure tensor: 
-------------------------------------------------------------------------------
 1.2440e+02 -5.7123e+01 -5.9051e+01 +/- 0.0000e+00 0.0000e+00 0.0000e+00 [bar]
-5.7123e+01  1.2615e+02  4.1682e+01 +/- 0.0000e+00 0.0000e+00 0.0000e+00 [bar]
-5.9051e+01  4.1682e+01  1.5148e+02 +/- 0.0000e+00 0.0000e+00 0.0000e+00 [bar]
Ideal-gas pressure:   5.162212e+02 +/ 0.000000e+00 [bar]
Excess pressure:     -3.822076e+02 +/ 0.000000e+00 [bar]
Pressure:             1.340136e+02 +/ 0.000000e+00 [bar]

Total potential energy/kʙ  -3.135451e+05 (-3.164131e+05 +/- 0.000000e+00) [K]
-------------------------------------------------------------------------------
ExternalField-molecule
    Van der Waals/kʙ        0.000000e+00 ( 0.000000e+00 +/- 0.000000e+00) [K]
Framework-molecule
    Van der Waals/kʙ        0.000000e+00 ( 0.000000e+00 +/- 0.000000e+00) [K]
    Van der Waals (Tail)/kʙ 0.000000e+00 ( 0.000000e+00 +/- 0.000000e+00) [K]
    Coulombic Real/kʙ       0.000000e+00 ( 0.000000e+00 +/- 0.000000e+00) [K]
    Coulombic Fourier/kʙ    0.000000e+00 ( 0.000000e+00 +/- 0.000000e+00) [K]
Molecule-molecule
    Van der Waals/kʙ       -2.229709e+05 (-2.254985e+05 +/- 0.000000e+00) [K]
    Van der Waals (Tail)/kʙ-9.497694e+03 (-9.599332e+03 +/- 0.000000e+00) [K]
    Coulombic Real/kʙ      -6.578109e+04 (-6.557051e+04 +/- 0.000000e+00) [K]
    Coulombic Fourier/kʙ   -1.529541e+04 (-1.574474e+04 +/- 0.000000e+00) [K]
    Molecule Intra/kʙ       0.000000e+00 ( 0.000000e+00 +/- 0.000000e+00) [K]

Current cycle: 1600 out of 5000
===============================================================================

Box:      23.58086   0.00000   0.00000  Average:  23.73439   0.00000   0.00000
           0.00000  23.58086   0.00000             0.00000  23.73439   0.00000
           0.00000   0.00000  23.58086             0.00000   0.00000  23.73439
Lengths:  23.58086  23.58086  23.58086  Average:  23.73439  23.73439  23.73439
Angles:   90.00000  90.00000  90.00000  Average:  90.00000  90.00000  90.00000
Rectangular boundary conditions

net charge:   0.00000000

component 0 (CO2) lambda:  0 occupancy:  1 (1.000000)
    net charge:   0.00000000 [e]

Amount of molecules per component :
-------------------------------------------------------------------------------
Component 0 (CO2)
    molecules:      2.000000e+02 molecules  (2.000000e+02 +/- 0.000000e+00)
    number density: 1.525284e-02 molec./A^3 (1.496161e-02 +/- 0.000000e+00)
    density:        1.114399e+03 kg/m^3     (1.093121e+03 +/- 0.000000e+00)

Average pressure tensor: 
-------------------------------------------------------------------------------
 1.3136e+02 -4.5900e+01 -6.1508e+01 +/- 0.0000e+00 0.0000e+00 0.0000e+00 [bar]
-4.5900e+01  1.1169e+02  4.2505e+01 +/- 0.0000e+00 0.0000e+00 0.0000e+00 [bar]
-6.1508e+01  4.2505e+01  1.5619e+02 +/- 0.0000e+00 0.0000e+00 0.0000e+00 [bar]
Ideal-gas pressure:   5.164189e+02 +/ 0.000000e+00 [bar]
Excess pressure:     -3.833408e+02 +/ 0.000000e+00 [bar]
Pressure:             1.330781e+02 +/ 0.000000e+00 [bar]

Total potential energy/kʙ  -3.268524e+05 (-3.166952e+05 +/- 0.000000e+00) [K]
-------------------------------------------------------------------------------
ExternalField-molecule
    Van der Waals/kʙ        0.000000e+00 ( 0.000000e+00 +/- 0.000000e+00) [K]
Framework-molecule
    Van der Waals/kʙ        0.000000e+00 ( 0.000000e+00 +/- 0.000000e+00) [K]
    Van der Waals (Tail)/kʙ 0.000000e+00 ( 0.000000e+00 +/- 0.000000e+00) [K]
    Coulombic Real/kʙ       0.000000e+00 ( 0.000000e+00 +/- 0.000000e+00) [K]
    Coulombic Fourier/kʙ    0.000000e+00 ( 0.000000e+00 +/- 0.000000e+00) [K]
Molecule-molecule
    Van der Waals/kʙ       -2.309707e+05 (-2.255503e+05 +/- 0.000000e+00) [K]
    Van der Waals (Tail)/kʙ-9.787899e+03 (-9.603678e+03 +/- 0.000000e+00) [K]
    Coulombic Real/kʙ      -6.927073e+04 (-6.578312e+04 +/- 0.000000e+00) [K]
    Coulombic Fourier/kʙ   -1.682299e+04 (-1.575808e+04 +/- 0.000000e+00) [K]
    Molecule Intra/kʙ       0.000000e+00 ( 0.000000e+00 +/- 0.000000e+00) [K]

Current cycle: 1700 out of 5000
===============================================================================

Box:      23.74103   0.00000   0.00000  Average:  23.72781   0.00000   0.00000
           0.00000  23.74103   0.00000             0.00000  23.72781   0.00000
           0.00000   0.00000  23.74103             0.00000   0.00000  23.72781
Lengths:  23.74103  23.74103  23.74103  Average:  23.72781  23.72781  23.72781
Angles:   90.00000  90.00000  90.00000  Average:  90.00000  90.00000  90.00000
Rectangular boundary conditions

net charge:   0.00000000

component 0 (CO2) lambda:  0 occupancy:  1 (1.000000)
    net charge:   0.00000000 [e]

Amount of molecules per component :
-------------------------------------------------------------------------------
Component 0 (CO2)
    molecules:      2.000000e+02 molecules  (2.000000e+02 +/- 0.000000e+00)
    number density: 1.494622e-02 molec./A^3 (1.497406e-02 +/- 0.000000e+00)
    density:        1.091996e+03 kg/m^3     (1.094031e+03 +/- 0.000000e+00)

Average pressure tensor: 
-------------------------------------------------------------------------------
 1.3602e+02 -4.8565e+01 -5.8673e+01 +/- 0.0000e+00 0.0000e+00 0.0000e+00 [bar]
-4.8565e+01  9.0667e+01  3.4727e+01 +/- 0.0000e+00 0.0000e+00 0.0000e+00 [bar]
-5.8673e+01  3.4727e+01  1.6420e+02 +/- 0.0000e+00 0.0000e+00 0.0000e+00 [bar]
Ideal-gas pressure:   5.168486e+02 +/ 0.000000e+00 [bar]
Excess pressure:     -3.865527e+02 +/ 0.000000e+00 [bar]
Pressure:             1.302959e+02 +/ 0.000000e+00 [bar]

Total potential energy/kʙ  -3.148353e+05 (-3.169211e+05 +/- 0.000000e+00) [K]
-------------------------------------------------------------------------------
ExternalField-molecule
    Van der Waals/kʙ        0.000000e+00 ( 0.000000e+00 +/- 0.000000e+00) [K]
Framework-molecule
    Van der Waals/kʙ        0.000000e+00 ( 0.000000e+00 +/- 0.000000e+00) [K]
    Van der Waals (Tail)/kʙ 0.000000e+00 ( 0.000000e+00 +/- 0.000000e+00) [K]
    Coulombic Real/kʙ       0.000000e+00 ( 0.000000e+00 +/- 0.000000e+00) [K]
    Coulombic Fourier/kʙ    0.000000e+00 ( 0.000000e+00 +/- 0.000000e+00) [K]
Molecule-molecule
    Van der Waals/kʙ       -2.248758e+05 (-2.256873e+05 +/- 0.000000e+00) [K]
    Van der Waals (Tail)/kʙ-9.591134e+03 (-9.610025e+03 +/- 0.000000e+00) [K]
    Coulombic Real/kʙ      -6.453371e+04 (-6.585256e+04 +/- 0.000000e+00) [K]
    Coulombic Fourier/kʙ   -1.583469e+04 (-1.577119e+04 +/- 0.000000e+00) [K]
    Molecule Intra/kʙ       0.000000e+00 ( 0.000000e+00 +/- 0.000000e+00) [K]

Current cycle: 1800 out of 5000
===============================================================================

Box:      23.63337   0.00000   0.00000  Average:  23.72334   0.00000   0.00000
           0.00000  23.63337   0.00000             0.00000  23.72334   0.00000
           0.00000   0.00000  23.63337             0.00000   0.00000  23.72334
Lengths:  23.63337  23.63337  23.63337  Average:  23.72334  23.72334  23.72334
Angles:   90.00000  90.00000  90.00000  Average:  90.00000  90.00000  90.00000
Rectangular boundary conditions

net charge:   0.00000000

component 0 (CO2) lambda:  0 occupancy:  1 (1.000000)
    net charge:   0.00000000 [e]

Amount of molecules per component :
-------------------------------------------------------------------------------
Component 0 (CO2)
    molecules:      2.000000e+02 molecules  (2.000000e+02 +/- 0.000000e+00)
    number density: 1.515140e-02 molec./A^3 (1.498248e-02 +/- 0.000000e+00)
    density:        1.106987e+03 kg/m^3     (1.094645e+03 +/- 0.000000e+00)

Average pressure tensor: 
-------------------------------------------------------------------------------
 1.3833e+02 -3.5409e+01 -6.3586e+01 +/- 0.0000e+00 0.0000e+00 0.0000e+00 [bar]
-3.5409e+01  9.4089e+01  2.4672e+01 +/- 0.0000e+00 0.0000e+00 0.0000e+00 [bar]
-6.3586e+01  2.4672e+01  1.7066e+02 +/- 0.0000e+00 0.0000e+00 0.0000e+00 [bar]
Ideal-gas pressure:   5.171391e+02 +/ 0.000000e+00 [bar]
Excess pressure:     -3.827779e+02 +/ 0.000000e+00 [bar]
Pressure:             1.343612e+02 +/ 0.000000e+00 [bar]

Total potential energy/kʙ  -3.189226e+05 (-3.170619e+05 +/- 0.000000e+00) [K]
-------------------------------------------------------------------------------
ExternalField-molecule
    Van der Waals/kʙ        0.000000e+00 ( 0.000000e+00 +/- 0.000000e+00) [K]
Framework-molecule
    Van der Waals/kʙ        0.000000e+00 ( 0.000000e+00 +/- 0.000000e+00) [K]
    Van der Waals (Tail)/kʙ 0.000000e+00 ( 0.000000e+00 +/- 0.000000e+00) [K]
    Coulombic Real/kʙ       0.000000e+00 ( 0.000000e+00 +/- 0.000000e+00) [K]
    Coulombic Fourier/kʙ    0.000000e+00 ( 0.000000e+00 +/- 0.000000e+00) [K]
Molecule-molecule
    Van der Waals/kʙ       -2.286097e+05 (-2.257494e+05 +/- 0.000000e+00) [K]
    Van der Waals (Tail)/kʙ-9.722804e+03 (-9.616990e+03 +/- 0.000000e+00) [K]
    Coulombic Real/kʙ      -6.480871e+04 (-6.588696e+04 +/- 0.000000e+00) [K]
    Coulombic Fourier/kʙ   -1.578142e+04 (-1.580853e+04 +/- 0.000000e+00) [K]
    Molecule Intra/kʙ       0.000000e+00 ( 0.000000e+00 +/- 0.000000e+00) [K]

Current cycle: 1900 out of 5000
===============================================================================

Box:      23.75043   0.00000   0.00000  Average:  23.71970   0.00000   0.00000
           0.00000  23.75043   0.00000             0.00000  23.71970   0.00000
           0.00000   0.00000  23.75043             0.00000   0.00000  23.71970
Lengths:  23.75043  23.75043  23.75043  Average:  23.71970  23.71970  23.71970
Angles:   90.00000  90.00000  90.00000  Average:  90.00000  90.00000  90.00000
Rectangular boundary conditions

net charge:   0.00000000

component 0 (CO2) lambda:  0 occupancy:  1 (1.000000)
    net charge:   0.00000000 [e]

Amount of molecules per component :
-------------------------------------------------------------------------------
Component 0 (CO2)
    molecules:      2.000000e+02 molecules  (2.000000e+02 +/- 0.000000e+00)
    number density: 1.492848e-02 molec./A^3 (1.498936e-02 +/- 0.000000e+00)
    density:        1.090700e+03 kg/m^3     (1.095149e+03 +/- 0.000000e+00)

Average pressure tensor: 
-------------------------------------------------------------------------------
 1.3653e+02 -3.4886e+01 -6.0987e+01 +/- 0.0000e+00 0.0000e+00 0.0000e+00 [bar]
-3.4886e+01  1.0184e+02  1.5913e+01 +/- 0.0000e+00 0.0000e+00 0.0000e+00 [bar]
-6.0987e+01  1.5913e+01  1.5872e+02 +/- 0.0000e+00 0.0000e+00 0.0000e+00 [bar]
Ideal-gas pressure:   5.173768e+02 +/ 0.000000e+00 [bar]
Excess pressure:     -3.850114e+02 +/ 0.000000e+00 [bar]
Pressure:             1.323654e+02 +/ 0.000000e+00 [bar]

Total potential energy/kʙ  -3.111232e+05 (-3.170055e+05 +/- 0.000000e+00) [K]
-------------------------------------------------------------------------------
ExternalField-molecule
    Van der Waals/kʙ        0.000000e+00 ( 0.000000e+00 +/- 0.000000e+00) [K]
Framework-molecule
    Van der Waals/kʙ        0.000000e+00 ( 0.000000e+00 +/- 0.000000e+00) [K]
    Van der Waals (Tail)/kʙ 0.000000e+00 ( 0.000000e+00 +/- 0.000000e+00) [K]
    Coulombic Real/kʙ       0.000000e+00 ( 0.000000e+00 +/- 0.000000e+00) [K]
    Coulombic Fourier/kʙ    0.000000e+00 ( 0.000000e+00 +/- 0.000000e+00) [K]
Molecule-molecule
    Van der Waals/kʙ       -2.204346e+05 (-2.258169e+05 +/- 0.000000e+00) [K]
    Van der Waals (Tail)/kʙ-9.579750e+03 (-9.619693e+03 +/- 0.000000e+00) [K]
    Coulombic Real/kʙ      -6.543584e+04 (-6.577039e+04 +/- 0.000000e+00) [K]
    Coulombic Fourier/kʙ   -1.567300e+04 (-1.579851e+04 +/- 0.000000e+00) [K]
    Molecule Intra/kʙ       0.000000e+00 ( 0.000000e+00 +/- 0.000000e+00) [K]

Current cycle: 2000 out of 5000
===============================================================================

Box:      24.05717   0.00000   0.00000  Average:  23.72656   0.00000   0.00000
           0.00000  24.05717   0.00000             0.00000  23.72656   0.00000
           0.00000   0.00000  24.05717             0.00000   0.00000  23.72656
Lengths:  24.05717  24.05717  24.05717  Average:  23.72656  23.72656  23.72656
Angles:   90.00000  90.00000  90.00000  Average:  90.00000  90.00000  90.00000
Rectangular boundary conditions

net charge:   0.00000000

component 0 (CO2) lambda:  0 occupancy:  1 (1.000000)
    net charge:   0.00000000 [e]

Amount of molecules per component :
-------------------------------------------------------------------------------
Component 0 (CO2)
    molecules:      2.000000e+02 molecules  (2.000000e+02 +/- 0.000000e+00)
    number density: 1.436469e-02 molec./A^3 (1.497644e-02 +/- 0.000000e+00)
    density:        1.049509e+03 kg/m^3     (1.094204e+03 +/- 0.000000e+00)

Average pressure tensor: 
-------------------------------------------------------------------------------
 1.3610e+02 -3.3543e+01 -5.3166e+01 +/- 0.0000e+00 0.0000e+00 0.0000e+00 [bar]
-3.3543e+01  1.0309e+02  1.7389e+01 +/- 0.0000e+00 0.0000e+00 0.0000e+00 [bar]
-5.3166e+01  1.7389e+01  1.6269e+02 +/- 0.0000e+00 0.0000e+00 0.0000e+00 [bar]
Ideal-gas pressure:   5.169307e+02 +/ 0.000000e+00 [bar]
Excess pressure:     -3.829698e+02 +/ 0.000000e+00 [bar]
Pressure:             1.339609e+02 +/ 0.000000e+00 [bar]

Total potential energy/kʙ  -3.034031e+05 (-3.166630e+05 +/- 0.000000e+00) [K]
-------------------------------------------------------------------------------
ExternalField-molecule
    Van der Waals/kʙ        0.000000e+00 ( 0.000000e+00 +/- 0.000000e+00) [K]
Framework-molecule
    Van der Waals/kʙ        0.000000e+00 ( 0.000000e+00 +/- 0.000000e+00) [K]
    Van der Waals (Tail)/kʙ 0.000000e+00 ( 0.000000e+00 +/- 0.000000e+00) [K]
    Coulombic Real/kʙ       0.000000e+00 ( 0.000000e+00 +/- 0.000000e+00) [K]
    Coulombic Fourier/kʙ    0.000000e+00 ( 0.000000e+00 +/- 0.000000e+00) [K]
Molecule-molecule
    Van der Waals/kʙ       -2.152820e+05 (-2.255621e+05 +/- 0.000000e+00) [K]
    Van der Waals (Tail)/kʙ-9.217960e+03 (-9.611843e+03 +/- 0.000000e+00) [K]
    Coulombic Real/kʙ      -6.324112e+04 (-6.566248e+04 +/- 0.000000e+00) [K]
    Coulombic Fourier/kʙ   -1.566209e+04 (-1.582665e+04 +/- 0.000000e+00) [K]
    Molecule Intra/kʙ       0.000000e+00 ( 0.000000e+00 +/- 0.000000e+00) [K]

Current cycle: 2100 out of 5000
===============================================================================

Box:      23.80014   0.00000   0.00000  Average:  23.72599   0.00000   0.00000
           0.00000  23.80014   0.00000             0.00000  23.72599   0.00000
           0.00000   0.00000  23.80014             0.00000   0.00000  23.72599
Lengths:  23.80014  23.80014  23.80014  Average:  23.72599  23.72599  23.72599
Angles:   90.00000  90.00000  90.00000  Average:  90.00000  90.00000  90.00000
Rectangular boundary conditions

net charge:   0.00000000

component 0 (CO2) lambda:  0 occupancy:  1 (1.000000)
    net charge:   0.00000000 [e]

Amount of molecules per component :
-------------------------------------------------------------------------------
Component 0 (CO2)
    molecules:      2.000000e+02 molecules  (2.000000e+02 +/- 0.000000e+00)
    number density: 1.483513e-02 molec./A^3 (1.497753e-02 +/- 0.000000e+00)
    density:        1.083880e+03 kg/m^3     (1.094284e+03 +/- 0.000000e+00)

Average pressure tensor: 
-------------------------------------------------------------------------------
 1.3104e+02 -3.2508e+01 -5.2661e+01 +/- 0.0000e+00 0.0000e+00 0.0000e+00 [bar]
-3.2508e+01  1.0733e+02  1.1969e+01 +/- 0.0000e+00 0.0000e+00 0.0000e+00 [bar]
-5.2661e+01  1.1969e+01  1.5839e+02 +/- 0.0000e+00 0.0000e+00 0.0000e+00 [bar]
Ideal-gas pressure:   5.169683e+02 +/ 0.000000e+00 [bar]
Excess pressure:     -3.847176e+02 +/ 0.000000e+00 [bar]
Pressure:             1.322506e+02 +/ 0.000000e+00 [bar]

Total potential energy/kʙ  -3.241227e+05 (-3.167668e+05 +/- 0.000000e+00) [K]
-------------------------------------------------------------------------------
ExternalField-molecule
    Van der Waals/kʙ        0.000000e+00 ( 0.000000e+00 +/- 0.000000e+00) [K]
Framework-molecule
    Van der Waals/kʙ        0.000000e+00 ( 0.000000e+00 +/- 0.000000e+00) [K]
    Van der Waals (Tail)/kʙ 0.000000e+00 ( 0.000000e+00 +/- 0.000000e+00) [K]
[...]
    Coulombic Fourier/kʙ    0.000000e+00 ( 0.000000e+00 +/- 0.000000e+00) [K]
Molecule-molecule
    Van der Waals/kʙ       -2.170493e+05 (-2.241580e+05 +/- 3.544324e+03) [K]
    Van der Waals (Tail)/kʙ-9.547176e+03 (-9.571702e+03 +/- 1.373637e+02) [K]
    Coulombic Real/kʙ      -6.461276e+04 (-6.537578e+04 +/- 1.856532e+03) [K]
    Coulombic Fourier/kʙ   -1.565146e+04 (-1.581733e+04 +/- 3.184556e+02) [K]
    Molecule Intra/kʙ       0.000000e+00 ( 0.000000e+00 +/- 0.000000e+00) [K]

Current cycle: 4700 out of 5000
===============================================================================

Box:      24.27154   0.00000   0.00000  Average:  23.76844   0.00000   0.00000
           0.00000  24.27154   0.00000             0.00000  23.76844   0.00000
           0.00000   0.00000  24.27154             0.00000   0.00000  23.76844
Lengths:  24.27154  24.27154  24.27154  Average:  23.76844  23.76844  23.76844
Angles:   90.00000  90.00000  90.00000  Average:  90.00000  90.00000  90.00000
Rectangular boundary conditions

net charge:   0.00000000

component 0 (CO2) lambda:  0 occupancy:  1 (1.000000)
    net charge:   0.00000000 [e]

Amount of molecules per component :
-------------------------------------------------------------------------------
Component 0 (CO2)
    molecules:      2.000000e+02 molecules  (2.000000e+02 +/- 0.000000e+00)
    number density: 1.398743e-02 molec./A^3 (1.489949e-02 +/- 2.369711e-04)
    density:        1.021946e+03 kg/m^3     (1.088582e+03 +/- 1.731351e+01)

Average pressure tensor: 
-------------------------------------------------------------------------------
 1.5067e+02 -2.9407e+01 -2.6128e+01 +/- 7.0848e+01 1.6542e+01 7.4338e+01 [bar]
-2.9407e+01  1.2457e+02 -5.6854e+00 +/- 1.6542e+01 3.4425e+01 4.4153e+01 [bar]
-2.6128e+01 -5.6854e+00  1.4440e+02 +/- 7.4338e+01 4.4153e+01 5.9372e+01 [bar]
Ideal-gas pressure:   5.142745e+02 +/ 8.179355e+00 [bar]
Excess pressure:     -3.743954e+02 +/ 3.122445e+01 [bar]
Pressure:             1.398791e+02 +/ 2.781104e+01 [bar]

Total potential energy/kʙ  -2.974329e+05 (-3.145505e+05 +/- 5.339703e+03) [K]
-------------------------------------------------------------------------------
ExternalField-molecule
    Van der Waals/kʙ        0.000000e+00 ( 0.000000e+00 +/- 0.000000e+00) [K]
Framework-molecule
    Van der Waals/kʙ        0.000000e+00 ( 0.000000e+00 +/- 0.000000e+00) [K]
    Van der Waals (Tail)/kʙ 0.000000e+00 ( 0.000000e+00 +/- 0.000000e+00) [K]
    Coulombic Real/kʙ       0.000000e+00 ( 0.000000e+00 +/- 0.000000e+00) [K]
    Coulombic Fourier/kʙ    0.000000e+00 ( 0.000000e+00 +/- 0.000000e+00) [K]
Molecule-molecule
    Van der Waals/kʙ       -2.087201e+05 (-2.238920e+05 +/- 3.825246e+03) [K]
    Van der Waals (Tail)/kʙ-8.975872e+03 (-9.560583e+03 +/- 1.460606e+02) [K]
    Coulombic Real/kʙ      -6.347325e+04 (-6.529061e+04 +/- 1.590742e+03) [K]
    Coulombic Fourier/kʙ   -1.626369e+04 (-1.580730e+04 +/- 3.196937e+02) [K]
    Molecule Intra/kʙ       0.000000e+00 ( 0.000000e+00 +/- 0.000000e+00) [K]

Current cycle: 4800 out of 5000
===============================================================================

Box:      24.16355   0.00000   0.00000  Average:  23.77708   0.00000   0.00000
           0.00000  24.16355   0.00000             0.00000  23.77708   0.00000
           0.00000   0.00000  24.16355             0.00000   0.00000  23.77708
Lengths:  24.16355  24.16355  24.16355  Average:  23.77708  23.77708  23.77708
Angles:   90.00000  90.00000  90.00000  Average:  90.00000  90.00000  90.00000
Rectangular boundary conditions

net charge:   0.00000000

component 0 (CO2) lambda:  0 occupancy:  1 (1.000000)
    net charge:   0.00000000 [e]

Amount of molecules per component :
-------------------------------------------------------------------------------
Component 0 (CO2)
    molecules:      2.000000e+02 molecules  (2.000000e+02 +/- 0.000000e+00)
    number density: 1.417581e-02 molec./A^3 (1.488374e-02 +/- 2.553172e-04)
    density:        1.035709e+03 kg/m^3     (1.087431e+03 +/- 1.865391e+01)

Average pressure tensor: 
-------------------------------------------------------------------------------
 1.5068e+02 -2.9030e+01 -2.4197e+01 +/- 6.7725e+01 1.5150e+01 7.0145e+01 [bar]
-2.9030e+01  1.2626e+02 -6.3636e+00 +/- 1.5150e+01 3.6545e+01 4.1840e+01 [bar]
-2.4197e+01 -6.3636e+00  1.4455e+02 +/- 7.0145e+01 4.1840e+01 5.7394e+01 [bar]
Ideal-gas pressure:   5.137309e+02 +/ 8.812594e+00 [bar]
Excess pressure:     -3.732343e+02 +/ 3.215892e+01 [bar]
Pressure:             1.404966e+02 +/ 2.814333e+01 [bar]

Total potential energy/kʙ  -2.993946e+05 (-3.142399e+05 +/- 5.578024e+03) [K]
-------------------------------------------------------------------------------
ExternalField-molecule
    Van der Waals/kʙ        0.000000e+00 ( 0.000000e+00 +/- 0.000000e+00) [K]
Framework-molecule
    Van der Waals/kʙ        0.000000e+00 ( 0.000000e+00 +/- 0.000000e+00) [K]
    Van der Waals (Tail)/kʙ 0.000000e+00 ( 0.000000e+00 +/- 0.000000e+00) [K]
    Coulombic Real/kʙ       0.000000e+00 ( 0.000000e+00 +/- 0.000000e+00) [K]
    Coulombic Fourier/kʙ    0.000000e+00 ( 0.000000e+00 +/- 0.000000e+00) [K]
Molecule-molecule
    Van der Waals/kʙ       -2.177712e+05 (-2.236410e+05 +/- 4.142884e+03) [K]
    Van der Waals (Tail)/kʙ-9.096757e+03 (-9.550445e+03 +/- 1.580021e+02) [K]
    Coulombic Real/kʙ      -5.651793e+04 (-6.523754e+04 +/- 1.489439e+03) [K]
    Coulombic Fourier/kʙ   -1.600877e+04 (-1.581084e+04 +/- 3.186648e+02) [K]
    Molecule Intra/kʙ       0.000000e+00 ( 0.000000e+00 +/- 0.000000e+00) [K]

Current cycle: 4900 out of 5000
===============================================================================

Box:      24.01428   0.00000   0.00000  Average:  23.78506   0.00000   0.00000
           0.00000  24.01428   0.00000             0.00000  23.78506   0.00000
           0.00000   0.00000  24.01428             0.00000   0.00000  23.78506
Lengths:  24.01428  24.01428  24.01428  Average:  23.78506  23.78506  23.78506
Angles:   90.00000  90.00000  90.00000  Average:  90.00000  90.00000  90.00000
Rectangular boundary conditions

net charge:   0.00000000

component 0 (CO2) lambda:  0 occupancy:  1 (1.000000)
    net charge:   0.00000000 [e]

Amount of molecules per component :
-------------------------------------------------------------------------------
Component 0 (CO2)
    molecules:      2.000000e+02 molecules  (2.000000e+02 +/- 0.000000e+00)
    number density: 1.444180e-02 molec./A^3 (1.486916e-02 +/- 2.725720e-04)
    density:        1.055143e+03 kg/m^3     (1.086366e+03 +/- 1.991458e+01)

Average pressure tensor: 
-------------------------------------------------------------------------------
 1.5364e+02 -2.6261e+01 -2.2181e+01 +/- 6.0973e+01 1.2935e+01 6.7685e+01 [bar]
-2.6261e+01  1.2295e+02 -8.7049e+00 +/- 1.2935e+01 2.6980e+01 3.8811e+01 [bar]
-2.2181e+01 -8.7049e+00  1.4709e+02 +/- 6.7685e+01 3.8811e+01 6.0102e+01 [bar]
Ideal-gas pressure:   5.132276e+02 +/ 9.408167e+00 [bar]
Excess pressure:     -3.720010e+02 +/ 3.319746e+01 [bar]
Pressure:             1.412266e+02 +/ 2.857290e+01 [bar]

Total potential energy/kʙ  -3.070158e+05 (-3.138989e+05 +/- 5.915988e+03) [K]
-------------------------------------------------------------------------------
ExternalField-molecule
    Van der Waals/kʙ        0.000000e+00 ( 0.000000e+00 +/- 0.000000e+00) [K]
Framework-molecule
    Van der Waals/kʙ        0.000000e+00 ( 0.000000e+00 +/- 0.000000e+00) [K]
    Van der Waals (Tail)/kʙ 0.000000e+00 ( 0.000000e+00 +/- 0.000000e+00) [K]
    Coulombic Real/kʙ       0.000000e+00 ( 0.000000e+00 +/- 0.000000e+00) [K]
    Coulombic Fourier/kʙ    0.000000e+00 ( 0.000000e+00 +/- 0.000000e+00) [K]
Molecule-molecule
    Van der Waals/kʙ       -2.162362e+05 (-2.234070e+05 +/- 4.429178e+03) [K]
    Van der Waals (Tail)/kʙ-9.267445e+03 (-9.541696e+03 +/- 1.682032e+02) [K]
    Coulombic Real/kʙ      -6.540890e+04 (-6.513917e+04 +/- 1.416399e+03) [K]
    Coulombic Fourier/kʙ   -1.610329e+04 (-1.581106e+04 +/- 3.185787e+02) [K]
    Molecule Intra/kʙ       0.000000e+00 ( 0.000000e+00 +/- 0.000000e+00) [K]


Energy statistics             |  Energy [K]   | Recomputed [K]|  Drift [K]    |
===============================================================================
Total potential energy/kʙ     | -2.843402e+05 | -2.843402e+05 | -1.268891e-10 |
    external field VDW/kʙ     |  0.000000e+00 |  0.000000e+00 |  0.000000e+00 |
    external field Real/kʙ    |  0.000000e+00 |  0.000000e+00 |  0.000000e+00 |
    framework-molecule VDW/kʙ |  0.000000e+00 |  0.000000e+00 |  0.000000e+00 |
    framework-molecule Real/kʙ|  0.000000e+00 |  0.000000e+00 |  0.000000e+00 |
    molecule-molecule VDW/kʙ  | -2.008302e+05 | -2.008302e+05 |  3.500388e-11 |
    molecule-molecule Real/kʙ | -5.987878e+04 | -5.987878e+04 | -1.837704e-10 |
    Van der Waals (Tail)/kʙ   | -8.729806e+03 | -8.729806e+03 |  0.000000e+00 |
    Ewald Fourier/kʙ          |  1.416027e+04 |  1.416027e+04 |  2.187743e-11 |
    Ewald self/kʙ             | -4.445846e+06 | -4.445846e+06 |  0.000000e+00 |
    Ewald exclusion/kʙ        |  4.416785e+06 |  4.416785e+06 |  0.000000e+00 |
    intra VDW/kʙ              |  0.000000e+00 |  0.000000e+00 |  0.000000e+00 |
    intra Coulombic/kʙ        |  0.000000e+00 |  0.000000e+00 |  0.000000e+00 |
    polarization/kʙ           |  0.000000e+00 |  0.000000e+00 |  0.000000e+00 |
    dU/dlambda VDW/kʙ         |  0.000000e+00 |  0.000000e+00 |  0.000000e+00 |
    dU/dlambda Real/kʙ        |  0.000000e+00 |  0.000000e+00 |  0.000000e+00 |
    dU/dlambda Ewald/kʙ       |  0.000000e+00 |  0.000000e+00 |  0.000000e+00 |
-------------------------------------------------------------------------------


Monte-Carlo moves statistics
===============================================================================

    Volume change        all:                6770
    Volume change        total:              6770
    Volume change        constructed:        6770
    Volume change        accepted:           3592
    Volume change        fraction:       0.530576
    Volume change        max-change:     0.025000

Component 0 [CO2]
    Reinsertion (CBMC)   all:              331697
    Reinsertion (CBMC)   total:            331697
    Reinsertion (CBMC)   constructed:      287893
    Reinsertion (CBMC)   accepted:           3681
    Reinsertion (CBMC)   fraction:       0.011097
    Reinsertion (CBMC)   max-change:     0.000000

    Translation          all:              330698
    Translation          total:            109809     110563     110326
    Translation          constructed:      109809     110563     110326
    Translation          accepted:          51276      56877      52675
    Translation          fraction:       0.466956   0.514431   0.477449
    Translation          max-change:     0.714286   0.617647   0.687500

    Rotation             all:              330835
    Rotation             total:            110388     110272     110175
    Rotation             constructed:      110388     110272     110172
    Rotation             accepted:          53279      53130      48418
    Rotation             fraction:       0.482652   0.481809   0.439464
    Rotation             max-change:     0.714286   0.720000   0.820988



Production run counting of the MC moves summed over systems and components
===============================================================================

Volume change                          6770 (0.6770 [%])
Reinsertion (CBMC)                   331697 (33.1697 [%])
Translation                          330698 (33.0698 [%])
Rotation                             330835 (33.0835 [%])

Production count MC-steps:          1000000 [-]
               All summed:          1000000 [-]
               difference:                0 [-]


Production run CPU timings of the MC moves
===============================================================================

Component 0 CO2

Rotation                             48.486707 [s]
    Ewald                            24.769912 [s]
    ExternalField-Molecule            0.012975 [s]
    Framework-Molecule                0.010651 [s]
    Molecule-Molecule                21.748779 [s]
    Overhead                          1.944390 [s]

Reinsertion (CBMC)                  168.033664 [s]
    Ewald                            21.647047 [s]
    NonEwald                        146.063308 [s]
    Overhead                          0.323309 [s]

Translation                          48.560033 [s]
    Ewald                            24.755308 [s]
    ExternalField-Molecule            0.011304 [s]
    Framework-Molecule                0.018477 [s]
    Molecule-Molecule                21.794138 [s]
    Overhead                          1.980806 [s]



Volume change                         41.958055 [s]
    Ewald                             18.258869 [s]
    NonEwald                          22.178504 [s]
    Tail                               1.271306 [s]

Property sampling                     0.280607 [s]
Energy/pressure sampling:             7.087864 [s]


Production run CPU timings of the MC moves summed over systems and components
===============================================================================


Translation                          48.560033 [s]
    Ewald                            24.755308 [s]
    ExternalField-Molecule            0.011304 [s]
    Framework-Molecule                0.018477 [s]
    Molecule-Molecule                21.794138 [s]
    Overhead                          1.980806 [s]

Rotation                             48.486707 [s]
    Ewald                            24.769912 [s]
    ExternalField-Molecule            0.012975 [s]
    Framework-Molecule                0.010651 [s]
    Molecule-Molecule                21.748779 [s]
    Overhead                          1.944390 [s]

Volume change                        41.958055 [s]
    Ewald                            18.258869 [s]
    NonEwald                         22.178504 [s]
    Tail                              1.271306 [s]
    Overhead                          0.249376 [s]

Reinsertion (CBMC)                  168.033664 [s]
    Ewald                            21.647047 [s]
    NonEwald                        146.063308 [s]
    Overhead                          0.323309 [s]

Property sampling:                    0.280607 [s]
Energy/pressure sampling:             7.087864 [s]

Production simulation time:         315.203067 [s]
                All summed:         314.406930 [s]
                  Overhead:           0.796137 [s]


Initalization simulation time:       60.668351 [s]
Equilibration simulation time:        0.000000 [s]
Production simulation time:         315.203067 [s]
Total simulation time:              375.871418 [s]


Energy averages and statistics:
===============================================================================

Framework-molecule energy:
-------------------------------------------------------------------------------



Framework-molecule energy contributions per energy type:
-------------------------------------------------------------------------------



Inter-molecular energy:
-------------------------------------------------------------------------------

    Inter-molecular energy/kʙ 0-0 [CO2-CO2]:
    ---------------------------------------------------------------------------
        Block[  0] -3.180032e+05
        Block[  1] -3.154555e+05
        Block[  2] -3.180591e+05
        Block[  3] -3.077030e+05
        Block[  4] -3.080671e+05
        -----------------------------------------------------------------------
        Average  -3.134576e+05 +/-  6.450894e+03 [K]



Inter-molecular energy contributions per energy type:
-------------------------------------------------------------------------------

    Van der Waals energy/kʙ 0-0 [CO2-CO2]:
    ---------------------------------------------------------------------------
        Block[  0] -2.267694e+05
        Block[  1] -2.244576e+05
        Block[  2] -2.263498e+05
        Block[  3] -2.197188e+05
        Block[  4] -2.183601e+05
        -----------------------------------------------------------------------
        Average  -2.231311e+05 +/-  4.798646e+03 [K]

    VDW Tail-Correction energy/kʙ 0-0 [CO2-CO2]:
    ---------------------------------------------------------------------------
        Block[  0] -9.624609e+03
        Block[  1] -9.603015e+03
        Block[  2] -9.679975e+03
        Block[  3] -9.389547e+03
        Block[  4] -9.349383e+03
        -----------------------------------------------------------------------
        Average  -9.529306e+03 +/-  1.853089e+02 [K]

    Coulomb Real energy/kʙ 0-0 [CO2-CO2]:
    ---------------------------------------------------------------------------
        Block[  0] -6.586368e+04
        Block[  1] -6.548548e+04
        Block[  2] -6.587352e+04
        Block[  3] -6.314438e+04
        Block[  4] -6.470432e+04
        -----------------------------------------------------------------------
        Average  -6.501428e+04 +/-  1.425577e+03 [K]

    Coulomb Fourier energy/kʙ 0-0 [CO2-CO2]:
    ---------------------------------------------------------------------------
        Block[  0] -1.574557e+04
        Block[  1] -1.590937e+04
        Block[  2] -1.615586e+04
        Block[  3] -1.545019e+04
        Block[  4] -1.565329e+04
        -----------------------------------------------------------------------
        Average  -1.578285e+04 +/-  3.307880e+02 [K]


Total energy/kʙ
-------------------------------------------------------------------------------
    Block[  0] -3.180032e+05
    Block[  1] -3.154555e+05
    Block[  2] -3.180591e+05
    Block[  3] -3.077030e+05
    Block[  4] -3.080671e+05
    ---------------------------------------------------------------------------
    Average  -3.134576e+05 +/-  6.450894e+03 [K]

Pressure averages and statistics:
===============================================================================

Average pressure tensor: 
-------------------------------------------------------------------------------
 1.4429e+02 -2.5554e+01 -2.3144e+01 +/- 7.4750e+01 1.3233e+01 6.8022e+01 [bar]
-2.5554e+01  1.2338e+02 -6.5645e+00 +/- 1.3233e+01 2.6843e+01 4.0384e+01 [bar]
-2.3144e+01 -6.5645e+00  1.4812e+02 +/- 6.8022e+01 4.0384e+01 6.0018e+01 [bar]

    Block[  0]  5.175888e+07
    Block[  1]  5.162937e+07
    Block[  2]  5.214030e+07
    Block[  3]  5.048259e+07
    Block[  4]  5.025368e+07
    ---------------------------------------------------------------------------
    Ideal gas pressure   5.125296e+07 +/-  6.229394e-02 [Pa]
                         5.125296e+02 +/-  1.034416e+01 [bar]


    Block[  0] -4.137968e+07
    Block[  1] -3.522423e+07
    Block[  2] -3.822488e+07
    Block[  3] -3.585521e+07
    Block[  4] -3.628247e+07
    ---------------------------------------------------------------------------
    Excess pressure  -3.739329e+07 +/-  3.096654e+06 [Pa]
                     -3.739329e+02 +/-  3.096654e+01 [bar]


    Block[  0]  1.037920e+07
    Block[  1]  1.640514e+07
    Block[  2]  1.391542e+07
    Block[  3]  1.462738e+07
    Block[  4]  1.397121e+07
    ---------------------------------------------------------------------------
    Pressure average   1.385967e+07 +/-  2.719772e+06 [Pa]
                       1.385967e+02 +/-  2.719772e+01 [bar]


Enthalpy of adsorption
===============================================================================

No fluctuating components present.


Densities
===============================================================================

Component 0 (CO2)
    Block[  0] 200
    Block[  1] 200
    Block[  2] 200
    Block[  3] 200
    Block[  4] 200
    -----------------------------------------------------------------------
    Density average   2.000000e+02 +/-  0.000000e+00 [molecules]
    Density average   1.484893e-02 +/-  2.996894e-04 [molec/A^3]
    Density average   1.084889e+03 +/-  2.189582e+01 [kg.m⁻³]

