Compiler and run-time data
===============================================================================
RASPA 3.0.4

Random seed: 2803433869

Compiled as a 64-bits application
Compiler: gcc Ubuntu Clang 18.1.3 (1ubuntu1)
Compile Date = Mar 15 2025, Compile Time = 19:39:45

2025-06-02 13:11:29.150761
Simulation started on Mon, Jun 02
The start time was 13:11:00

Hostname:    c060
OS type:     Linux on x86_64
OS release:  6.8.0-58-generic
OS version:  #60-Ubuntu SMP PREEMPT_DYNAMIC Fri Mar 14 18:29:48 UTC 2025


Mutual consistent basic set of units:
===============================================================================

Unit of temperature: 1 [K]
Unit of length:      1e-10 [m]
Unit of time:        1e-12 [s]
Unit of mass:        1.6605402e-27 [kg]
Unit of charge:      1.60217733e-19 [C/particle]


Boltzmann constant (internal units):          0.8314464919307584 [-]
represents conversion from energy (internal units) to temperature (in Kelvin)

Derived units and their conversion factors:
===============================================================================

Unit of energy:                           1.6605402000000002e-23 [J]
Unit of energy:                           10.000008872307538 [J.mol⁻¹]
Unit of velocity:                         100 [m.s⁻¹]
Unit of force:                            1.6605402000000002e-13 [N]
Unit of diffusion:                        1.0000000000000002e-08 [m².s⁻¹]
Unit of acceleration:                     1.0000000000000002e-08 [m².s⁻¹]
Unit of torque:                           1.6605402000000002e-23 [N.m]
Unit of pressure:                         16605402 [Pa]
Unit of volume:                           1e-30 [m³]
Unit of density:                          1660.5402 [kg.m⁻³]
Unit of dynamic viscosity:                1.6605401999999997e-05 [N.s.m⁻²]
Unit of enthalpy:                         1.6605402000000002e-23 [J]
Unit of polarizability:                   1.5458657349975198e-35 [-]
Unit of Coulomb potential:                167101.08000665612 [K]
Unit of dielectric constant:              1.5458657349975193e-05 [s².C².kg⁻¹.m⁻³]
Unit of dipole moment:                    1.60217733e-29 [C.m]
Unit of Debye:                            4.803206799099162 [C.m]
Unit of electric potential:               0.00010364272224473431 [V]
Unit of electric field:                   1036427.222447343 [V.m⁻¹]
Unit of isothermal compressibility:       6.02213665167516e-08 [Pa⁻¹]
Unit of heat capacity:                    10.000008872307538 [J.mol⁻¹.K⁻¹]
Unit of volumetric expansion coefficient: 1 [K⁻¹]


Internal conversion factors:
===============================================================================

Energy (internal units) to Kelvin:      1.202724284692786 [-]
Kelvin to energy (internal units):      0.8314457542157567 [-]


System definitions
===============================================================================

Temperature:          250 [K]
Beta:                 0.0048108928702210625 [-]
Pressure:             8e+06 [Pa]
Helium void fraction: 1 [-]

Box:      30.00000   0.00000   0.00000
           0.00000  30.00000   0.00000
           0.00000   0.00000  30.00000
Lengths:  30.00000  30.00000  30.00000
Angles:   90.00000  90.00000  90.00000
Rectangular boundary conditions



Property measurement settings
===============================================================================




Pseudo-atoms
===============================================================================

  0 - C_co2    framework-atom: false
  1 - O_co2    framework-atom: false

  0 - C_co2    mass: 12.00000, charge:  0.70000
  1 - O_co2    mass: 15.99940, charge: -0.35000

  0 - C_co2    polarizability:  0.00000
  1 - O_co2    polarizability:  0.00000

  0 - J. J. Potoff et al., AIChE J. 2001, 47, 1676–1682.
  1 - J. J. Potoff et al., AIChE J. 2001, 47, 1676–1682.

Force field status
===============================================================================

Cutoff Framework-Molecule VDW:  11.00000 [Å]
Cutoff Molecule-Molecule VDW:   11.00000 [Å]
Cutoff Coulomb:                 11.00000 [Å]

Overlap-criteria VDW:           1.000000e+05 [K]

C_co2    - C_co2    Lennard-Jones p₀/kʙ:  27.00000 [K], p₁:  2.80000 [Å]
                                  shift:   0.00000 [K], tailcorrections: true
C_co2    - O_co2    Lennard-Jones p₀/kʙ:  46.18441 [K], p₁:  2.92500 [Å]
                                  shift:   0.00000 [K], tailcorrections: true
O_co2    - O_co2    Lennard-Jones p₀/kʙ:  79.00000 [K], p₁:  3.05000 [Å]
                                  shift:   0.00000 [K], tailcorrections: true

Ewald precision: 1e-06
Ewald alpha: 0.2903408740940883
Ewald k-vectors: 9 9 9


Component definitions
===============================================================================

Component 0 [CO2]

    Type: Adsorbate

    Critical temperature:  304.1282 [K]
    Critical pressure:     7377300 [Pa]
    Acentric factor:       0.22394 [-]

    Mol-fraction:                 1 [-]
    Swappable:                   false

    Mass:                         43.9988 [-]
    Bulk fluid density:           0 [-]
    Compressibility:              0 [-]
    Excess molecules:             0 [-]

    Number Of Atoms:    3
    CBMC starting bead: 0
      0: O_co2  position  0.00000 -0.00000  1.16000, charge -0.35000
      1: C_co2  position  0.00000 -0.00000  0.00000, charge  0.70000
      2: O_co2  position  0.00000 -0.00000 -1.16000, charge -0.35000
    Diagonalized inertia-vector:      43.05758528 43.05758528 0.00000000
    Translational degrees of freedom: 3
    Rotational degrees of freedom:    2
    Shape of the molecule is: 'Linear'
    Net-charge:        0.00000000 [e]

    Move probabilities:
    Translation:                   0.331126 [-]
    Random translation:            0.000000 [-]
    Rotation:                      0.331126 [-]
    Random rotation:               0.000000 [-]
    Volume change:                 0.006623 [-]
    Reinsertion (CBMC):            0.331126 [-]
    Identity change (CBMC):        0.000000 [-]
    Swap:                          0.000000 [-]
    Swap (CBMC):                   0.000000 [-]
    Swap (CFCMC):                  0.000000 [-]
    Swap (CB/CFCMC):               0.000000 [-]
    Gibbs volume:                  0.000000 [-]
    Gibbs swap (CBMC):             0.000000 [-]
    Gibbs swap (CFCMC):            0.000000 [-]
    Widom:                         0.000000 [-]
    Widom (CFCMC):                 0.000000 [-]
    Widom (CB/CFCMC):              0.000000 [-]
    Parallel tempering:            0.000000 [-]
    Hybrid MC:                     0.000000 [-]

    number of blocking-pockets: 0

    number of bonds: 0





Number of pseudo-atoms
===============================================================================

Component   0 (CO2)
-------------------------------------------------------------------------------
    index   0 (C_co2): 250 atoms
    index   1 (O_co2): 500 atoms

Total number of pseudo-atoms:
-------------------------------------------------------------------------------
    index   0 (C_co2): 250 atoms
    index   1 (O_co2): 500 atoms




Energy status Recomputed from scratch
===============================================================================

Total potential energy/kʙ       -1.401057e+05 [K]
    external field VDW/kʙ        0.000000e+00 [K]
    external field Real/kʙ       0.000000e+00 [K]
    framework-molecule VDW/kʙ    0.000000e+00 [K]
    framework-molecule Real/kʙ   0.000000e+00 [K]
    molecule-molecule VDW/kʙ    -1.080488e+05 [K]
    molecule-molecule Real/kʙ   -2.354709e+04 [K]
    Van der Waals (Tail)/kʙ     -5.580763e+03 [K]
    Ewald Fourier/kʙ             1.976235e+04 [K]
    Ewald self/kʙ               -5.029674e+06 [K]
    Ewald exclusion/kʙ           5.006983e+06 [K]
    intra VDW/kʙ                 0.000000e+00 [K]
    intra Coulombic/kʙ           0.000000e+00 [K]
    polarization/kʙ              0.000000e+00 [K]
    dU/dlambda VDW/kʙ            0.000000e+00 [K]
    dU/dlambda Real/kʙ           0.000000e+00 [K]
    dU/dlambda Ewald/kʙ          0.000000e+00 [K]





Initialization: Current cycle: 0 out of 1000
===============================================================================

Box:      30.00000   0.00000   0.00000
           0.00000  30.00000   0.00000
           0.00000   0.00000  30.00000
Lengths:  30.00000  30.00000  30.00000
Angles:   90.00000  90.00000  90.00000
Rectangular boundary conditions

net charge:   0.00000000

component   0 (CO2) lambda:  0 occupancy:  1 (1.000000)
    net charge:   0.00000000 [e]

Amount of molecules per component :
-------------------------------------------------------------------------------
Component 0 (CO2)
    molecules:         2.500000e+02 molecules
    number density:    9.259259e-03 molec/A^3
    density:           6.764973e+02 kg/m^3

Total potential energy/kʙ       -1.985512e+05 [K]
-------------------------------------------------------------------------------
    external field VDW/kʙ        0.000000e+00 [K]
    external field Real/kʙ       0.000000e+00 [K]
    framework-molecule VDW/kʙ    0.000000e+00 [K]
    framework-molecule Real/kʙ   0.000000e+00 [K]
    molecule-molecule VDW/kʙ    -1.577406e+05 [K]
    molecule-molecule Real/kʙ   -3.084885e+04 [K]
    Van der Waals (Tail)/kʙ     -5.580763e+03 [K]
    Ewald Fourier/kʙ             1.831045e+04 [K]
    Ewald self/kʙ               -5.029674e+06 [K]
    Ewald exclusion/kʙ           5.006983e+06 [K]
    intra VDW/kʙ                 0.000000e+00 [K]
    intra Coulombic/kʙ           0.000000e+00 [K]
    polarization/kʙ              0.000000e+00 [K]
    dU/dlambda VDW/kʙ            0.000000e+00 [K]
    dU/dlambda Real/kʙ           0.000000e+00 [K]
    dU/dlambda Ewald/kʙ          0.000000e+00 [K]


Initialization: Current cycle: 100 out of 1000
===============================================================================

Box:      27.10976   0.00000   0.00000
           0.00000  27.10976   0.00000
           0.00000   0.00000  27.10976
Lengths:  27.10976  27.10976  27.10976
Angles:   90.00000  90.00000  90.00000
Rectangular boundary conditions

net charge:   0.00000000

component   0 (CO2) lambda:  0 occupancy:  1 (1.000000)
    net charge:   0.00000000 [e]

Amount of molecules per component :
-------------------------------------------------------------------------------
Component 0 (CO2)
    molecules:         2.500000e+02 molecules
    number density:    1.254767e-02 molec/A^3
    density:           9.167544e+02 kg/m^3

Total potential energy/kʙ       -3.327339e+05 [K]
-------------------------------------------------------------------------------
    external field VDW/kʙ        0.000000e+00 [K]
    external field Real/kʙ       0.000000e+00 [K]
    framework-molecule VDW/kʙ    0.000000e+00 [K]
    framework-molecule Real/kʙ   0.000000e+00 [K]
    molecule-molecule VDW/kʙ    -2.397405e+05 [K]
    molecule-molecule Real/kʙ   -7.510658e+04 [K]
    Van der Waals (Tail)/kʙ     -7.562763e+03 [K]
    Ewald Fourier/kʙ             1.236729e+04 [K]
    Ewald self/kʙ               -5.029674e+06 [K]
    Ewald exclusion/kʙ           5.006983e+06 [K]
    intra VDW/kʙ                 0.000000e+00 [K]
    intra Coulombic/kʙ           0.000000e+00 [K]
    polarization/kʙ              0.000000e+00 [K]
    dU/dlambda VDW/kʙ            0.000000e+00 [K]
    dU/dlambda Real/kʙ           0.000000e+00 [K]
    dU/dlambda Ewald/kʙ          0.000000e+00 [K]


Initialization: Current cycle: 200 out of 1000
===============================================================================

Box:      26.44910   0.00000   0.00000
           0.00000  26.44910   0.00000
           0.00000   0.00000  26.44910
Lengths:  26.44910  26.44910  26.44910
Angles:   90.00000  90.00000  90.00000
Rectangular boundary conditions

net charge:   0.00000000

component   0 (CO2) lambda:  0 occupancy:  1 (1.000000)
    net charge:   0.00000000 [e]

Amount of molecules per component :
-------------------------------------------------------------------------------
Component 0 (CO2)
    molecules:         2.500000e+02 molecules
    number density:    1.351162e-02 molec/A^3
    density:           9.871819e+02 kg/m^3

Total potential energy/kʙ       -3.474093e+05 [K]
-------------------------------------------------------------------------------
    external field VDW/kʙ        0.000000e+00 [K]
    external field Real/kʙ       0.000000e+00 [K]
    framework-molecule VDW/kʙ    0.000000e+00 [K]
    framework-molecule Real/kʙ   0.000000e+00 [K]
    molecule-molecule VDW/kʙ    -2.543948e+05 [K]
    molecule-molecule Real/kʙ   -7.298911e+04 [K]
    Van der Waals (Tail)/kʙ     -8.143754e+03 [K]
    Ewald Fourier/kʙ             1.080967e+04 [K]
    Ewald self/kʙ               -5.029674e+06 [K]
    Ewald exclusion/kʙ           5.006983e+06 [K]
    intra VDW/kʙ                 0.000000e+00 [K]
    intra Coulombic/kʙ           0.000000e+00 [K]
    polarization/kʙ              0.000000e+00 [K]
    dU/dlambda VDW/kʙ            0.000000e+00 [K]
    dU/dlambda Real/kʙ           0.000000e+00 [K]
    dU/dlambda Ewald/kʙ          0.000000e+00 [K]


Initialization: Current cycle: 300 out of 1000
===============================================================================

Box:      26.07796   0.00000   0.00000
           0.00000  26.07796   0.00000
           0.00000   0.00000  26.07796
Lengths:  26.07796  26.07796  26.07796
Angles:   90.00000  90.00000  90.00000
Rectangular boundary conditions

net charge:   0.00000000

component   0 (CO2) lambda:  0 occupancy:  1 (1.000000)
    net charge:   0.00000000 [e]

Amount of molecules per component :
-------------------------------------------------------------------------------
Component 0 (CO2)
    molecules:         2.500000e+02 molecules
    number density:    1.409676e-02 molec/A^3
    density:           1.029933e+03 kg/m^3

Total potential energy/kʙ       -3.710453e+05 [K]
-------------------------------------------------------------------------------
    external field VDW/kʙ        0.000000e+00 [K]
    external field Real/kʙ       0.000000e+00 [K]
    framework-molecule VDW/kʙ    0.000000e+00 [K]
    framework-molecule Real/kʙ   0.000000e+00 [K]
    molecule-molecule VDW/kʙ    -2.661750e+05 [K]
    molecule-molecule Real/kʙ   -8.386901e+04 [K]
    Van der Waals (Tail)/kʙ     -8.496431e+03 [K]
    Ewald Fourier/kʙ             1.018650e+04 [K]
    Ewald self/kʙ               -5.029674e+06 [K]
    Ewald exclusion/kʙ           5.006983e+06 [K]
    intra VDW/kʙ                 0.000000e+00 [K]
    intra Coulombic/kʙ           0.000000e+00 [K]
    polarization/kʙ              0.000000e+00 [K]
    dU/dlambda VDW/kʙ            0.000000e+00 [K]
    dU/dlambda Real/kʙ           0.000000e+00 [K]
    dU/dlambda Ewald/kʙ          0.000000e+00 [K]


Initialization: Current cycle: 400 out of 1000
===============================================================================

Box:      25.93991   0.00000   0.00000
           0.00000  25.93991   0.00000
           0.00000   0.00000  25.93991
Lengths:  25.93991  25.93991  25.93991
Angles:   90.00000  90.00000  90.00000
Rectangular boundary conditions

net charge:   0.00000000

component   0 (CO2) lambda:  0 occupancy:  1 (1.000000)
    net charge:   0.00000000 [e]

Amount of molecules per component :
-------------------------------------------------------------------------------
Component 0 (CO2)
    molecules:         2.500000e+02 molecules
    number density:    1.432302e-02 molec/A^3
    density:           1.046465e+03 kg/m^3

Total potential energy/kʙ       -3.803137e+05 [K]
-------------------------------------------------------------------------------
    external field VDW/kʙ        0.000000e+00 [K]
    external field Real/kʙ       0.000000e+00 [K]
    framework-molecule VDW/kʙ    0.000000e+00 [K]
    framework-molecule Real/kʙ   0.000000e+00 [K]
    molecule-molecule VDW/kʙ    -2.695068e+05 [K]
    molecule-molecule Real/kʙ   -9.004672e+04 [K]
    Van der Waals (Tail)/kʙ     -8.632806e+03 [K]
    Ewald Fourier/kʙ             1.056398e+04 [K]
    Ewald self/kʙ               -5.029674e+06 [K]
    Ewald exclusion/kʙ           5.006983e+06 [K]
    intra VDW/kʙ                 0.000000e+00 [K]
    intra Coulombic/kʙ           0.000000e+00 [K]
    polarization/kʙ              0.000000e+00 [K]
    dU/dlambda VDW/kʙ            0.000000e+00 [K]
    dU/dlambda Real/kʙ           0.000000e+00 [K]
    dU/dlambda Ewald/kʙ          0.000000e+00 [K]


Initialization: Current cycle: 500 out of 1000
===============================================================================

Box:      25.44985   0.00000   0.00000
           0.00000  25.44985   0.00000
           0.00000   0.00000  25.44985
Lengths:  25.44985  25.44985  25.44985
Angles:   90.00000  90.00000  90.00000
Rectangular boundary conditions

net charge:   0.00000000

component   0 (CO2) lambda:  0 occupancy:  1 (1.000000)
    net charge:   0.00000000 [e]

Amount of molecules per component :
-------------------------------------------------------------------------------
Component 0 (CO2)
    molecules:         2.500000e+02 molecules
    number density:    1.516646e-02 molec/A^3
    density:           1.108088e+03 kg/m^3

Total potential energy/kʙ       -3.909185e+05 [K]
-------------------------------------------------------------------------------
    external field VDW/kʙ        0.000000e+00 [K]
    external field Real/kʙ       0.000000e+00 [K]
    framework-molecule VDW/kʙ    0.000000e+00 [K]
    framework-molecule Real/kʙ   0.000000e+00 [K]
    molecule-molecule VDW/kʙ    -2.865115e+05 [K]
    molecule-molecule Real/kʙ   -8.226045e+04 [K]
    Van der Waals (Tail)/kʙ     -9.141166e+03 [K]
    Ewald Fourier/kʙ             9.686060e+03 [K]
    Ewald self/kʙ               -5.029674e+06 [K]
    Ewald exclusion/kʙ           5.006983e+06 [K]
    intra VDW/kʙ                 0.000000e+00 [K]
    intra Coulombic/kʙ           0.000000e+00 [K]
    polarization/kʙ              0.000000e+00 [K]
    dU/dlambda VDW/kʙ            0.000000e+00 [K]
    dU/dlambda Real/kʙ           0.000000e+00 [K]
    dU/dlambda Ewald/kʙ          0.000000e+00 [K]


Initialization: Current cycle: 600 out of 1000
===============================================================================

Box:      25.79043   0.00000   0.00000
           0.00000  25.79043   0.00000
           0.00000   0.00000  25.79043
Lengths:  25.79043  25.79043  25.79043
Angles:   90.00000  90.00000  90.00000
Rectangular boundary conditions

net charge:   0.00000000

component   0 (CO2) lambda:  0 occupancy:  1 (1.000000)
    net charge:   0.00000000 [e]

Amount of molecules per component :
-------------------------------------------------------------------------------
Component 0 (CO2)
    molecules:         2.500000e+02 molecules
    number density:    1.457351e-02 molec/A^3
    density:           1.064766e+03 kg/m^3

Total potential energy/kʙ       -3.791362e+05 [K]
-------------------------------------------------------------------------------
    external field VDW/kʙ        0.000000e+00 [K]
    external field Real/kʙ       0.000000e+00 [K]
    framework-molecule VDW/kʙ    0.000000e+00 [K]
    framework-molecule Real/kʙ   0.000000e+00 [K]
    molecule-molecule VDW/kʙ    -2.761638e+05 [K]
    molecule-molecule Real/kʙ   -8.157094e+04 [K]
    Van der Waals (Tail)/kʙ     -8.783783e+03 [K]
    Ewald Fourier/kʙ             1.007373e+04 [K]
    Ewald self/kʙ               -5.029674e+06 [K]
    Ewald exclusion/kʙ           5.006983e+06 [K]
    intra VDW/kʙ                 0.000000e+00 [K]
    intra Coulombic/kʙ           0.000000e+00 [K]
    polarization/kʙ              0.000000e+00 [K]
    dU/dlambda VDW/kʙ            0.000000e+00 [K]
    dU/dlambda Real/kʙ           0.000000e+00 [K]
    dU/dlambda Ewald/kʙ          0.000000e+00 [K]


Initialization: Current cycle: 700 out of 1000
===============================================================================

Box:      25.95975   0.00000   0.00000
           0.00000  25.95975   0.00000
           0.00000   0.00000  25.95975
Lengths:  25.95975  25.95975  25.95975
Angles:   90.00000  90.00000  90.00000
Rectangular boundary conditions

net charge:   0.00000000

component   0 (CO2) lambda:  0 occupancy:  1 (1.000000)
    net charge:   0.00000000 [e]

Amount of molecules per component :
-------------------------------------------------------------------------------
Component 0 (CO2)
    molecules:         2.500000e+02 molecules
    number density:    1.429021e-02 molec/A^3
    density:           1.044067e+03 kg/m^3

Total potential energy/kʙ       -3.664263e+05 [K]
-------------------------------------------------------------------------------
    external field VDW/kʙ        0.000000e+00 [K]
    external field Real/kʙ       0.000000e+00 [K]
    framework-molecule VDW/kʙ    0.000000e+00 [K]
    framework-molecule Real/kʙ   0.000000e+00 [K]
    molecule-molecule VDW/kʙ    -2.652448e+05 [K]
    molecule-molecule Real/kʙ   -7.941977e+04 [K]
    Van der Waals (Tail)/kʙ     -8.613029e+03 [K]
    Ewald Fourier/kʙ             9.542612e+03 [K]
    Ewald self/kʙ               -5.029674e+06 [K]
    Ewald exclusion/kʙ           5.006983e+06 [K]
    intra VDW/kʙ                 0.000000e+00 [K]
    intra Coulombic/kʙ           0.000000e+00 [K]
    polarization/kʙ              0.000000e+00 [K]
    dU/dlambda VDW/kʙ            0.000000e+00 [K]
    dU/dlambda Real/kʙ           0.000000e+00 [K]
    dU/dlambda Ewald/kʙ          0.000000e+00 [K]


Initialization: Current cycle: 800 out of 1000
===============================================================================

Box:      26.10934   0.00000   0.00000
           0.00000  26.10934   0.00000
           0.00000   0.00000  26.10934
Lengths:  26.10934  26.10934  26.10934
Angles:   90.00000  90.00000  90.00000
Rectangular boundary conditions

net charge:   0.00000000

component   0 (CO2) lambda:  0 occupancy:  1 (1.000000)
    net charge:   0.00000000 [e]

Amount of molecules per component :
-------------------------------------------------------------------------------
Component 0 (CO2)
    molecules:         2.500000e+02 molecules
    number density:    1.404599e-02 molec/A^3
    density:           1.026224e+03 kg/m^3

Total potential energy/kʙ       -3.685901e+05 [K]
-------------------------------------------------------------------------------
    external field VDW/kʙ        0.000000e+00 [K]
    external field Real/kʙ       0.000000e+00 [K]
    framework-molecule VDW/kʙ    0.000000e+00 [K]
    framework-molecule Real/kʙ   0.000000e+00 [K]
    molecule-molecule VDW/kʙ    -2.675710e+05 [K]
    molecule-molecule Real/kʙ   -7.985341e+04 [K]
    Van der Waals (Tail)/kʙ     -8.465833e+03 [K]
    Ewald Fourier/kʙ             9.991485e+03 [K]
    Ewald self/kʙ               -5.029674e+06 [K]
    Ewald exclusion/kʙ           5.006983e+06 [K]
    intra VDW/kʙ                 0.000000e+00 [K]
    intra Coulombic/kʙ           0.000000e+00 [K]
    polarization/kʙ              0.000000e+00 [K]
    dU/dlambda VDW/kʙ            0.000000e+00 [K]
    dU/dlambda Real/kʙ           0.000000e+00 [K]
    dU/dlambda Ewald/kʙ          0.000000e+00 [K]


Initialization: Current cycle: 900 out of 1000
===============================================================================

Box:      26.02268   0.00000   0.00000
           0.00000  26.02268   0.00000
           0.00000   0.00000  26.02268
Lengths:  26.02268  26.02268  26.02268
Angles:   90.00000  90.00000  90.00000
Rectangular boundary conditions

net charge:   0.00000000

component   0 (CO2) lambda:  0 occupancy:  1 (1.000000)
    net charge:   0.00000000 [e]

Amount of molecules per component :
-------------------------------------------------------------------------------
Component 0 (CO2)
    molecules:         2.500000e+02 molecules
    number density:    1.418679e-02 molec/A^3
    density:           1.036511e+03 kg/m^3

Total potential energy/kʙ       -3.761542e+05 [K]
-------------------------------------------------------------------------------
    external field VDW/kʙ        0.000000e+00 [K]
    external field Real/kʙ       0.000000e+00 [K]
    framework-molecule VDW/kʙ    0.000000e+00 [K]
    framework-molecule Real/kʙ   0.000000e+00 [K]
    molecule-molecule VDW/kʙ    -2.707193e+05 [K]
    molecule-molecule Real/kʙ   -8.376091e+04 [K]
    Van der Waals (Tail)/kʙ     -8.550696e+03 [K]
    Ewald Fourier/kʙ             9.568064e+03 [K]
    Ewald self/kʙ               -5.029674e+06 [K]
    Ewald exclusion/kʙ           5.006983e+06 [K]
    intra VDW/kʙ                 0.000000e+00 [K]
    intra Coulombic/kʙ           0.000000e+00 [K]
    polarization/kʙ              0.000000e+00 [K]
    dU/dlambda VDW/kʙ            0.000000e+00 [K]
    dU/dlambda Real/kʙ           0.000000e+00 [K]
    dU/dlambda Ewald/kʙ          0.000000e+00 [K]


Current cycle: 0 out of 5000
===============================================================================

Box:      25.77098   0.00000   0.00000  Average:  25.77098   0.00000   0.00000
           0.00000  25.77098   0.00000             0.00000  25.77098   0.00000
           0.00000   0.00000  25.77098             0.00000   0.00000  25.77098
Lengths:  25.77098  25.77098  25.77098  Average:  25.77098  25.77098  25.77098
Angles:   90.00000  90.00000  90.00000  Average:  90.00000  90.00000  90.00000
Rectangular boundary conditions

net charge:   0.00000000

component 0 (CO2) lambda:  0 occupancy:  1 (1.000000)
    net charge:   0.00000000 [e]

Amount of molecules per component :
-------------------------------------------------------------------------------
Component 0 (CO2)
    molecules:      2.500000e+02 molecules  (2.500000e+02 +/- 0.000000e+00)
    number density: 1.460654e-02 molec./A^3 (1.460654e-02 +/- 0.000000e+00)
    density:        1.067179e+03 kg/m^3     (1.067179e+03 +/- 0.000000e+00)

Average pressure tensor: 
-------------------------------------------------------------------------------
 5.0416e+02  0.0000e+00  0.0000e+00 +/- 0.0000e+00 0.0000e+00 0.0000e+00 [bar]
 0.0000e+00  5.0416e+02  0.0000e+00 +/- 0.0000e+00 0.0000e+00 0.0000e+00 [bar]
 0.0000e+00  0.0000e+00  5.0416e+02 +/- 0.0000e+00 0.0000e+00 0.0000e+00 [bar]
Ideal-gas pressure:   5.041631e+02 +/ 0.000000e+00 [bar]
Excess pressure:      0.000000e+00 +/ 0.000000e+00 [bar]
Pressure:             5.041631e+02 +/ 0.000000e+00 [bar]

Total potential energy/kʙ  -3.770742e+05 (-3.770742e+05 +/- 0.000000e+00) [K]
-------------------------------------------------------------------------------
ExternalField-molecule
    Van der Waals/kʙ        0.000000e+00 ( 0.000000e+00 +/- 0.000000e+00) [K]
Framework-molecule
    Van der Waals/kʙ        0.000000e+00 ( 0.000000e+00 +/- 0.000000e+00) [K]
    Van der Waals (Tail)/kʙ 0.000000e+00 ( 0.000000e+00 +/- 0.000000e+00) [K]
    Coulombic Real/kʙ       0.000000e+00 ( 0.000000e+00 +/- 0.000000e+00) [K]
    Coulombic Fourier/kʙ    0.000000e+00 ( 0.000000e+00 +/- 0.000000e+00) [K]
Molecule-molecule
    Van der Waals/kʙ       -2.750594e+05 (-2.750594e+05 +/- 0.000000e+00) [K]
    Van der Waals (Tail)/kʙ-8.803689e+03 (-8.803689e+03 +/- 0.000000e+00) [K]
    Coulombic Real/kʙ      -8.052320e+04 (-8.052320e+04 +/- 0.000000e+00) [K]
    Coulombic Fourier/kʙ   -1.268783e+04 (-1.268783e+04 +/- 0.000000e+00) [K]
    Molecule Intra/kʙ       0.000000e+00 ( 0.000000e+00 +/- 0.000000e+00) [K]

Current cycle: 100 out of 5000
===============================================================================

Box:      25.75461   0.00000   0.00000  Average:  25.76713   0.00000   0.00000
           0.00000  25.75461   0.00000             0.00000  25.76713   0.00000
           0.00000   0.00000  25.75461             0.00000   0.00000  25.76713
Lengths:  25.75461  25.75461  25.75461  Average:  25.76713  25.76713  25.76713
Angles:   90.00000  90.00000  90.00000  Average:  90.00000  90.00000  90.00000
Rectangular boundary conditions

net charge:   0.00000000

component 0 (CO2) lambda:  0 occupancy:  1 (1.000000)
    net charge:   0.00000000 [e]

Amount of molecules per component :
-------------------------------------------------------------------------------
Component 0 (CO2)
    molecules:      2.500000e+02 molecules  (2.500000e+02 +/- 0.000000e+00)
    number density: 1.463440e-02 molec./A^3 (1.461361e-02 +/- 0.000000e+00)
    density:        1.069215e+03 kg/m^3     (1.067696e+03 +/- 0.000000e+00)

Average pressure tensor: 
-------------------------------------------------------------------------------
 1.7181e+02  2.0086e+02  8.2363e+01 +/- 0.0000e+00 0.0000e+00 0.0000e+00 [bar]
 2.0086e+02  1.3982e+02  1.0050e+02 +/- 0.0000e+00 0.0000e+00 0.0000e+00 [bar]
 8.2363e+01  1.0050e+02 -1.9276e+01 +/- 0.0000e+00 0.0000e+00 0.0000e+00 [bar]
Ideal-gas pressure:   5.044073e+02 +/ 0.000000e+00 [bar]
Excess pressure:     -4.069571e+02 +/ 0.000000e+00 [bar]
Pressure:             9.745019e+01 +/ 0.000000e+00 [bar]

Total potential energy/kʙ  -3.793610e+05 (-3.781931e+05 +/- 0.000000e+00) [K]
-------------------------------------------------------------------------------
ExternalField-molecule
    Van der Waals/kʙ        0.000000e+00 ( 0.000000e+00 +/- 0.000000e+00) [K]
Framework-molecule
    Van der Waals/kʙ        0.000000e+00 ( 0.000000e+00 +/- 0.000000e+00) [K]
    Van der Waals (Tail)/kʙ 0.000000e+00 ( 0.000000e+00 +/- 0.000000e+00) [K]
    Coulombic Real/kʙ       0.000000e+00 ( 0.000000e+00 +/- 0.000000e+00) [K]
    Coulombic Fourier/kʙ    0.000000e+00 ( 0.000000e+00 +/- 0.000000e+00) [K]
Molecule-molecule
    Van der Waals/kʙ       -2.753101e+05 (-2.755943e+05 +/- 0.000000e+00) [K]
    Van der Waals (Tail)/kʙ-8.820483e+03 (-8.794720e+03 +/- 0.000000e+00) [K]
    Coulombic Real/kʙ      -8.372057e+04 (-8.126074e+04 +/- 0.000000e+00) [K]
    Coulombic Fourier/kʙ   -1.150989e+04 (-1.254335e+04 +/- 0.000000e+00) [K]
    Molecule Intra/kʙ       0.000000e+00 ( 0.000000e+00 +/- 0.000000e+00) [K]

Current cycle: 200 out of 5000
===============================================================================

Box:      26.00269   0.00000   0.00000  Average:  25.84435   0.00000   0.00000
           0.00000  26.00269   0.00000             0.00000  25.84435   0.00000
           0.00000   0.00000  26.00269             0.00000   0.00000  25.84435
Lengths:  26.00269  26.00269  26.00269  Average:  25.84435  25.84435  25.84435
Angles:   90.00000  90.00000  90.00000  Average:  90.00000  90.00000  90.00000
Rectangular boundary conditions

net charge:   0.00000000

component 0 (CO2) lambda:  0 occupancy:  1 (1.000000)
    net charge:   0.00000000 [e]

Amount of molecules per component :
-------------------------------------------------------------------------------
Component 0 (CO2)
    molecules:      2.500000e+02 molecules  (2.500000e+02 +/- 0.000000e+00)
    number density: 1.421953e-02 molec./A^3 (1.448430e-02 +/- 0.000000e+00)
    density:        1.038903e+03 kg/m^3     (1.058248e+03 +/- 0.000000e+00)

Average pressure tensor: 
-------------------------------------------------------------------------------
 2.7407e+02  2.0545e+02  5.4492e+01 +/- 0.0000e+00 0.0000e+00 0.0000e+00 [bar]
 2.0545e+02  1.2586e+02 -3.3877e+01 +/- 0.0000e+00 0.0000e+00 0.0000e+00 [bar]
 5.4492e+01 -3.3877e+01  1.5411e+02 +/- 0.0000e+00 0.0000e+00 0.0000e+00 [bar]
Ideal-gas pressure:   4.999439e+02 +/ 0.000000e+00 [bar]
Excess pressure:     -3.152641e+02 +/ 0.000000e+00 [bar]
Pressure:             1.846798e+02 +/ 0.000000e+00 [bar]

Total potential energy/kʙ  -3.594024e+05 (-3.745789e+05 +/- 0.000000e+00) [K]
-------------------------------------------------------------------------------
ExternalField-molecule
    Van der Waals/kʙ        0.000000e+00 ( 0.000000e+00 +/- 0.000000e+00) [K]
Framework-molecule
    Van der Waals/kʙ        0.000000e+00 ( 0.000000e+00 +/- 0.000000e+00) [K]
    Van der Waals (Tail)/kʙ 0.000000e+00 ( 0.000000e+00 +/- 0.000000e+00) [K]
    Coulombic Real/kʙ       0.000000e+00 ( 0.000000e+00 +/- 0.000000e+00) [K]
    Coulombic Fourier/kʙ    0.000000e+00 ( 0.000000e+00 +/- 0.000000e+00) [K]
Molecule-molecule
    Van der Waals/kʙ       -2.619326e+05 (-2.730608e+05 +/- 0.000000e+00) [K]
    Van der Waals (Tail)/kʙ-8.570431e+03 (-8.746513e+03 +/- 0.000000e+00) [K]
    Coulombic Real/kʙ      -7.624241e+04 (-8.034427e+04 +/- 0.000000e+00) [K]
    Coulombic Fourier/kʙ   -1.265696e+04 (-1.242724e+04 +/- 0.000000e+00) [K]
    Molecule Intra/kʙ       0.000000e+00 ( 0.000000e+00 +/- 0.000000e+00) [K]

Current cycle: 300 out of 5000
===============================================================================

Box:      25.75454   0.00000   0.00000  Average:  25.85838   0.00000   0.00000
           0.00000  25.75454   0.00000             0.00000  25.85838   0.00000
           0.00000   0.00000  25.75454             0.00000   0.00000  25.85838
Lengths:  25.75454  25.75454  25.75454  Average:  25.85838  25.85838  25.85838
Angles:   90.00000  90.00000  90.00000  Average:  90.00000  90.00000  90.00000
Rectangular boundary conditions

net charge:   0.00000000

component 0 (CO2) lambda:  0 occupancy:  1 (1.000000)
    net charge:   0.00000000 [e]

Amount of molecules per component :
-------------------------------------------------------------------------------
Component 0 (CO2)
    molecules:      2.500000e+02 molecules  (2.500000e+02 +/- 0.000000e+00)
    number density: 1.463453e-02 molec./A^3 (1.446122e-02 +/- 0.000000e+00)
    density:        1.069224e+03 kg/m^3     (1.056562e+03 +/- 0.000000e+00)

Average pressure tensor: 
-------------------------------------------------------------------------------
 1.8837e+02  1.8861e+02 -1.8338e+01 +/- 0.0000e+00 0.0000e+00 0.0000e+00 [bar]
 1.8861e+02  8.8469e+01 -6.1992e+01 +/- 0.0000e+00 0.0000e+00 0.0000e+00 [bar]
-1.8338e+01 -6.1992e+01  1.3429e+02 +/- 0.0000e+00 0.0000e+00 0.0000e+00 [bar]
Ideal-gas pressure:   4.991473e+02 +/ 0.000000e+00 [bar]
Excess pressure:     -3.621036e+02 +/ 0.000000e+00 [bar]
Pressure:             1.370436e+02 +/ 0.000000e+00 [bar]

Total potential energy/kʙ  -3.854111e+05 (-3.739235e+05 +/- 0.000000e+00) [K]
-------------------------------------------------------------------------------
ExternalField-molecule
    Van der Waals/kʙ        0.000000e+00 ( 0.000000e+00 +/- 0.000000e+00) [K]
Framework-molecule
    Van der Waals/kʙ        0.000000e+00 ( 0.000000e+00 +/- 0.000000e+00) [K]
    Van der Waals (Tail)/kʙ 0.000000e+00 ( 0.000000e+00 +/- 0.000000e+00) [K]
    Coulombic Real/kʙ       0.000000e+00 ( 0.000000e+00 +/- 0.000000e+00) [K]
    Coulombic Fourier/kʙ    0.000000e+00 ( 0.000000e+00 +/- 0.000000e+00) [K]
Molecule-molecule
    Van der Waals/kʙ       -2.786145e+05 (-2.726774e+05 +/- 0.000000e+00) [K]
    Van der Waals (Tail)/kʙ-8.820559e+03 (-8.722530e+03 +/- 0.000000e+00) [K]
    Coulombic Real/kʙ      -8.467134e+04 (-7.994077e+04 +/- 0.000000e+00) [K]
    Coulombic Fourier/kʙ   -1.330467e+04 (-1.258275e+04 +/- 0.000000e+00) [K]
    Molecule Intra/kʙ       0.000000e+00 ( 0.000000e+00 +/- 0.000000e+00) [K]

Current cycle: 400 out of 5000
===============================================================================

Box:      25.62823   0.00000   0.00000  Average:  25.79819   0.00000   0.00000
           0.00000  25.62823   0.00000             0.00000  25.79819   0.00000
           0.00000   0.00000  25.62823             0.00000   0.00000  25.79819
Lengths:  25.62823  25.62823  25.62823  Average:  25.79819  25.79819  25.79819
Angles:   90.00000  90.00000  90.00000  Average:  90.00000  90.00000  90.00000
Rectangular boundary conditions

net charge:   0.00000000

component 0 (CO2) lambda:  0 occupancy:  1 (1.000000)
    net charge:   0.00000000 [e]

Amount of molecules per component :
-------------------------------------------------------------------------------
Component 0 (CO2)
    molecules:      2.500000e+02 molecules  (2.500000e+02 +/- 0.000000e+00)
    number density: 1.485197e-02 molec./A^3 (1.456384e-02 +/- 0.000000e+00)
    density:        1.085110e+03 kg/m^3     (1.064059e+03 +/- 0.000000e+00)

Average pressure tensor: 
-------------------------------------------------------------------------------
 1.8251e+02  1.3498e+02 -2.8221e+01 +/- 0.0000e+00 0.0000e+00 0.0000e+00 [bar]
 1.3498e+02  1.0481e+02 -3.0673e+01 +/- 0.0000e+00 0.0000e+00 0.0000e+00 [bar]
-2.8221e+01 -3.0673e+01  1.2813e+02 +/- 0.0000e+00 0.0000e+00 0.0000e+00 [bar]
Ideal-gas pressure:   5.026894e+02 +/ 0.000000e+00 [bar]
Excess pressure:     -3.642042e+02 +/ 0.000000e+00 [bar]
Pressure:             1.384852e+02 +/ 0.000000e+00 [bar]

Total potential energy/kʙ  -3.856281e+05 (-3.774964e+05 +/- 0.000000e+00) [K]
-------------------------------------------------------------------------------
ExternalField-molecule
    Van der Waals/kʙ        0.000000e+00 ( 0.000000e+00 +/- 0.000000e+00) [K]
Framework-molecule
    Van der Waals/kʙ        0.000000e+00 ( 0.000000e+00 +/- 0.000000e+00) [K]
    Van der Waals (Tail)/kʙ 0.000000e+00 ( 0.000000e+00 +/- 0.000000e+00) [K]
    Coulombic Real/kʙ       0.000000e+00 ( 0.000000e+00 +/- 0.000000e+00) [K]
    Coulombic Fourier/kʙ    0.000000e+00 ( 0.000000e+00 +/- 0.000000e+00) [K]
Molecule-molecule
    Van der Waals/kʙ       -2.838609e+05 (-2.745323e+05 +/- 0.000000e+00) [K]
    Van der Waals (Tail)/kʙ-8.951615e+03 (-8.787325e+03 +/- 0.000000e+00) [K]
    Coulombic Real/kʙ      -8.078346e+04 (-8.146004e+04 +/- 0.000000e+00) [K]
    Coulombic Fourier/kʙ   -1.203213e+04 (-1.271678e+04 +/- 0.000000e+00) [K]
    Molecule Intra/kʙ       0.000000e+00 ( 0.000000e+00 +/- 0.000000e+00) [K]

Current cycle: 500 out of 5000
===============================================================================

Box:      25.75301   0.00000   0.00000  Average:  25.79214   0.00000   0.00000
           0.00000  25.75301   0.00000             0.00000  25.79214   0.00000
           0.00000   0.00000  25.75301             0.00000   0.00000  25.79214
Lengths:  25.75301  25.75301  25.75301  Average:  25.79214  25.79214  25.79214
Angles:   90.00000  90.00000  90.00000  Average:  90.00000  90.00000  90.00000
Rectangular boundary conditions

net charge:   0.00000000

component 0 (CO2) lambda:  0 occupancy:  1 (1.000000)
    net charge:   0.00000000 [e]

Amount of molecules per component :
-------------------------------------------------------------------------------
Component 0 (CO2)
    molecules:      2.500000e+02 molecules  (2.500000e+02 +/- 0.000000e+00)
    number density: 1.463713e-02 molec./A^3 (1.457374e-02 +/- 0.000000e+00)
    density:        1.069414e+03 kg/m^3     (1.064782e+03 +/- 0.000000e+00)

Average pressure tensor: 
-------------------------------------------------------------------------------
 1.5985e+02  1.1878e+02 -4.1603e+01 +/- 0.0000e+00 0.0000e+00 0.0000e+00 [bar]
 1.1878e+02  1.3082e+02 -3.8218e+01 +/- 0.0000e+00 0.0000e+00 0.0000e+00 [bar]
-4.1603e+01 -3.8218e+01  1.3856e+02 +/- 0.0000e+00 0.0000e+00 0.0000e+00 [bar]
Ideal-gas pressure:   5.030309e+02 +/ 0.000000e+00 [bar]
Excess pressure:     -3.599554e+02 +/ 0.000000e+00 [bar]
Pressure:             1.430756e+02 +/ 0.000000e+00 [bar]

Total potential energy/kʙ  -3.880212e+05 (-3.786316e+05 +/- 0.000000e+00) [K]
-------------------------------------------------------------------------------
ExternalField-molecule
    Van der Waals/kʙ        0.000000e+00 ( 0.000000e+00 +/- 0.000000e+00) [K]
Framework-molecule
    Van der Waals/kʙ        0.000000e+00 ( 0.000000e+00 +/- 0.000000e+00) [K]
    Van der Waals (Tail)/kʙ 0.000000e+00 ( 0.000000e+00 +/- 0.000000e+00) [K]
    Coulombic Real/kʙ       0.000000e+00 ( 0.000000e+00 +/- 0.000000e+00) [K]
    Coulombic Fourier/kʙ    0.000000e+00 ( 0.000000e+00 +/- 0.000000e+00) [K]
Molecule-molecule
    Van der Waals/kʙ       -2.766553e+05 (-2.745913e+05 +/- 0.000000e+00) [K]
    Van der Waals (Tail)/kʙ-8.822125e+03 (-8.794563e+03 +/- 0.000000e+00) [K]
    Coulombic Real/kʙ      -8.934104e+04 (-8.248110e+04 +/- 0.000000e+00) [K]
    Coulombic Fourier/kʙ   -1.320276e+04 (-1.276470e+04 +/- 0.000000e+00) [K]
    Molecule Intra/kʙ       0.000000e+00 ( 0.000000e+00 +/- 0.000000e+00) [K]

Current cycle: 600 out of 5000
===============================================================================

Box:      25.47074   0.00000   0.00000  Average:  25.78396   0.00000   0.00000
           0.00000  25.47074   0.00000             0.00000  25.78396   0.00000
           0.00000   0.00000  25.47074             0.00000   0.00000  25.78396
Lengths:  25.47074  25.47074  25.47074  Average:  25.78396  25.78396  25.78396
Angles:   90.00000  90.00000  90.00000  Average:  90.00000  90.00000  90.00000
Rectangular boundary conditions

net charge:   0.00000000

component 0 (CO2) lambda:  0 occupancy:  1 (1.000000)
    net charge:   0.00000000 [e]

Amount of molecules per component :
-------------------------------------------------------------------------------
Component 0 (CO2)
    molecules:      2.500000e+02 molecules  (2.500000e+02 +/- 0.000000e+00)
    number density: 1.512917e-02 molec./A^3 (1.458755e-02 +/- 0.000000e+00)
    density:        1.105363e+03 kg/m^3     (1.065792e+03 +/- 0.000000e+00)

Average pressure tensor: 
-------------------------------------------------------------------------------
 1.7218e+02  1.0778e+02 -5.4666e+01 +/- 0.0000e+00 0.0000e+00 0.0000e+00 [bar]
 1.0778e+02  1.4047e+02 -3.7775e+01 +/- 0.0000e+00 0.0000e+00 0.0000e+00 [bar]
-5.4666e+01 -3.7775e+01  9.3275e+01 +/- 0.0000e+00 0.0000e+00 0.0000e+00 [bar]
Ideal-gas pressure:   5.035077e+02 +/ 0.000000e+00 [bar]
Excess pressure:     -3.682015e+02 +/ 0.000000e+00 [bar]
Pressure:             1.353062e+02 +/ 0.000000e+00 [bar]

Total potential energy/kʙ  -4.026461e+05 (-3.800777e+05 +/- 0.000000e+00) [K]
-------------------------------------------------------------------------------
ExternalField-molecule
    Van der Waals/kʙ        0.000000e+00 ( 0.000000e+00 +/- 0.000000e+00) [K]
Framework-molecule
    Van der Waals/kʙ        0.000000e+00 ( 0.000000e+00 +/- 0.000000e+00) [K]
    Van der Waals (Tail)/kʙ 0.000000e+00 ( 0.000000e+00 +/- 0.000000e+00) [K]
    Coulombic Real/kʙ       0.000000e+00 ( 0.000000e+00 +/- 0.000000e+00) [K]
    Coulombic Fourier/kʙ    0.000000e+00 ( 0.000000e+00 +/- 0.000000e+00) [K]
Molecule-molecule
    Van der Waals/kʙ       -2.847191e+05 (-2.748326e+05 +/- 0.000000e+00) [K]
    Van der Waals (Tail)/kʙ-9.118690e+03 (-8.802654e+03 +/- 0.000000e+00) [K]
    Coulombic Real/kʙ      -9.508194e+04 (-8.359675e+04 +/- 0.000000e+00) [K]
    Coulombic Fourier/kʙ   -1.372635e+04 (-1.284569e+04 +/- 0.000000e+00) [K]
    Molecule Intra/kʙ       0.000000e+00 ( 0.000000e+00 +/- 0.000000e+00) [K]

Current cycle: 700 out of 5000
===============================================================================

Box:      25.87031   0.00000   0.00000  Average:  25.76632   0.00000   0.00000
           0.00000  25.87031   0.00000             0.00000  25.76632   0.00000
           0.00000   0.00000  25.87031             0.00000   0.00000  25.76632
Lengths:  25.87031  25.87031  25.87031  Average:  25.76632  25.76632  25.76632
Angles:   90.00000  90.00000  90.00000  Average:  90.00000  90.00000  90.00000
Rectangular boundary conditions

net charge:   0.00000000

component 0 (CO2) lambda:  0 occupancy:  1 (1.000000)
    net charge:   0.00000000 [e]

Amount of molecules per component :
-------------------------------------------------------------------------------
Component 0 (CO2)
    molecules:      2.500000e+02 molecules  (2.500000e+02 +/- 0.000000e+00)
    number density: 1.443893e-02 molec./A^3 (1.461757e-02 +/- 0.000000e+00)
    density:        1.054933e+03 kg/m^3     (1.067985e+03 +/- 0.000000e+00)

Average pressure tensor: 
-------------------------------------------------------------------------------
 1.7992e+02  6.0600e+01 -5.0614e+01 +/- 0.0000e+00 0.0000e+00 0.0000e+00 [bar]
 6.0600e+01  1.5613e+02 -4.0215e+01 +/- 0.0000e+00 0.0000e+00 0.0000e+00 [bar]
-5.0614e+01 -4.0215e+01  9.6394e+01 +/- 0.0000e+00 0.0000e+00 0.0000e+00 [bar]
Ideal-gas pressure:   5.045439e+02 +/ 0.000000e+00 [bar]
Excess pressure:     -3.603935e+02 +/ 0.000000e+00 [bar]
Pressure:             1.441503e+02 +/ 0.000000e+00 [bar]

Total potential energy/kʙ  -3.881291e+05 (-3.818178e+05 +/- 0.000000e+00) [K]
-------------------------------------------------------------------------------
ExternalField-molecule
    Van der Waals/kʙ        0.000000e+00 ( 0.000000e+00 +/- 0.000000e+00) [K]
Framework-molecule
    Van der Waals/kʙ        0.000000e+00 ( 0.000000e+00 +/- 0.000000e+00) [K]
    Van der Waals (Tail)/kʙ 0.000000e+00 ( 0.000000e+00 +/- 0.000000e+00) [K]
    Coulombic Real/kʙ       0.000000e+00 ( 0.000000e+00 +/- 0.000000e+00) [K]
    Coulombic Fourier/kʙ    0.000000e+00 ( 0.000000e+00 +/- 0.000000e+00) [K]
Molecule-molecule
    Van der Waals/kʙ       -2.770094e+05 (-2.753278e+05 +/- 0.000000e+00) [K]
    Van der Waals (Tail)/kʙ-8.702667e+03 (-8.818319e+03 +/- 0.000000e+00) [K]
    Coulombic Real/kʙ      -8.966502e+04 (-8.481639e+04 +/- 0.000000e+00) [K]
    Coulombic Fourier/kʙ   -1.275196e+04 (-1.285522e+04 +/- 0.000000e+00) [K]
    Molecule Intra/kʙ       0.000000e+00 ( 0.000000e+00 +/- 0.000000e+00) [K]

Current cycle: 800 out of 5000
===============================================================================

Box:      26.07646   0.00000   0.00000  Average:  25.78312   0.00000   0.00000
           0.00000  26.07646   0.00000             0.00000  25.78312   0.00000
           0.00000   0.00000  26.07646             0.00000   0.00000  25.78312
Lengths:  26.07646  26.07646  26.07646  Average:  25.78312  25.78312  25.78312
Angles:   90.00000  90.00000  90.00000  Average:  90.00000  90.00000  90.00000
Rectangular boundary conditions

net charge:   0.00000000

component 0 (CO2) lambda:  0 occupancy:  1 (1.000000)
    net charge:   0.00000000 [e]

Amount of molecules per component :
-------------------------------------------------------------------------------
Component 0 (CO2)
    molecules:      2.500000e+02 molecules  (2.500000e+02 +/- 0.000000e+00)
    number density: 1.409918e-02 molec./A^3 (1.458940e-02 +/- 0.000000e+00)
    density:        1.030111e+03 kg/m^3     (1.065926e+03 +/- 0.000000e+00)

Average pressure tensor: 
-------------------------------------------------------------------------------
 1.5958e+02  4.4618e+01 -6.0848e+01 +/- 0.0000e+00 0.0000e+00 0.0000e+00 [bar]
 4.4618e+01  1.3491e+02 -4.7269e+01 +/- 0.0000e+00 0.0000e+00 0.0000e+00 [bar]
-6.0848e+01 -4.7269e+01  7.8766e+01 +/- 0.0000e+00 0.0000e+00 0.0000e+00 [bar]
Ideal-gas pressure:   5.035715e+02 +/ 0.000000e+00 [bar]
Excess pressure:     -3.791535e+02 +/ 0.000000e+00 [bar]
Pressure:             1.244180e+02 +/ 0.000000e+00 [bar]

Total potential energy/kʙ  -3.782099e+05 (-3.816833e+05 +/- 0.000000e+00) [K]
-------------------------------------------------------------------------------
ExternalField-molecule
    Van der Waals/kʙ        0.000000e+00 ( 0.000000e+00 +/- 0.000000e+00) [K]
Framework-molecule
    Van der Waals/kʙ        0.000000e+00 ( 0.000000e+00 +/- 0.000000e+00) [K]
    Van der Waals (Tail)/kʙ 0.000000e+00 ( 0.000000e+00 +/- 0.000000e+00) [K]
    Coulombic Real/kʙ       0.000000e+00 ( 0.000000e+00 +/- 0.000000e+00) [K]
    Coulombic Fourier/kʙ    0.000000e+00 ( 0.000000e+00 +/- 0.000000e+00) [K]
Molecule-molecule
    Van der Waals/kʙ       -2.718822e+05 (-2.749910e+05 +/- 0.000000e+00) [K]
    Van der Waals (Tail)/kʙ-8.497894e+03 (-8.795238e+03 +/- 0.000000e+00) [K]
    Coulombic Real/kʙ      -8.517836e+04 (-8.504048e+04 +/- 0.000000e+00) [K]
    Coulombic Fourier/kʙ   -1.265146e+04 (-1.285649e+04 +/- 0.000000e+00) [K]
    Molecule Intra/kʙ       0.000000e+00 ( 0.000000e+00 +/- 0.000000e+00) [K]

Current cycle: 900 out of 5000
===============================================================================

Box:      26.02856   0.00000   0.00000  Average:  25.79972   0.00000   0.00000
           0.00000  26.02856   0.00000             0.00000  25.79972   0.00000
           0.00000   0.00000  26.02856             0.00000   0.00000  25.79972
Lengths:  26.02856  26.02856  26.02856  Average:  25.79972  25.79972  25.79972
Angles:   90.00000  90.00000  90.00000  Average:  90.00000  90.00000  90.00000
Rectangular boundary conditions

net charge:   0.00000000

component 0 (CO2) lambda:  0 occupancy:  1 (1.000000)
    net charge:   0.00000000 [e]

Amount of molecules per component :
-------------------------------------------------------------------------------
Component 0 (CO2)
    molecules:      2.500000e+02 molecules  (2.500000e+02 +/- 0.000000e+00)
    number density: 1.417717e-02 molec./A^3 (1.456130e-02 +/- 0.000000e+00)
    density:        1.035808e+03 kg/m^3     (1.063874e+03 +/- 0.000000e+00)

Average pressure tensor: 
-------------------------------------------------------------------------------
 1.3274e+02  1.9349e+01 -6.5138e+01 +/- 0.0000e+00 0.0000e+00 0.0000e+00 [bar]
 1.9349e+01  1.2436e+02 -4.2269e+01 +/- 0.0000e+00 0.0000e+00 0.0000e+00 [bar]
-6.5138e+01 -4.2269e+01  8.7249e+01 +/- 0.0000e+00 0.0000e+00 0.0000e+00 [bar]
Ideal-gas pressure:   5.026017e+02 +/ 0.000000e+00 [bar]
Excess pressure:     -3.878180e+02 +/ 0.000000e+00 [bar]
Pressure:             1.147838e+02 +/ 0.000000e+00 [bar]

Total potential energy/kʙ  -3.756664e+05 (-3.812283e+05 +/- 0.000000e+00) [K]
-------------------------------------------------------------------------------
ExternalField-molecule
    Van der Waals/kʙ        0.000000e+00 ( 0.000000e+00 +/- 0.000000e+00) [K]
Framework-molecule
    Van der Waals/kʙ        0.000000e+00 ( 0.000000e+00 +/- 0.000000e+00) [K]
    Van der Waals (Tail)/kʙ 0.000000e+00 ( 0.000000e+00 +/- 0.000000e+00) [K]
    Coulombic Real/kʙ       0.000000e+00 ( 0.000000e+00 +/- 0.000000e+00) [K]
    Coulombic Fourier/kʙ    0.000000e+00 ( 0.000000e+00 +/- 0.000000e+00) [K]
Molecule-molecule
    Van der Waals/kʙ       -2.715082e+05 (-2.746639e+05 +/- 0.000000e+00) [K]
    Van der Waals (Tail)/kʙ-8.544897e+03 (-8.779206e+03 +/- 0.000000e+00) [K]
    Coulombic Real/kʙ      -8.293598e+04 (-8.494277e+04 +/- 0.000000e+00) [K]
    Coulombic Fourier/kʙ   -1.267735e+04 (-1.284236e+04 +/- 0.000000e+00) [K]
    Molecule Intra/kʙ       0.000000e+00 ( 0.000000e+00 +/- 0.000000e+00) [K]

Current cycle: 1000 out of 5000
===============================================================================

Box:      25.92819   0.00000   0.00000  Average:  25.81380   0.00000   0.00000
           0.00000  25.92819   0.00000             0.00000  25.81380   0.00000
           0.00000   0.00000  25.92819             0.00000   0.00000  25.81380
Lengths:  25.92819  25.92819  25.92819  Average:  25.81380  25.81380  25.81380
Angles:   90.00000  90.00000  90.00000  Average:  90.00000  90.00000  90.00000
Rectangular boundary conditions

net charge:   0.00000000

component 0 (CO2) lambda:  0 occupancy:  1 (1.000000)
    net charge:   0.00000000 [e]

Amount of molecules per component :
-------------------------------------------------------------------------------
Component 0 (CO2)
    molecules:      2.500000e+02 molecules  (2.500000e+02 +/- 0.000000e+00)
    number density: 1.434245e-02 molec./A^3 (1.453747e-02 +/- 0.000000e+00)
    density:        1.047884e+03 kg/m^3     (1.062132e+03 +/- 0.000000e+00)

Average pressure tensor: 
-------------------------------------------------------------------------------
 1.1282e+02  4.8802e+00 -7.5407e+01 +/- 0.0000e+00 0.0000e+00 0.0000e+00 [bar]
 4.8802e+00  1.2046e+02 -4.2888e+01 +/- 0.0000e+00 0.0000e+00 0.0000e+00 [bar]
-7.5407e+01 -4.2888e+01  1.0060e+02 +/- 0.0000e+00 0.0000e+00 0.0000e+00 [bar]
Ideal-gas pressure:   5.017789e+02 +/ 0.000000e+00 [bar]
Excess pressure:     -3.904870e+02 +/ 0.000000e+00 [bar]
Pressure:             1.112919e+02 +/ 0.000000e+00 [bar]

Total potential energy/kʙ  -3.648147e+05 (-3.805129e+05 +/- 0.000000e+00) [K]
-------------------------------------------------------------------------------
ExternalField-molecule
    Van der Waals/kʙ        0.000000e+00 ( 0.000000e+00 +/- 0.000000e+00) [K]
Framework-molecule
    Van der Waals/kʙ        0.000000e+00 ( 0.000000e+00 +/- 0.000000e+00) [K]
    Van der Waals (Tail)/kʙ 0.000000e+00 ( 0.000000e+00 +/- 0.000000e+00) [K]
    Coulombic Real/kʙ       0.000000e+00 ( 0.000000e+00 +/- 0.000000e+00) [K]
    Coulombic Fourier/kʙ    0.000000e+00 ( 0.000000e+00 +/- 0.000000e+00) [K]
Molecule-molecule
    Van der Waals/kʙ       -2.674632e+05 (-2.743796e+05 +/- 0.000000e+00) [K]
    Van der Waals (Tail)/kʙ-8.644513e+03 (-8.765708e+03 +/- 0.000000e+00) [K]
    Coulombic Real/kʙ      -7.702246e+04 (-8.454296e+04 +/- 0.000000e+00) [K]
    Coulombic Fourier/kʙ   -1.168453e+04 (-1.282465e+04 +/- 0.000000e+00) [K]
    Molecule Intra/kʙ       0.000000e+00 ( 0.000000e+00 +/- 0.000000e+00) [K]

Current cycle: 1100 out of 5000
===============================================================================

Box:      25.84124   0.00000   0.00000  Average:  25.81116   0.00000   0.00000
           0.00000  25.84124   0.00000             0.00000  25.81116   0.00000
           0.00000   0.00000  25.84124             0.00000   0.00000  25.81116
Lengths:  25.84124  25.84124  25.84124  Average:  25.81116  25.81116  25.81116
Angles:   90.00000  90.00000  90.00000  Average:  90.00000  90.00000  90.00000
Rectangular boundary conditions

net charge:   0.00000000

component 0 (CO2) lambda:  0 occupancy:  1 (1.000000)
    net charge:   0.00000000 [e]

Amount of molecules per component :
-------------------------------------------------------------------------------
Component 0 (CO2)
    molecules:      2.500000e+02 molecules  (2.500000e+02 +/- 0.000000e+00)
    number density: 1.448773e-02 molec./A^3 (1.454169e-02 +/- 0.000000e+00)
    density:        1.058498e+03 kg/m^3     (1.062441e+03 +/- 0.000000e+00)

Average pressure tensor: 
-------------------------------------------------------------------------------
 1.1154e+02  1.0903e+01 -5.7875e+01 +/- 0.0000e+00 0.0000e+00 0.0000e+00 [bar]
 1.0903e+01  1.2363e+02 -4.0716e+01 +/- 0.0000e+00 0.0000e+00 0.0000e+00 [bar]
-5.7875e+01 -4.0716e+01  9.3006e+01 +/- 0.0000e+00 0.0000e+00 0.0000e+00 [bar]
Ideal-gas pressure:   5.019248e+02 +/ 0.000000e+00 [bar]
Excess pressure:     -3.925338e+02 +/ 0.000000e+00 [bar]
Pressure:             1.093909e+02 +/ 0.000000e+00 [bar]

Total potential energy/kʙ  -3.869146e+05 (-3.808200e+05 +/- 0.000000e+00) [K]
-------------------------------------------------------------------------------
ExternalField-molecule
    Van der Waals/kʙ        0.000000e+00 ( 0.000000e+00 +/- 0.000000e+00) [K]
Framework-molecule
    Van der Waals/kʙ        0.000000e+00 ( 0.000000e+00 +/- 0.000000e+00) [K]
    Van der Waals (Tail)/kʙ 0.000000e+00 ( 0.000000e+00 +/- 0.000000e+00) [K]
    Coulombic Real/kʙ       0.000000e+00 ( 0.000000e+00 +/- 0.000000e+00) [K]
    Coulombic Fourier/kʙ    0.000000e+00 ( 0.000000e+00 +/- 0.000000e+00) [K]
Molecule-molecule
    Van der Waals/kʙ       -2.802298e+05 (-2.748777e+05 +/- 0.000000e+00) [K]
    Van der Waals (Tail)/kʙ-8.732076e+03 (-8.767378e+03 +/- 0.000000e+00) [K]
    Coulombic Real/kʙ      -8.570769e+04 (-8.441741e+04 +/- 0.000000e+00) [K]
    Coulombic Fourier/kʙ   -1.224502e+04 (-1.275758e+04 +/- 0.000000e+00) [K]
    Molecule Intra/kʙ       0.000000e+00 ( 0.000000e+00 +/- 0.000000e+00) [K]

Current cycle: 1200 out of 5000
===============================================================================

Box:      25.64001   0.00000   0.00000  Average:  25.80717   0.00000   0.00000
           0.00000  25.64001   0.00000             0.00000  25.80717   0.00000
           0.00000   0.00000  25.64001             0.00000   0.00000  25.80717
Lengths:  25.64001  25.64001  25.64001  Average:  25.80717  25.80717  25.80717
Angles:   90.00000  90.00000  90.00000  Average:  90.00000  90.00000  90.00000
Rectangular boundary conditions

net charge:   0.00000000

component 0 (CO2) lambda:  0 occupancy:  1 (1.000000)
    net charge:   0.00000000 [e]

Amount of molecules per component :
-------------------------------------------------------------------------------
Component 0 (CO2)
    molecules:      2.500000e+02 molecules  (2.500000e+02 +/- 0.000000e+00)
    number density: 1.483151e-02 molec./A^3 (1.454837e-02 +/- 0.000000e+00)
    density:        1.083615e+03 kg/m^3     (1.062929e+03 +/- 0.000000e+00)

Average pressure tensor: 
-------------------------------------------------------------------------------
 1.0083e+02  1.0802e+01 -5.1940e+01 +/- 0.0000e+00 0.0000e+00 0.0000e+00 [bar]
 1.0802e+01  1.0525e+02 -3.2024e+01 +/- 0.0000e+00 0.0000e+00 0.0000e+00 [bar]
-5.1940e+01 -3.2024e+01  7.6413e+01 +/- 0.0000e+00 0.0000e+00 0.0000e+00 [bar]
Ideal-gas pressure:   5.021552e+02 +/ 0.000000e+00 [bar]
Excess pressure:     -4.079915e+02 +/ 0.000000e+00 [bar]
Pressure:             9.416366e+01 +/ 0.000000e+00 [bar]

Total potential energy/kʙ  -3.867266e+05 (-3.809762e+05 +/- 0.000000e+00) [K]
-------------------------------------------------------------------------------
ExternalField-molecule
    Van der Waals/kʙ        0.000000e+00 ( 0.000000e+00 +/- 0.000000e+00) [K]
Framework-molecule
    Van der Waals/kʙ        0.000000e+00 ( 0.000000e+00 +/- 0.000000e+00) [K]
    Van der Waals (Tail)/kʙ 0.000000e+00 ( 0.000000e+00 +/- 0.000000e+00) [K]
    Coulombic Real/kʙ       0.000000e+00 ( 0.000000e+00 +/- 0.000000e+00) [K]
    Coulombic Fourier/kʙ    0.000000e+00 ( 0.000000e+00 +/- 0.000000e+00) [K]
Molecule-molecule
    Van der Waals/kʙ       -2.788030e+05 (-2.751150e+05 +/- 0.000000e+00) [K]
    Van der Waals (Tail)/kʙ-8.939281e+03 (-8.768761e+03 +/- 0.000000e+00) [K]
    Coulombic Real/kʙ      -8.567924e+04 (-8.433877e+04 +/- 0.000000e+00) [K]
    Coulombic Fourier/kʙ   -1.330509e+04 (-1.275364e+04 +/- 0.000000e+00) [K]
    Molecule Intra/kʙ       0.000000e+00 ( 0.000000e+00 +/- 0.000000e+00) [K]

Current cycle: 1300 out of 5000
===============================================================================

Box:      25.71434   0.00000   0.00000  Average:  25.79848   0.00000   0.00000
           0.00000  25.71434   0.00000             0.00000  25.79848   0.00000
           0.00000   0.00000  25.71434             0.00000   0.00000  25.79848
Lengths:  25.71434  25.71434  25.71434  Average:  25.79848  25.79848  25.79848
Angles:   90.00000  90.00000  90.00000  Average:  90.00000  90.00000  90.00000
Rectangular boundary conditions

net charge:   0.00000000

component 0 (CO2) lambda:  0 occupancy:  1 (1.000000)
    net charge:   0.00000000 [e]

Amount of molecules per component :
-------------------------------------------------------------------------------
Component 0 (CO2)
    molecules:      2.500000e+02 molecules  (2.500000e+02 +/- 0.000000e+00)
    number density: 1.470326e-02 molec./A^3 (1.456301e-02 +/- 0.000000e+00)
    density:        1.074246e+03 kg/m^3     (1.063998e+03 +/- 0.000000e+00)

Average pressure tensor: 
-------------------------------------------------------------------------------
 1.0668e+02  1.0876e+01 -4.3319e+01 +/- 0.0000e+00 0.0000e+00 0.0000e+00 [bar]
 1.0876e+01  1.0680e+02 -1.4745e+01 +/- 0.0000e+00 0.0000e+00 0.0000e+00 [bar]
-4.3319e+01 -1.4745e+01  7.1542e+01 +/- 0.0000e+00 0.0000e+00 0.0000e+00 [bar]
Ideal-gas pressure:   5.026605e+02 +/ 0.000000e+00 [bar]
Excess pressure:     -4.076507e+02 +/ 0.000000e+00 [bar]
Pressure:             9.500983e+01 +/ 0.000000e+00 [bar]

Total potential energy/kʙ  -3.880270e+05 (-3.817459e+05 +/- 0.000000e+00) [K]
-------------------------------------------------------------------------------
ExternalField-molecule
    Van der Waals/kʙ        0.000000e+00 ( 0.000000e+00 +/- 0.000000e+00) [K]
Framework-molecule
    Van der Waals/kʙ        0.000000e+00 ( 0.000000e+00 +/- 0.000000e+00) [K]
    Van der Waals (Tail)/kʙ 0.000000e+00 ( 0.000000e+00 +/- 0.000000e+00) [K]
    Coulombic Real/kʙ       0.000000e+00 ( 0.000000e+00 +/- 0.000000e+00) [K]
    Coulombic Fourier/kʙ    0.000000e+00 ( 0.000000e+00 +/- 0.000000e+00) [K]
Molecule-molecule
    Van der Waals/kʙ       -2.784757e+05 (-2.753693e+05 +/- 0.000000e+00) [K]
    Van der Waals (Tail)/kʙ-8.861986e+03 (-8.777471e+03 +/- 0.000000e+00) [K]
    Coulombic Real/kʙ      -8.708635e+04 (-8.480808e+04 +/- 0.000000e+00) [K]
    Coulombic Fourier/kʙ   -1.360295e+04 (-1.279108e+04 +/- 0.000000e+00) [K]
    Molecule Intra/kʙ       0.000000e+00 ( 0.000000e+00 +/- 0.000000e+00) [K]

Current cycle: 1400 out of 5000
===============================================================================

Box:      25.67097   0.00000   0.00000  Average:  25.79669   0.00000   0.00000
           0.00000  25.67097   0.00000             0.00000  25.79669   0.00000
           0.00000   0.00000  25.67097             0.00000   0.00000  25.79669
Lengths:  25.67097  25.67097  25.67097  Average:  25.79669  25.79669  25.79669
Angles:   90.00000  90.00000  90.00000  Average:  90.00000  90.00000  90.00000
Rectangular boundary conditions

net charge:   0.00000000

component 0 (CO2) lambda:  0 occupancy:  1 (1.000000)
    net charge:   0.00000000 [e]

Amount of molecules per component :
-------------------------------------------------------------------------------
Component 0 (CO2)
    molecules:      2.500000e+02 molecules  (2.500000e+02 +/- 0.000000e+00)
    number density: 1.477792e-02 molec./A^3 (1.456587e-02 +/- 0.000000e+00)
    density:        1.079700e+03 kg/m^3     (1.064208e+03 +/- 0.000000e+00)

Average pressure tensor: 
-------------------------------------------------------------------------------
 1.0591e+02  5.7419e+00 -3.0325e+01 +/- 0.0000e+00 0.0000e+00 0.0000e+00 [bar]
 5.7419e+00  9.7969e+01 -1.0489e+01 +/- 0.0000e+00 0.0000e+00 0.0000e+00 [bar]
-3.0325e+01 -1.0489e+01  8.0250e+01 +/- 0.0000e+00 0.0000e+00 0.0000e+00 [bar]
Ideal-gas pressure:   5.027594e+02 +/ 0.000000e+00 [bar]
Excess pressure:     -4.080483e+02 +/ 0.000000e+00 [bar]
Pressure:             9.471110e+01 +/ 0.000000e+00 [bar]

Total potential energy/kʙ  -3.853634e+05 (-3.817328e+05 +/- 0.000000e+00) [K]
-------------------------------------------------------------------------------
ExternalField-molecule
    Van der Waals/kʙ        0.000000e+00 ( 0.000000e+00 +/- 0.000000e+00) [K]
Framework-molecule
    Van der Waals/kʙ        0.000000e+00 ( 0.000000e+00 +/- 0.000000e+00) [K]
    Van der Waals (Tail)/kʙ 0.000000e+00 ( 0.000000e+00 +/- 0.000000e+00) [K]
    Coulombic Real/kʙ       0.000000e+00 ( 0.000000e+00 +/- 0.000000e+00) [K]
    Coulombic Fourier/kʙ    0.000000e+00 ( 0.000000e+00 +/- 0.000000e+00) [K]
Molecule-molecule
    Van der Waals/kʙ       -2.805296e+05 (-2.754363e+05 +/- 0.000000e+00) [K]
    Van der Waals (Tail)/kʙ-8.906981e+03 (-8.780172e+03 +/- 0.000000e+00) [K]
    Coulombic Real/kʙ      -8.321013e+04 (-8.470422e+04 +/- 0.000000e+00) [K]
    Coulombic Fourier/kʙ   -1.271667e+04 (-1.281213e+04 +/- 0.000000e+00) [K]
    Molecule Intra/kʙ       0.000000e+00 ( 0.000000e+00 +/- 0.000000e+00) [K]

Current cycle: 1500 out of 5000
===============================================================================

Box:      25.64236   0.00000   0.00000  Average:  25.78988   0.00000   0.00000
           0.00000  25.64236   0.00000             0.00000  25.78988   0.00000
           0.00000   0.00000  25.64236             0.00000   0.00000  25.78988
Lengths:  25.64236  25.64236  25.64236  Average:  25.78988  25.78988  25.78988
Angles:   90.00000  90.00000  90.00000  Average:  90.00000  90.00000  90.00000
Rectangular boundary conditions

net charge:   0.00000000

component 0 (CO2) lambda:  0 occupancy:  1 (1.000000)
    net charge:   0.00000000 [e]

Amount of molecules per component :
-------------------------------------------------------------------------------
Component 0 (CO2)
    molecules:      2.500000e+02 molecules  (2.500000e+02 +/- 0.000000e+00)
    number density: 1.482744e-02 molec./A^3 (1.457736e-02 +/- 0.000000e+00)
    density:        1.083318e+03 kg/m^3     (1.065047e+03 +/- 0.000000e+00)

Average pressure tensor: 
-------------------------------------------------------------------------------
 1.0435e+02  6.2296e+00 -2.7267e+01 +/- 0.0000e+00 0.0000e+00 0.0000e+00 [bar]
 6.2296e+00  9.6667e+01  3.1005e+00 +/- 0.0000e+00 0.0000e+00 0.0000e+00 [bar]
-2.7267e+01  3.1005e+00  8.0620e+01 +/- 0.0000e+00 0.0000e+00 0.0000e+00 [bar]
Ideal-gas pressure:   5.031559e+02 +/ 0.000000e+00 [bar]
Excess pressure:     -4.092777e+02 +/ 0.000000e+00 [bar]
Pressure:             9.387824e+01 +/ 0.000000e+00 [bar]

Total potential energy/kʙ  -3.950272e+05 (-3.820684e+05 +/- 0.000000e+00) [K]
-------------------------------------------------------------------------------
ExternalField-molecule
    Van der Waals/kʙ        0.000000e+00 ( 0.000000e+00 +/- 0.000000e+00) [K]
Framework-molecule
    Van der Waals/kʙ        0.000000e+00 ( 0.000000e+00 +/- 0.000000e+00) [K]
    Van der Waals (Tail)/kʙ 0.000000e+00 ( 0.000000e+00 +/- 0.000000e+00) [K]
    Coulombic Real/kʙ       0.000000e+00 ( 0.000000e+00 +/- 0.000000e+00) [K]
    Coulombic Fourier/kʙ    0.000000e+00 ( 0.000000e+00 +/- 0.000000e+00) [K]
Molecule-molecule
    Van der Waals/kʙ       -2.782931e+05 (-2.757725e+05 +/- 0.000000e+00) [K]
    Van der Waals (Tail)/kʙ-8.936828e+03 (-8.786266e+03 +/- 0.000000e+00) [K]
    Coulombic Real/kʙ      -9.526481e+04 (-8.473197e+04 +/- 0.000000e+00) [K]
    Coulombic Fourier/kʙ   -1.253250e+04 (-1.277767e+04 +/- 0.000000e+00) [K]
    Molecule Intra/kʙ       0.000000e+00 ( 0.000000e+00 +/- 0.000000e+00) [K]

Current cycle: 1600 out of 5000
===============================================================================

Box:      25.81866   0.00000   0.00000  Average:  25.78982   0.00000   0.00000
           0.00000  25.81866   0.00000             0.00000  25.78982   0.00000
           0.00000   0.00000  25.81866             0.00000   0.00000  25.78982
Lengths:  25.81866  25.81866  25.81866  Average:  25.78982  25.78982  25.78982
Angles:   90.00000  90.00000  90.00000  Average:  90.00000  90.00000  90.00000
Rectangular boundary conditions

net charge:   0.00000000

component 0 (CO2) lambda:  0 occupancy:  1 (1.000000)
    net charge:   0.00000000 [e]

Amount of molecules per component :
-------------------------------------------------------------------------------
Component 0 (CO2)
    molecules:      2.500000e+02 molecules  (2.500000e+02 +/- 0.000000e+00)
    number density: 1.452576e-02 molec./A^3 (1.457751e-02 +/- 0.000000e+00)
    density:        1.061277e+03 kg/m^3     (1.065058e+03 +/- 0.000000e+00)

Average pressure tensor: 
-------------------------------------------------------------------------------
 1.0154e+02  9.5815e+00 -3.0173e+01 +/- 0.0000e+00 0.0000e+00 0.0000e+00 [bar]
 9.5815e+00  1.0815e+02  1.3671e+01 +/- 0.0000e+00 0.0000e+00 0.0000e+00 [bar]
-3.0173e+01  1.3671e+01  8.3696e+01 +/- 0.0000e+00 0.0000e+00 0.0000e+00 [bar]
Ideal-gas pressure:   5.031609e+02 +/ 0.000000e+00 [bar]
Excess pressure:     -4.053635e+02 +/ 0.000000e+00 [bar]
Pressure:             9.779747e+01 +/ 0.000000e+00 [bar]

Total potential energy/kʙ  -3.787989e+05 (-3.820488e+05 +/- 0.000000e+00) [K]
-------------------------------------------------------------------------------
ExternalField-molecule
    Van der Waals/kʙ        0.000000e+00 ( 0.000000e+00 +/- 0.000000e+00) [K]
Framework-molecule
    Van der Waals/kʙ        0.000000e+00 ( 0.000000e+00 +/- 0.000000e+00) [K]
    Van der Waals (Tail)/kʙ 0.000000e+00 ( 0.000000e+00 +/- 0.000000e+00) [K]
    Coulombic Real/kʙ       0.000000e+00 ( 0.000000e+00 +/- 0.000000e+00) [K]
    Coulombic Fourier/kʙ    0.000000e+00 ( 0.000000e+00 +/- 0.000000e+00) [K]
Molecule-molecule
    Van der Waals/kʙ       -2.690122e+05 (-2.757274e+05 +/- 0.000000e+00) [K]
    Van der Waals (Tail)/kʙ-8.754998e+03 (-8.787175e+03 +/- 0.000000e+00) [K]
    Coulombic Real/kʙ      -8.827689e+04 (-8.477942e+04 +/- 0.000000e+00) [K]
    Coulombic Fourier/kʙ   -1.275481e+04 (-1.275488e+04 +/- 0.000000e+00) [K]
    Molecule Intra/kʙ       0.000000e+00 ( 0.000000e+00 +/- 0.000000e+00) [K]

Current cycle: 1700 out of 5000
===============================================================================

Box:      25.77084   0.00000   0.00000  Average:  25.79436   0.00000   0.00000
           0.00000  25.77084   0.00000             0.00000  25.79436   0.00000
           0.00000   0.00000  25.77084             0.00000   0.00000  25.79436
Lengths:  25.77084  25.77084  25.77084  Average:  25.79436  25.79436  25.79436
Angles:   90.00000  90.00000  90.00000  Average:  90.00000  90.00000  90.00000
Rectangular boundary conditions

net charge:   0.00000000

component 0 (CO2) lambda:  0 occupancy:  1 (1.000000)
    net charge:   0.00000000 [e]

Amount of molecules per component :
-------------------------------------------------------------------------------
Component 0 (CO2)
    molecules:      2.500000e+02 molecules  (2.500000e+02 +/- 0.000000e+00)
    number density: 1.460678e-02 molec./A^3 (1.456978e-02 +/- 0.000000e+00)
    density:        1.067196e+03 kg/m^3     (1.064493e+03 +/- 0.000000e+00)

Average pressure tensor: 
-------------------------------------------------------------------------------
 1.0511e+02  2.2250e+01 -2.5510e+01 +/- 0.0000e+00 0.0000e+00 0.0000e+00 [bar]
 2.2250e+01  1.1973e+02  2.0991e+01 +/- 0.0000e+00 0.0000e+00 0.0000e+00 [bar]
-2.5510e+01  2.0991e+01  7.5985e+01 +/- 0.0000e+00 0.0000e+00 0.0000e+00 [bar]
Ideal-gas pressure:   5.028944e+02 +/ 0.000000e+00 [bar]
Excess pressure:     -4.026196e+02 +/ 0.000000e+00 [bar]
Pressure:             1.002748e+02 +/ 0.000000e+00 [bar]

Total potential energy/kʙ  -3.778875e+05 (-3.817194e+05 +/- 0.000000e+00) [K]
-------------------------------------------------------------------------------
ExternalField-molecule
    Van der Waals/kʙ        0.000000e+00 ( 0.000000e+00 +/- 0.000000e+00) [K]
Framework-molecule
    Van der Waals/kʙ        0.000000e+00 ( 0.000000e+00 +/- 0.000000e+00) [K]
    Van der Waals (Tail)/kʙ 0.000000e+00 ( 0.000000e+00 +/- 0.000000e+00) [K]
    Coulombic Real/kʙ       0.000000e+00 ( 0.000000e+00 +/- 0.000000e+00) [K]
    Coulombic Fourier/kʙ    0.000000e+00 ( 0.000000e+00 +/- 0.000000e+00) [K]
Molecule-molecule
    Van der Waals/kʙ       -2.706261e+05 (-2.754187e+05 +/- 0.000000e+00) [K]
    Van der Waals (Tail)/kʙ-8.803833e+03 (-8.783316e+03 +/- 0.000000e+00) [K]
    Coulombic Real/kʙ      -8.464473e+04 (-8.475581e+04 +/- 0.000000e+00) [K]
    Coulombic Fourier/kʙ   -1.381278e+04 (-1.276162e+04 +/- 0.000000e+00) [K]
    Molecule Intra/kʙ       0.000000e+00 ( 0.000000e+00 +/- 0.000000e+00) [K]

Current cycle: 1800 out of 5000
===============================================================================

Box:      25.71908   0.00000   0.00000  Average:  25.78962   0.00000   0.00000
           0.00000  25.71908   0.00000             0.00000  25.78962   0.00000
           0.00000   0.00000  25.71908             0.00000   0.00000  25.78962
Lengths:  25.71908  25.71908  25.71908  Average:  25.78962  25.78962  25.78962
Angles:   90.00000  90.00000  90.00000  Average:  90.00000  90.00000  90.00000
Rectangular boundary conditions

net charge:   0.00000000

component 0 (CO2) lambda:  0 occupancy:  1 (1.000000)
    net charge:   0.00000000 [e]

Amount of molecules per component :
-------------------------------------------------------------------------------
Component 0 (CO2)
    molecules:      2.500000e+02 molecules  (2.500000e+02 +/- 0.000000e+00)
    number density: 1.469513e-02 molec./A^3 (1.457780e-02 +/- 0.000000e+00)
    density:        1.073652e+03 kg/m^3     (1.065079e+03 +/- 0.000000e+00)

Average pressure tensor: 
-------------------------------------------------------------------------------
 9.6539e+01  1.8629e+01 -2.5111e+01 +/- 0.0000e+00 0.0000e+00 0.0000e+00 [bar]
 1.8629e+01  1.2057e+02  1.8050e+01 +/- 0.0000e+00 0.0000e+00 0.0000e+00 [bar]
-2.5111e+01  1.8050e+01  8.6967e+01 +/- 0.0000e+00 0.0000e+00 0.0000e+00 [bar]
Ideal-gas pressure:   5.031712e+02 +/ 0.000000e+00 [bar]
Excess pressure:     -4.018134e+02 +/ 0.000000e+00 [bar]
Pressure:             1.013578e+02 +/ 0.000000e+00 [bar]

Total potential energy/kʙ  -3.872692e+05 (-3.821085e+05 +/- 0.000000e+00) [K]
-------------------------------------------------------------------------------
ExternalField-molecule
    Van der Waals/kʙ        0.000000e+00 ( 0.000000e+00 +/- 0.000000e+00) [K]
Framework-molecule
    Van der Waals/kʙ        0.000000e+00 ( 0.000000e+00 +/- 0.000000e+00) [K]
    Van der Waals (Tail)/kʙ 0.000000e+00 ( 0.000000e+00 +/- 0.000000e+00) [K]
    Coulombic Real/kʙ       0.000000e+00 ( 0.000000e+00 +/- 0.000000e+00) [K]
    Coulombic Fourier/kʙ    0.000000e+00 ( 0.000000e+00 +/- 0.000000e+00) [K]
Molecule-molecule
    Van der Waals/kʙ       -2.748129e+05 (-2.755824e+05 +/- 0.000000e+00) [K]
    Van der Waals (Tail)/kʙ-8.857086e+03 (-8.788393e+03 +/- 0.000000e+00) [K]
    Coulombic Real/kʙ      -9.064206e+04 (-8.494195e+04 +/- 0.000000e+00) [K]
    Coulombic Fourier/kʙ   -1.295708e+04 (-1.279580e+04 +/- 0.000000e+00) [K]
    Molecule Intra/kʙ       0.000000e+00 ( 0.000000e+00 +/- 0.000000e+00) [K]

Current cycle: 1900 out of 5000
===============================================================================

Box:      26.18393   0.00000   0.00000  Average:  25.79632   0.00000   0.00000
           0.00000  26.18393   0.00000             0.00000  25.79632   0.00000
           0.00000   0.00000  26.18393             0.00000   0.00000  25.79632
Lengths:  26.18393  26.18393  26.18393  Average:  25.79632  25.79632  25.79632
Angles:   90.00000  90.00000  90.00000  Average:  90.00000  90.00000  90.00000
Rectangular boundary conditions

net charge:   0.00000000

component 0 (CO2) lambda:  0 occupancy:  1 (1.000000)
    net charge:   0.00000000 [e]

Amount of molecules per component :
-------------------------------------------------------------------------------
Component 0 (CO2)
    molecules:      2.500000e+02 molecules  (2.500000e+02 +/- 0.000000e+00)
    number density: 1.392630e-02 molec./A^3 (1.456660e-02 +/- 0.000000e+00)
    density:        1.017479e+03 kg/m^3     (1.064261e+03 +/- 0.000000e+00)

Average pressure tensor: 
-------------------------------------------------------------------------------
 9.1877e+01  1.9035e+01 -1.6235e+01 +/- 0.0000e+00 0.0000e+00 0.0000e+00 [bar]
 1.9035e+01  1.2026e+02  1.5323e+01 +/- 0.0000e+00 0.0000e+00 0.0000e+00 [bar]
-1.6235e+01  1.5323e+01  8.7701e+01 +/- 0.0000e+00 0.0000e+00 0.0000e+00 [bar]
Ideal-gas pressure:   5.027847e+02 +/ 0.000000e+00 [bar]
Excess pressure:     -4.028396e+02 +/ 0.000000e+00 [bar]
Pressure:             9.994509e+01 +/ 0.000000e+00 [bar]

Total potential energy/kʙ  -3.608923e+05 (-3.819404e+05 +/- 0.000000e+00) [K]
-------------------------------------------------------------------------------
ExternalField-molecule
    Van der Waals/kʙ        0.000000e+00 ( 0.000000e+00 +/- 0.000000e+00) [K]
Framework-molecule
    Van der Waals/kʙ        0.000000e+00 ( 0.000000e+00 +/- 0.000000e+00) [K]
    Van der Waals (Tail)/kʙ 0.000000e+00 ( 0.000000e+00 +/- 0.000000e+00) [K]
    Coulombic Real/kʙ       0.000000e+00 ( 0.000000e+00 +/- 0.000000e+00) [K]
    Coulombic Fourier/kʙ    0.000000e+00 ( 0.000000e+00 +/- 0.000000e+00) [K]
Molecule-molecule
    Van der Waals/kʙ       -2.611808e+05 (-2.753681e+05 +/- 0.000000e+00) [K]
    Van der Waals (Tail)/kʙ-8.393692e+03 (-8.780588e+03 +/- 0.000000e+00) [K]
    Coulombic Real/kʙ      -7.943964e+04 (-8.502209e+04 +/- 0.000000e+00) [K]
    Coulombic Fourier/kʙ   -1.187815e+04 (-1.276957e+04 +/- 0.000000e+00) [K]
    Molecule Intra/kʙ       0.000000e+00 ( 0.000000e+00 +/- 0.000000e+00) [K]

Current cycle: 2000 out of 5000
===============================================================================

Box:      25.94221   0.00000   0.00000  Average:  25.80564   0.00000   0.00000
           0.00000  25.94221   0.00000             0.00000  25.80564   0.00000
           0.00000   0.00000  25.94221             0.00000   0.00000  25.80564
Lengths:  25.94221  25.94221  25.94221  Average:  25.80564  25.80564  25.80564
Angles:   90.00000  90.00000  90.00000  Average:  90.00000  90.00000  90.00000
Rectangular boundary conditions

net charge:   0.00000000

component 0 (CO2) lambda:  0 occupancy:  1 (1.000000)
    net charge:   0.00000000 [e]

Amount of molecules per component :
-------------------------------------------------------------------------------
Component 0 (CO2)
    molecules:      2.500000e+02 molecules  (2.500000e+02 +/- 0.000000e+00)
    number density: 1.431920e-02 molec./A^3 (1.455096e-02 +/- 0.000000e+00)
    density:        1.046186e+03 kg/m^3     (1.063118e+03 +/- 0.000000e+00)

Average pressure tensor: 
-------------------------------------------------------------------------------
 8.8474e+01  1.4402e+01 -1.7367e+01 +/- 0.0000e+00 0.0000e+00 0.0000e+00 [bar]
 1.4402e+01  1.2315e+02  1.1600e+01 +/- 0.0000e+00 0.0000e+00 0.0000e+00 [bar]
-1.7367e+01  1.1600e+01  9.3752e+01 +/- 0.0000e+00 0.0000e+00 0.0000e+00 [bar]
Ideal-gas pressure:   5.022449e+02 +/ 0.000000e+00 [bar]
Excess pressure:     -4.004530e+02 +/ 0.000000e+00 [bar]
Pressure:             1.017918e+02 +/ 0.000000e+00 [bar]

Total potential energy/kʙ  -3.772276e+05 (-3.815518e+05 +/- 0.000000e+00) [K]
-------------------------------------------------------------------------------
ExternalField-molecule
    Van der Waals/kʙ        0.000000e+00 ( 0.000000e+00 +/- 0.000000e+00) [K]
Framework-molecule
    Van der Waals/kʙ        0.000000e+00 ( 0.000000e+00 +/- 0.000000e+00) [K]
    Van der Waals (Tail)/kʙ 0.000000e+00 ( 0.000000e+00 +/- 0.000000e+00) [K]
    Coulombic Real/kʙ       0.000000e+00 ( 0.000000e+00 +/- 0.000000e+00) [K]
    Coulombic Fourier/kʙ    0.000000e+00 ( 0.000000e+00 +/- 0.000000e+00) [K]
Molecule-molecule
    Van der Waals/kʙ       -2.719900e+05 (-2.750574e+05 +/- 0.000000e+00) [K]
    Van der Waals (Tail)/kʙ-8.630504e+03 (-8.772413e+03 +/- 0.000000e+00) [K]
    Coulombic Real/kʙ      -8.467814e+04 (-8.498284e+04 +/- 0.000000e+00) [K]
    Coulombic Fourier/kʙ   -1.192890e+04 (-1.273912e+04 +/- 0.000000e+00) [K]
    Molecule Intra/kʙ       0.000000e+00 ( 0.000000e+00 +/- 0.000000e+00) [K]

Current cycle: 2100 out of 5000
===============================================================================

Box:      25.74458   0.00000   0.00000  Average:  25.80992   0.00000   0.00000
           0.00000  25.74458   0.00000             0.00000  25.80992   0.00000
           0.00000   0.00000  25.74458             0.00000   0.00000  25.80992
Lengths:  25.74458  25.74458  25.74458  Average:  25.80992  25.80992  25.80992
Angles:   90.00000  90.00000  90.00000  Average:  90.00000  90.00000  90.00000
Rectangular boundary conditions

net charge:   0.00000000

component 0 (CO2) lambda:  0 occupancy:  1 (1.000000)
    net charge:   0.00000000 [e]

Amount of molecules per component :
-------------------------------------------------------------------------------
Component 0 (CO2)
    molecules:      2.500000e+02 molecules  (2.500000e+02 +/- 0.000000e+00)
    number density: 1.465151e-02 molec./A^3 (1.454372e-02 +/- 0.000000e+00)
    density:        1.070464e+03 kg/m^3     (1.062589e+03 +/- 0.000000e+00)

Average pressure tensor: 
-------------------------------------------------------------------------------
 8.3486e+01  1.2538e+01 -1.3989e+01 +/- 0.0000e+00 0.0000e+00 0.0000e+00 [bar]
 1.2538e+01  1.2422e+02  1.4859e+01 +/- 0.0000e+00 0.0000e+00 0.0000e+00 [bar]
-1.3989e+01  1.4859e+01  9.4511e+01 +/- 0.0000e+00 0.0000e+00 0.0000e+00 [bar]
Ideal-gas pressure:   5.019947e+02 +/ 0.000000e+00 [bar]
Excess pressure:     -4.012555e+02 +/ 0.000000e+00 [bar]
Pressure:             1.007392e+02 +/ 0.000000e+00 [bar]

Total potential energy/kʙ  -3.924146e+05 (-3.813890e+05 +/- 0.000000e+00) [K]
-------------------------------------------------------------------------------
ExternalField-molecule
    Van der Waals/kʙ        0.000000e+00 ( 0.000000e+00 +/- 0.000000e+00) [K]
Framework-molecule
    Van der Waals/kʙ        0.000000e+00 ( 0.000000e+00 +/- 0.000000e+00) [K]
    Van der Waals (Tail)/kʙ 0.000000e+00 ( 0.000000e+00 +/- 0.000000e+00) [K]
[...]
    Coulombic Fourier/kʙ    0.000000e+00 ( 0.000000e+00 +/- 0.000000e+00) [K]
Molecule-molecule
    Van der Waals/kʙ       -2.789792e+05 (-2.785356e+05 +/- 4.740972e+03) [K]
    Van der Waals (Tail)/kʙ-8.797455e+03 (-8.856604e+03 +/- 1.238188e+02) [K]
    Coulombic Real/kʙ      -8.315829e+04 (-8.668284e+04 +/- 2.471193e+03) [K]
    Coulombic Fourier/kʙ   -1.351824e+04 (-1.294903e+04 +/- 2.909732e+02) [K]
    Molecule Intra/kʙ       0.000000e+00 ( 0.000000e+00 +/- 0.000000e+00) [K]

Current cycle: 4700 out of 5000
===============================================================================

Box:      25.68284   0.00000   0.00000  Average:  25.72182   0.00000   0.00000
           0.00000  25.68284   0.00000             0.00000  25.72182   0.00000
           0.00000   0.00000  25.68284             0.00000   0.00000  25.72182
Lengths:  25.68284  25.68284  25.68284  Average:  25.72182  25.72182  25.72182
Angles:   90.00000  90.00000  90.00000  Average:  90.00000  90.00000  90.00000
Rectangular boundary conditions

net charge:   0.00000000

component 0 (CO2) lambda:  0 occupancy:  1 (1.000000)
    net charge:   0.00000000 [e]

Amount of molecules per component :
-------------------------------------------------------------------------------
Component 0 (CO2)
    molecules:      2.500000e+02 molecules  (2.500000e+02 +/- 3.944933e-14)
    number density: 1.475744e-02 molec./A^3 (1.469494e-02 +/- 1.986411e-04)
    density:        1.078204e+03 kg/m^3     (1.073637e+03 +/- 1.451306e+01)

Average pressure tensor: 
-------------------------------------------------------------------------------
 7.8893e+01 -1.9135e+01  4.8347e+00 +/- 4.8719e+01 4.3595e+01 1.0259e+02 [bar]
-1.9135e+01  1.2036e+02 -2.7156e+01 +/- 4.3595e+01 4.3206e+01 6.6778e+01 [bar]
 4.8347e+00 -2.7156e+01  8.3325e+01 +/- 1.0259e+02 6.6778e+01 2.7119e+01 [bar]
Ideal-gas pressure:   5.072143e+02 +/ 6.856346e+00 [bar]
Excess pressure:     -4.130228e+02 +/ 1.938274e+01 [bar]
Pressure:             9.419154e+01 +/ 1.341282e+01 [bar]

Total potential energy/kʙ  -3.846751e+05 (-3.871862e+05 +/- 6.967178e+03) [K]
-------------------------------------------------------------------------------
ExternalField-molecule
    Van der Waals/kʙ        0.000000e+00 ( 0.000000e+00 +/- 0.000000e+00) [K]
Framework-molecule
    Van der Waals/kʙ        0.000000e+00 ( 0.000000e+00 +/- 0.000000e+00) [K]
    Van der Waals (Tail)/kʙ 0.000000e+00 ( 0.000000e+00 +/- 0.000000e+00) [K]
    Coulombic Real/kʙ       0.000000e+00 ( 0.000000e+00 +/- 0.000000e+00) [K]
    Coulombic Fourier/kʙ    0.000000e+00 ( 0.000000e+00 +/- 0.000000e+00) [K]
Molecule-molecule
    Van der Waals/kʙ       -2.771583e+05 (-2.786031e+05 +/- 4.674207e+03) [K]
    Van der Waals (Tail)/kʙ-8.894636e+03 (-8.860013e+03 +/- 1.187985e+02) [K]
    Coulombic Real/kʙ      -8.664603e+04 (-8.677559e+04 +/- 2.569210e+03) [K]
    Coulombic Fourier/kʙ   -1.197618e+04 (-1.294743e+04 +/- 2.905218e+02) [K]
    Molecule Intra/kʙ       0.000000e+00 ( 0.000000e+00 +/- 0.000000e+00) [K]

Current cycle: 4800 out of 5000
===============================================================================

Box:      25.82745   0.00000   0.00000  Average:  25.72281   0.00000   0.00000
           0.00000  25.82745   0.00000             0.00000  25.72281   0.00000
           0.00000   0.00000  25.82745             0.00000   0.00000  25.72281
Lengths:  25.82745  25.82745  25.82745  Average:  25.72281  25.72281  25.72281
Angles:   90.00000  90.00000  90.00000  Average:  90.00000  90.00000  90.00000
Rectangular boundary conditions

net charge:   0.00000000

component 0 (CO2) lambda:  0 occupancy:  1 (1.000000)
    net charge:   0.00000000 [e]

Amount of molecules per component :
-------------------------------------------------------------------------------
Component 0 (CO2)
    molecules:      2.500000e+02 molecules  (2.500000e+02 +/- 0.000000e+00)
    number density: 1.451093e-02 molec./A^3 (1.469319e-02 +/- 1.988531e-04)
    density:        1.060194e+03 kg/m^3     (1.073510e+03 +/- 1.452855e+01)

Average pressure tensor: 
-------------------------------------------------------------------------------
 7.8534e+01 -1.7661e+01  6.7247e+00 +/- 4.5727e+01 4.3869e+01 1.0327e+02 [bar]
-1.7661e+01  1.2289e+02 -3.0676e+01 +/- 4.3869e+01 4.6980e+01 6.9620e+01 [bar]
 6.7247e+00 -3.0676e+01  8.4816e+01 +/- 1.0327e+02 6.9620e+01 2.8767e+01 [bar]
Ideal-gas pressure:   5.071540e+02 +/ 6.863665e+00 [bar]
Excess pressure:     -4.117418e+02 +/ 2.048692e+01 [bar]
Pressure:             9.541219e+01 +/ 1.455034e+01 [bar]

Total potential energy/kʙ  -3.825353e+05 (-3.871201e+05 +/- 6.941199e+03) [K]
-------------------------------------------------------------------------------
ExternalField-molecule
    Van der Waals/kʙ        0.000000e+00 ( 0.000000e+00 +/- 0.000000e+00) [K]
Framework-molecule
    Van der Waals/kʙ        0.000000e+00 ( 0.000000e+00 +/- 0.000000e+00) [K]
    Van der Waals (Tail)/kʙ 0.000000e+00 ( 0.000000e+00 +/- 0.000000e+00) [K]
    Coulombic Real/kʙ       0.000000e+00 ( 0.000000e+00 +/- 0.000000e+00) [K]
    Coulombic Fourier/kʙ    0.000000e+00 ( 0.000000e+00 +/- 0.000000e+00) [K]
Molecule-molecule
    Van der Waals/kʙ       -2.735757e+05 (-2.785742e+05 +/- 4.677863e+03) [K]
    Van der Waals (Tail)/kʙ-8.746065e+03 (-8.859287e+03 +/- 1.187425e+02) [K]
    Coulombic Real/kʙ      -8.709142e+04 (-8.674297e+04 +/- 2.437132e+03) [K]
    Coulombic Fourier/kʙ   -1.312212e+04 (-1.294361e+04 +/- 2.903148e+02) [K]
    Molecule Intra/kʙ       0.000000e+00 ( 0.000000e+00 +/- 0.000000e+00) [K]

Current cycle: 4900 out of 5000
===============================================================================

Box:      25.50537   0.00000   0.00000  Average:  25.72172   0.00000   0.00000
           0.00000  25.50537   0.00000             0.00000  25.72172   0.00000
           0.00000   0.00000  25.50537             0.00000   0.00000  25.72172
Lengths:  25.50537  25.50537  25.50537  Average:  25.72172  25.72172  25.72172
Angles:   90.00000  90.00000  90.00000  Average:  90.00000  90.00000  90.00000
Rectangular boundary conditions

net charge:   0.00000000

component 0 (CO2) lambda:  0 occupancy:  1 (1.000000)
    net charge:   0.00000000 [e]

Amount of molecules per component :
-------------------------------------------------------------------------------
Component 0 (CO2)
    molecules:      2.500000e+02 molecules  (2.500000e+02 +/- 0.000000e+00)
    number density: 1.506763e-02 molec./A^3 (1.469498e-02 +/- 1.968690e-04)
    density:        1.100867e+03 kg/m^3     (1.073641e+03 +/- 1.438358e+01)

Average pressure tensor: 
-------------------------------------------------------------------------------
 7.5374e+01 -1.5927e+01  5.3627e+00 +/- 5.0807e+01 4.4655e+01 1.0253e+02 [bar]
-1.5927e+01  1.2021e+02 -2.8800e+01 +/- 4.4655e+01 3.6028e+01 6.7286e+01 [bar]
 5.3627e+00 -2.8800e+01  8.4885e+01 +/- 1.0253e+02 6.7286e+01 2.8256e+01 [bar]
Ideal-gas pressure:   5.072159e+02 +/ 6.795180e+00 [bar]
Excess pressure:     -4.137277e+02 +/ 1.903414e+01 [bar]
Pressure:             9.348816e+01 +/ 1.322850e+01 [bar]

Total potential energy/kʙ  -3.969997e+05 (-3.872644e+05 +/- 6.977463e+03) [K]
-------------------------------------------------------------------------------
ExternalField-molecule
    Van der Waals/kʙ        0.000000e+00 ( 0.000000e+00 +/- 0.000000e+00) [K]
Framework-molecule
    Van der Waals/kʙ        0.000000e+00 ( 0.000000e+00 +/- 0.000000e+00) [K]
    Van der Waals (Tail)/kʙ 0.000000e+00 ( 0.000000e+00 +/- 0.000000e+00) [K]
    Coulombic Real/kʙ       0.000000e+00 ( 0.000000e+00 +/- 0.000000e+00) [K]
    Coulombic Fourier/kʙ    0.000000e+00 ( 0.000000e+00 +/- 0.000000e+00) [K]
Molecule-molecule
    Van der Waals/kʙ       -2.836474e+05 (-2.786855e+05 +/- 4.638478e+03) [K]
    Van der Waals (Tail)/kʙ-9.081599e+03 (-8.860671e+03 +/- 1.175965e+02) [K]
    Coulombic Real/kʙ      -9.208120e+04 (-8.677741e+04 +/- 2.435505e+03) [K]
    Coulombic Fourier/kʙ   -1.218945e+04 (-1.294082e+04 +/- 2.905014e+02) [K]
    Molecule Intra/kʙ       0.000000e+00 ( 0.000000e+00 +/- 0.000000e+00) [K]


Energy statistics             |  Energy [K]   | Recomputed [K]|  Drift [K]    |
===============================================================================
Total potential energy/kʙ     | -4.056201e+05 | -4.056201e+05 |  4.734275e-09 |
    external field VDW/kʙ     |  0.000000e+00 |  0.000000e+00 |  0.000000e+00 |
    external field Real/kʙ    |  0.000000e+00 |  0.000000e+00 |  0.000000e+00 |
    framework-molecule VDW/kʙ |  0.000000e+00 |  0.000000e+00 |  0.000000e+00 |
    framework-molecule Real/kʙ|  0.000000e+00 |  0.000000e+00 |  0.000000e+00 |
    molecule-molecule VDW/kʙ  | -2.948911e+05 | -2.948911e+05 |  4.130458e-09 |
    molecule-molecule Real/kʙ | -8.900850e+04 | -8.900850e+04 |  6.125680e-10 |
    Van der Waals (Tail)/kʙ   | -9.211145e+03 | -9.211145e+03 |  0.000000e+00 |
    Ewald Fourier/kʙ          |  1.018203e+04 |  1.018203e+04 | -8.750971e-12 |
    Ewald self/kʙ             | -5.029674e+06 | -5.029674e+06 |  0.000000e+00 |
    Ewald exclusion/kʙ        |  5.006983e+06 |  5.006983e+06 |  0.000000e+00 |
    intra VDW/kʙ              |  0.000000e+00 |  0.000000e+00 |  0.000000e+00 |
    intra Coulombic/kʙ        |  0.000000e+00 |  0.000000e+00 |  0.000000e+00 |
    polarization/kʙ           |  0.000000e+00 |  0.000000e+00 |  0.000000e+00 |
    dU/dlambda VDW/kʙ         |  0.000000e+00 |  0.000000e+00 |  0.000000e+00 |
    dU/dlambda Real/kʙ        |  0.000000e+00 |  0.000000e+00 |  0.000000e+00 |
    dU/dlambda Ewald/kʙ       |  0.000000e+00 |  0.000000e+00 |  0.000000e+00 |
-------------------------------------------------------------------------------


Monte-Carlo moves statistics
===============================================================================

    Volume change        all:                8288
    Volume change        total:              8288
    Volume change        constructed:        8288
    Volume change        accepted:           3286
    Volume change        fraction:       0.396477
    Volume change        max-change:     0.033333

Component 0 [CO2]
    Reinsertion (CBMC)   all:              413246
    Reinsertion (CBMC)   total:            413246
    Reinsertion (CBMC)   constructed:      362609
    Reinsertion (CBMC)   accepted:           4507
    Reinsertion (CBMC)   fraction:       0.010906
    Reinsertion (CBMC)   max-change:     0.000000

    Translation          all:              414838
    Translation          total:            138281     138697     137860
    Translation          constructed:      138281     138697     137860
    Translation          accepted:          76200      64145      81076
    Translation          fraction:       0.551052   0.462483   0.588104
    Translation          max-change:     0.564103   0.732461   0.500000

    Rotation             all:              413628
    Rotation             total:            137768     138133     137727
    Rotation             constructed:      137768     138133     137727
    Rotation             accepted:          67884      80828      76574
    Rotation             fraction:       0.492741   0.585146   0.555984
    Rotation             max-change:     0.702332   0.516129   0.571429



Production run counting of the MC moves summed over systems and components
===============================================================================

Volume change                          8288 (0.6630 [%])
Reinsertion (CBMC)                   413246 (33.0597 [%])
Translation                          414838 (33.1870 [%])
Rotation                             413628 (33.0902 [%])

Production count MC-steps:          1250000 [-]
               All summed:          1250000 [-]
               difference:                0 [-]


Production run CPU timings of the MC moves
===============================================================================

Component 0 CO2

Rotation                             60.369023 [s]
    Ewald                            23.196124 [s]
    ExternalField-Molecule            0.015211 [s]
    Framework-Molecule                0.012865 [s]
    Molecule-Molecule                35.073581 [s]
    Overhead                          2.071242 [s]

Reinsertion (CBMC)                  254.493661 [s]
    Ewald                            20.497862 [s]
    NonEwald                        233.605212 [s]
    Overhead                          0.390587 [s]

Translation                          60.478836 [s]
    Ewald                            23.266645 [s]
    ExternalField-Molecule            0.014501 [s]
    Framework-Molecule                0.021120 [s]
    Molecule-Molecule                35.196854 [s]
    Overhead                          1.979716 [s]



Volume change                         70.657380 [s]
    Ewald                             23.246691 [s]
    NonEwald                          43.938266 [s]
    Tail                               3.161267 [s]

Property sampling                     0.309406 [s]
Energy/pressure sampling:             8.340258 [s]


Production run CPU timings of the MC moves summed over systems and components
===============================================================================


Translation                          60.478836 [s]
    Ewald                            23.266645 [s]
    ExternalField-Molecule            0.014501 [s]
    Framework-Molecule                0.021120 [s]
    Molecule-Molecule                35.196854 [s]
    Overhead                          1.979716 [s]

Rotation                             60.369023 [s]
    Ewald                            23.196124 [s]
    ExternalField-Molecule            0.015211 [s]
    Framework-Molecule                0.012865 [s]
    Molecule-Molecule                35.073581 [s]
    Overhead                          2.071242 [s]

Volume change                        70.657380 [s]
    Ewald                            23.246691 [s]
    NonEwald                         43.938266 [s]
    Tail                              3.161267 [s]
    Overhead                          0.311156 [s]

Reinsertion (CBMC)                  254.493661 [s]
    Ewald                            20.497862 [s]
    NonEwald                        233.605212 [s]
    Overhead                          0.390587 [s]

Property sampling:                    0.309406 [s]
Energy/pressure sampling:             8.340258 [s]

Production simulation time:         455.580694 [s]
                All summed:         454.648564 [s]
                  Overhead:           0.932130 [s]


Initalization simulation time:       89.618549 [s]
Equilibration simulation time:        0.000000 [s]
Production simulation time:         455.580694 [s]
Total simulation time:              545.199243 [s]


Energy averages and statistics:
===============================================================================

Framework-molecule energy:
-------------------------------------------------------------------------------



Framework-molecule energy contributions per energy type:
-------------------------------------------------------------------------------



Inter-molecular energy:
-------------------------------------------------------------------------------

    Inter-molecular energy/kʙ 0-0 [CO2-CO2]:
    ---------------------------------------------------------------------------
        Block[  0] -3.806699e+05
        Block[  1] -3.824769e+05
        Block[  2] -3.906904e+05
        Block[  3] -3.940970e+05
        Block[  4] -3.898783e+05
        -----------------------------------------------------------------------
        Average  -3.875625e+05 +/-  7.110504e+03 [K]



Inter-molecular energy contributions per energy type:
-------------------------------------------------------------------------------

    Van der Waals energy/kʙ 0-0 [CO2-CO2]:
    ---------------------------------------------------------------------------
        Block[  0] -2.744487e+05
        Block[  1] -2.756967e+05
        Block[  2] -2.822893e+05
        Block[  3] -2.826625e+05
        Block[  4] -2.791386e+05
        -----------------------------------------------------------------------
        Average  -2.788472e+05 +/-  4.635241e+03 [K]

    VDW Tail-Correction energy/kʙ 0-0 [CO2-CO2]:
    ---------------------------------------------------------------------------
        Block[  0] -8.766919e+03
        Block[  1] -8.779325e+03
        Block[  2] -8.958258e+03
        Block[  3] -8.962031e+03
        Block[  4] -8.860421e+03
        -----------------------------------------------------------------------
        Average  -8.865391e+03 +/-  1.162814e+02 [K]

    Coulomb Real energy/kʙ 0-0 [CO2-CO2]:
    ---------------------------------------------------------------------------
        Block[  0] -8.461817e+04
        Block[  1] -8.535057e+04
        Block[  2] -8.643777e+04
        Block[  3] -8.918624e+04
        Block[  4] -8.895709e+04
        -----------------------------------------------------------------------
        Average  -8.690997e+04 +/-  2.580272e+03 [K]

    Coulomb Fourier energy/kʙ 0-0 [CO2-CO2]:
    ---------------------------------------------------------------------------
        Block[  0] -1.283605e+04
        Block[  1] -1.265030e+04
        Block[  2] -1.300508e+04
        Block[  3] -1.328616e+04
        Block[  4] -1.292222e+04
        -----------------------------------------------------------------------
        Average  -1.293996e+04 +/-  2.905642e+02 [K]


Total energy/kʙ
-------------------------------------------------------------------------------
    Block[  0] -3.806699e+05
    Block[  1] -3.824769e+05
    Block[  2] -3.906904e+05
    Block[  3] -3.940970e+05
    Block[  4] -3.898783e+05
    ---------------------------------------------------------------------------
    Average  -3.875625e+05 +/-  7.110504e+03 [K]

Pressure averages and statistics:
===============================================================================

Average pressure tensor: 
-------------------------------------------------------------------------------
 7.5864e+01 -1.5894e+01  7.0459e+00 +/- 4.6451e+01 4.4509e+01 1.0299e+02 [bar]
-1.5894e+01  1.1736e+02 -2.8936e+01 +/- 4.4509e+01 2.7514e+01 6.7068e+01 [bar]
 7.0459e+00 -2.8936e+01  8.8881e+01 +/- 1.0299e+02 6.7068e+01 3.3984e+01 [bar]

    Block[  0]  5.017857e+07
    Block[  1]  5.027120e+07
    Block[  2]  5.129221e+07
    Block[  3]  5.130685e+07
    Block[  4]  5.071144e+07
    ---------------------------------------------------------------------------
    Ideal gas pressure   5.075205e+07 +/-  4.028377e-02 [Pa]
                         5.075205e+02 +/-  6.689283e+00 [bar]


    Block[  0] -3.903463e+07
    Block[  1] -4.106650e+07
    Block[  2] -4.271001e+07
    Block[  3] -4.279973e+07
    Block[  4] -4.113265e+07
    ---------------------------------------------------------------------------
    Excess pressure  -4.134870e+07 +/-  1.907163e+06 [Pa]
                     -4.134870e+02 +/-  1.907163e+01 [bar]


    Block[  0]  1.114394e+07
    Block[  1]  9.204707e+06
    Block[  2]  8.582195e+06
    Block[  3]  8.507120e+06
    Block[  4]  9.578784e+06
    ---------------------------------------------------------------------------
    Pressure average   9.403349e+06 +/-  1.328049e+06 [Pa]
                       9.403349e+01 +/-  1.328049e+01 [bar]


Enthalpy of adsorption
===============================================================================

No fluctuating components present.


Densities
===============================================================================

Component 0 (CO2)
    Block[  0] 250
    Block[  1] 250
    Block[  2] 250
    Block[  3] 250
    Block[  4] 250
    -----------------------------------------------------------------------
    Density average   2.500000e+02 +/-  0.000000e+00 [molecules]
    Density average   1.470381e-02 +/-  1.938009e-04 [molec/A^3]
    Density average   1.074286e+03 +/-  1.415943e+01 [kg.m⁻³]

