Compiler and run-time data
===============================================================================
RASPA 3.0.4

Random seed: 2826500834

Compiled as a 64-bits application
Compiler: gcc Ubuntu Clang 18.1.3 (1ubuntu1)
Compile Date = Mar 15 2025, Compile Time = 19:39:45

2025-06-03 11:00:36.161159
Simulation started on Tue, Jun 03
The start time was 11:00:00

Hostname:    c061
OS type:     Linux on x86_64
OS release:  6.8.0-58-generic
OS version:  #60-Ubuntu SMP PREEMPT_DYNAMIC Fri Mar 14 18:29:48 UTC 2025


Mutual consistent basic set of units:
===============================================================================

Unit of temperature: 1 [K]
Unit of length:      1e-10 [m]
Unit of time:        1e-12 [s]
Unit of mass:        1.6605402e-27 [kg]
Unit of charge:      1.60217733e-19 [C/particle]


Boltzmann constant (internal units):          0.8314464919307584 [-]
represents conversion from energy (internal units) to temperature (in Kelvin)

Derived units and their conversion factors:
===============================================================================

Unit of energy:                           1.6605402000000002e-23 [J]
Unit of energy:                           10.000008872307538 [J.mol⁻¹]
Unit of velocity:                         100 [m.s⁻¹]
Unit of force:                            1.6605402000000002e-13 [N]
Unit of diffusion:                        1.0000000000000002e-08 [m².s⁻¹]
Unit of acceleration:                     1.0000000000000002e-08 [m².s⁻¹]
Unit of torque:                           1.6605402000000002e-23 [N.m]
Unit of pressure:                         16605402 [Pa]
Unit of volume:                           1e-30 [m³]
Unit of density:                          1660.5402 [kg.m⁻³]
Unit of dynamic viscosity:                1.6605401999999997e-05 [N.s.m⁻²]
Unit of enthalpy:                         1.6605402000000002e-23 [J]
Unit of polarizability:                   1.5458657349975198e-35 [-]
Unit of Coulomb potential:                167101.08000665612 [K]
Unit of dielectric constant:              1.5458657349975193e-05 [s².C².kg⁻¹.m⁻³]
Unit of dipole moment:                    1.60217733e-29 [C.m]
Unit of Debye:                            4.803206799099162 [C.m]
Unit of electric potential:               0.00010364272224473431 [V]
Unit of electric field:                   1036427.222447343 [V.m⁻¹]
Unit of isothermal compressibility:       6.02213665167516e-08 [Pa⁻¹]
Unit of heat capacity:                    10.000008872307538 [J.mol⁻¹.K⁻¹]
Unit of volumetric expansion coefficient: 1 [K⁻¹]


Internal conversion factors:
===============================================================================

Energy (internal units) to Kelvin:      1.202724284692786 [-]
Kelvin to energy (internal units):      0.8314457542157567 [-]


System definitions
===============================================================================

Temperature:          260 [K]
Beta:                 0.004625858529058714 [-]
Pressure:             0 [Pa]
Helium void fraction: 1 [-]

Box:      30.00000   0.00000   0.00000
           0.00000  30.00000   0.00000
           0.00000   0.00000  30.00000
Lengths:  30.00000  30.00000  30.00000
Angles:   90.00000  90.00000  90.00000
Rectangular boundary conditions



Property measurement settings
===============================================================================




Pseudo-atoms
===============================================================================

  0 - C_co2    framework-atom: false
  1 - O_co2    framework-atom: false

  0 - C_co2    mass: 12.00000, charge:  0.70000
  1 - O_co2    mass: 15.99940, charge: -0.35000

  0 - C_co2    polarizability:  0.00000
  1 - O_co2    polarizability:  0.00000

  0 - J. J. Potoff et al., AIChE J. 2001, 47, 1676–1682.
  1 - J. J. Potoff et al., AIChE J. 2001, 47, 1676–1682.

Force field status
===============================================================================

Cutoff Framework-Molecule VDW:  10.00000 [Å]
Cutoff Molecule-Molecule VDW:   10.00000 [Å]
Cutoff Coulomb:                 10.00000 [Å]

Overlap-criteria VDW:           1.000000e+05 [K]

C_co2    - C_co2    Lennard-Jones p₀/kʙ:  27.00000 [K], p₁:  2.80000 [Å]
                                  shift:   0.00000 [K], tailcorrections: true
C_co2    - O_co2    Lennard-Jones p₀/kʙ:  46.18441 [K], p₁:  2.92500 [Å]
                                  shift:   0.00000 [K], tailcorrections: true
O_co2    - O_co2    Lennard-Jones p₀/kʙ:  79.00000 [K], p₁:  3.05000 [Å]
                                  shift:   0.00000 [K], tailcorrections: true

Ewald precision: 1e-06
Ewald alpha: 0.32079885109097883
Ewald k-vectors: 10 10 10


Component definitions
===============================================================================

Component 0 [CO2]

    Type: Adsorbate

    Critical temperature:  304.1282 [K]
    Critical pressure:     7377300 [Pa]
    Acentric factor:       0.22394 [-]

    Mol-fraction:                 1 [-]
    Swappable:                   true

    Mass:                         43.9988 [-]
    Fugacity coefficient:         -nan [-]
    Bulk fluid density:           0 [-]
    Compressibility:              1 [-]
    Excess molecules:             0 [-]

    Number Of Atoms:    3
    CBMC starting bead: 0
      0: O_co2  position  0.00000 -0.00000  1.16000, charge -0.35000
      1: C_co2  position  0.00000 -0.00000  0.00000, charge  0.70000
      2: O_co2  position  0.00000 -0.00000 -1.16000, charge -0.35000
    Diagonalized inertia-vector:      43.05758528 43.05758528 0.00000000
    Translational degrees of freedom: 3
    Rotational degrees of freedom:    2
    Shape of the molecule is: 'Linear'
    Net-charge:        0.00000000 [e]

    Move probabilities:
    Translation:                   0.199203 [-]
    Random translation:            0.000000 [-]
    Rotation:                      0.199203 [-]
    Random rotation:               0.000000 [-]
    Volume change:                 0.000000 [-]
    Reinsertion (CBMC):            0.199203 [-]
    Identity change (CBMC):        0.000000 [-]
    Swap:                          0.000000 [-]
    Swap (CBMC):                   0.000000 [-]
    Swap (CFCMC):                  0.000000 [-]
    Swap (CB/CFCMC):               0.000000 [-]
    Gibbs volume:                  0.003984 [-]
    Gibbs swap (CBMC):             0.398406 [-]
    Gibbs swap (CFCMC):            0.000000 [-]
    Widom:                         0.000000 [-]
    Widom (CFCMC):                 0.000000 [-]
    Widom (CB/CFCMC):              0.000000 [-]
    Parallel tempering:            0.000000 [-]
    Hybrid MC:                     0.000000 [-]

    number of blocking-pockets: 0

    number of bonds: 0





Number of pseudo-atoms
===============================================================================

Component   0 (CO2)
-------------------------------------------------------------------------------
    index   0 (C_co2): 210 atoms
    index   1 (O_co2): 420 atoms

Total number of pseudo-atoms:
-------------------------------------------------------------------------------
    index   0 (C_co2): 210 atoms
    index   1 (O_co2): 420 atoms




Energy status Recomputed from scratch
===============================================================================

Total potential energy/kʙ       -1.074472e+05 [K]
    external field VDW/kʙ        0.000000e+00 [K]
    external field Real/kʙ       0.000000e+00 [K]
    framework-molecule VDW/kʙ    0.000000e+00 [K]
    framework-molecule Real/kʙ   0.000000e+00 [K]
    molecule-molecule VDW/kʙ    -8.313046e+04 [K]
    molecule-molecule Real/kʙ   -1.502064e+04 [K]
    Van der Waals (Tail)/kʙ     -5.240630e+03 [K]
    Ewald Fourier/kʙ             2.645931e+04 [K]
    Ewald self/kʙ               -4.668139e+06 [K]
    Ewald exclusion/kʙ           4.637624e+06 [K]
    intra VDW/kʙ                 0.000000e+00 [K]
    intra Coulombic/kʙ           0.000000e+00 [K]
    polarization/kʙ              0.000000e+00 [K]
    dU/dlambda VDW/kʙ            0.000000e+00 [K]
    dU/dlambda Real/kʙ           0.000000e+00 [K]
    dU/dlambda Ewald/kʙ          0.000000e+00 [K]





Initialization: Current cycle: 0 out of 2000
===============================================================================

Box:      30.00000   0.00000   0.00000
           0.00000  30.00000   0.00000
           0.00000   0.00000  30.00000
Lengths:  30.00000  30.00000  30.00000
Angles:   90.00000  90.00000  90.00000
Rectangular boundary conditions

net charge:   0.00000000

component   0 (CO2) lambda:  0 occupancy:  0 (0.000000)
    net charge:   0.00000000 [e]

Amount of molecules per component :
-------------------------------------------------------------------------------
Component 0 (CO2)
    molecules:         2.130000e+02 molecules
    number density:    7.888889e-03 molec/A^3
    density:           5.763757e+02 kg/m^3

Total potential energy/kʙ       -1.475076e+05 [K]
-------------------------------------------------------------------------------
    external field VDW/kʙ        0.000000e+00 [K]
    external field Real/kʙ       0.000000e+00 [K]
    framework-molecule VDW/kʙ    0.000000e+00 [K]
    framework-molecule Real/kʙ   0.000000e+00 [K]
    molecule-molecule VDW/kʙ    -1.201405e+05 [K]
    molecule-molecule Real/kʙ   -1.625387e+04 [K]
    Van der Waals (Tail)/kʙ     -5.391432e+03 [K]
    Ewald Fourier/kʙ             2.522894e+04 [K]
    Ewald self/kʙ               -4.734826e+06 [K]
    Ewald exclusion/kʙ           4.703876e+06 [K]
    intra VDW/kʙ                 0.000000e+00 [K]
    intra Coulombic/kʙ           0.000000e+00 [K]
    polarization/kʙ              0.000000e+00 [K]
    dU/dlambda VDW/kʙ            0.000000e+00 [K]
    dU/dlambda Real/kʙ           0.000000e+00 [K]
    dU/dlambda Ewald/kʙ          0.000000e+00 [K]


Initialization: Current cycle: 100 out of 2000
===============================================================================

Box:      29.93483   0.00000   0.00000
           0.00000  29.93483   0.00000
           0.00000   0.00000  29.93483
Lengths:  29.93483  29.93483  29.93483
Angles:   90.00000  90.00000  90.00000
Rectangular boundary conditions

net charge:   0.00000000

component   0 (CO2) lambda:  0 occupancy:  0 (0.000000)
    net charge:   0.00000000 [e]

Amount of molecules per component :
-------------------------------------------------------------------------------
Component 0 (CO2)
    molecules:         2.380000e+02 molecules
    number density:    8.872509e-03 molec/A^3
    density:           6.482407e+02 kg/m^3

Total potential energy/kʙ       -2.397364e+05 [K]
-------------------------------------------------------------------------------
    external field VDW/kʙ        0.000000e+00 [K]
    external field Real/kʙ       0.000000e+00 [K]
    framework-molecule VDW/kʙ    0.000000e+00 [K]
    framework-molecule Real/kʙ   0.000000e+00 [K]
    molecule-molecule VDW/kʙ    -1.783316e+05 [K]
    molecule-molecule Real/kʙ   -4.301437e+04 [K]
    Van der Waals (Tail)/kʙ     -6.775356e+03 [K]
    Ewald Fourier/kʙ             2.296839e+04 [K]
    Ewald self/kʙ               -5.290557e+06 [K]
    Ewald exclusion/kʙ           5.255974e+06 [K]
    intra VDW/kʙ                 0.000000e+00 [K]
    intra Coulombic/kʙ           0.000000e+00 [K]
    polarization/kʙ              0.000000e+00 [K]
    dU/dlambda VDW/kʙ            0.000000e+00 [K]
    dU/dlambda Real/kʙ           0.000000e+00 [K]
    dU/dlambda Ewald/kʙ          0.000000e+00 [K]


Initialization: Current cycle: 200 out of 2000
===============================================================================

Box:      29.18161   0.00000   0.00000
           0.00000  29.18161   0.00000
           0.00000   0.00000  29.18161
Lengths:  29.18161  29.18161  29.18161
Angles:   90.00000  90.00000  90.00000
Rectangular boundary conditions

net charge:   0.00000000

component   0 (CO2) lambda:  0 occupancy:  0 (0.000000)
    net charge:   0.00000000 [e]

Amount of molecules per component :
-------------------------------------------------------------------------------
Component 0 (CO2)
    molecules:         2.320000e+02 molecules
    number density:    9.335989e-03 molec/A^3
    density:           6.821033e+02 kg/m^3

Total potential energy/kʙ       -2.471762e+05 [K]
-------------------------------------------------------------------------------
    external field VDW/kʙ        0.000000e+00 [K]
    external field Real/kʙ       0.000000e+00 [K]
    framework-molecule VDW/kʙ    0.000000e+00 [K]
    framework-molecule Real/kʙ   0.000000e+00 [K]
    molecule-molecule VDW/kʙ    -1.752522e+05 [K]
    molecule-molecule Real/kʙ   -5.206031e+04 [K]
    Van der Waals (Tail)/kʙ     -6.949555e+03 [K]
    Ewald Fourier/kʙ             2.079751e+04 [K]
    Ewald self/kʙ               -5.157182e+06 [K]
    Ewald exclusion/kʙ           5.123470e+06 [K]
    intra VDW/kʙ                 0.000000e+00 [K]
    intra Coulombic/kʙ           0.000000e+00 [K]
    polarization/kʙ              0.000000e+00 [K]
    dU/dlambda VDW/kʙ            0.000000e+00 [K]
    dU/dlambda Real/kʙ           0.000000e+00 [K]
    dU/dlambda Ewald/kʙ          0.000000e+00 [K]


Initialization: Current cycle: 300 out of 2000
===============================================================================

Box:      28.33771   0.00000   0.00000
           0.00000  28.33771   0.00000
           0.00000   0.00000  28.33771
Lengths:  28.33771  28.33771  28.33771
Angles:   90.00000  90.00000  90.00000
Rectangular boundary conditions

net charge:   0.00000000

component   0 (CO2) lambda:  0 occupancy:  0 (0.000000)
    net charge:   0.00000000 [e]

Amount of molecules per component :
-------------------------------------------------------------------------------
Component 0 (CO2)
    molecules:         2.410000e+02 molecules
    number density:    1.059066e-02 molec/A^3
    density:           7.737716e+02 kg/m^3

Total potential energy/kʙ       -2.730106e+05 [K]
-------------------------------------------------------------------------------
    external field VDW/kʙ        0.000000e+00 [K]
    external field Real/kʙ       0.000000e+00 [K]
    framework-molecule VDW/kʙ    0.000000e+00 [K]
    framework-molecule Real/kʙ   0.000000e+00 [K]
    molecule-molecule VDW/kʙ    -2.017431e+05 [K]
    molecule-molecule Real/kʙ   -4.912905e+04 [K]
    Van der Waals (Tail)/kʙ     -8.189336e+03 [K]
    Ewald Fourier/kʙ             2.107029e+04 [K]
    Ewald self/kʙ               -5.357245e+06 [K]
    Ewald exclusion/kʙ           5.322226e+06 [K]
    intra VDW/kʙ                 0.000000e+00 [K]
    intra Coulombic/kʙ           0.000000e+00 [K]
    polarization/kʙ              0.000000e+00 [K]
    dU/dlambda VDW/kʙ            0.000000e+00 [K]
    dU/dlambda Real/kʙ           0.000000e+00 [K]
    dU/dlambda Ewald/kʙ          0.000000e+00 [K]


Initialization: Current cycle: 400 out of 2000
===============================================================================

Box:      28.25712   0.00000   0.00000
           0.00000  28.25712   0.00000
           0.00000   0.00000  28.25712
Lengths:  28.25712  28.25712  28.25712
Angles:   90.00000  90.00000  90.00000
Rectangular boundary conditions

net charge:   0.00000000

component   0 (CO2) lambda:  0 occupancy:  0 (0.000000)
    net charge:   0.00000000 [e]

Amount of molecules per component :
-------------------------------------------------------------------------------
Component 0 (CO2)
    molecules:         2.350000e+02 molecules
    number density:    1.041560e-02 molec/A^3
    density:           7.609817e+02 kg/m^3

Total potential energy/kʙ       -2.579485e+05 [K]
-------------------------------------------------------------------------------
    external field VDW/kʙ        0.000000e+00 [K]
    external field Real/kʙ       0.000000e+00 [K]
    framework-molecule VDW/kʙ    0.000000e+00 [K]
    framework-molecule Real/kʙ   0.000000e+00 [K]
    molecule-molecule VDW/kʙ    -1.858811e+05 [K]
    molecule-molecule Real/kʙ   -4.993036e+04 [K]
    Van der Waals (Tail)/kʙ     -7.853457e+03 [K]
    Ewald Fourier/kʙ             1.986392e+04 [K]
    Ewald self/kʙ               -5.223870e+06 [K]
    Ewald exclusion/kʙ           5.189722e+06 [K]
    intra VDW/kʙ                 0.000000e+00 [K]
    intra Coulombic/kʙ           0.000000e+00 [K]
    polarization/kʙ              0.000000e+00 [K]
    dU/dlambda VDW/kʙ            0.000000e+00 [K]
    dU/dlambda Real/kʙ           0.000000e+00 [K]
    dU/dlambda Ewald/kʙ          0.000000e+00 [K]


Initialization: Current cycle: 500 out of 2000
===============================================================================

Box:      27.51482   0.00000   0.00000
           0.00000  27.51482   0.00000
           0.00000   0.00000  27.51482
Lengths:  27.51482  27.51482  27.51482
Angles:   90.00000  90.00000  90.00000
Rectangular boundary conditions

net charge:   0.00000000

component   0 (CO2) lambda:  0 occupancy:  0 (0.000000)
    net charge:   0.00000000 [e]

Amount of molecules per component :
-------------------------------------------------------------------------------
Component 0 (CO2)
    molecules:         2.310000e+02 molecules
    number density:    1.108950e-02 molec/A^3
    density:           8.102179e+02 kg/m^3

Total potential energy/kʙ       -2.742541e+05 [K]
-------------------------------------------------------------------------------
    external field VDW/kʙ        0.000000e+00 [K]
    external field Real/kʙ       0.000000e+00 [K]
    framework-molecule VDW/kʙ    0.000000e+00 [K]
    framework-molecule Real/kʙ   0.000000e+00 [K]
    molecule-molecule VDW/kʙ    -2.036233e+05 [K]
    molecule-molecule Real/kʙ   -4.897978e+04 [K]
    Van der Waals (Tail)/kʙ     -8.219258e+03 [K]
    Ewald Fourier/kʙ             2.013453e+04 [K]
    Ewald self/kʙ               -5.134953e+06 [K]
    Ewald exclusion/kʙ           5.101386e+06 [K]
    intra VDW/kʙ                 0.000000e+00 [K]
    intra Coulombic/kʙ           0.000000e+00 [K]
    polarization/kʙ              0.000000e+00 [K]
    dU/dlambda VDW/kʙ            0.000000e+00 [K]
    dU/dlambda Real/kʙ           0.000000e+00 [K]
    dU/dlambda Ewald/kʙ          0.000000e+00 [K]


Initialization: Current cycle: 600 out of 2000
===============================================================================

Box:      26.39810   0.00000   0.00000
           0.00000  26.39810   0.00000
           0.00000   0.00000  26.39810
Lengths:  26.39810  26.39810  26.39810
Angles:   90.00000  90.00000  90.00000
Rectangular boundary conditions

net charge:   0.00000000

component   0 (CO2) lambda:  0 occupancy:  0 (0.000000)
    net charge:   0.00000000 [e]

Amount of molecules per component :
-------------------------------------------------------------------------------
Component 0 (CO2)
    molecules:         2.330000e+02 molecules
    number density:    1.266596e-02 molec/A^3
    density:           9.253964e+02 kg/m^3

Total potential energy/kʙ       -2.969999e+05 [K]
-------------------------------------------------------------------------------
    external field VDW/kʙ        0.000000e+00 [K]
    external field Real/kʙ       0.000000e+00 [K]
    framework-molecule VDW/kʙ    0.000000e+00 [K]
    framework-molecule Real/kʙ   0.000000e+00 [K]
    molecule-molecule VDW/kʙ    -2.205081e+05 [K]
    molecule-molecule Real/kʙ   -5.308021e+04 [K]
    Van der Waals (Tail)/kʙ     -9.468966e+03 [K]
    Ewald Fourier/kʙ             1.991430e+04 [K]
    Ewald self/kʙ               -5.179411e+06 [K]
    Ewald exclusion/kʙ           5.145554e+06 [K]
    intra VDW/kʙ                 0.000000e+00 [K]
    intra Coulombic/kʙ           0.000000e+00 [K]
    polarization/kʙ              0.000000e+00 [K]
    dU/dlambda VDW/kʙ            0.000000e+00 [K]
    dU/dlambda Real/kʙ           0.000000e+00 [K]
    dU/dlambda Ewald/kʙ          0.000000e+00 [K]


Initialization: Current cycle: 700 out of 2000
===============================================================================

Box:      26.12538   0.00000   0.00000
           0.00000  26.12538   0.00000
           0.00000   0.00000  26.12538
Lengths:  26.12538  26.12538  26.12538
Angles:   90.00000  90.00000  90.00000
Rectangular boundary conditions

net charge:   0.00000000

component   0 (CO2) lambda:  0 occupancy:  0 (0.000000)
    net charge:   0.00000000 [e]

Amount of molecules per component :
-------------------------------------------------------------------------------
Component 0 (CO2)
    molecules:         2.410000e+02 molecules
    number density:    1.351541e-02 molec/A^3
    density:           9.874588e+02 kg/m^3

Total potential energy/kʙ       -3.297806e+05 [K]
-------------------------------------------------------------------------------
    external field VDW/kʙ        0.000000e+00 [K]
    external field Real/kʙ       0.000000e+00 [K]
    framework-molecule VDW/kʙ    0.000000e+00 [K]
    framework-molecule Real/kʙ   0.000000e+00 [K]
    molecule-molecule VDW/kʙ    -2.346593e+05 [K]
    molecule-molecule Real/kʙ   -6.717440e+04 [K]
    Van der Waals (Tail)/kʙ     -1.045093e+04 [K]
    Ewald Fourier/kʙ             1.752345e+04 [K]
    Ewald self/kʙ               -5.357245e+06 [K]
    Ewald exclusion/kʙ           5.322226e+06 [K]
    intra VDW/kʙ                 0.000000e+00 [K]
    intra Coulombic/kʙ           0.000000e+00 [K]
    polarization/kʙ              0.000000e+00 [K]
    dU/dlambda VDW/kʙ            0.000000e+00 [K]
    dU/dlambda Real/kʙ           0.000000e+00 [K]
    dU/dlambda Ewald/kʙ          0.000000e+00 [K]


Initialization: Current cycle: 800 out of 2000
===============================================================================

Box:      25.49933   0.00000   0.00000
           0.00000  25.49933   0.00000
           0.00000   0.00000  25.49933
Lengths:  25.49933  25.49933  25.49933
Angles:   90.00000  90.00000  90.00000
Rectangular boundary conditions

net charge:   0.00000000

component   0 (CO2) lambda:  0 occupancy:  0 (0.000000)
    net charge:   0.00000000 [e]

Amount of molecules per component :
-------------------------------------------------------------------------------
Component 0 (CO2)
    molecules:         2.340000e+02 molecules
    number density:    1.411333e-02 molec/A^3
    density:           1.031144e+03 kg/m^3

Total potential energy/kʙ       -3.419799e+05 [K]
-------------------------------------------------------------------------------
    external field VDW/kʙ        0.000000e+00 [K]
    external field Real/kʙ       0.000000e+00 [K]
    framework-molecule VDW/kʙ    0.000000e+00 [K]
    framework-molecule Real/kʙ   0.000000e+00 [K]
    molecule-molecule VDW/kʙ    -2.472023e+05 [K]
    molecule-molecule Real/kʙ   -6.677683e+04 [K]
    Van der Waals (Tail)/kʙ     -1.059630e+04 [K]
    Ewald Fourier/kʙ             1.659774e+04 [K]
    Ewald self/kʙ               -5.201640e+06 [K]
    Ewald exclusion/kʙ           5.167638e+06 [K]
    intra VDW/kʙ                 0.000000e+00 [K]
    intra Coulombic/kʙ           0.000000e+00 [K]
    polarization/kʙ              0.000000e+00 [K]
    dU/dlambda VDW/kʙ            0.000000e+00 [K]
    dU/dlambda Real/kʙ           0.000000e+00 [K]
    dU/dlambda Ewald/kʙ          0.000000e+00 [K]


Initialization: Current cycle: 900 out of 2000
===============================================================================

Box:      25.11607   0.00000   0.00000
           0.00000  25.11607   0.00000
           0.00000   0.00000  25.11607
Lengths:  25.11607  25.11607  25.11607
Angles:   90.00000  90.00000  90.00000
Rectangular boundary conditions

net charge:   0.00000000

component   0 (CO2) lambda:  0 occupancy:  0 (0.000000)
    net charge:   0.00000000 [e]

Amount of molecules per component :
-------------------------------------------------------------------------------
Component 0 (CO2)
    molecules:         2.180000e+02 molecules
    number density:    1.375946e-02 molec/A^3
    density:           1.005290e+03 kg/m^3

Total potential energy/kʙ       -3.124257e+05 [K]
-------------------------------------------------------------------------------
    external field VDW/kʙ        0.000000e+00 [K]
    external field Real/kʙ       0.000000e+00 [K]
    framework-molecule VDW/kʙ    0.000000e+00 [K]
    framework-molecule Real/kʙ   0.000000e+00 [K]
    molecule-molecule VDW/kʙ    -2.137747e+05 [K]
    molecule-molecule Real/kʙ   -7.204994e+04 [K]
    Van der Waals (Tail)/kʙ     -9.624244e+03 [K]
    Ewald Fourier/kʙ             1.470052e+04 [K]
    Ewald self/kʙ               -4.845973e+06 [K]
    Ewald exclusion/kʙ           4.814295e+06 [K]
    intra VDW/kʙ                 0.000000e+00 [K]
    intra Coulombic/kʙ           0.000000e+00 [K]
    polarization/kʙ              0.000000e+00 [K]
    dU/dlambda VDW/kʙ            0.000000e+00 [K]
    dU/dlambda Real/kʙ           0.000000e+00 [K]
    dU/dlambda Ewald/kʙ          0.000000e+00 [K]


Initialization: Current cycle: 1000 out of 2000
===============================================================================

Box:      25.04202   0.00000   0.00000
           0.00000  25.04202   0.00000
           0.00000   0.00000  25.04202
Lengths:  25.04202  25.04202  25.04202
Angles:   90.00000  90.00000  90.00000
Rectangular boundary conditions

net charge:   0.00000000

component   0 (CO2) lambda:  0 occupancy:  0 (0.000000)
    net charge:   0.00000000 [e]

Amount of molecules per component :
-------------------------------------------------------------------------------
Component 0 (CO2)
    molecules:         2.250000e+02 molecules
    number density:    1.432764e-02 molec/A^3
    density:           1.046802e+03 kg/m^3

Total potential energy/kʙ       -3.362407e+05 [K]
-------------------------------------------------------------------------------
    external field VDW/kʙ        0.000000e+00 [K]
    external field Real/kʙ       0.000000e+00 [K]
    framework-molecule VDW/kʙ    0.000000e+00 [K]
    framework-molecule Real/kʙ   0.000000e+00 [K]
    molecule-molecule VDW/kʙ    -2.411798e+05 [K]
    molecule-molecule Real/kʙ   -6.763078e+04 [K]
    Van der Waals (Tail)/kʙ     -1.034346e+04 [K]
    Ewald Fourier/kʙ             1.560779e+04 [K]
    Ewald self/kʙ               -5.001577e+06 [K]
    Ewald exclusion/kʙ           4.968883e+06 [K]
    intra VDW/kʙ                 0.000000e+00 [K]
    intra Coulombic/kʙ           0.000000e+00 [K]
    polarization/kʙ              0.000000e+00 [K]
    dU/dlambda VDW/kʙ            0.000000e+00 [K]
    dU/dlambda Real/kʙ           0.000000e+00 [K]
    dU/dlambda Ewald/kʙ          0.000000e+00 [K]


Initialization: Current cycle: 1100 out of 2000
===============================================================================

Box:      25.23805   0.00000   0.00000
           0.00000  25.23805   0.00000
           0.00000   0.00000  25.23805
Lengths:  25.23805  25.23805  25.23805
Angles:   90.00000  90.00000  90.00000
Rectangular boundary conditions

net charge:   0.00000000

component   0 (CO2) lambda:  0 occupancy:  0 (0.000000)
    net charge:   0.00000000 [e]

Amount of molecules per component :
-------------------------------------------------------------------------------
Component 0 (CO2)
    molecules:         2.200000e+02 molecules
    number density:    1.368534e-02 molec/A^3
    density:           9.998740e+02 kg/m^3

Total potential energy/kʙ       -3.110959e+05 [K]
-------------------------------------------------------------------------------
    external field VDW/kʙ        0.000000e+00 [K]
    external field Real/kʙ       0.000000e+00 [K]
    framework-molecule VDW/kʙ    0.000000e+00 [K]
    framework-molecule Real/kʙ   0.000000e+00 [K]
    molecule-molecule VDW/kʙ    -2.236742e+05 [K]
    molecule-molecule Real/kʙ   -6.205820e+04 [K]
    Van der Waals (Tail)/kʙ     -9.660215e+03 [K]
    Ewald Fourier/kʙ             1.626460e+04 [K]
    Ewald self/kʙ               -4.890431e+06 [K]
    Ewald exclusion/kʙ           4.858463e+06 [K]
    intra VDW/kʙ                 0.000000e+00 [K]
    intra Coulombic/kʙ           0.000000e+00 [K]
    polarization/kʙ              0.000000e+00 [K]
    dU/dlambda VDW/kʙ            0.000000e+00 [K]
    dU/dlambda Real/kʙ           0.000000e+00 [K]
    dU/dlambda Ewald/kʙ          0.000000e+00 [K]


Initialization: Current cycle: 1200 out of 2000
===============================================================================

Box:      24.76061   0.00000   0.00000
           0.00000  24.76061   0.00000
           0.00000   0.00000  24.76061
Lengths:  24.76061  24.76061  24.76061
Angles:   90.00000  90.00000  90.00000
Rectangular boundary conditions

net charge:   0.00000000

component   0 (CO2) lambda:  0 occupancy:  0 (0.000000)
    net charge:   0.00000000 [e]

Amount of molecules per component :
-------------------------------------------------------------------------------
Component 0 (CO2)
    molecules:         2.230000e+02 molecules
    number density:    1.468997e-02 molec/A^3
    density:           1.073274e+03 kg/m^3

Total potential energy/kʙ       -3.393738e+05 [K]
-------------------------------------------------------------------------------
    external field VDW/kʙ        0.000000e+00 [K]
    external field Real/kʙ       0.000000e+00 [K]
    framework-molecule VDW/kʙ    0.000000e+00 [K]
    framework-molecule Real/kʙ   0.000000e+00 [K]
    molecule-molecule VDW/kʙ    -2.434527e+05 [K]
    molecule-molecule Real/kʙ   -6.911901e+04 [K]
    Van der Waals (Tail)/kʙ     -1.051077e+04 [K]
    Ewald Fourier/kʙ             1.611248e+04 [K]
    Ewald self/kʙ               -4.957119e+06 [K]
    Ewald exclusion/kʙ           4.924715e+06 [K]
    intra VDW/kʙ                 0.000000e+00 [K]
    intra Coulombic/kʙ           0.000000e+00 [K]
    polarization/kʙ              0.000000e+00 [K]
    dU/dlambda VDW/kʙ            0.000000e+00 [K]
    dU/dlambda Real/kʙ           0.000000e+00 [K]
    dU/dlambda Ewald/kʙ          0.000000e+00 [K]


Initialization: Current cycle: 1300 out of 2000
===============================================================================

Box:      24.75011   0.00000   0.00000
           0.00000  24.75011   0.00000
           0.00000   0.00000  24.75011
Lengths:  24.75011  24.75011  24.75011
Angles:   90.00000  90.00000  90.00000
Rectangular boundary conditions

net charge:   0.00000000

component   0 (CO2) lambda:  0 occupancy:  0 (0.000000)
    net charge:   0.00000000 [e]

Amount of molecules per component :
-------------------------------------------------------------------------------
Component 0 (CO2)
    molecules:         2.180000e+02 molecules
    number density:    1.437889e-02 molec/A^3
    density:           1.050546e+03 kg/m^3

Total potential energy/kʙ       -3.287870e+05 [K]
-------------------------------------------------------------------------------
    external field VDW/kʙ        0.000000e+00 [K]
    external field Real/kʙ       0.000000e+00 [K]
    framework-molecule VDW/kʙ    0.000000e+00 [K]
    framework-molecule Real/kʙ   0.000000e+00 [K]
    molecule-molecule VDW/kʙ    -2.326317e+05 [K]
    molecule-molecule Real/kʙ   -6.791410e+04 [K]
    Van der Waals (Tail)/kʙ     -1.005751e+04 [K]
    Ewald Fourier/kʙ             1.349358e+04 [K]
    Ewald self/kʙ               -4.845973e+06 [K]
    Ewald exclusion/kʙ           4.814295e+06 [K]
    intra VDW/kʙ                 0.000000e+00 [K]
    intra Coulombic/kʙ           0.000000e+00 [K]
    polarization/kʙ              0.000000e+00 [K]
    dU/dlambda VDW/kʙ            0.000000e+00 [K]
    dU/dlambda Real/kʙ           0.000000e+00 [K]
    dU/dlambda Ewald/kʙ          0.000000e+00 [K]


Initialization: Current cycle: 1400 out of 2000
===============================================================================

Box:      24.86390   0.00000   0.00000
           0.00000  24.86390   0.00000
           0.00000   0.00000  24.86390
Lengths:  24.86390  24.86390  24.86390
Angles:   90.00000  90.00000  90.00000
Rectangular boundary conditions

net charge:   0.00000000

component   0 (CO2) lambda:  0 occupancy:  0 (0.000000)
    net charge:   0.00000000 [e]

Amount of molecules per component :
-------------------------------------------------------------------------------
Component 0 (CO2)
    molecules:         2.210000e+02 molecules
    number density:    1.437754e-02 molec/A^3
    density:           1.050448e+03 kg/m^3

Total potential energy/kʙ       -3.294726e+05 [K]
-------------------------------------------------------------------------------
    external field VDW/kʙ        0.000000e+00 [K]
    external field Real/kʙ       0.000000e+00 [K]
    framework-molecule VDW/kʙ    0.000000e+00 [K]
    framework-molecule Real/kʙ   0.000000e+00 [K]
    molecule-molecule VDW/kʙ    -2.319273e+05 [K]
    molecule-molecule Real/kʙ   -6.954249e+04 [K]
    Van der Waals (Tail)/kʙ     -1.019496e+04 [K]
    Ewald Fourier/kʙ             1.430525e+04 [K]
    Ewald self/kʙ               -4.912660e+06 [K]
    Ewald exclusion/kʙ           4.880547e+06 [K]
    intra VDW/kʙ                 0.000000e+00 [K]
    intra Coulombic/kʙ           0.000000e+00 [K]
    polarization/kʙ              0.000000e+00 [K]
    dU/dlambda VDW/kʙ            0.000000e+00 [K]
    dU/dlambda Real/kʙ           0.000000e+00 [K]
    dU/dlambda Ewald/kʙ          0.000000e+00 [K]


Initialization: Current cycle: 1500 out of 2000
===============================================================================

Box:      24.94153   0.00000   0.00000
           0.00000  24.94153   0.00000
           0.00000   0.00000  24.94153
Lengths:  24.94153  24.94153  24.94153
Angles:   90.00000  90.00000  90.00000
Rectangular boundary conditions

net charge:   0.00000000

component   0 (CO2) lambda:  0 occupancy:  0 (0.000000)
    net charge:   0.00000000 [e]

Amount of molecules per component :
-------------------------------------------------------------------------------
Component 0 (CO2)
    molecules:         2.240000e+02 molecules
    number density:    1.443706e-02 molec/A^3
    density:           1.054797e+03 kg/m^3

Total potential energy/kʙ       -3.366700e+05 [K]
-------------------------------------------------------------------------------
    external field VDW/kʙ        0.000000e+00 [K]
    external field Real/kʙ       0.000000e+00 [K]
    framework-molecule VDW/kʙ    0.000000e+00 [K]
    framework-molecule Real/kʙ   0.000000e+00 [K]
    molecule-molecule VDW/kʙ    -2.345352e+05 [K]
    molecule-molecule Real/kʙ   -7.365962e+04 [K]
    Van der Waals (Tail)/kʙ     -1.037613e+04 [K]
    Ewald Fourier/kʙ             1.445001e+04 [K]
    Ewald self/kʙ               -4.979348e+06 [K]
    Ewald exclusion/kʙ           4.946799e+06 [K]
    intra VDW/kʙ                 0.000000e+00 [K]
    intra Coulombic/kʙ           0.000000e+00 [K]
    polarization/kʙ              0.000000e+00 [K]
    dU/dlambda VDW/kʙ            0.000000e+00 [K]
    dU/dlambda Real/kʙ           0.000000e+00 [K]
    dU/dlambda Ewald/kʙ          0.000000e+00 [K]


Initialization: Current cycle: 1600 out of 2000
===============================================================================

Box:      24.56170   0.00000   0.00000
           0.00000  24.56170   0.00000
           0.00000   0.00000  24.56170
Lengths:  24.56170  24.56170  24.56170
Angles:   90.00000  90.00000  90.00000
Rectangular boundary conditions

net charge:   0.00000000

component   0 (CO2) lambda:  0 occupancy:  0 (0.000000)
    net charge:   0.00000000 [e]

Amount of molecules per component :
-------------------------------------------------------------------------------
Component 0 (CO2)
    molecules:         2.110000e+02 molecules
    number density:    1.423990e-02 molec/A^3
    density:           1.040391e+03 kg/m^3

Total potential energy/kʙ       -3.093322e+05 [K]
-------------------------------------------------------------------------------
    external field VDW/kʙ        0.000000e+00 [K]
    external field Real/kʙ       0.000000e+00 [K]
    framework-molecule VDW/kʙ    0.000000e+00 [K]
    framework-molecule Real/kʙ   0.000000e+00 [K]
    molecule-molecule VDW/kʙ    -2.119982e+05 [K]
    molecule-molecule Real/kʙ   -7.138708e+04 [K]
    Van der Waals (Tail)/kʙ     -9.640467e+03 [K]
    Ewald Fourier/kʙ             1.435362e+04 [K]
    Ewald self/kʙ               -4.690368e+06 [K]
    Ewald exclusion/kʙ           4.659708e+06 [K]
    intra VDW/kʙ                 0.000000e+00 [K]
    intra Coulombic/kʙ           0.000000e+00 [K]
    polarization/kʙ              0.000000e+00 [K]
    dU/dlambda VDW/kʙ            0.000000e+00 [K]
    dU/dlambda Real/kʙ           0.000000e+00 [K]
    dU/dlambda Ewald/kʙ          0.000000e+00 [K]


Initialization: Current cycle: 1700 out of 2000
===============================================================================

Box:      24.67361   0.00000   0.00000
           0.00000  24.67361   0.00000
           0.00000   0.00000  24.67361
Lengths:  24.67361  24.67361  24.67361
Angles:   90.00000  90.00000  90.00000
Rectangular boundary conditions

net charge:   0.00000000

component   0 (CO2) lambda:  0 occupancy:  0 (0.000000)
    net charge:   0.00000000 [e]

Amount of molecules per component :
-------------------------------------------------------------------------------
Component 0 (CO2)
    molecules:         2.160000e+02 molecules
    number density:    1.437990e-02 molec/A^3
    density:           1.050620e+03 kg/m^3

Total potential energy/kʙ       -3.294568e+05 [K]
-------------------------------------------------------------------------------
    external field VDW/kʙ        0.000000e+00 [K]
    external field Real/kʙ       0.000000e+00 [K]
    framework-molecule VDW/kʙ    0.000000e+00 [K]
    framework-molecule Real/kʙ   0.000000e+00 [K]
    molecule-molecule VDW/kʙ    -2.324924e+05 [K]
    molecule-molecule Real/kʙ   -7.099544e+04 [K]
    Van der Waals (Tail)/kʙ     -9.965940e+03 [K]
    Ewald Fourier/kʙ             1.538368e+04 [K]
    Ewald self/kʙ               -4.801514e+06 [K]
    Ewald exclusion/kʙ           4.770128e+06 [K]
    intra VDW/kʙ                 0.000000e+00 [K]
    intra Coulombic/kʙ           0.000000e+00 [K]
    polarization/kʙ              0.000000e+00 [K]
    dU/dlambda VDW/kʙ            0.000000e+00 [K]
    dU/dlambda Real/kʙ           0.000000e+00 [K]
    dU/dlambda Ewald/kʙ          0.000000e+00 [K]


Initialization: Current cycle: 1800 out of 2000
===============================================================================

Box:      24.74385   0.00000   0.00000
           0.00000  24.74385   0.00000
           0.00000   0.00000  24.74385
Lengths:  24.74385  24.74385  24.74385
Angles:   90.00000  90.00000  90.00000
Rectangular boundary conditions

net charge:   0.00000000

component   0 (CO2) lambda:  0 occupancy:  0 (0.000000)
    net charge:   0.00000000 [e]

Amount of molecules per component :
-------------------------------------------------------------------------------
Component 0 (CO2)
    molecules:         2.260000e+02 molecules
    number density:    1.491786e-02 molec/A^3
    density:           1.089925e+03 kg/m^3

Total potential energy/kʙ       -3.603986e+05 [K]
-------------------------------------------------------------------------------
    external field VDW/kʙ        0.000000e+00 [K]
    external field Real/kʙ       0.000000e+00 [K]
    framework-molecule VDW/kʙ    0.000000e+00 [K]
    framework-molecule Real/kʙ   0.000000e+00 [K]
    molecule-molecule VDW/kʙ    -2.533724e+05 [K]
    molecule-molecule Real/kʙ   -7.838685e+04 [K]
    Van der Waals (Tail)/kʙ     -1.081742e+04 [K]
    Ewald Fourier/kʙ             1.501783e+04 [K]
    Ewald self/kʙ               -5.023806e+06 [K]
    Ewald exclusion/kʙ           4.990967e+06 [K]
    intra VDW/kʙ                 0.000000e+00 [K]
    intra Coulombic/kʙ           0.000000e+00 [K]
    polarization/kʙ              0.000000e+00 [K]
    dU/dlambda VDW/kʙ            0.000000e+00 [K]
    dU/dlambda Real/kʙ           0.000000e+00 [K]
    dU/dlambda Ewald/kʙ          0.000000e+00 [K]


Initialization: Current cycle: 1900 out of 2000
===============================================================================

Box:      24.96211   0.00000   0.00000
           0.00000  24.96211   0.00000
           0.00000   0.00000  24.96211
Lengths:  24.96211  24.96211  24.96211
Angles:   90.00000  90.00000  90.00000
Rectangular boundary conditions

net charge:   0.00000000

component   0 (CO2) lambda:  0 occupancy:  0 (0.000000)
    net charge:   0.00000000 [e]

Amount of molecules per component :
-------------------------------------------------------------------------------
Component 0 (CO2)
    molecules:         2.160000e+02 molecules
    number density:    1.388704e-02 molec/A^3
    density:           1.014611e+03 kg/m^3

Total potential energy/kʙ       -3.158561e+05 [K]
-------------------------------------------------------------------------------
    external field VDW/kʙ        0.000000e+00 [K]
    external field Real/kʙ       0.000000e+00 [K]
    framework-molecule VDW/kʙ    0.000000e+00 [K]
    framework-molecule Real/kʙ   0.000000e+00 [K]
    molecule-molecule VDW/kʙ    -2.258007e+05 [K]
    molecule-molecule Real/kʙ   -6.439574e+04 [K]
    Van der Waals (Tail)/kʙ     -9.624366e+03 [K]
    Ewald Fourier/kʙ             1.535135e+04 [K]
    Ewald self/kʙ               -4.801514e+06 [K]
    Ewald exclusion/kʙ           4.770128e+06 [K]
    intra VDW/kʙ                 0.000000e+00 [K]
    intra Coulombic/kʙ           0.000000e+00 [K]
    polarization/kʙ              0.000000e+00 [K]
    dU/dlambda VDW/kʙ            0.000000e+00 [K]
    dU/dlambda Real/kʙ           0.000000e+00 [K]
    dU/dlambda Ewald/kʙ          0.000000e+00 [K]


Current cycle: 0 out of 6000
===============================================================================

Box:      24.98558   0.00000   0.00000  Average:  24.98558   0.00000   0.00000
           0.00000  24.98558   0.00000             0.00000  24.98558   0.00000
           0.00000   0.00000  24.98558             0.00000   0.00000  24.98558
Lengths:  24.98558  24.98558  24.98558  Average:  24.98558  24.98558  24.98558
Angles:   90.00000  90.00000  90.00000  Average:  90.00000  90.00000  90.00000
Rectangular boundary conditions

net charge:   0.00000000

component 0 (CO2) lambda:  0 occupancy:  0 (0.000000)
    net charge:   0.00000000 [e]

Amount of molecules per component :
-------------------------------------------------------------------------------
Component 0 (CO2)
    molecules:      2.170000e+02 molecules  (2.170000e+02 +/- 0.000000e+00)
    number density: 1.391206e-02 molec./A^3 (1.391206e-02 +/- 0.000000e+00)
    density:        1.016439e+03 kg/m^3     (1.016439e+03 +/- 0.000000e+00)

Average pressure tensor: 
-------------------------------------------------------------------------------
 4.9940e+02  0.0000e+00  0.0000e+00 +/- 0.0000e+00 0.0000e+00 0.0000e+00 [bar]
 0.0000e+00  4.9940e+02  0.0000e+00 +/- 0.0000e+00 0.0000e+00 0.0000e+00 [bar]
 0.0000e+00  0.0000e+00  4.9940e+02 +/- 0.0000e+00 0.0000e+00 0.0000e+00 [bar]
Ideal-gas pressure:   4.993998e+02 +/ 0.000000e+00 [bar]
Excess pressure:      0.000000e+00 +/ 0.000000e+00 [bar]
Pressure:             4.993998e+02 +/ 0.000000e+00 [bar]

Total potential energy/kʙ  -3.090840e+05 (-3.090840e+05 +/- 0.000000e+00) [K]
-------------------------------------------------------------------------------
ExternalField-molecule
    Van der Waals/kʙ        0.000000e+00 ( 0.000000e+00 +/- 0.000000e+00) [K]
Framework-molecule
    Van der Waals/kʙ        0.000000e+00 ( 0.000000e+00 +/- 0.000000e+00) [K]
    Van der Waals (Tail)/kʙ 0.000000e+00 ( 0.000000e+00 +/- 0.000000e+00) [K]
    Coulombic Real/kʙ       0.000000e+00 ( 0.000000e+00 +/- 0.000000e+00) [K]
    Coulombic Fourier/kʙ    0.000000e+00 ( 0.000000e+00 +/- 0.000000e+00) [K]
Molecule-molecule
    Van der Waals/kʙ       -2.256124e+05 (-2.256124e+05 +/- 0.000000e+00) [K]
    Van der Waals (Tail)/kʙ-9.686340e+03 (-9.686340e+03 +/- 0.000000e+00) [K]
    Coulombic Real/kʙ      -5.791093e+04 (-5.791093e+04 +/- 0.000000e+00) [K]
    Coulombic Fourier/kʙ   -1.587430e+04 (-1.587430e+04 +/- 0.000000e+00) [K]
    Molecule Intra/kʙ       0.000000e+00 ( 0.000000e+00 +/- 0.000000e+00) [K]

Current cycle: 100 out of 6000
===============================================================================

Box:      25.20239   0.00000   0.00000  Average:  25.16169   0.00000   0.00000
           0.00000  25.20239   0.00000             0.00000  25.16169   0.00000
           0.00000   0.00000  25.20239             0.00000   0.00000  25.16169
Lengths:  25.20239  25.20239  25.20239  Average:  25.16169  25.16169  25.16169
Angles:   90.00000  90.00000  90.00000  Average:  90.00000  90.00000  90.00000
Rectangular boundary conditions

net charge:   0.00000000

component 0 (CO2) lambda:  0 occupancy:  0 (0.000000)
    net charge:   0.00000000 [e]

Amount of molecules per component :
-------------------------------------------------------------------------------
Component 0 (CO2)
    molecules:      2.290000e+02 molecules  (2.212673e+02 +/- 0.000000e+00)
    number density: 1.430573e-02 molec./A^3 (1.389031e-02 +/- 0.000000e+00)
    density:        1.045201e+03 kg/m^3     (1.014850e+03 +/- 0.000000e+00)

Average pressure tensor: 
-------------------------------------------------------------------------------
 7.6998e+01 -8.4433e+01 -3.1311e+01 +/- 0.0000e+00 0.0000e+00 0.0000e+00 [bar]
-8.4433e+01  6.4185e+01  9.7927e+01 +/- 0.0000e+00 0.0000e+00 0.0000e+00 [bar]
-3.1311e+01  9.7927e+01  1.5940e+02 +/- 0.0000e+00 0.0000e+00 0.0000e+00 [bar]
Ideal-gas pressure:   4.986191e+02 +/ 0.000000e+00 [bar]
Excess pressure:     -3.984262e+02 +/ 0.000000e+00 [bar]
Pressure:             1.001929e+02 +/ 0.000000e+00 [bar]

Total potential energy/kʙ  -3.429799e+05 (-3.188463e+05 +/- 0.000000e+00) [K]
-------------------------------------------------------------------------------
ExternalField-molecule
    Van der Waals/kʙ        0.000000e+00 ( 0.000000e+00 +/- 0.000000e+00) [K]
Framework-molecule
    Van der Waals/kʙ        0.000000e+00 ( 0.000000e+00 +/- 0.000000e+00) [K]
    Van der Waals (Tail)/kʙ 0.000000e+00 ( 0.000000e+00 +/- 0.000000e+00) [K]
    Coulombic Real/kʙ       0.000000e+00 ( 0.000000e+00 +/- 0.000000e+00) [K]
    Coulombic Fourier/kʙ    0.000000e+00 ( 0.000000e+00 +/- 0.000000e+00) [K]
Molecule-molecule
    Van der Waals/kʙ       -2.463849e+05 (-2.304608e+05 +/- 0.000000e+00) [K]
    Van der Waals (Tail)/kʙ-1.051125e+04 (-9.874536e+03 +/- 0.000000e+00) [K]
    Coulombic Real/kʙ      -6.959536e+04 (-6.235449e+04 +/- 0.000000e+00) [K]
    Coulombic Fourier/kʙ   -1.648838e+04 (-1.615649e+04 +/- 0.000000e+00) [K]
    Molecule Intra/kʙ       0.000000e+00 ( 0.000000e+00 +/- 0.000000e+00) [K]

Current cycle: 200 out of 6000
===============================================================================

Box:      25.05636   0.00000   0.00000  Average:  25.14673   0.00000   0.00000
           0.00000  25.05636   0.00000             0.00000  25.14673   0.00000
           0.00000   0.00000  25.05636             0.00000   0.00000  25.14673
Lengths:  25.05636  25.05636  25.05636  Average:  25.14673  25.14673  25.14673
Angles:   90.00000  90.00000  90.00000  Average:  90.00000  90.00000  90.00000
Rectangular boundary conditions

net charge:   0.00000000

component 0 (CO2) lambda:  0 occupancy:  0 (0.000000)
    net charge:   0.00000000 [e]

Amount of molecules per component :
-------------------------------------------------------------------------------
Component 0 (CO2)
    molecules:      2.240000e+02 molecules  (2.224925e+02 +/- 0.000000e+00)
    number density: 1.423948e-02 molec./A^3 (1.399283e-02 +/- 0.000000e+00)
    density:        1.040360e+03 kg/m^3     (1.022340e+03 +/- 0.000000e+00)

Average pressure tensor: 
-------------------------------------------------------------------------------
 1.2893e+02  8.2338e+01 -6.9256e+01 +/- 0.0000e+00 0.0000e+00 0.0000e+00 [bar]
 8.2338e+01 -6.8107e+01  5.9421e+01 +/- 0.0000e+00 0.0000e+00 0.0000e+00 [bar]
-6.9256e+01  5.9421e+01  5.3315e+01 +/- 0.0000e+00 0.0000e+00 0.0000e+00 [bar]
Ideal-gas pressure:   5.022993e+02 +/ 0.000000e+00 [bar]
Excess pressure:     -4.642546e+02 +/ 0.000000e+00 [bar]
Pressure:             3.804473e+01 +/ 0.000000e+00 [bar]

Total potential energy/kʙ  -3.372635e+05 (-3.247733e+05 +/- 0.000000e+00) [K]
-------------------------------------------------------------------------------
ExternalField-molecule
    Van der Waals/kʙ        0.000000e+00 ( 0.000000e+00 +/- 0.000000e+00) [K]
Framework-molecule
    Van der Waals/kʙ        0.000000e+00 ( 0.000000e+00 +/- 0.000000e+00) [K]
    Van der Waals (Tail)/kʙ 0.000000e+00 ( 0.000000e+00 +/- 0.000000e+00) [K]
    Coulombic Real/kʙ       0.000000e+00 ( 0.000000e+00 +/- 0.000000e+00) [K]
    Coulombic Fourier/kʙ    0.000000e+00 ( 0.000000e+00 +/- 0.000000e+00) [K]
Molecule-molecule
    Van der Waals/kʙ       -2.414042e+05 (-2.346394e+05 +/- 0.000000e+00) [K]
    Van der Waals (Tail)/kʙ-1.023412e+04 (-9.989803e+03 +/- 0.000000e+00) [K]
    Coulombic Real/kʙ      -6.908903e+04 (-6.378237e+04 +/- 0.000000e+00) [K]
    Coulombic Fourier/kʙ   -1.653612e+04 (-1.636177e+04 +/- 0.000000e+00) [K]
    Molecule Intra/kʙ       0.000000e+00 ( 0.000000e+00 +/- 0.000000e+00) [K]

Current cycle: 300 out of 6000
===============================================================================

Box:      25.27165   0.00000   0.00000  Average:  25.16156   0.00000   0.00000
           0.00000  25.27165   0.00000             0.00000  25.16156   0.00000
           0.00000   0.00000  25.27165             0.00000   0.00000  25.16156
Lengths:  25.27165  25.27165  25.27165  Average:  25.16156  25.16156  25.16156
Angles:   90.00000  90.00000  90.00000  Average:  90.00000  90.00000  90.00000
Rectangular boundary conditions

net charge:   0.00000000

component 0 (CO2) lambda:  0 occupancy:  0 (0.000000)
    net charge:   0.00000000 [e]

Amount of molecules per component :
-------------------------------------------------------------------------------
Component 0 (CO2)
    molecules:      2.290000e+02 molecules  (2.237508e+02 +/- 0.000000e+00)
    number density: 1.418844e-02 molec./A^3 (1.404678e-02 +/- 0.000000e+00)
    density:        1.036632e+03 kg/m^3     (1.026282e+03 +/- 0.000000e+00)

Average pressure tensor: 
-------------------------------------------------------------------------------
 7.9102e+01  9.3981e+01 -3.6911e+01 +/- 0.0000e+00 0.0000e+00 0.0000e+00 [bar]
 9.3981e+01 -7.8340e+01  8.0786e+01 +/- 0.0000e+00 0.0000e+00 0.0000e+00 [bar]
-3.6911e+01  8.0786e+01 -3.2579e+00 +/- 0.0000e+00 0.0000e+00 0.0000e+00 [bar]
Ideal-gas pressure:   5.042361e+02 +/ 0.000000e+00 [bar]
Excess pressure:     -5.050682e+02 +/ 0.000000e+00 [bar]
Pressure:            -8.321012e-01 +/ 0.000000e+00 [bar]

Total potential energy/kʙ  -3.455164e+05 (-3.289196e+05 +/- 0.000000e+00) [K]
-------------------------------------------------------------------------------
ExternalField-molecule
    Van der Waals/kʙ        0.000000e+00 ( 0.000000e+00 +/- 0.000000e+00) [K]
Framework-molecule
    Van der Waals/kʙ        0.000000e+00 ( 0.000000e+00 +/- 0.000000e+00) [K]
    Van der Waals (Tail)/kʙ 0.000000e+00 ( 0.000000e+00 +/- 0.000000e+00) [K]
    Coulombic Real/kʙ       0.000000e+00 ( 0.000000e+00 +/- 0.000000e+00) [K]
    Coulombic Fourier/kʙ    0.000000e+00 ( 0.000000e+00 +/- 0.000000e+00) [K]
Molecule-molecule
    Van der Waals/kʙ       -2.518813e+05 (-2.366407e+05 +/- 0.000000e+00) [K]
    Van der Waals (Tail)/kʙ-1.042507e+04 (-1.004715e+04 +/- 0.000000e+00) [K]
    Coulombic Real/kʙ      -6.624325e+04 (-6.574012e+04 +/- 0.000000e+00) [K]
    Coulombic Fourier/kʙ   -1.696680e+04 (-1.649159e+04 +/- 0.000000e+00) [K]
    Molecule Intra/kʙ       0.000000e+00 ( 0.000000e+00 +/- 0.000000e+00) [K]

Current cycle: 400 out of 6000
===============================================================================

Box:      25.40958   0.00000   0.00000  Average:  25.18821   0.00000   0.00000
           0.00000  25.40958   0.00000             0.00000  25.18821   0.00000
           0.00000   0.00000  25.40958             0.00000   0.00000  25.18821
Lengths:  25.40958  25.40958  25.40958  Average:  25.18821  25.18821  25.18821
Angles:   90.00000  90.00000  90.00000  Average:  90.00000  90.00000  90.00000
Rectangular boundary conditions

net charge:   0.00000000

component 0 (CO2) lambda:  0 occupancy:  0 (0.000000)
    net charge:   0.00000000 [e]

Amount of molecules per component :
-------------------------------------------------------------------------------
Component 0 (CO2)
    molecules:      2.220000e+02 molecules  (2.243217e+02 +/- 0.000000e+00)
    number density: 1.353196e-02 molec./A^3 (1.403837e-02 +/- 0.000000e+00)
    density:        9.886679e+02 kg/m^3     (1.025667e+03 +/- 0.000000e+00)

Average pressure tensor: 
-------------------------------------------------------------------------------
 2.7584e+01  5.6405e+01 -5.8130e+01 +/- 0.0000e+00 0.0000e+00 0.0000e+00 [bar]
 5.6405e+01  3.3973e+01  3.3898e+01 +/- 0.0000e+00 0.0000e+00 0.0000e+00 [bar]
-5.8130e+01  3.3898e+01 -2.3246e+01 +/- 0.0000e+00 0.0000e+00 0.0000e+00 [bar]
Ideal-gas pressure:   5.039341e+02 +/ 0.000000e+00 [bar]
Excess pressure:     -4.911637e+02 +/ 0.000000e+00 [bar]
Pressure:             1.277040e+01 +/ 0.000000e+00 [bar]

Total potential energy/kʙ  -3.154877e+05 (-3.285770e+05 +/- 0.000000e+00) [K]
-------------------------------------------------------------------------------
ExternalField-molecule
    Van der Waals/kʙ        0.000000e+00 ( 0.000000e+00 +/- 0.000000e+00) [K]
Framework-molecule
    Van der Waals/kʙ        0.000000e+00 ( 0.000000e+00 +/- 0.000000e+00) [K]
    Van der Waals (Tail)/kʙ 0.000000e+00 ( 0.000000e+00 +/- 0.000000e+00) [K]
    Coulombic Real/kʙ       0.000000e+00 ( 0.000000e+00 +/- 0.000000e+00) [K]
    Coulombic Fourier/kʙ    0.000000e+00 ( 0.000000e+00 +/- 0.000000e+00) [K]
Molecule-molecule
    Van der Waals/kʙ       -2.278230e+05 (-2.360801e+05 +/- 0.000000e+00) [K]
    Van der Waals (Tail)/kʙ-9.638784e+03 (-1.005134e+04 +/- 0.000000e+00) [K]
    Coulombic Real/kʙ      -6.230867e+04 (-6.593415e+04 +/- 0.000000e+00) [K]
    Coulombic Fourier/kʙ   -1.571725e+04 (-1.651136e+04 +/- 0.000000e+00) [K]
    Molecule Intra/kʙ       0.000000e+00 ( 0.000000e+00 +/- 0.000000e+00) [K]

Current cycle: 500 out of 6000
===============================================================================

Box:      25.59186   0.00000   0.00000  Average:  25.21188   0.00000   0.00000
           0.00000  25.59186   0.00000             0.00000  25.21188   0.00000
           0.00000   0.00000  25.59186             0.00000   0.00000  25.21188
Lengths:  25.59186  25.59186  25.59186  Average:  25.21188  25.21188  25.21188
Angles:   90.00000  90.00000  90.00000  Average:  90.00000  90.00000  90.00000
Rectangular boundary conditions

net charge:   0.00000000

component 0 (CO2) lambda:  0 occupancy:  0 (0.000000)
    net charge:   0.00000000 [e]

Amount of molecules per component :
-------------------------------------------------------------------------------
Component 0 (CO2)
    molecules:      2.200000e+02 molecules  (2.235509e+02 +/- 0.000000e+00)
    number density: 1.312553e-02 molec./A^3 (1.395141e-02 +/- 0.000000e+00)
    density:        9.589739e+02 kg/m^3     (1.019314e+03 +/- 0.000000e+00)

Average pressure tensor: 
-------------------------------------------------------------------------------
-6.2934e+00  3.6158e+01 -5.5607e+01 +/- 0.0000e+00 0.0000e+00 0.0000e+00 [bar]
 3.6158e+01  7.9258e+01  3.7941e+01 +/- 0.0000e+00 0.0000e+00 0.0000e+00 [bar]
-5.5607e+01  3.7941e+01 -6.1633e+01 +/- 0.0000e+00 0.0000e+00 0.0000e+00 [bar]
Ideal-gas pressure:   5.008124e+02 +/ 0.000000e+00 [bar]
Excess pressure:     -4.970353e+02 +/ 0.000000e+00 [bar]
Pressure:             3.777084e+00 +/ 0.000000e+00 [bar]

Total potential energy/kʙ  -3.003076e+05 (-3.240805e+05 +/- 0.000000e+00) [K]
-------------------------------------------------------------------------------
ExternalField-molecule
    Van der Waals/kʙ        0.000000e+00 ( 0.000000e+00 +/- 0.000000e+00) [K]
Framework-molecule
    Van der Waals/kʙ        0.000000e+00 ( 0.000000e+00 +/- 0.000000e+00) [K]
    Van der Waals (Tail)/kʙ 0.000000e+00 ( 0.000000e+00 +/- 0.000000e+00) [K]
    Coulombic Real/kʙ       0.000000e+00 ( 0.000000e+00 +/- 0.000000e+00) [K]
    Coulombic Fourier/kʙ    0.000000e+00 ( 0.000000e+00 +/- 0.000000e+00) [K]
Molecule-molecule
    Van der Waals/kʙ       -2.216645e+05 (-2.336559e+05 +/- 0.000000e+00) [K]
    Van der Waals (Tail)/kʙ-9.265062e+03 (-9.939056e+03 +/- 0.000000e+00) [K]
    Coulombic Real/kʙ      -5.417578e+04 (-6.427166e+04 +/- 0.000000e+00) [K]
    Coulombic Fourier/kʙ   -1.520223e+04 (-1.621394e+04 +/- 0.000000e+00) [K]
    Molecule Intra/kʙ       0.000000e+00 ( 0.000000e+00 +/- 0.000000e+00) [K]

Current cycle: 600 out of 6000
===============================================================================

Box:      25.68784   0.00000   0.00000  Average:  25.26711   0.00000   0.00000
           0.00000  25.68784   0.00000             0.00000  25.26711   0.00000
           0.00000   0.00000  25.68784             0.00000   0.00000  25.26711
Lengths:  25.68784  25.68784  25.68784  Average:  25.26711  25.26711  25.26711
Angles:   90.00000  90.00000  90.00000  Average:  90.00000  90.00000  90.00000
Rectangular boundary conditions

net charge:   0.00000000

component 0 (CO2) lambda:  0 occupancy:  0 (0.000000)
    net charge:   0.00000000 [e]

Amount of molecules per component :
-------------------------------------------------------------------------------
Component 0 (CO2)
    molecules:      2.260000e+02 molecules  (2.238120e+02 +/- 0.000000e+00)
    number density: 1.333293e-02 molec./A^3 (1.387777e-02 +/- 0.000000e+00)
    density:        9.741268e+02 kg/m^3     (1.013934e+03 +/- 0.000000e+00)

Average pressure tensor: 
-------------------------------------------------------------------------------
-2.4218e+01  4.3547e+01 -6.1966e+01 +/- 0.0000e+00 0.0000e+00 0.0000e+00 [bar]
 4.3547e+01  8.1454e+01  2.2846e+01 +/- 0.0000e+00 0.0000e+00 0.0000e+00 [bar]
-6.1966e+01  2.2846e+01 -8.3948e+01 +/- 0.0000e+00 0.0000e+00 0.0000e+00 [bar]
Ideal-gas pressure:   4.981692e+02 +/ 0.000000e+00 [bar]
Excess pressure:     -5.070732e+02 +/ 0.000000e+00 [bar]
Pressure:            -8.904042e+00 +/ 0.000000e+00 [bar]

Total potential energy/kʙ  -3.043956e+05 (-3.222107e+05 +/- 0.000000e+00) [K]
-------------------------------------------------------------------------------
ExternalField-molecule
    Van der Waals/kʙ        0.000000e+00 ( 0.000000e+00 +/- 0.000000e+00) [K]
Framework-molecule
    Van der Waals/kʙ        0.000000e+00 ( 0.000000e+00 +/- 0.000000e+00) [K]
    Van der Waals (Tail)/kʙ 0.000000e+00 ( 0.000000e+00 +/- 0.000000e+00) [K]
    Coulombic Real/kʙ       0.000000e+00 ( 0.000000e+00 +/- 0.000000e+00) [K]
    Coulombic Fourier/kʙ    0.000000e+00 ( 0.000000e+00 +/- 0.000000e+00) [K]
Molecule-molecule
    Van der Waals/kʙ       -2.199791e+05 (-2.325143e+05 +/- 0.000000e+00) [K]
    Van der Waals (Tail)/kʙ-9.668137e+03 (-9.901802e+03 +/- 0.000000e+00) [K]
    Coulombic Real/kʙ      -5.933663e+04 (-6.361348e+04 +/- 0.000000e+00) [K]
    Coulombic Fourier/kʙ   -1.541165e+04 (-1.618110e+04 +/- 0.000000e+00) [K]
    Molecule Intra/kʙ       0.000000e+00 ( 0.000000e+00 +/- 0.000000e+00) [K]

Current cycle: 700 out of 6000
===============================================================================

Box:      25.48412   0.00000   0.00000  Average:  25.31972   0.00000   0.00000
           0.00000  25.48412   0.00000             0.00000  25.31972   0.00000
           0.00000   0.00000  25.48412             0.00000   0.00000  25.31972
Lengths:  25.48412  25.48412  25.48412  Average:  25.31972  25.31972  25.31972
Angles:   90.00000  90.00000  90.00000  Average:  90.00000  90.00000  90.00000
Rectangular boundary conditions

net charge:   0.00000000

component 0 (CO2) lambda:  0 occupancy:  0 (0.000000)
    net charge:   0.00000000 [e]

Amount of molecules per component :
-------------------------------------------------------------------------------
Component 0 (CO2)
    molecules:      2.240000e+02 molecules  (2.240628e+02 +/- 0.000000e+00)
    number density: 1.353440e-02 molec./A^3 (1.380843e-02 +/- 0.000000e+00)
    density:        9.888468e+02 kg/m^3     (1.008867e+03 +/- 0.000000e+00)

Average pressure tensor: 
-------------------------------------------------------------------------------
-7.4496e-01  3.8269e+01 -4.8690e+01 +/- 0.0000e+00 0.0000e+00 0.0000e+00 [bar]
 3.8269e+01  6.0374e+01  3.7293e+00 +/- 0.0000e+00 0.0000e+00 0.0000e+00 [bar]
-4.8690e+01  3.7293e+00 -6.8581e+01 +/- 0.0000e+00 0.0000e+00 0.0000e+00 [bar]
Ideal-gas pressure:   4.956799e+02 +/ 0.000000e+00 [bar]
Excess pressure:     -4.986639e+02 +/ 0.000000e+00 [bar]
Pressure:            -2.983931e+00 +/ 0.000000e+00 [bar]

Total potential energy/kʙ  -3.173581e+05 (-3.207588e+05 +/- 0.000000e+00) [K]
-------------------------------------------------------------------------------
ExternalField-molecule
    Van der Waals/kʙ        0.000000e+00 ( 0.000000e+00 +/- 0.000000e+00) [K]
Framework-molecule
    Van der Waals/kʙ        0.000000e+00 ( 0.000000e+00 +/- 0.000000e+00) [K]
    Van der Waals (Tail)/kʙ 0.000000e+00 ( 0.000000e+00 +/- 0.000000e+00) [K]
    Coulombic Real/kʙ       0.000000e+00 ( 0.000000e+00 +/- 0.000000e+00) [K]
    Coulombic Fourier/kʙ    0.000000e+00 ( 0.000000e+00 +/- 0.000000e+00) [K]
Molecule-molecule
    Van der Waals/kʙ       -2.266873e+05 (-2.317218e+05 +/- 0.000000e+00) [K]
    Van der Waals (Tail)/kʙ-9.727379e+03 (-9.881751e+03 +/- 0.000000e+00) [K]
    Coulombic Real/kʙ      -6.520026e+04 (-6.305005e+04 +/- 0.000000e+00) [K]
    Coulombic Fourier/kʙ   -1.574321e+04 (-1.610528e+04 +/- 0.000000e+00) [K]
    Molecule Intra/kʙ       0.000000e+00 ( 0.000000e+00 +/- 0.000000e+00) [K]

Current cycle: 800 out of 6000
===============================================================================

Box:      25.62318   0.00000   0.00000  Average:  25.33691   0.00000   0.00000
           0.00000  25.62318   0.00000             0.00000  25.33691   0.00000
           0.00000   0.00000  25.62318             0.00000   0.00000  25.33691
Lengths:  25.62318  25.62318  25.62318  Average:  25.33691  25.33691  25.33691
Angles:   90.00000  90.00000  90.00000  Average:  90.00000  90.00000  90.00000
Rectangular boundary conditions

net charge:   0.00000000

component 0 (CO2) lambda:  0 occupancy:  0 (0.000000)
    net charge:   0.00000000 [e]

Amount of molecules per component :
-------------------------------------------------------------------------------
Component 0 (CO2)
    molecules:      2.310000e+02 molecules  (2.246255e+02 +/- 0.000000e+00)
    number density: 1.373134e-02 molec./A^3 (1.381428e-02 +/- 0.000000e+00)
    density:        1.003235e+03 kg/m^3     (1.009295e+03 +/- 0.000000e+00)

Average pressure tensor: 
-------------------------------------------------------------------------------
 6.6130e+00  5.1558e+01 -4.2017e+01 +/- 0.0000e+00 0.0000e+00 0.0000e+00 [bar]
 5.1558e+01  9.7597e+01  5.9338e-01 +/- 0.0000e+00 0.0000e+00 0.0000e+00 [bar]
-4.2017e+01  5.9338e-01 -5.9531e+01 +/- 0.0000e+00 0.0000e+00 0.0000e+00 [bar]
Ideal-gas pressure:   4.958900e+02 +/ 0.000000e+00 [bar]
Excess pressure:     -4.809969e+02 +/ 0.000000e+00 [bar]
Pressure:             1.489316e+01 +/ 0.000000e+00 [bar]

Total potential energy/kʙ  -3.297023e+05 (-3.222638e+05 +/- 0.000000e+00) [K]
-------------------------------------------------------------------------------
ExternalField-molecule
    Van der Waals/kʙ        0.000000e+00 ( 0.000000e+00 +/- 0.000000e+00) [K]
Framework-molecule
    Van der Waals/kʙ        0.000000e+00 ( 0.000000e+00 +/- 0.000000e+00) [K]
    Van der Waals (Tail)/kʙ 0.000000e+00 ( 0.000000e+00 +/- 0.000000e+00) [K]
    Coulombic Real/kʙ       0.000000e+00 ( 0.000000e+00 +/- 0.000000e+00) [K]
    Coulombic Fourier/kʙ    0.000000e+00 ( 0.000000e+00 +/- 0.000000e+00) [K]
Molecule-molecule
    Van der Waals/kʙ       -2.412356e+05 (-2.324281e+05 +/- 0.000000e+00) [K]
    Van der Waals (Tail)/kʙ-1.017732e+04 (-9.927016e+03 +/- 0.000000e+00) [K]
    Coulombic Real/kʙ      -6.192758e+04 (-6.368226e+04 +/- 0.000000e+00) [K]
    Coulombic Fourier/kʙ   -1.636178e+04 (-1.622649e+04 +/- 0.000000e+00) [K]
    Molecule Intra/kʙ       0.000000e+00 ( 0.000000e+00 +/- 0.000000e+00) [K]

Current cycle: 900 out of 6000
===============================================================================

Box:      25.63301   0.00000   0.00000  Average:  25.37407   0.00000   0.00000
           0.00000  25.63301   0.00000             0.00000  25.37407   0.00000
           0.00000   0.00000  25.63301             0.00000   0.00000  25.37407
Lengths:  25.63301  25.63301  25.63301  Average:  25.37407  25.37407  25.37407
Angles:   90.00000  90.00000  90.00000  Average:  90.00000  90.00000  90.00000
Rectangular boundary conditions

net charge:   0.00000000

component 0 (CO2) lambda:  0 occupancy:  0 (0.000000)
    net charge:   0.00000000 [e]

Amount of molecules per component :
-------------------------------------------------------------------------------
Component 0 (CO2)
    molecules:      2.180000e+02 molecules  (2.248002e+02 +/- 0.000000e+00)
    number density: 1.294368e-02 molec./A^3 (1.376503e-02 +/- 0.000000e+00)
    density:        9.456873e+02 kg/m^3     (1.005696e+03 +/- 0.000000e+00)

Average pressure tensor: 
-------------------------------------------------------------------------------
 1.3381e+01  1.7590e+01 -4.6966e+01 +/- 0.0000e+00 0.0000e+00 0.0000e+00 [bar]
 1.7590e+01  1.0520e+02 -3.2510e+00 +/- 0.0000e+00 0.0000e+00 0.0000e+00 [bar]
-4.6966e+01 -3.2510e+00 -6.2218e+01 +/- 0.0000e+00 0.0000e+00 0.0000e+00 [bar]
Ideal-gas pressure:   4.941219e+02 +/ 0.000000e+00 [bar]
Excess pressure:     -4.753355e+02 +/ 0.000000e+00 [bar]
Pressure:             1.878645e+01 +/ 0.000000e+00 [bar]

Total potential energy/kʙ  -2.897517e+05 (-3.208764e+05 +/- 0.000000e+00) [K]
-------------------------------------------------------------------------------
ExternalField-molecule
    Van der Waals/kʙ        0.000000e+00 ( 0.000000e+00 +/- 0.000000e+00) [K]
Framework-molecule
    Van der Waals/kʙ        0.000000e+00 ( 0.000000e+00 +/- 0.000000e+00) [K]
    Van der Waals (Tail)/kʙ 0.000000e+00 ( 0.000000e+00 +/- 0.000000e+00) [K]
    Coulombic Real/kʙ       0.000000e+00 ( 0.000000e+00 +/- 0.000000e+00) [K]
    Coulombic Fourier/kʙ    0.000000e+00 ( 0.000000e+00 +/- 0.000000e+00) [K]
Molecule-molecule
    Van der Waals/kʙ       -2.106345e+05 (-2.315126e+05 +/- 0.000000e+00) [K]
    Van der Waals (Tail)/kʙ-9.053633e+03 (-9.901467e+03 +/- 0.000000e+00) [K]
    Coulombic Real/kʙ      -5.608595e+04 (-6.329441e+04 +/- 0.000000e+00) [K]
    Coulombic Fourier/kʙ   -1.397761e+04 (-1.616788e+04 +/- 0.000000e+00) [K]
    Molecule Intra/kʙ       0.000000e+00 ( 0.000000e+00 +/- 0.000000e+00) [K]

Current cycle: 1000 out of 6000
===============================================================================

Box:      25.55524   0.00000   0.00000  Average:  25.38437   0.00000   0.00000
           0.00000  25.55524   0.00000             0.00000  25.38437   0.00000
           0.00000   0.00000  25.55524             0.00000   0.00000  25.38437
Lengths:  25.55524  25.55524  25.55524  Average:  25.38437  25.38437  25.38437
Angles:   90.00000  90.00000  90.00000  Average:  90.00000  90.00000  90.00000
Rectangular boundary conditions

net charge:   0.00000000

component 0 (CO2) lambda:  0 occupancy:  0 (0.000000)
    net charge:   0.00000000 [e]

Amount of molecules per component :
-------------------------------------------------------------------------------
Component 0 (CO2)
    molecules:      2.240000e+02 molecules  (2.248501e+02 +/- 0.000000e+00)
    number density: 1.342171e-02 molec./A^3 (1.375095e-02 +/- 0.000000e+00)
    density:        9.806133e+02 kg/m^3     (1.004668e+03 +/- 0.000000e+00)

Average pressure tensor: 
-------------------------------------------------------------------------------
 3.1320e+01  1.2472e+01 -4.6773e+01 +/- 0.0000e+00 0.0000e+00 0.0000e+00 [bar]
 1.2472e+01  9.1984e+01  1.2084e+00 +/- 0.0000e+00 0.0000e+00 0.0000e+00 [bar]
-4.6773e+01  1.2084e+00 -5.6481e+01 +/- 0.0000e+00 0.0000e+00 0.0000e+00 [bar]
Ideal-gas pressure:   4.936165e+02 +/ 0.000000e+00 [bar]
Excess pressure:     -4.713424e+02 +/ 0.000000e+00 [bar]
Pressure:             2.227413e+01 +/ 0.000000e+00 [bar]

Total potential energy/kʙ  -3.137373e+05 (-3.206665e+05 +/- 0.000000e+00) [K]
-------------------------------------------------------------------------------
ExternalField-molecule
    Van der Waals/kʙ        0.000000e+00 ( 0.000000e+00 +/- 0.000000e+00) [K]
Framework-molecule
    Van der Waals/kʙ        0.000000e+00 ( 0.000000e+00 +/- 0.000000e+00) [K]
    Van der Waals (Tail)/kʙ 0.000000e+00 ( 0.000000e+00 +/- 0.000000e+00) [K]
    Coulombic Real/kʙ       0.000000e+00 ( 0.000000e+00 +/- 0.000000e+00) [K]
    Coulombic Fourier/kʙ    0.000000e+00 ( 0.000000e+00 +/- 0.000000e+00) [K]
Molecule-molecule
    Van der Waals/kʙ       -2.274155e+05 (-2.314295e+05 +/- 0.000000e+00) [K]
    Van der Waals (Tail)/kʙ-9.646386e+03 (-9.898281e+03 +/- 0.000000e+00) [K]
    Coulombic Real/kʙ      -6.051322e+04 (-6.315666e+04 +/- 0.000000e+00) [K]
    Coulombic Fourier/kʙ   -1.616220e+04 (-1.618204e+04 +/- 0.000000e+00) [K]
    Molecule Intra/kʙ       0.000000e+00 ( 0.000000e+00 +/- 0.000000e+00) [K]

Current cycle: 1100 out of 6000
===============================================================================

Box:      25.21823   0.00000   0.00000  Average:  25.37754   0.00000   0.00000
           0.00000  25.21823   0.00000             0.00000  25.37754   0.00000
           0.00000   0.00000  25.21823             0.00000   0.00000  25.37754
Lengths:  25.21823  25.21823  25.21823  Average:  25.37754  25.37754  25.37754
Angles:   90.00000  90.00000  90.00000  Average:  90.00000  90.00000  90.00000
Rectangular boundary conditions

net charge:   0.00000000

component 0 (CO2) lambda:  0 occupancy:  0 (0.000000)
    net charge:   0.00000000 [e]

Amount of molecules per component :
-------------------------------------------------------------------------------
Component 0 (CO2)
    molecules:      2.220000e+02 molecules  (2.246812e+02 +/- 0.000000e+00)
    number density: 1.384234e-02 molec./A^3 (1.375120e-02 +/- 0.000000e+00)
    density:        1.011345e+03 kg/m^3     (1.004686e+03 +/- 0.000000e+00)

Average pressure tensor: 
-------------------------------------------------------------------------------
 5.0210e+01  1.1192e+01 -3.6875e+01 +/- 0.0000e+00 0.0000e+00 0.0000e+00 [bar]
 1.1192e+01  7.8223e+01  1.8075e+00 +/- 0.0000e+00 0.0000e+00 0.0000e+00 [bar]
-3.6875e+01  1.8075e+00 -5.7050e+01 +/- 0.0000e+00 0.0000e+00 0.0000e+00 [bar]
Ideal-gas pressure:   4.936257e+02 +/ 0.000000e+00 [bar]
Excess pressure:     -4.698310e+02 +/ 0.000000e+00 [bar]
Pressure:             2.379467e+01 +/ 0.000000e+00 [bar]

Total potential energy/kʙ  -3.196351e+05 (-3.203502e+05 +/- 0.000000e+00) [K]
-------------------------------------------------------------------------------
ExternalField-molecule
    Van der Waals/kʙ        0.000000e+00 ( 0.000000e+00 +/- 0.000000e+00) [K]
Framework-molecule
    Van der Waals/kʙ        0.000000e+00 ( 0.000000e+00 +/- 0.000000e+00) [K]
    Van der Waals (Tail)/kʙ 0.000000e+00 ( 0.000000e+00 +/- 0.000000e+00) [K]
    Coulombic Real/kʙ       0.000000e+00 ( 0.000000e+00 +/- 0.000000e+00) [K]
    Coulombic Fourier/kʙ    0.000000e+00 ( 0.000000e+00 +/- 0.000000e+00) [K]
Molecule-molecule
    Van der Waals/kʙ       -2.339155e+05 (-2.309658e+05 +/- 0.000000e+00) [K]
    Van der Waals (Tail)/kʙ-9.859867e+03 (-9.883446e+03 +/- 0.000000e+00) [K]
    Coulombic Real/kʙ      -6.031663e+04 (-6.331724e+04 +/- 0.000000e+00) [K]
    Coulombic Fourier/kʙ   -1.554306e+04 (-1.618368e+04 +/- 0.000000e+00) [K]
    Molecule Intra/kʙ       0.000000e+00 ( 0.000000e+00 +/- 0.000000e+00) [K]

Current cycle: 1200 out of 6000
===============================================================================

Box:      25.44527   0.00000   0.00000  Average:  25.37118   0.00000   0.00000
           0.00000  25.44527   0.00000             0.00000  25.37118   0.00000
           0.00000   0.00000  25.44527             0.00000   0.00000  25.37118
Lengths:  25.44527  25.44527  25.44527  Average:  25.37118  25.37118  25.37118
Angles:   90.00000  90.00000  90.00000  Average:  90.00000  90.00000  90.00000
Rectangular boundary conditions

net charge:   0.00000000

component 0 (CO2) lambda:  0 occupancy:  0 (0.000000)
    net charge:   0.00000000 [e]

Amount of molecules per component :
-------------------------------------------------------------------------------
Component 0 (CO2)
    molecules:      2.250000e+02 molecules  (2.247186e+02 +/- 0.000000e+00)
    number density: 1.365719e-02 molec./A^3 (1.376364e-02 +/- 0.000000e+00)
    density:        9.978173e+02 kg/m^3     (1.005595e+03 +/- 0.000000e+00)

Average pressure tensor: 
-------------------------------------------------------------------------------
 5.0650e+01  1.6991e+01 -4.6175e+01 +/- 0.0000e+00 0.0000e+00 0.0000e+00 [bar]
 1.6991e+01  6.7078e+01 -9.7245e+00 +/- 0.0000e+00 0.0000e+00 0.0000e+00 [bar]
-4.6175e+01 -9.7245e+00 -4.0734e+01 +/- 0.0000e+00 0.0000e+00 0.0000e+00 [bar]
Ideal-gas pressure:   4.940721e+02 +/ 0.000000e+00 [bar]
Excess pressure:     -4.684075e+02 +/ 0.000000e+00 [bar]
Pressure:             2.566452e+01 +/ 0.000000e+00 [bar]

Total potential energy/kʙ  -3.213444e+05 (-3.211819e+05 +/- 0.000000e+00) [K]
-------------------------------------------------------------------------------
ExternalField-molecule
    Van der Waals/kʙ        0.000000e+00 ( 0.000000e+00 +/- 0.000000e+00) [K]
Framework-molecule
    Van der Waals/kʙ        0.000000e+00 ( 0.000000e+00 +/- 0.000000e+00) [K]
    Van der Waals (Tail)/kʙ 0.000000e+00 ( 0.000000e+00 +/- 0.000000e+00) [K]
    Coulombic Real/kʙ       0.000000e+00 ( 0.000000e+00 +/- 0.000000e+00) [K]
    Coulombic Fourier/kʙ    0.000000e+00 ( 0.000000e+00 +/- 0.000000e+00) [K]
Molecule-molecule
    Van der Waals/kʙ       -2.294897e+05 (-2.311332e+05 +/- 0.000000e+00) [K]
    Van der Waals (Tail)/kʙ-9.859444e+03 (-9.897029e+03 +/- 0.000000e+00) [K]
    Coulombic Real/kʙ      -6.479472e+04 (-6.388627e+04 +/- 0.000000e+00) [K]
    Coulombic Fourier/kʙ   -1.720059e+04 (-1.626539e+04 +/- 0.000000e+00) [K]
    Molecule Intra/kʙ       0.000000e+00 ( 0.000000e+00 +/- 0.000000e+00) [K]

Current cycle: 1300 out of 6000
===============================================================================

Box:      25.23200   0.00000   0.00000  Average:  25.37909   0.00000   0.00000
           0.00000  25.23200   0.00000             0.00000  25.37909   0.00000
           0.00000   0.00000  25.23200             0.00000   0.00000  25.37909
Lengths:  25.23200  25.23200  25.23200  Average:  25.37909  25.37909  25.37909
Angles:   90.00000  90.00000  90.00000  Average:  90.00000  90.00000  90.00000
Rectangular boundary conditions

net charge:   0.00000000

component 0 (CO2) lambda:  0 occupancy:  0 (0.000000)
    net charge:   0.00000000 [e]

Amount of molecules per component :
-------------------------------------------------------------------------------
Component 0 (CO2)
    molecules:      2.240000e+02 molecules  (2.249846e+02 +/- 0.000000e+00)
    number density: 1.394417e-02 molec./A^3 (1.376673e-02 +/- 0.000000e+00)
    density:        1.018785e+03 kg/m^3     (1.005821e+03 +/- 0.000000e+00)

Average pressure tensor: 
-------------------------------------------------------------------------------
 5.2226e+01  1.3055e+01 -4.1036e+01 +/- 0.0000e+00 0.0000e+00 0.0000e+00 [bar]
 1.3055e+01  5.7957e+01 -7.6090e+00 +/- 0.0000e+00 0.0000e+00 0.0000e+00 [bar]
-4.1036e+01 -7.6090e+00 -4.0183e+01 +/- 0.0000e+00 0.0000e+00 0.0000e+00 [bar]
Ideal-gas pressure:   4.941830e+02 +/ 0.000000e+00 [bar]
Excess pressure:     -4.708495e+02 +/ 0.000000e+00 [bar]
Pressure:             2.333346e+01 +/ 0.000000e+00 [bar]

Total potential energy/kʙ  -3.197768e+05 (-3.216858e+05 +/- 0.000000e+00) [K]
-------------------------------------------------------------------------------
ExternalField-molecule
    Van der Waals/kʙ        0.000000e+00 ( 0.000000e+00 +/- 0.000000e+00) [K]
Framework-molecule
    Van der Waals/kʙ        0.000000e+00 ( 0.000000e+00 +/- 0.000000e+00) [K]
    Van der Waals (Tail)/kʙ 0.000000e+00 ( 0.000000e+00 +/- 0.000000e+00) [K]
    Coulombic Real/kʙ       0.000000e+00 ( 0.000000e+00 +/- 0.000000e+00) [K]
    Coulombic Fourier/kʙ    0.000000e+00 ( 0.000000e+00 +/- 0.000000e+00) [K]
Molecule-molecule
    Van der Waals/kʙ       -2.314877e+05 (-2.313831e+05 +/- 0.000000e+00) [K]
    Van der Waals (Tail)/kʙ-1.002189e+04 (-9.905911e+03 +/- 0.000000e+00) [K]
    Coulombic Real/kʙ      -6.269466e+04 (-6.412417e+04 +/- 0.000000e+00) [K]
    Coulombic Fourier/kʙ   -1.557254e+04 (-1.627253e+04 +/- 0.000000e+00) [K]
    Molecule Intra/kʙ       0.000000e+00 ( 0.000000e+00 +/- 0.000000e+00) [K]

Current cycle: 1400 out of 6000
===============================================================================

Box:      25.42716   0.00000   0.00000  Average:  25.38103   0.00000   0.00000
           0.00000  25.42716   0.00000             0.00000  25.38103   0.00000
           0.00000   0.00000  25.42716             0.00000   0.00000  25.38103
Lengths:  25.42716  25.42716  25.42716  Average:  25.38103  25.38103  25.38103
Angles:   90.00000  90.00000  90.00000  Average:  90.00000  90.00000  90.00000
Rectangular boundary conditions

net charge:   0.00000000

component 0 (CO2) lambda:  0 occupancy:  0 (0.000000)
    net charge:   0.00000000 [e]

Amount of molecules per component :
-------------------------------------------------------------------------------
Component 0 (CO2)
    molecules:      2.340000e+02 molecules  (2.252534e+02 +/- 0.000000e+00)
    number density: 1.423384e-02 molec./A^3 (1.377979e-02 +/- 0.000000e+00)
    density:        1.039949e+03 kg/m^3     (1.006775e+03 +/- 0.000000e+00)

Average pressure tensor: 
-------------------------------------------------------------------------------
 4.8897e+01 -2.4309e+00 -4.1135e+01 +/- 0.0000e+00 0.0000e+00 0.0000e+00 [bar]
-2.4309e+00  4.9952e+01 -8.3292e+00 +/- 0.0000e+00 0.0000e+00 0.0000e+00 [bar]
-4.1135e+01 -8.3292e+00 -3.2001e+01 +/- 0.0000e+00 0.0000e+00 0.0000e+00 [bar]
Ideal-gas pressure:   4.946520e+02 +/ 0.000000e+00 [bar]
Excess pressure:     -4.723694e+02 +/ 0.000000e+00 [bar]
Pressure:             2.228263e+01 +/ 0.000000e+00 [bar]

Total potential energy/kʙ  -3.512864e+05 (-3.224778e+05 +/- 0.000000e+00) [K]
-------------------------------------------------------------------------------
ExternalField-molecule
    Van der Waals/kʙ        0.000000e+00 ( 0.000000e+00 +/- 0.000000e+00) [K]
Framework-molecule
    Van der Waals/kʙ        0.000000e+00 ( 0.000000e+00 +/- 0.000000e+00) [K]
    Van der Waals (Tail)/kʙ 0.000000e+00 ( 0.000000e+00 +/- 0.000000e+00) [K]
    Coulombic Real/kʙ       0.000000e+00 ( 0.000000e+00 +/- 0.000000e+00) [K]
    Coulombic Fourier/kʙ    0.000000e+00 ( 0.000000e+00 +/- 0.000000e+00) [K]
Molecule-molecule
    Van der Waals/kʙ       -2.512737e+05 (-2.318570e+05 +/- 0.000000e+00) [K]
    Van der Waals (Tail)/kʙ-1.068677e+04 (-9.920741e+03 +/- 0.000000e+00) [K]
    Coulombic Real/kʙ      -7.223845e+04 (-6.438664e+04 +/- 0.000000e+00) [K]
    Coulombic Fourier/kʙ   -1.708746e+04 (-1.631338e+04 +/- 0.000000e+00) [K]
    Molecule Intra/kʙ       0.000000e+00 ( 0.000000e+00 +/- 0.000000e+00) [K]

Current cycle: 1500 out of 6000
===============================================================================

Box:      25.21725   0.00000   0.00000  Average:  25.37743   0.00000   0.00000
           0.00000  25.21725   0.00000             0.00000  25.37743   0.00000
           0.00000   0.00000  25.21725             0.00000   0.00000  25.37743
[...]
    number density: 1.470942e-02 molec./A^3 (1.387746e-02 +/- 1.773677e-04)
    density:        1.074695e+03 kg/m^3     (1.013911e+03 +/- 1.295878e+01)

Average pressure tensor: 
-------------------------------------------------------------------------------
 2.9743e+01 -3.0013e+01 -7.1053e+00 +/- 3.2215e+01 4.7997e+01 2.9802e+01 [bar]
-3.0013e+01  4.3981e+01  2.1167e+01 +/- 4.7997e+01 4.7578e+01 3.5513e+01 [bar]
-7.1053e+00  2.1167e+01  3.1958e+01 +/- 2.9802e+01 3.5513e+01 6.5167e+01 [bar]
Ideal-gas pressure:   4.981578e+02 +/ 6.366951e+00 [bar]
Excess pressure:     -4.629303e+02 +/ 6.822021e+00 [bar]
Pressure:             3.522752e+01 +/ 7.391904e+00 [bar]

Total potential energy/kʙ  -3.447673e+05 (-3.200538e+05 +/- 4.352873e+03) [K]
-------------------------------------------------------------------------------
ExternalField-molecule
    Van der Waals/kʙ        0.000000e+00 ( 0.000000e+00 +/- 0.000000e+00) [K]
Framework-molecule
    Van der Waals/kʙ        0.000000e+00 ( 0.000000e+00 +/- 0.000000e+00) [K]
    Van der Waals (Tail)/kʙ 0.000000e+00 ( 0.000000e+00 +/- 0.000000e+00) [K]
    Coulombic Real/kʙ       0.000000e+00 ( 0.000000e+00 +/- 0.000000e+00) [K]
    Coulombic Fourier/kʙ    0.000000e+00 ( 0.000000e+00 +/- 0.000000e+00) [K]
Molecule-molecule
    Van der Waals/kʙ       -2.503009e+05 (-2.298276e+05 +/- 2.954774e+03) [K]
    Van der Waals (Tail)/kʙ-1.061907e+04 (-9.851307e+03 +/- 1.195971e+02) [K]
    Coulombic Real/kʙ      -6.713416e+04 (-6.403709e+04 +/- 1.189821e+03) [K]
    Coulombic Fourier/kʙ   -1.671315e+04 (-1.633777e+04 +/- 2.761523e+02) [K]
    Molecule Intra/kʙ       0.000000e+00 ( 0.000000e+00 +/- 0.000000e+00) [K]

Current cycle: 5800 out of 6000
===============================================================================

Box:      24.99863   0.00000   0.00000  Average:  25.16809   0.00000   0.00000
           0.00000  24.99863   0.00000             0.00000  25.16809   0.00000
           0.00000   0.00000  24.99863             0.00000   0.00000  25.16809
Lengths:  24.99863  24.99863  24.99863  Average:  25.16809  25.16809  25.16809
Angles:   90.00000  90.00000  90.00000  Average:  90.00000  90.00000  90.00000
Rectangular boundary conditions

net charge:   0.00000000

component 0 (CO2) lambda:  0 occupancy:  0 (0.000000)
    net charge:   0.00000000 [e]

Amount of molecules per component :
-------------------------------------------------------------------------------
Component 0 (CO2)
    molecules:      2.250000e+02 molecules  (2.212706e+02 +/- 5.570279e+00)
    number density: 1.440238e-02 molec./A^3 (1.388131e-02 +/- 1.794517e-04)
    density:        1.052262e+03 kg/m^3     (1.014193e+03 +/- 1.311105e+01)

Average pressure tensor: 
-------------------------------------------------------------------------------
 2.7376e+01 -2.8330e+01 -8.1485e+00 +/- 3.6907e+01 4.1521e+01 2.7803e+01 [bar]
-2.8330e+01  4.5521e+01  2.2351e+01 +/- 4.1521e+01 4.8591e+01 3.5186e+01 [bar]
-8.1485e+00  2.2351e+01  3.1093e+01 +/- 2.7803e+01 3.5186e+01 6.3533e+01 [bar]
Ideal-gas pressure:   4.982962e+02 +/ 6.441760e+00 [bar]
Excess pressure:     -4.636329e+02 +/ 7.740968e+00 [bar]
Pressure:             3.466332e+01 +/ 7.260496e+00 [bar]

Total potential energy/kʙ  -3.306350e+05 (-3.201414e+05 +/- 3.837419e+03) [K]
-------------------------------------------------------------------------------
ExternalField-molecule
    Van der Waals/kʙ        0.000000e+00 ( 0.000000e+00 +/- 0.000000e+00) [K]
Framework-molecule
    Van der Waals/kʙ        0.000000e+00 ( 0.000000e+00 +/- 0.000000e+00) [K]
    Van der Waals (Tail)/kʙ 0.000000e+00 ( 0.000000e+00 +/- 0.000000e+00) [K]
    Coulombic Real/kʙ       0.000000e+00 ( 0.000000e+00 +/- 0.000000e+00) [K]
    Coulombic Fourier/kʙ    0.000000e+00 ( 0.000000e+00 +/- 0.000000e+00) [K]
Molecule-molecule
    Van der Waals/kʙ       -2.382642e+05 (-2.298805e+05 +/- 2.617610e+03) [K]
    Van der Waals (Tail)/kʙ-1.039741e+04 (-9.853262e+03 +/- 1.074700e+02) [K]
    Coulombic Real/kʙ      -6.560804e+04 (-6.407266e+04 +/- 1.042007e+03) [K]
    Coulombic Fourier/kʙ   -1.636533e+04 (-1.633492e+04 +/- 2.740169e+02) [K]
    Molecule Intra/kʙ       0.000000e+00 ( 0.000000e+00 +/- 0.000000e+00) [K]

Current cycle: 5900 out of 6000
===============================================================================

Box:      24.70105   0.00000   0.00000  Average:  25.16490   0.00000   0.00000
           0.00000  24.70105   0.00000             0.00000  25.16490   0.00000
           0.00000   0.00000  24.70105             0.00000   0.00000  25.16490
Lengths:  24.70105  24.70105  24.70105  Average:  25.16490  25.16490  25.16490
Angles:   90.00000  90.00000  90.00000  Average:  90.00000  90.00000  90.00000
Rectangular boundary conditions

net charge:   0.00000000

component 0 (CO2) lambda:  0 occupancy:  0 (0.000000)
    net charge:   0.00000000 [e]

Amount of molecules per component :
-------------------------------------------------------------------------------
Component 0 (CO2)
    molecules:      2.100000e+02 molecules  (2.212735e+02 +/- 5.342406e+00)
    number density: 1.393391e-02 molec./A^3 (1.388684e-02 +/- 1.844927e-04)
    density:        1.018035e+03 kg/m^3     (1.014597e+03 +/- 1.347935e+01)

Average pressure tensor: 
-------------------------------------------------------------------------------
 2.7320e+01 -2.9043e+01 -9.4222e+00 +/- 3.4601e+01 4.1452e+01 2.6493e+01 [bar]
-2.9043e+01  4.6951e+01  2.3309e+01 +/- 4.1452e+01 4.9597e+01 3.5255e+01 [bar]
-9.4222e+00  2.3309e+01  3.1491e+01 +/- 2.6493e+01 3.5255e+01 6.3447e+01 [bar]
Ideal-gas pressure:   4.984948e+02 +/ 6.622717e+00 [bar]
Excess pressure:     -4.632410e+02 +/ 7.030110e+00 [bar]
Pressure:             3.525372e+01 +/ 7.363119e+00 [bar]

Total potential energy/kʙ  -3.086186e+05 (-3.201965e+05 +/- 3.509358e+03) [K]
-------------------------------------------------------------------------------
ExternalField-molecule
    Van der Waals/kʙ        0.000000e+00 ( 0.000000e+00 +/- 0.000000e+00) [K]
Framework-molecule
    Van der Waals/kʙ        0.000000e+00 ( 0.000000e+00 +/- 0.000000e+00) [K]
    Van der Waals (Tail)/kʙ 0.000000e+00 ( 0.000000e+00 +/- 0.000000e+00) [K]
    Coulombic Real/kʙ       0.000000e+00 ( 0.000000e+00 +/- 0.000000e+00) [K]
    Coulombic Fourier/kʙ    0.000000e+00 ( 0.000000e+00 +/- 0.000000e+00) [K]
Molecule-molecule
    Van der Waals/kʙ       -2.156985e+05 (-2.299572e+05 +/- 2.296671e+03) [K]
    Van der Waals (Tail)/kʙ-9.388600e+03 (-9.856060e+03 +/- 9.619474e+01) [K]
    Coulombic Real/kʙ      -6.747391e+04 (-6.405561e+04 +/- 1.037394e+03) [K]
    Coulombic Fourier/kʙ   -1.605763e+04 (-1.632761e+04 +/- 2.797556e+02) [K]
    Molecule Intra/kʙ       0.000000e+00 ( 0.000000e+00 +/- 0.000000e+00) [K]


Energy statistics             |  Energy [K]   | Recomputed [K]|  Drift [K]    |
===============================================================================
Total potential energy/kʙ     | -3.285712e+05 | -3.288339e+05 |  2.627514e+02 |
    external field VDW/kʙ     |  0.000000e+00 |  0.000000e+00 |  0.000000e+00 |
    external field Real/kʙ    |  0.000000e+00 |  0.000000e+00 |  0.000000e+00 |
    framework-molecule VDW/kʙ |  0.000000e+00 |  0.000000e+00 |  0.000000e+00 |
    framework-molecule Real/kʙ|  0.000000e+00 |  0.000000e+00 |  0.000000e+00 |
    molecule-molecule VDW/kʙ  | -2.331561e+05 | -2.334188e+05 |  2.626668e+02 |
    molecule-molecule Real/kʙ | -7.024702e+04 | -7.024710e+04 |  8.464865e-02 |
    Van der Waals (Tail)/kʙ   | -9.845719e+03 | -9.845719e+03 | -1.247013e-10 |
    Ewald Fourier/kʙ          |  1.562835e+04 |  1.562835e+04 |  8.750971e-12 |
    Ewald self/kʙ             | -4.734826e+06 | -4.734826e+06 | -1.120124e-09 |
    Ewald exclusion/kʙ        |  4.703876e+06 |  4.703876e+06 |  0.000000e+00 |
    intra VDW/kʙ              |  0.000000e+00 |  0.000000e+00 |  0.000000e+00 |
    intra Coulombic/kʙ        |  0.000000e+00 |  0.000000e+00 |  0.000000e+00 |
    polarization/kʙ           |  0.000000e+00 |  0.000000e+00 |  0.000000e+00 |
    dU/dlambda VDW/kʙ         |  0.000000e+00 |  0.000000e+00 |  0.000000e+00 |
    dU/dlambda Real/kʙ        |  0.000000e+00 |  0.000000e+00 |  0.000000e+00 |
    dU/dlambda Ewald/kʙ       |  0.000000e+00 |  0.000000e+00 |  0.000000e+00 |
-------------------------------------------------------------------------------


Monte-Carlo moves statistics
===============================================================================

    Gibbs volume         all:                2977
    Gibbs volume         total:              5991
    Gibbs volume         constructed:        5991
    Gibbs volume         accepted:           4460
    Gibbs volume         fraction:       0.744450
    Gibbs volume         max-change:     0.037500

Component 0 [CO2]
    Reinsertion (CBMC)   all:              149421
    Reinsertion (CBMC)   total:            149421
    Reinsertion (CBMC)   constructed:      138837
    Reinsertion (CBMC)   accepted:           3859
    Reinsertion (CBMC)   fraction:       0.025826
    Reinsertion (CBMC)   max-change:     0.000000

    Gibbs swap (CBMC)    all:              297747
    Gibbs swap (CBMC)    total:            596543
    Gibbs swap (CBMC)    constructed:      574548
    Gibbs swap (CBMC)    accepted:          49750
    Gibbs swap (CBMC)    fraction:       0.083397
    Gibbs swap (CBMC)    max-change:     0.000000

    Translation          all:              149287
    Translation          total:             49837      49560      49890
    Translation          constructed:       49836      49519      49890
    Translation          accepted:          29874      19273      32240
    Translation          fraction:       0.599434   0.388882   0.646222
    Translation          max-change:     0.611957   0.796736   0.565885

    Rotation             all:              149508
    Rotation             total:             49861      49809      49838
    Rotation             constructed:       49713      49809      49838
    Rotation             accepted:          17324      28514      23832
    Rotation             fraction:       0.347446   0.572467   0.478189
    Rotation             max-change:     0.878724   0.662907   0.761655



Production run counting of the MC moves summed over systems and components
===============================================================================

Reinsertion (CBMC)                   299195 (19.9463 [%])
Gibbs volume                           5991 (0.3994 [%])
Gibbs swap (CBMC)                    596543 (39.7695 [%])
Translation                          299115 (19.9410 [%])
Rotation                             299156 (19.9437 [%])

Production count MC-steps:          1500000 [-]
               All summed:          1500000 [-]
               difference:                0 [-]


Production run CPU timings of the MC moves
===============================================================================

Component 0 CO2

Rotation                             22.120505 [s]
    Ewald                            11.297227 [s]
    ExternalField-Molecule            0.005762 [s]
    Framework-Molecule                0.006335 [s]
    Molecule-Molecule                 9.866410 [s]
    Overhead                          0.944771 [s]

Reinsertion (CBMC)                   80.702779 [s]
    Ewald                            10.542590 [s]
    NonEwald                         69.950646 [s]
    Overhead                          0.209543 [s]

Translation                          22.221682 [s]
    Ewald                            11.285567 [s]
    ExternalField-Molecule            0.004862 [s]
    Framework-Molecule                0.012220 [s]
    Molecule-Molecule                 9.880584 [s]
    Overhead                          1.038449 [s]



Gibbs swap (CBMC)                   117.893596 [s]
    Ewald                            25.132332 [s]
    NonEwald                         90.425714 [s]
    Tail                              1.291810 [s]

Gibbs volume                         21.515288 [s]
    Ewald                             9.883947 [s]
    NonEwald                         10.769859 [s]
    Tail                              0.694946 [s]

Property sampling                     0.319133 [s]
Energy/pressure sampling:             9.287174 [s]


Production run CPU timings of the MC moves summed over systems and components
===============================================================================


Translation                          30.269454 [s]
    Ewald                            17.313976 [s]
    ExternalField-Molecule            0.009714 [s]
    Framework-Molecule                0.024665 [s]
    Molecule-Molecule                11.013505 [s]
    Overhead                          1.907594 [s]

Rotation                             30.174031 [s]
    Ewald                            17.321511 [s]
    ExternalField-Molecule            0.011422 [s]
    Framework-Molecule                0.012594 [s]
    Molecule-Molecule                10.989570 [s]
    Overhead                          1.838934 [s]

Reinsertion (CBMC)                  100.047565 [s]
    Ewald                            16.612801 [s]
    NonEwald                         82.495404 [s]
    Overhead                          0.939360 [s]

Gibbs volume                         43.286922 [s]
    Ewald                            19.889255 [s]
    NonEwald                         21.669122 [s]
    Tail                              1.396766 [s]
    Overhead                          0.331779 [s]

Gibbs swap (CBMC)                   289.787722 [s]
    Ewald                            52.380048 [s]
    NonEwald                        232.461917 [s]
    Tail                              2.804429 [s]
    Overhead                          2.141328 [s]

Property sampling:                    0.551420 [s]
Energy/pressure sampling:             9.772553 [s]

Production simulation time:         505.251708 [s]
                All summed:         503.889667 [s]
                  Overhead:           1.362041 [s]


Initalization simulation time:      161.015469 [s]
Equilibration simulation time:        0.000000 [s]
Production simulation time:         505.251708 [s]
Total simulation time:              666.267177 [s]


Energy averages and statistics:
===============================================================================

Framework-molecule energy:
-------------------------------------------------------------------------------



Framework-molecule energy contributions per energy type:
-------------------------------------------------------------------------------



Inter-molecular energy:
-------------------------------------------------------------------------------

    Inter-molecular energy/kʙ 0-0 [CO2-CO2]:
    ---------------------------------------------------------------------------
        Block[  0] -3.211805e+05
        Block[  1] -3.214156e+05
        Block[  2] -3.234039e+05
        Block[  3] -3.185409e+05
        Block[  4] -3.178568e+05
        -----------------------------------------------------------------------
        Average  -3.204795e+05 +/-  2.814360e+03 [K]



Inter-molecular energy contributions per energy type:
-------------------------------------------------------------------------------

    Van der Waals energy/kʙ 0-0 [CO2-CO2]:
    ---------------------------------------------------------------------------
        Block[  0] -2.311469e+05
        Block[  1] -2.308304e+05
        Block[  2] -2.316417e+05
        Block[  3] -2.286521e+05
        Block[  4] -2.283143e+05
        -----------------------------------------------------------------------
        Average  -2.301171e+05 +/-  1.891956e+03 [K]

    VDW Tail-Correction energy/kʙ 0-0 [CO2-CO2]:
    ---------------------------------------------------------------------------
        Block[  0] -9.897342e+03
        Block[  1] -9.893347e+03
        Block[  2] -9.935717e+03
        Block[  3] -9.793146e+03
        Block[  4] -9.796638e+03
        -----------------------------------------------------------------------
        Average  -9.863238e+03 +/-  8.014708e+01 [K]

    Coulomb Real energy/kʙ 0-0 [CO2-CO2]:
    ---------------------------------------------------------------------------
        Block[  0] -6.387870e+04
        Block[  1] -6.451389e+04
        Block[  2] -6.516288e+04
        Block[  3] -6.367070e+04
        Block[  4] -6.355780e+04
        -----------------------------------------------------------------------
        Average  -6.415679e+04 +/-  8.356055e+02 [K]

    Coulomb Fourier energy/kʙ 0-0 [CO2-CO2]:
    ---------------------------------------------------------------------------
        Block[  0] -1.625760e+04
        Block[  1] -1.617797e+04
        Block[  2] -1.666365e+04
        Block[  3] -1.642502e+04
        Block[  4] -1.618804e+04
        -----------------------------------------------------------------------
        Average  -1.634246e+04 +/-  2.544860e+02 [K]


Total energy/kʙ
-------------------------------------------------------------------------------
    Block[  0] -3.211805e+05
    Block[  1] -3.214156e+05
    Block[  2] -3.234039e+05
    Block[  3] -3.185409e+05
    Block[  4] -3.178568e+05
    ---------------------------------------------------------------------------
    Average  -3.204795e+05 +/-  2.814360e+03 [K]

Pressure averages and statistics:
===============================================================================

Average pressure tensor: 
-------------------------------------------------------------------------------
 3.0254e+01 -2.4870e+01 -8.0226e+00 +/- 2.5382e+01 3.3469e+01 2.7439e+01 [bar]
-2.4870e+01  4.7956e+01  2.2788e+01 +/- 3.3469e+01 5.0184e+01 3.5187e+01 [bar]
-8.0226e+00  2.2788e+01  3.6116e+01 +/- 2.7439e+01 3.5187e+01 6.7787e+01 [bar]

    Block[  0]  4.940752e+07
    Block[  1]  4.946064e+07
    Block[  2]  4.954645e+07
    Block[  3]  5.043482e+07
    Block[  4]  5.055861e+07
    ---------------------------------------------------------------------------
    Ideal gas pressure   4.988161e+07 +/-  4.227028e-02 [Pa]
                         4.988161e+02 +/-  7.019149e+00 [bar]


    Block[  0] -4.685455e+07
    Block[  1] -4.603339e+07
    Block[  2] -4.548654e+07
    Block[  3] -4.655020e+07
    Block[  4] -4.542904e+07
    ---------------------------------------------------------------------------
    Excess pressure  -4.607074e+07 +/-  7.848512e+05 [Pa]
                     -4.607074e+02 +/-  7.848512e+00 [bar]


    Block[  0]  2.552979e+06
    Block[  1]  3.427254e+06
    Block[  2]  4.059906e+06
    Block[  3]  3.884626e+06
    Block[  4]  5.129571e+06
    ---------------------------------------------------------------------------
    Pressure average   3.810867e+06 +/-  1.167222e+06 [Pa]
                       3.810867e+01 +/-  1.167222e+01 [bar]


Enthalpy of adsorption
===============================================================================

Component 0 [CO2]
-------------------------------------------------------------------------------
    Block[  0] -2.685171e+03
    Block[  1] -2.757135e+03
    Block[  2] -1.899023e+03
    Block[  3] -1.891572e+03
    Block[  4] -2.113957e+03
    ---------------------------------------------------------------------------
    Enthalpy of adsorption: -2.269372e+03 +/-  5.248207e+02 [K]
                            -1.886861e+01 +/-  4.363604e+00 [kJ/mol]
    Warning: need to subtract the ideal-gas energy.


Densities
===============================================================================

Component 0 (CO2)
    Block[  0] 224.71833333333333
    Block[  1] 223.92666666666668
    Block[  2] 224.2475
    Block[  3] 217.21333333333334
    Block[  4] 216.04000000000002
    -----------------------------------------------------------------------
    Density average   2.212292e+02 +/-  5.253007e+00 [molecules]
    Density average   1.389580e-02 +/-  1.955363e-04 [molec/A^3]
    Density average   1.015251e+03 +/-  1.428622e+01 [kg.m⁻³]

