Compiler and run-time data
===============================================================================
RASPA 3.0.4

Random seed: 2826500834

Compiled as a 64-bits application
Compiler: gcc Ubuntu Clang 18.1.3 (1ubuntu1)
Compile Date = Mar 15 2025, Compile Time = 19:39:45

2025-06-03 11:00:36.160338
Simulation started on Tue, Jun 03
The start time was 11:00:00

Hostname:    c061
OS type:     Linux on x86_64
OS release:  6.8.0-58-generic
OS version:  #60-Ubuntu SMP PREEMPT_DYNAMIC Fri Mar 14 18:29:48 UTC 2025


Mutual consistent basic set of units:
===============================================================================

Unit of temperature: 1 [K]
Unit of length:      1e-10 [m]
Unit of time:        1e-12 [s]
Unit of mass:        1.6605402e-27 [kg]
Unit of charge:      1.60217733e-19 [C/particle]


Boltzmann constant (internal units):          0.8314464919307584 [-]
represents conversion from energy (internal units) to temperature (in Kelvin)

Derived units and their conversion factors:
===============================================================================

Unit of energy:                           1.6605402000000002e-23 [J]
Unit of energy:                           10.000008872307538 [J.mol⁻¹]
Unit of velocity:                         100 [m.s⁻¹]
Unit of force:                            1.6605402000000002e-13 [N]
Unit of diffusion:                        1.0000000000000002e-08 [m².s⁻¹]
Unit of acceleration:                     1.0000000000000002e-08 [m².s⁻¹]
Unit of torque:                           1.6605402000000002e-23 [N.m]
Unit of pressure:                         16605402 [Pa]
Unit of volume:                           1e-30 [m³]
Unit of density:                          1660.5402 [kg.m⁻³]
Unit of dynamic viscosity:                1.6605401999999997e-05 [N.s.m⁻²]
Unit of enthalpy:                         1.6605402000000002e-23 [J]
Unit of polarizability:                   1.5458657349975198e-35 [-]
Unit of Coulomb potential:                167101.08000665612 [K]
Unit of dielectric constant:              1.5458657349975193e-05 [s².C².kg⁻¹.m⁻³]
Unit of dipole moment:                    1.60217733e-29 [C.m]
Unit of Debye:                            4.803206799099162 [C.m]
Unit of electric potential:               0.00010364272224473431 [V]
Unit of electric field:                   1036427.222447343 [V.m⁻¹]
Unit of isothermal compressibility:       6.02213665167516e-08 [Pa⁻¹]
Unit of heat capacity:                    10.000008872307538 [J.mol⁻¹.K⁻¹]
Unit of volumetric expansion coefficient: 1 [K⁻¹]


Internal conversion factors:
===============================================================================

Energy (internal units) to Kelvin:      1.202724284692786 [-]
Kelvin to energy (internal units):      0.8314457542157567 [-]


System definitions
===============================================================================

Temperature:          260 [K]
Beta:                 0.004625858529058714 [-]
Pressure:             0 [Pa]
Helium void fraction: 1 [-]

Box:      30.00000   0.00000   0.00000
           0.00000  30.00000   0.00000
           0.00000   0.00000  30.00000
Lengths:  30.00000  30.00000  30.00000
Angles:   90.00000  90.00000  90.00000
Rectangular boundary conditions



Property measurement settings
===============================================================================




Pseudo-atoms
===============================================================================

  0 - C_co2    framework-atom: false
  1 - O_co2    framework-atom: false

  0 - C_co2    mass: 12.00000, charge:  0.70000
  1 - O_co2    mass: 15.99940, charge: -0.35000

  0 - C_co2    polarizability:  0.00000
  1 - O_co2    polarizability:  0.00000

  0 - J. J. Potoff et al., AIChE J. 2001, 47, 1676–1682.
  1 - J. J. Potoff et al., AIChE J. 2001, 47, 1676–1682.

Force field status
===============================================================================

Cutoff Framework-Molecule VDW:  12.00000 [Å]
Cutoff Molecule-Molecule VDW:   12.00000 [Å]
Cutoff Coulomb:                 12.00000 [Å]

Overlap-criteria VDW:           1.000000e+05 [K]

C_co2    - C_co2    Lennard-Jones p₀/kʙ:  27.00000 [K], p₁:  2.80000 [Å]
                                  shift:   0.00000 [K], tailcorrections: true
C_co2    - O_co2    Lennard-Jones p₀/kʙ:  46.18441 [K], p₁:  2.92500 [Å]
                                  shift:   0.00000 [K], tailcorrections: true
O_co2    - O_co2    Lennard-Jones p₀/kʙ:  79.00000 [K], p₁:  3.05000 [Å]
                                  shift:   0.00000 [K], tailcorrections: true

Ewald precision: 1e-06
Ewald alpha: 0.26505830360350674
Ewald k-vectors: 8 8 8


Component definitions
===============================================================================

Component 0 [CO2]

    Type: Adsorbate

    Critical temperature:  304.1282 [K]
    Critical pressure:     7377300 [Pa]
    Acentric factor:       0.22394 [-]

    Mol-fraction:                 1 [-]
    Swappable:                   true

    Mass:                         43.9988 [-]
    Fugacity coefficient:         -nan [-]
    Bulk fluid density:           0 [-]
    Compressibility:              1 [-]
    Excess molecules:             0 [-]

    Number Of Atoms:    3
    CBMC starting bead: 0
      0: O_co2  position  0.00000 -0.00000  1.16000, charge -0.35000
      1: C_co2  position  0.00000 -0.00000  0.00000, charge  0.70000
      2: O_co2  position  0.00000 -0.00000 -1.16000, charge -0.35000
    Diagonalized inertia-vector:      43.05758528 43.05758528 0.00000000
    Translational degrees of freedom: 3
    Rotational degrees of freedom:    2
    Shape of the molecule is: 'Linear'
    Net-charge:        0.00000000 [e]

    Move probabilities:
    Translation:                   0.199203 [-]
    Random translation:            0.000000 [-]
    Rotation:                      0.199203 [-]
    Random rotation:               0.000000 [-]
    Volume change:                 0.000000 [-]
    Reinsertion (CBMC):            0.199203 [-]
    Identity change (CBMC):        0.000000 [-]
    Swap:                          0.000000 [-]
    Swap (CBMC):                   0.000000 [-]
    Swap (CFCMC):                  0.000000 [-]
    Swap (CB/CFCMC):               0.000000 [-]
    Gibbs volume:                  0.003984 [-]
    Gibbs swap (CBMC):             0.398406 [-]
    Gibbs swap (CFCMC):            0.000000 [-]
    Widom:                         0.000000 [-]
    Widom (CFCMC):                 0.000000 [-]
    Widom (CB/CFCMC):              0.000000 [-]
    Parallel tempering:            0.000000 [-]
    Hybrid MC:                     0.000000 [-]

    number of blocking-pockets: 0

    number of bonds: 0





Number of pseudo-atoms
===============================================================================

Component   0 (CO2)
-------------------------------------------------------------------------------
    index   0 (C_co2): 40 atoms
    index   1 (O_co2): 80 atoms

Total number of pseudo-atoms:
-------------------------------------------------------------------------------
    index   0 (C_co2): 40 atoms
    index   1 (O_co2): 80 atoms




Energy status Recomputed from scratch
===============================================================================

Total potential energy/kʙ       -7.659218e+03 [K]
    external field VDW/kʙ        0.000000e+00 [K]
    external field Real/kʙ       0.000000e+00 [K]
    framework-molecule VDW/kʙ    0.000000e+00 [K]
    framework-molecule Real/kʙ   0.000000e+00 [K]
    molecule-molecule VDW/kʙ    -5.733511e+03 [K]
    molecule-molecule Real/kʙ   -1.791780e+03 [K]
    Van der Waals (Tail)/kʙ     -1.100506e+02 [K]
    Ewald Fourier/kʙ             2.328349e+03 [K]
    Ewald self/kʙ               -7.346713e+05 [K]
    Ewald exclusion/kʙ           7.323191e+05 [K]
    intra VDW/kʙ                 0.000000e+00 [K]
    intra Coulombic/kʙ           0.000000e+00 [K]
    polarization/kʙ              0.000000e+00 [K]
    dU/dlambda VDW/kʙ            0.000000e+00 [K]
    dU/dlambda Real/kʙ           0.000000e+00 [K]
    dU/dlambda Ewald/kʙ          0.000000e+00 [K]





Initialization: Current cycle: 0 out of 2000
===============================================================================

Box:      30.00000   0.00000   0.00000
           0.00000  30.00000   0.00000
           0.00000   0.00000  30.00000
Lengths:  30.00000  30.00000  30.00000
Angles:   90.00000  90.00000  90.00000
Rectangular boundary conditions

net charge:   0.00000000

component   0 (CO2) lambda:  0 occupancy:  1 (1.000000)
    net charge:   0.00000000 [e]

Amount of molecules per component :
-------------------------------------------------------------------------------
Component 0 (CO2)
    molecules:         3.700000e+01 molecules
    number density:    1.370370e-03 molec/A^3
    density:           1.001216e+02 kg/m^3

Total potential energy/kʙ       -9.591520e+03 [K]
-------------------------------------------------------------------------------
    external field VDW/kʙ        0.000000e+00 [K]
    external field Real/kʙ       0.000000e+00 [K]
    framework-molecule VDW/kʙ    0.000000e+00 [K]
    framework-molecule Real/kʙ   0.000000e+00 [K]
    molecule-molecule VDW/kʙ    -5.966235e+03 [K]
    molecule-molecule Real/kʙ   -3.343881e+03 [K]
    Van der Waals (Tail)/kʙ     -9.416205e+01 [K]
    Ewald Fourier/kʙ             1.988568e+03 [K]
    Ewald self/kʙ               -6.795709e+05 [K]
    Ewald exclusion/kʙ           6.773951e+05 [K]
    intra VDW/kʙ                 0.000000e+00 [K]
    intra Coulombic/kʙ           0.000000e+00 [K]
    polarization/kʙ              0.000000e+00 [K]
    dU/dlambda VDW/kʙ            0.000000e+00 [K]
    dU/dlambda Real/kʙ           0.000000e+00 [K]
    dU/dlambda Ewald/kʙ          0.000000e+00 [K]


Initialization: Current cycle: 100 out of 2000
===============================================================================

Box:      30.06489   0.00000   0.00000
           0.00000  30.06489   0.00000
           0.00000   0.00000  30.06489
Lengths:  30.06489  30.06489  30.06489
Angles:   90.00000  90.00000  90.00000
Rectangular boundary conditions

net charge:   0.00000000

component   0 (CO2) lambda:  0 occupancy:  1 (1.000000)
    net charge:   0.00000000 [e]

Amount of molecules per component :
-------------------------------------------------------------------------------
Component 0 (CO2)
    molecules:         1.200000e+01 molecules
    number density:    4.415731e-04 molec/A^3
    density:           3.226208e+01 kg/m^3

Total potential energy/kʙ       -5.280551e+02 [K]
-------------------------------------------------------------------------------
    external field VDW/kʙ        0.000000e+00 [K]
    external field Real/kʙ       0.000000e+00 [K]
    framework-molecule VDW/kʙ    0.000000e+00 [K]
    framework-molecule Real/kʙ   0.000000e+00 [K]
    molecule-molecule VDW/kʙ    -4.367231e+02 [K]
    molecule-molecule Real/kʙ   -9.539856e+01 [K]
    Van der Waals (Tail)/kʙ     -9.840565e+00 [K]
    Ewald Fourier/kʙ             7.195748e+02 [K]
    Ewald self/kʙ               -2.204014e+05 [K]
    Ewald exclusion/kʙ           2.196957e+05 [K]
    intra VDW/kʙ                 0.000000e+00 [K]
    intra Coulombic/kʙ           0.000000e+00 [K]
    polarization/kʙ              0.000000e+00 [K]
    dU/dlambda VDW/kʙ            0.000000e+00 [K]
    dU/dlambda Real/kʙ           0.000000e+00 [K]
    dU/dlambda Ewald/kʙ          0.000000e+00 [K]


Initialization: Current cycle: 200 out of 2000
===============================================================================

Box:      30.77602   0.00000   0.00000
           0.00000  30.77602   0.00000
           0.00000   0.00000  30.77602
Lengths:  30.77602  30.77602  30.77602
Angles:   90.00000  90.00000  90.00000
Rectangular boundary conditions

net charge:   0.00000000

component   0 (CO2) lambda:  0 occupancy:  1 (1.000000)
    net charge:   0.00000000 [e]

Amount of molecules per component :
-------------------------------------------------------------------------------
Component 0 (CO2)
    molecules:         1.800000e+01 molecules
    number density:    6.174973e-04 molec/A^3
    density:           4.511541e+01 kg/m^3

Total potential energy/kʙ       -9.755540e+02 [K]
-------------------------------------------------------------------------------
    external field VDW/kʙ        0.000000e+00 [K]
    external field Real/kʙ       0.000000e+00 [K]
    framework-molecule VDW/kʙ    0.000000e+00 [K]
    framework-molecule Real/kʙ   0.000000e+00 [K]
    molecule-molecule VDW/kʙ    -6.214022e+02 [K]
    molecule-molecule Real/kʙ   -2.525869e+02 [K]
    Van der Waals (Tail)/kʙ     -2.064162e+01 [K]
    Ewald Fourier/kʙ             9.775783e+02 [K]
    Ewald self/kʙ               -3.306021e+05 [K]
    Ewald exclusion/kʙ           3.295436e+05 [K]
    intra VDW/kʙ                 0.000000e+00 [K]
    intra Coulombic/kʙ           0.000000e+00 [K]
    polarization/kʙ              0.000000e+00 [K]
    dU/dlambda VDW/kʙ            0.000000e+00 [K]
    dU/dlambda Real/kʙ           0.000000e+00 [K]
    dU/dlambda Ewald/kʙ          0.000000e+00 [K]


Initialization: Current cycle: 300 out of 2000
===============================================================================

Box:      31.49604   0.00000   0.00000
           0.00000  31.49604   0.00000
           0.00000   0.00000  31.49604
Lengths:  31.49604  31.49604  31.49604
Angles:   90.00000  90.00000  90.00000
Rectangular boundary conditions

net charge:   0.00000000

component   0 (CO2) lambda:  0 occupancy:  1 (1.000000)
    net charge:   0.00000000 [e]

Amount of molecules per component :
-------------------------------------------------------------------------------
Component 0 (CO2)
    molecules:         9.000000e+00 molecules
    number density:    2.880544e-04 molec/A^3
    density:           2.104575e+01 kg/m^3

Total potential energy/kʙ       -7.550155e+02 [K]
-------------------------------------------------------------------------------
    external field VDW/kʙ        0.000000e+00 [K]
    external field Real/kʙ       0.000000e+00 [K]
    framework-molecule VDW/kʙ    0.000000e+00 [K]
    framework-molecule Real/kʙ   0.000000e+00 [K]
    molecule-molecule VDW/kʙ    -3.842213e+02 [K]
    molecule-molecule Real/kʙ   -3.130127e+02 [K]
    Van der Waals (Tail)/kʙ     -4.814523e+00 [K]
    Ewald Fourier/kʙ             4.762838e+02 [K]
    Ewald self/kʙ               -1.653010e+05 [K]
    Ewald exclusion/kʙ           1.647718e+05 [K]
    intra VDW/kʙ                 0.000000e+00 [K]
    intra Coulombic/kʙ           0.000000e+00 [K]
    polarization/kʙ              0.000000e+00 [K]
    dU/dlambda VDW/kʙ            0.000000e+00 [K]
    dU/dlambda Real/kʙ           0.000000e+00 [K]
    dU/dlambda Ewald/kʙ          0.000000e+00 [K]


Initialization: Current cycle: 400 out of 2000
===============================================================================

Box:      31.56096   0.00000   0.00000
           0.00000  31.56096   0.00000
           0.00000   0.00000  31.56096
Lengths:  31.56096  31.56096  31.56096
Angles:   90.00000  90.00000  90.00000
Rectangular boundary conditions

net charge:   0.00000000

component   0 (CO2) lambda:  0 occupancy:  1 (1.000000)
    net charge:   0.00000000 [e]

Amount of molecules per component :
-------------------------------------------------------------------------------
Component 0 (CO2)
    molecules:         1.500000e+01 molecules
    number density:    4.771343e-04 molec/A^3
    density:           3.486025e+01 kg/m^3

Total potential energy/kʙ       -7.807393e+02 [K]
-------------------------------------------------------------------------------
    external field VDW/kʙ        0.000000e+00 [K]
    external field Real/kʙ       0.000000e+00 [K]
    framework-molecule VDW/kʙ    0.000000e+00 [K]
    framework-molecule Real/kʙ   0.000000e+00 [K]
    molecule-molecule VDW/kʙ    -8.183219e+02 [K]
    molecule-molecule Real/kʙ    1.434217e+01 [K]
    Van der Waals (Tail)/kʙ     -1.329132e+01 [K]
    Ewald Fourier/kʙ             9.186164e+02 [K]
    Ewald self/kʙ               -2.755017e+05 [K]
    Ewald exclusion/kʙ           2.746196e+05 [K]
    intra VDW/kʙ                 0.000000e+00 [K]
    intra Coulombic/kʙ           0.000000e+00 [K]
    polarization/kʙ              0.000000e+00 [K]
    dU/dlambda VDW/kʙ            0.000000e+00 [K]
    dU/dlambda Real/kʙ           0.000000e+00 [K]
    dU/dlambda Ewald/kʙ          0.000000e+00 [K]


Initialization: Current cycle: 500 out of 2000
===============================================================================

Box:      32.13016   0.00000   0.00000
           0.00000  32.13016   0.00000
           0.00000   0.00000  32.13016
Lengths:  32.13016  32.13016  32.13016
Angles:   90.00000  90.00000  90.00000
Rectangular boundary conditions

net charge:   0.00000000

component   0 (CO2) lambda:  0 occupancy:  1 (1.000000)
    net charge:   0.00000000 [e]

Amount of molecules per component :
-------------------------------------------------------------------------------
Component 0 (CO2)
    molecules:         1.900000e+01 molecules
    number density:    5.728156e-04 molec/A^3
    density:           4.185089e+01 kg/m^3

Total potential energy/kʙ       -2.737065e+03 [K]
-------------------------------------------------------------------------------
    external field VDW/kʙ        0.000000e+00 [K]
    external field Real/kʙ       0.000000e+00 [K]
    framework-molecule VDW/kʙ    0.000000e+00 [K]
    framework-molecule Real/kʙ   0.000000e+00 [K]
    molecule-molecule VDW/kʙ    -1.881160e+03 [K]
    molecule-molecule Real/kʙ   -8.484584e+02 [K]
    Van der Waals (Tail)/kʙ     -2.021179e+01 [K]
    Ewald Fourier/kʙ             1.130073e+03 [K]
    Ewald self/kʙ               -3.489689e+05 [K]
    Ewald exclusion/kʙ           3.478516e+05 [K]
    intra VDW/kʙ                 0.000000e+00 [K]
    intra Coulombic/kʙ           0.000000e+00 [K]
    polarization/kʙ              0.000000e+00 [K]
    dU/dlambda VDW/kʙ            0.000000e+00 [K]
    dU/dlambda Real/kʙ           0.000000e+00 [K]
    dU/dlambda Ewald/kʙ          0.000000e+00 [K]


Initialization: Current cycle: 600 out of 2000
===============================================================================

Box:      32.89783   0.00000   0.00000
           0.00000  32.89783   0.00000
           0.00000   0.00000  32.89783
Lengths:  32.89783  32.89783  32.89783
Angles:   90.00000  90.00000  90.00000
Rectangular boundary conditions

net charge:   0.00000000

component   0 (CO2) lambda:  0 occupancy:  1 (1.000000)
    net charge:   0.00000000 [e]

Amount of molecules per component :
-------------------------------------------------------------------------------
Component 0 (CO2)
    molecules:         1.700000e+01 molecules
    number density:    4.774714e-04 molec/A^3
    density:           3.488487e+01 kg/m^3

Total potential energy/kʙ       -7.294207e+01 [K]
-------------------------------------------------------------------------------
    external field VDW/kʙ        0.000000e+00 [K]
    external field Real/kʙ       0.000000e+00 [K]
    framework-molecule VDW/kʙ    0.000000e+00 [K]
    framework-molecule Real/kʙ   0.000000e+00 [K]
    molecule-molecule VDW/kʙ    -3.142119e+02 [K]
    molecule-molecule Real/kʙ    2.838808e+02 [K]
    Van der Waals (Tail)/kʙ     -1.507414e+01 [K]
    Ewald Fourier/kʙ             9.721591e+02 [K]
    Ewald self/kʙ               -3.122353e+05 [K]
    Ewald exclusion/kʙ           3.112356e+05 [K]
    intra VDW/kʙ                 0.000000e+00 [K]
    intra Coulombic/kʙ           0.000000e+00 [K]
    polarization/kʙ              0.000000e+00 [K]
    dU/dlambda VDW/kʙ            0.000000e+00 [K]
    dU/dlambda Real/kʙ           0.000000e+00 [K]
    dU/dlambda Ewald/kʙ          0.000000e+00 [K]


Initialization: Current cycle: 700 out of 2000
===============================================================================

Box:      33.07071   0.00000   0.00000
           0.00000  33.07071   0.00000
           0.00000   0.00000  33.07071
Lengths:  33.07071  33.07071  33.07071
Angles:   90.00000  90.00000  90.00000
Rectangular boundary conditions

net charge:   0.00000000

component   0 (CO2) lambda:  0 occupancy:  1 (1.000000)
    net charge:   0.00000000 [e]

Amount of molecules per component :
-------------------------------------------------------------------------------
Component 0 (CO2)
    molecules:         9.000000e+00 molecules
    number density:    2.488353e-04 molec/A^3
    density:           1.818033e+01 kg/m^3

Total potential energy/kʙ       -4.507757e+02 [K]
-------------------------------------------------------------------------------
    external field VDW/kʙ        0.000000e+00 [K]
    external field Real/kʙ       0.000000e+00 [K]
    framework-molecule VDW/kʙ    0.000000e+00 [K]
    framework-molecule Real/kʙ   0.000000e+00 [K]
    molecule-molecule VDW/kʙ    -2.548598e+02 [K]
    molecule-molecule Real/kʙ   -1.867304e+02 [K]
    Van der Waals (Tail)/kʙ     -4.159017e+00 [K]
    Ewald Fourier/kʙ             5.242243e+02 [K]
    Ewald self/kʙ               -1.653010e+05 [K]
    Ewald exclusion/kʙ           1.647718e+05 [K]
    intra VDW/kʙ                 0.000000e+00 [K]
    intra Coulombic/kʙ           0.000000e+00 [K]
    polarization/kʙ              0.000000e+00 [K]
    dU/dlambda VDW/kʙ            0.000000e+00 [K]
    dU/dlambda Real/kʙ           0.000000e+00 [K]
    dU/dlambda Ewald/kʙ          0.000000e+00 [K]


Initialization: Current cycle: 800 out of 2000
===============================================================================

Box:      33.44781   0.00000   0.00000
           0.00000  33.44781   0.00000
           0.00000   0.00000  33.44781
Lengths:  33.44781  33.44781  33.44781
Angles:   90.00000  90.00000  90.00000
Rectangular boundary conditions

net charge:   0.00000000

component   0 (CO2) lambda:  0 occupancy:  1 (1.000000)
    net charge:   0.00000000 [e]

Amount of molecules per component :
-------------------------------------------------------------------------------
Component 0 (CO2)
    molecules:         1.600000e+01 molecules
    number density:    4.275796e-04 molec/A^3
    density:           3.123970e+01 kg/m^3

Total potential energy/kʙ       -9.470815e+02 [K]
-------------------------------------------------------------------------------
    external field VDW/kʙ        0.000000e+00 [K]
    external field Real/kʙ       0.000000e+00 [K]
    framework-molecule VDW/kʙ    0.000000e+00 [K]
    framework-molecule Real/kʙ   0.000000e+00 [K]
    molecule-molecule VDW/kʙ    -5.738123e+02 [K]
    molecule-molecule Real/kʙ   -3.337848e+02 [K]
    Van der Waals (Tail)/kʙ     -1.270496e+01 [K]
    Ewald Fourier/kʙ             9.141108e+02 [K]
    Ewald self/kʙ               -2.938685e+05 [K]
    Ewald exclusion/kʙ           2.929276e+05 [K]
    intra VDW/kʙ                 0.000000e+00 [K]
    intra Coulombic/kʙ           0.000000e+00 [K]
    polarization/kʙ              0.000000e+00 [K]
    dU/dlambda VDW/kʙ            0.000000e+00 [K]
    dU/dlambda Real/kʙ           0.000000e+00 [K]
    dU/dlambda Ewald/kʙ          0.000000e+00 [K]


Initialization: Current cycle: 900 out of 2000
===============================================================================

Box:      33.66580   0.00000   0.00000
           0.00000  33.66580   0.00000
           0.00000   0.00000  33.66580
Lengths:  33.66580  33.66580  33.66580
Angles:   90.00000  90.00000  90.00000
Rectangular boundary conditions

net charge:   0.00000000

component   0 (CO2) lambda:  0 occupancy:  1 (1.000000)
    net charge:   0.00000000 [e]

Amount of molecules per component :
-------------------------------------------------------------------------------
Component 0 (CO2)
    molecules:         3.200000e+01 molecules
    number density:    8.386545e-04 molec/A^3
    density:           6.127353e+01 kg/m^3

Total potential energy/kʙ       -3.825802e+03 [K]
-------------------------------------------------------------------------------
    external field VDW/kʙ        0.000000e+00 [K]
    external field Real/kʙ       0.000000e+00 [K]
    framework-molecule VDW/kʙ    0.000000e+00 [K]
    framework-molecule Real/kʙ   0.000000e+00 [K]
    molecule-molecule VDW/kʙ    -2.415170e+03 [K]
    molecule-molecule Real/kʙ   -1.163222e+03 [K]
    Van der Waals (Tail)/kʙ     -4.983899e+01 [K]
    Ewald Fourier/kʙ             1.684209e+03 [K]
    Ewald self/kʙ               -5.877370e+05 [K]
    Ewald exclusion/kʙ           5.858552e+05 [K]
    intra VDW/kʙ                 0.000000e+00 [K]
    intra Coulombic/kʙ           0.000000e+00 [K]
    polarization/kʙ              0.000000e+00 [K]
    dU/dlambda VDW/kʙ            0.000000e+00 [K]
    dU/dlambda Real/kʙ           0.000000e+00 [K]
    dU/dlambda Ewald/kʙ          0.000000e+00 [K]


Initialization: Current cycle: 1000 out of 2000
===============================================================================

Box:      33.70685   0.00000   0.00000
           0.00000  33.70685   0.00000
           0.00000   0.00000  33.70685
Lengths:  33.70685  33.70685  33.70685
Angles:   90.00000  90.00000  90.00000
Rectangular boundary conditions

net charge:   0.00000000

component   0 (CO2) lambda:  0 occupancy:  1 (1.000000)
    net charge:   0.00000000 [e]

Amount of molecules per component :
-------------------------------------------------------------------------------
Component 0 (CO2)
    molecules:         2.500000e+01 molecules
    number density:    6.528083e-04 molec/A^3
    density:           4.769529e+01 kg/m^3

Total potential energy/kʙ       -2.484726e+03 [K]
-------------------------------------------------------------------------------
    external field VDW/kʙ        0.000000e+00 [K]
    external field Real/kʙ       0.000000e+00 [K]
    framework-molecule VDW/kʙ    0.000000e+00 [K]
    framework-molecule Real/kʙ   0.000000e+00 [K]
    molecule-molecule VDW/kʙ    -8.953994e+02 [K]
    molecule-molecule Real/kʙ   -1.535524e+03 [K]
    Van der Waals (Tail)/kʙ     -3.030832e+01 [K]
    Ewald Fourier/kʙ             1.446647e+03 [K]
    Ewald self/kʙ               -4.591696e+05 [K]
    Ewald exclusion/kʙ           4.576994e+05 [K]
    intra VDW/kʙ                 0.000000e+00 [K]
    intra Coulombic/kʙ           0.000000e+00 [K]
    polarization/kʙ              0.000000e+00 [K]
    dU/dlambda VDW/kʙ            0.000000e+00 [K]
    dU/dlambda Real/kʙ           0.000000e+00 [K]
    dU/dlambda Ewald/kʙ          0.000000e+00 [K]


Initialization: Current cycle: 1100 out of 2000
===============================================================================

Box:      33.59744   0.00000   0.00000
           0.00000  33.59744   0.00000
           0.00000   0.00000  33.59744
Lengths:  33.59744  33.59744  33.59744
Angles:   90.00000  90.00000  90.00000
Rectangular boundary conditions

net charge:   0.00000000

component   0 (CO2) lambda:  0 occupancy:  1 (1.000000)
    net charge:   0.00000000 [e]

Amount of molecules per component :
-------------------------------------------------------------------------------
Component 0 (CO2)
    molecules:         3.000000e+01 molecules
    number density:    7.910475e-04 molec/A^3
    density:           5.779528e+01 kg/m^3

Total potential energy/kʙ       -1.465697e+03 [K]
-------------------------------------------------------------------------------
    external field VDW/kʙ        0.000000e+00 [K]
    external field Real/kʙ       0.000000e+00 [K]
    framework-molecule VDW/kʙ    0.000000e+00 [K]
    framework-molecule Real/kʙ   0.000000e+00 [K]
    molecule-molecule VDW/kʙ    -1.299682e+03 [K]
    molecule-molecule Real/kʙ   -1.651444e+02 [K]
    Van der Waals (Tail)/kʙ     -4.407172e+01 [K]
    Ewald Fourier/kʙ             1.807370e+03 [K]
    Ewald self/kʙ               -5.510035e+05 [K]
    Ewald exclusion/kʙ           5.492393e+05 [K]
    intra VDW/kʙ                 0.000000e+00 [K]
    intra Coulombic/kʙ           0.000000e+00 [K]
    polarization/kʙ              0.000000e+00 [K]
    dU/dlambda VDW/kʙ            0.000000e+00 [K]
    dU/dlambda Real/kʙ           0.000000e+00 [K]
    dU/dlambda Ewald/kʙ          0.000000e+00 [K]


Initialization: Current cycle: 1200 out of 2000
===============================================================================

Box:      33.85974   0.00000   0.00000
           0.00000  33.85974   0.00000
           0.00000   0.00000  33.85974
Lengths:  33.85974  33.85974  33.85974
Angles:   90.00000  90.00000  90.00000
Rectangular boundary conditions

net charge:   0.00000000

component   0 (CO2) lambda:  0 occupancy:  1 (1.000000)
    net charge:   0.00000000 [e]

Amount of molecules per component :
-------------------------------------------------------------------------------
Component 0 (CO2)
    molecules:         2.700000e+01 molecules
    number density:    6.955254e-04 molec/A^3
    density:           5.081628e+01 kg/m^3

Total potential energy/kʙ       -1.911175e+03 [K]
-------------------------------------------------------------------------------
    external field VDW/kʙ        0.000000e+00 [K]
    external field Real/kʙ       0.000000e+00 [K]
    framework-molecule VDW/kʙ    0.000000e+00 [K]
    framework-molecule Real/kʙ   0.000000e+00 [K]
    molecule-molecule VDW/kʙ    -1.702165e+03 [K]
    molecule-molecule Real/kʙ   -1.821389e+02 [K]
    Van der Waals (Tail)/kʙ     -3.487490e+01 [K]
    Ewald Fourier/kʙ             1.595756e+03 [K]
    Ewald self/kʙ               -4.959031e+05 [K]
    Ewald exclusion/kʙ           4.943154e+05 [K]
    intra VDW/kʙ                 0.000000e+00 [K]
    intra Coulombic/kʙ           0.000000e+00 [K]
    polarization/kʙ              0.000000e+00 [K]
    dU/dlambda VDW/kʙ            0.000000e+00 [K]
    dU/dlambda Real/kʙ           0.000000e+00 [K]
    dU/dlambda Ewald/kʙ          0.000000e+00 [K]


Initialization: Current cycle: 1300 out of 2000
===============================================================================

Box:      33.86535   0.00000   0.00000
           0.00000  33.86535   0.00000
           0.00000   0.00000  33.86535
Lengths:  33.86535  33.86535  33.86535
Angles:   90.00000  90.00000  90.00000
Rectangular boundary conditions

net charge:   0.00000000

component   0 (CO2) lambda:  0 occupancy:  1 (1.000000)
    net charge:   0.00000000 [e]

Amount of molecules per component :
-------------------------------------------------------------------------------
Component 0 (CO2)
    molecules:         3.200000e+01 molecules
    number density:    8.239166e-04 molec/A^3
    density:           6.019676e+01 kg/m^3

Total potential energy/kʙ       -3.458688e+03 [K]
-------------------------------------------------------------------------------
    external field VDW/kʙ        0.000000e+00 [K]
    external field Real/kʙ       0.000000e+00 [K]
    framework-molecule VDW/kʙ    0.000000e+00 [K]
    framework-molecule Real/kʙ   0.000000e+00 [K]
    molecule-molecule VDW/kʙ    -2.917263e+03 [K]
    molecule-molecule Real/kʙ   -3.618093e+02 [K]
    Van der Waals (Tail)/kʙ     -4.896316e+01 [K]
    Ewald Fourier/kʙ             1.751128e+03 [K]
    Ewald self/kʙ               -5.877370e+05 [K]
    Ewald exclusion/kʙ           5.858552e+05 [K]
    intra VDW/kʙ                 0.000000e+00 [K]
    intra Coulombic/kʙ           0.000000e+00 [K]
    polarization/kʙ              0.000000e+00 [K]
    dU/dlambda VDW/kʙ            0.000000e+00 [K]
    dU/dlambda Real/kʙ           0.000000e+00 [K]
    dU/dlambda Ewald/kʙ          0.000000e+00 [K]


Initialization: Current cycle: 1400 out of 2000
===============================================================================

Box:      33.80418   0.00000   0.00000
           0.00000  33.80418   0.00000
           0.00000   0.00000  33.80418
Lengths:  33.80418  33.80418  33.80418
Angles:   90.00000  90.00000  90.00000
Rectangular boundary conditions

net charge:   0.00000000

component   0 (CO2) lambda:  0 occupancy:  1 (1.000000)
    net charge:   0.00000000 [e]

Amount of molecules per component :
-------------------------------------------------------------------------------
Component 0 (CO2)
    molecules:         2.900000e+01 molecules
    number density:    7.507352e-04 molec/A^3
    density:           5.485000e+01 kg/m^3

Total potential energy/kʙ       -3.397334e+03 [K]
-------------------------------------------------------------------------------
    external field VDW/kʙ        0.000000e+00 [K]
    external field Real/kʙ       0.000000e+00 [K]
    framework-molecule VDW/kʙ    0.000000e+00 [K]
    framework-molecule Real/kʙ   0.000000e+00 [K]
    molecule-molecule VDW/kʙ    -2.468468e+03 [K]
    molecule-molecule Real/kʙ   -7.672600e+02 [K]
    Van der Waals (Tail)/kʙ     -4.043161e+01 [K]
    Ewald Fourier/kʙ             1.584189e+03 [K]
    Ewald self/kʙ               -5.326367e+05 [K]
    Ewald exclusion/kʙ           5.309313e+05 [K]
    intra VDW/kʙ                 0.000000e+00 [K]
    intra Coulombic/kʙ           0.000000e+00 [K]
    polarization/kʙ              0.000000e+00 [K]
    dU/dlambda VDW/kʙ            0.000000e+00 [K]
    dU/dlambda Real/kʙ           0.000000e+00 [K]
    dU/dlambda Ewald/kʙ          0.000000e+00 [K]


Initialization: Current cycle: 1500 out of 2000
===============================================================================

Box:      33.76200   0.00000   0.00000
           0.00000  33.76200   0.00000
           0.00000   0.00000  33.76200
Lengths:  33.76200  33.76200  33.76200
Angles:   90.00000  90.00000  90.00000
Rectangular boundary conditions

net charge:   0.00000000

component   0 (CO2) lambda:  0 occupancy:  1 (1.000000)
    net charge:   0.00000000 [e]

Amount of molecules per component :
-------------------------------------------------------------------------------
Component 0 (CO2)
    molecules:         2.600000e+01 molecules
    number density:    6.755988e-04 molec/A^3
    density:           4.936040e+01 kg/m^3

Total potential energy/kʙ       -1.878207e+03 [K]
-------------------------------------------------------------------------------
    external field VDW/kʙ        0.000000e+00 [K]
    external field Real/kʙ       0.000000e+00 [K]
    framework-molecule VDW/kʙ    0.000000e+00 [K]
    framework-molecule Real/kʙ   0.000000e+00 [K]
    molecule-molecule VDW/kʙ    -1.266863e+03 [K]
    molecule-molecule Real/kʙ   -5.013854e+02 [K]
    Van der Waals (Tail)/kʙ     -3.262109e+01 [K]
    Ewald Fourier/kʙ             1.451608e+03 [K]
    Ewald self/kʙ               -4.775363e+05 [K]
    Ewald exclusion/kʙ           4.760074e+05 [K]
    intra VDW/kʙ                 0.000000e+00 [K]
    intra Coulombic/kʙ           0.000000e+00 [K]
    polarization/kʙ              0.000000e+00 [K]
    dU/dlambda VDW/kʙ            0.000000e+00 [K]
    dU/dlambda Real/kʙ           0.000000e+00 [K]
    dU/dlambda Ewald/kʙ          0.000000e+00 [K]


Initialization: Current cycle: 1600 out of 2000
===============================================================================

Box:      33.96492   0.00000   0.00000
           0.00000  33.96492   0.00000
           0.00000   0.00000  33.96492
Lengths:  33.96492  33.96492  33.96492
Angles:   90.00000  90.00000  90.00000
Rectangular boundary conditions

net charge:   0.00000000

component   0 (CO2) lambda:  0 occupancy:  1 (1.000000)
    net charge:   0.00000000 [e]

Amount of molecules per component :
-------------------------------------------------------------------------------
Component 0 (CO2)
    molecules:         3.900000e+01 molecules
    number density:    9.953428e-04 molec/A^3
    density:           7.272145e+01 kg/m^3

Total potential energy/kʙ       -4.872355e+03 [K]
-------------------------------------------------------------------------------
    external field VDW/kʙ        0.000000e+00 [K]
    external field Real/kʙ       0.000000e+00 [K]
    framework-molecule VDW/kʙ    0.000000e+00 [K]
    framework-molecule Real/kʙ   0.000000e+00 [K]
    molecule-molecule VDW/kʙ    -3.176148e+03 [K]
    molecule-molecule Real/kʙ   -1.468769e+03 [K]
    Van der Waals (Tail)/kʙ     -7.208975e+01 [K]
    Ewald Fourier/kʙ             2.138072e+03 [K]
    Ewald self/kʙ               -7.163045e+05 [K]
    Ewald exclusion/kʙ           7.140111e+05 [K]
    intra VDW/kʙ                 0.000000e+00 [K]
    intra Coulombic/kʙ           0.000000e+00 [K]
    polarization/kʙ              0.000000e+00 [K]
    dU/dlambda VDW/kʙ            0.000000e+00 [K]
    dU/dlambda Real/kʙ           0.000000e+00 [K]
    dU/dlambda Ewald/kʙ          0.000000e+00 [K]


Initialization: Current cycle: 1700 out of 2000
===============================================================================

Box:      33.90604   0.00000   0.00000
           0.00000  33.90604   0.00000
           0.00000   0.00000  33.90604
Lengths:  33.90604  33.90604  33.90604
Angles:   90.00000  90.00000  90.00000
Rectangular boundary conditions

net charge:   0.00000000

component   0 (CO2) lambda:  0 occupancy:  1 (1.000000)
    net charge:   0.00000000 [e]

Amount of molecules per component :
-------------------------------------------------------------------------------
Component 0 (CO2)
    molecules:         3.400000e+01 molecules
    number density:    8.722638e-04 molec/A^3
    density:           6.372909e+01 kg/m^3

Total potential energy/kʙ       -4.694139e+03 [K]
-------------------------------------------------------------------------------
    external field VDW/kʙ        0.000000e+00 [K]
    external field Real/kʙ       0.000000e+00 [K]
    framework-molecule VDW/kʙ    0.000000e+00 [K]
    framework-molecule Real/kʙ   0.000000e+00 [K]
    molecule-molecule VDW/kʙ    -3.636719e+03 [K]
    molecule-molecule Real/kʙ   -9.217047e+02 [K]
    Van der Waals (Tail)/kʙ     -5.507608e+01 [K]
    Ewald Fourier/kʙ             1.918753e+03 [K]
    Ewald self/kʙ               -6.244706e+05 [K]
    Ewald exclusion/kʙ           6.224712e+05 [K]
    intra VDW/kʙ                 0.000000e+00 [K]
    intra Coulombic/kʙ           0.000000e+00 [K]
    polarization/kʙ              0.000000e+00 [K]
    dU/dlambda VDW/kʙ            0.000000e+00 [K]
    dU/dlambda Real/kʙ           0.000000e+00 [K]
    dU/dlambda Ewald/kʙ          0.000000e+00 [K]


Initialization: Current cycle: 1800 out of 2000
===============================================================================

Box:      33.86869   0.00000   0.00000
           0.00000  33.86869   0.00000
           0.00000   0.00000  33.86869
Lengths:  33.86869  33.86869  33.86869
Angles:   90.00000  90.00000  90.00000
Rectangular boundary conditions

net charge:   0.00000000

component   0 (CO2) lambda:  0 occupancy:  1 (1.000000)
    net charge:   0.00000000 [e]

Amount of molecules per component :
-------------------------------------------------------------------------------
Component 0 (CO2)
    molecules:         2.400000e+01 molecules
    number density:    6.177546e-04 molec/A^3
    density:           4.513421e+01 kg/m^3

Total potential energy/kʙ       -2.026980e+03 [K]
-------------------------------------------------------------------------------
    external field VDW/kʙ        0.000000e+00 [K]
    external field Real/kʙ       0.000000e+00 [K]
    framework-molecule VDW/kʙ    0.000000e+00 [K]
    framework-molecule Real/kʙ   0.000000e+00 [K]
    molecule-molecule VDW/kʙ    -1.934732e+03 [K]
    molecule-molecule Real/kʙ   -5.886499e+01 [K]
    Van der Waals (Tail)/kʙ     -2.753363e+01 [K]
    Ewald Fourier/kʙ             1.405485e+03 [K]
    Ewald self/kʙ               -4.408028e+05 [K]
    Ewald exclusion/kʙ           4.393914e+05 [K]
    intra VDW/kʙ                 0.000000e+00 [K]
    intra Coulombic/kʙ           0.000000e+00 [K]
    polarization/kʙ              0.000000e+00 [K]
    dU/dlambda VDW/kʙ            0.000000e+00 [K]
    dU/dlambda Real/kʙ           0.000000e+00 [K]
    dU/dlambda Ewald/kʙ          0.000000e+00 [K]


Initialization: Current cycle: 1900 out of 2000
===============================================================================

Box:      33.75075   0.00000   0.00000
           0.00000  33.75075   0.00000
           0.00000   0.00000  33.75075
Lengths:  33.75075  33.75075  33.75075
Angles:   90.00000  90.00000  90.00000
Rectangular boundary conditions

net charge:   0.00000000

component   0 (CO2) lambda:  0 occupancy:  1 (1.000000)
    net charge:   0.00000000 [e]

Amount of molecules per component :
-------------------------------------------------------------------------------
Component 0 (CO2)
    molecules:         3.400000e+01 molecules
    number density:    8.843589e-04 molec/A^3
    density:           6.461278e+01 kg/m^3

Total potential energy/kʙ       -2.740084e+03 [K]
-------------------------------------------------------------------------------
    external field VDW/kʙ        0.000000e+00 [K]
    external field Real/kʙ       0.000000e+00 [K]
    framework-molecule VDW/kʙ    0.000000e+00 [K]
    framework-molecule Real/kʙ   0.000000e+00 [K]
    molecule-molecule VDW/kʙ    -2.324064e+03 [K]
    molecule-molecule Real/kʙ   -2.319276e+02 [K]
    Van der Waals (Tail)/kʙ     -5.583978e+01 [K]
    Ewald Fourier/kʙ             1.871140e+03 [K]
    Ewald self/kʙ               -6.244706e+05 [K]
    Ewald exclusion/kʙ           6.224712e+05 [K]
    intra VDW/kʙ                 0.000000e+00 [K]
    intra Coulombic/kʙ           0.000000e+00 [K]
    polarization/kʙ              0.000000e+00 [K]
    dU/dlambda VDW/kʙ            0.000000e+00 [K]
    dU/dlambda Real/kʙ           0.000000e+00 [K]
    dU/dlambda Ewald/kʙ          0.000000e+00 [K]


Current cycle: 0 out of 6000
===============================================================================

Box:      33.73790   0.00000   0.00000  Average:  33.73790   0.00000   0.00000
           0.00000  33.73790   0.00000             0.00000  33.73790   0.00000
           0.00000   0.00000  33.73790             0.00000   0.00000  33.73790
Lengths:  33.73790  33.73790  33.73790  Average:  33.73790  33.73790  33.73790
Angles:   90.00000  90.00000  90.00000  Average:  90.00000  90.00000  90.00000
Rectangular boundary conditions

net charge:   0.00000000

component 0 (CO2) lambda:  0 occupancy:  1 (1.000000)
    net charge:   0.00000000 [e]

Amount of molecules per component :
-------------------------------------------------------------------------------
Component 0 (CO2)
    molecules:      3.300000e+01 molecules  (3.300000e+01 +/- 0.000000e+00)
    number density: 8.593299e-04 molec./A^3 (8.593299e-04 +/- 0.000000e+00)
    density:        6.278411e+01 kg/m^3     (6.278411e+01 +/- 0.000000e+00)

Average pressure tensor: 
-------------------------------------------------------------------------------
 3.0847e+01  0.0000e+00  0.0000e+00 +/- 0.0000e+00 0.0000e+00 0.0000e+00 [bar]
 0.0000e+00  3.0847e+01  0.0000e+00 +/- 0.0000e+00 0.0000e+00 0.0000e+00 [bar]
 0.0000e+00  0.0000e+00  3.0847e+01 +/- 0.0000e+00 0.0000e+00 0.0000e+00 [bar]
Ideal-gas pressure:   3.084729e+01 +/ 0.000000e+00 [bar]
Excess pressure:      0.000000e+00 +/ 0.000000e+00 [bar]
Pressure:             3.084729e+01 +/ 0.000000e+00 [bar]

Total potential energy/kʙ  -4.974030e+03 (-4.974030e+03 +/- 0.000000e+00) [K]
-------------------------------------------------------------------------------
ExternalField-molecule
    Van der Waals/kʙ        0.000000e+00 ( 0.000000e+00 +/- 0.000000e+00) [K]
Framework-molecule
    Van der Waals/kʙ        0.000000e+00 ( 0.000000e+00 +/- 0.000000e+00) [K]
    Van der Waals (Tail)/kʙ 0.000000e+00 ( 0.000000e+00 +/- 0.000000e+00) [K]
    Coulombic Real/kʙ       0.000000e+00 ( 0.000000e+00 +/- 0.000000e+00) [K]
    Coulombic Fourier/kʙ    0.000000e+00 ( 0.000000e+00 +/- 0.000000e+00) [K]
Molecule-molecule
    Van der Waals/kʙ       -3.898389e+03 (-3.898389e+03 +/- 0.000000e+00) [K]
    Van der Waals (Tail)/kʙ-5.266354e+01 (-5.266354e+01 +/- 0.000000e+00) [K]
    Coulombic Real/kʙ      -8.943409e+02 (-8.943409e+02 +/- 0.000000e+00) [K]
    Coulombic Fourier/kʙ   -1.286362e+02 (-1.286362e+02 +/- 0.000000e+00) [K]
    Molecule Intra/kʙ       0.000000e+00 ( 0.000000e+00 +/- 0.000000e+00) [K]

Current cycle: 100 out of 6000
===============================================================================

Box:      33.61752   0.00000   0.00000  Average:  33.63999   0.00000   0.00000
           0.00000  33.61752   0.00000             0.00000  33.63999   0.00000
           0.00000   0.00000  33.61752             0.00000   0.00000  33.63999
Lengths:  33.61752  33.61752  33.61752  Average:  33.63999  33.63999  33.63999
Angles:   90.00000  90.00000  90.00000  Average:  90.00000  90.00000  90.00000
Rectangular boundary conditions

net charge:   0.00000000

component 0 (CO2) lambda:  0 occupancy:  1 (1.000000)
    net charge:   0.00000000 [e]

Amount of molecules per component :
-------------------------------------------------------------------------------
Component 0 (CO2)
    molecules:      2.100000e+01 molecules  (2.873267e+01 +/- 0.000000e+00)
    number density: 5.527417e-04 molec./A^3 (7.545890e-04 +/- 0.000000e+00)
    density:        4.038425e+01 kg/m^3     (5.513156e+01 +/- 0.000000e+00)

Average pressure tensor: 
-------------------------------------------------------------------------------
 2.1766e+01  3.8677e-01  3.8900e+00 +/- 0.0000e+00 0.0000e+00 0.0000e+00 [bar]
 3.8677e-01  1.7054e+01  1.5070e+00 +/- 0.0000e+00 0.0000e+00 0.0000e+00 [bar]
 3.8900e+00  1.5070e+00  2.3615e+01 +/- 0.0000e+00 0.0000e+00 0.0000e+00 [bar]
Ideal-gas pressure:   2.708741e+01 +/ 0.000000e+00 [bar]
Excess pressure:     -6.275942e+00 +/ 0.000000e+00 [bar]
Pressure:             2.081147e+01 +/ 0.000000e+00 [bar]

Total potential energy/kʙ  -1.232901e+03 (-3.186491e+03 +/- 0.000000e+00) [K]
-------------------------------------------------------------------------------
ExternalField-molecule
    Van der Waals/kʙ        0.000000e+00 ( 0.000000e+00 +/- 0.000000e+00) [K]
Framework-molecule
    Van der Waals/kʙ        0.000000e+00 ( 0.000000e+00 +/- 0.000000e+00) [K]
    Van der Waals (Tail)/kʙ 0.000000e+00 ( 0.000000e+00 +/- 0.000000e+00) [K]
    Coulombic Real/kʙ       0.000000e+00 ( 0.000000e+00 +/- 0.000000e+00) [K]
    Coulombic Fourier/kʙ    0.000000e+00 ( 0.000000e+00 +/- 0.000000e+00) [K]
Molecule-molecule
    Van der Waals/kʙ       -1.043741e+03 (-2.301682e+03 +/- 0.000000e+00) [K]
    Van der Waals (Tail)/kʙ-2.155647e+01 (-4.067846e+01 +/- 0.000000e+00) [K]
    Coulombic Real/kʙ      -1.731706e+02 (-7.716090e+02 +/- 0.000000e+00) [K]
    Coulombic Fourier/kʙ    5.566978e+00 (-7.252094e+01 +/- 0.000000e+00) [K]
    Molecule Intra/kʙ       0.000000e+00 ( 0.000000e+00 +/- 0.000000e+00) [K]

Current cycle: 200 out of 6000
===============================================================================

Box:      33.69892   0.00000   0.00000  Average:  33.64834   0.00000   0.00000
           0.00000  33.69892   0.00000             0.00000  33.64834   0.00000
           0.00000   0.00000  33.69892             0.00000   0.00000  33.64834
Lengths:  33.69892  33.69892  33.69892  Average:  33.64834  33.64834  33.64834
Angles:   90.00000  90.00000  90.00000  Average:  90.00000  90.00000  90.00000
Rectangular boundary conditions

net charge:   0.00000000

component 0 (CO2) lambda:  0 occupancy:  1 (1.000000)
    net charge:   0.00000000 [e]

Amount of molecules per component :
-------------------------------------------------------------------------------
Component 0 (CO2)
    molecules:      2.600000e+01 molecules  (2.750746e+01 +/- 0.000000e+00)
    number density: 6.793996e-04 molec./A^3 (7.219796e-04 +/- 0.000000e+00)
    density:        4.963810e+01 kg/m^3     (5.274906e+01 +/- 0.000000e+00)

Average pressure tensor: 
-------------------------------------------------------------------------------
 2.1157e+01  9.4573e-01  1.2593e+00 +/- 0.0000e+00 0.0000e+00 0.0000e+00 [bar]
 9.4573e-01  1.6490e+01  1.5440e+00 +/- 0.0000e+00 0.0000e+00 0.0000e+00 [bar]
 1.2593e+00  1.5440e+00  1.9573e+01 +/- 0.0000e+00 0.0000e+00 0.0000e+00 [bar]
Ideal-gas pressure:   2.591683e+01 +/ 0.000000e+00 [bar]
Excess pressure:     -6.843079e+00 +/ 0.000000e+00 [bar]
Pressure:             1.907376e+01 +/ 0.000000e+00 [bar]

Total potential energy/kʙ  -3.620590e+03 (-3.016299e+03 +/- 0.000000e+00) [K]
-------------------------------------------------------------------------------
ExternalField-molecule
    Van der Waals/kʙ        0.000000e+00 ( 0.000000e+00 +/- 0.000000e+00) [K]
Framework-molecule
    Van der Waals/kʙ        0.000000e+00 ( 0.000000e+00 +/- 0.000000e+00) [K]
    Van der Waals (Tail)/kʙ 0.000000e+00 ( 0.000000e+00 +/- 0.000000e+00) [K]
    Coulombic Real/kʙ       0.000000e+00 ( 0.000000e+00 +/- 0.000000e+00) [K]
    Coulombic Fourier/kʙ    0.000000e+00 ( 0.000000e+00 +/- 0.000000e+00) [K]
Molecule-molecule
    Van der Waals/kʙ       -2.151133e+03 (-2.151663e+03 +/- 0.000000e+00) [K]
    Van der Waals (Tail)/kʙ-3.280461e+01 (-3.893669e+01 +/- 0.000000e+00) [K]
    Coulombic Real/kʙ      -1.322273e+03 (-7.471875e+02 +/- 0.000000e+00) [K]
    Coulombic Fourier/kʙ   -1.143798e+02 (-7.851178e+01 +/- 0.000000e+00) [K]
    Molecule Intra/kʙ       0.000000e+00 ( 0.000000e+00 +/- 0.000000e+00) [K]

Current cycle: 300 out of 6000
===============================================================================

Box:      33.57845   0.00000   0.00000  Average:  33.64006   0.00000   0.00000
           0.00000  33.57845   0.00000             0.00000  33.64006   0.00000
           0.00000   0.00000  33.57845             0.00000   0.00000  33.64006
Lengths:  33.57845  33.57845  33.57845  Average:  33.64006  33.64006  33.64006
Angles:   90.00000  90.00000  90.00000  Average:  90.00000  90.00000  90.00000
Rectangular boundary conditions

net charge:   0.00000000

component 0 (CO2) lambda:  0 occupancy:  1 (1.000000)
    net charge:   0.00000000 [e]

Amount of molecules per component :
-------------------------------------------------------------------------------
Component 0 (CO2)
    molecules:      2.100000e+01 molecules  (2.624917e+01 +/- 0.000000e+00)
    number density: 5.546736e-04 molec./A^3 (6.894041e-04 +/- 0.000000e+00)
    density:        4.052540e+01 kg/m^3     (5.036904e+01 +/- 0.000000e+00)

Average pressure tensor: 
-------------------------------------------------------------------------------
 2.1735e+01  7.3425e-01  5.2255e-01 +/- 0.0000e+00 0.0000e+00 0.0000e+00 [bar]
 7.3425e-01  1.6391e+01  1.0028e+00 +/- 0.0000e+00 0.0000e+00 0.0000e+00 [bar]
 5.2255e-01  1.0028e+00  1.9949e+01 +/- 0.0000e+00 0.0000e+00 0.0000e+00 [bar]
Ideal-gas pressure:   2.474748e+01 +/ 0.000000e+00 [bar]
Excess pressure:     -5.389224e+00 +/ 0.000000e+00 [bar]
Pressure:             1.935825e+01 +/ 0.000000e+00 [bar]

Total potential energy/kʙ  -1.160551e+03 (-2.694850e+03 +/- 0.000000e+00) [K]
-------------------------------------------------------------------------------
ExternalField-molecule
    Van der Waals/kʙ        0.000000e+00 ( 0.000000e+00 +/- 0.000000e+00) [K]
Framework-molecule
    Van der Waals/kʙ        0.000000e+00 ( 0.000000e+00 +/- 0.000000e+00) [K]
    Van der Waals (Tail)/kʙ 0.000000e+00 ( 0.000000e+00 +/- 0.000000e+00) [K]
    Coulombic Real/kʙ       0.000000e+00 ( 0.000000e+00 +/- 0.000000e+00) [K]
    Coulombic Fourier/kʙ    0.000000e+00 ( 0.000000e+00 +/- 0.000000e+00) [K]
Molecule-molecule
    Van der Waals/kʙ       -9.260470e+02 (-1.973745e+03 +/- 0.000000e+00) [K]
    Van der Waals (Tail)/kʙ-2.163182e+01 (-3.589144e+01 +/- 0.000000e+00) [K]
    Coulombic Real/kʙ      -7.557549e+01 (-6.180536e+02 +/- 0.000000e+00) [K]
    Coulombic Fourier/kʙ   -1.372963e+02 (-6.715964e+01 +/- 0.000000e+00) [K]
    Molecule Intra/kʙ       0.000000e+00 ( 0.000000e+00 +/- 0.000000e+00) [K]

Current cycle: 400 out of 6000
===============================================================================

Box:      33.49971   0.00000   0.00000  Average:  33.62502   0.00000   0.00000
           0.00000  33.49971   0.00000             0.00000  33.62502   0.00000
           0.00000   0.00000  33.49971             0.00000   0.00000  33.62502
Lengths:  33.49971  33.49971  33.49971  Average:  33.62502  33.62502  33.62502
Angles:   90.00000  90.00000  90.00000  Average:  90.00000  90.00000  90.00000
Rectangular boundary conditions

net charge:   0.00000000

component 0 (CO2) lambda:  0 occupancy:  1 (1.000000)
    net charge:   0.00000000 [e]

Amount of molecules per component :
-------------------------------------------------------------------------------
Component 0 (CO2)
    molecules:      2.800000e+01 molecules  (2.567830e+01 +/- 0.000000e+00)
    number density: 7.447920e-04 molec./A^3 (6.753124e-04 +/- 0.000000e+00)
    density:        5.441578e+01 kg/m^3     (4.933948e+01 +/- 0.000000e+00)

Average pressure tensor: 
-------------------------------------------------------------------------------
 2.0232e+01  6.5575e-01  3.5008e-01 +/- 0.0000e+00 0.0000e+00 0.0000e+00 [bar]
 6.5575e-01  1.6011e+01  9.8081e-02 +/- 0.0000e+00 0.0000e+00 0.0000e+00 [bar]
 3.5008e-01  9.8081e-02  2.0460e+01 +/- 0.0000e+00 0.0000e+00 0.0000e+00 [bar]
Ideal-gas pressure:   2.424163e+01 +/ 0.000000e+00 [bar]
Excess pressure:     -5.340574e+00 +/ 0.000000e+00 [bar]
Pressure:             1.890105e+01 +/ 0.000000e+00 [bar]

Total potential energy/kʙ  -4.321157e+03 (-2.701254e+03 +/- 0.000000e+00) [K]
-------------------------------------------------------------------------------
ExternalField-molecule
    Van der Waals/kʙ        0.000000e+00 ( 0.000000e+00 +/- 0.000000e+00) [K]
Framework-molecule
    Van der Waals/kʙ        0.000000e+00 ( 0.000000e+00 +/- 0.000000e+00) [K]
    Van der Waals (Tail)/kʙ 0.000000e+00 ( 0.000000e+00 +/- 0.000000e+00) [K]
    Coulombic Real/kʙ       0.000000e+00 ( 0.000000e+00 +/- 0.000000e+00) [K]
    Coulombic Fourier/kʙ    0.000000e+00 ( 0.000000e+00 +/- 0.000000e+00) [K]
Molecule-molecule
    Van der Waals/kʙ       -2.986120e+03 (-1.977046e+03 +/- 0.000000e+00) [K]
    Van der Waals (Tail)/kʙ-3.872837e+01 (-3.479539e+01 +/- 0.000000e+00) [K]
    Coulombic Real/kʙ      -1.214499e+03 (-6.255267e+02 +/- 0.000000e+00) [K]
    Coulombic Fourier/kʙ   -8.181009e+01 (-6.388625e+01 +/- 0.000000e+00) [K]
    Molecule Intra/kʙ       0.000000e+00 ( 0.000000e+00 +/- 0.000000e+00) [K]

Current cycle: 500 out of 6000
===============================================================================

Box:      33.39375   0.00000   0.00000  Average:  33.61163   0.00000   0.00000
           0.00000  33.39375   0.00000             0.00000  33.61163   0.00000
           0.00000   0.00000  33.39375             0.00000   0.00000  33.61163
Lengths:  33.39375  33.39375  33.39375  Average:  33.61163  33.61163  33.61163
Angles:   90.00000  90.00000  90.00000  Average:  90.00000  90.00000  90.00000
Rectangular boundary conditions

net charge:   0.00000000

component 0 (CO2) lambda:  0 occupancy:  1 (1.000000)
    net charge:   0.00000000 [e]

Amount of molecules per component :
-------------------------------------------------------------------------------
Component 0 (CO2)
    molecules:      3.000000e+01 molecules  (2.644910e+01 +/- 0.000000e+00)
    number density: 8.056119e-04 molec./A^3 (6.964718e-04 +/- 0.000000e+00)
    density:        5.885938e+01 kg/m^3     (5.088542e+01 +/- 0.000000e+00)

Average pressure tensor: 
-------------------------------------------------------------------------------
 2.1258e+01  1.1500e+00  1.1062e+00 +/- 0.0000e+00 0.0000e+00 0.0000e+00 [bar]
 1.1500e+00  1.7280e+01  1.8102e-01 +/- 0.0000e+00 0.0000e+00 0.0000e+00 [bar]
 1.1062e+00  1.8102e-01  2.1226e+01 +/- 0.0000e+00 0.0000e+00 0.0000e+00 [bar]
Ideal-gas pressure:   2.500118e+01 +/ 0.000000e+00 [bar]
Excess pressure:     -5.079653e+00 +/ 0.000000e+00 [bar]
Pressure:             1.992153e+01 +/ 0.000000e+00 [bar]

Total potential energy/kʙ  -3.571149e+03 (-2.803394e+03 +/- 0.000000e+00) [K]
-------------------------------------------------------------------------------
ExternalField-molecule
    Van der Waals/kʙ        0.000000e+00 ( 0.000000e+00 +/- 0.000000e+00) [K]
Framework-molecule
    Van der Waals/kʙ        0.000000e+00 ( 0.000000e+00 +/- 0.000000e+00) [K]
    Van der Waals (Tail)/kʙ 0.000000e+00 ( 0.000000e+00 +/- 0.000000e+00) [K]
    Coulombic Real/kʙ       0.000000e+00 ( 0.000000e+00 +/- 0.000000e+00) [K]
    Coulombic Fourier/kʙ    0.000000e+00 ( 0.000000e+00 +/- 0.000000e+00) [K]
Molecule-molecule
    Van der Waals/kʙ       -2.673839e+03 (-2.056083e+03 +/- 0.000000e+00) [K]
    Van der Waals (Tail)/kʙ-4.488315e+01 (-3.731923e+01 +/- 0.000000e+00) [K]
    Coulombic Real/kʙ      -7.948363e+02 (-6.383665e+02 +/- 0.000000e+00) [K]
    Coulombic Fourier/kʙ   -5.759034e+01 (-7.162488e+01 +/- 0.000000e+00) [K]
    Molecule Intra/kʙ       0.000000e+00 ( 0.000000e+00 +/- 0.000000e+00) [K]

Current cycle: 600 out of 6000
===============================================================================

Box:      33.33707   0.00000   0.00000  Average:  33.57994   0.00000   0.00000
           0.00000  33.33707   0.00000             0.00000  33.57994   0.00000
           0.00000   0.00000  33.33707             0.00000   0.00000  33.57994
Lengths:  33.33707  33.33707  33.33707  Average:  33.57994  33.57994  33.57994
Angles:   90.00000  90.00000  90.00000  Average:  90.00000  90.00000  90.00000
Rectangular boundary conditions

net charge:   0.00000000

component 0 (CO2) lambda:  0 occupancy:  1 (1.000000)
    net charge:   0.00000000 [e]

Amount of molecules per component :
-------------------------------------------------------------------------------
Component 0 (CO2)
    molecules:      2.400000e+01 molecules  (2.618802e+01 +/- 0.000000e+00)
    number density: 6.477822e-04 molec./A^3 (6.914613e-04 +/- 0.000000e+00)
    density:        4.732808e+01 kg/m^3     (5.051935e+01 +/- 0.000000e+00)

Average pressure tensor: 
-------------------------------------------------------------------------------
 2.1373e+01  4.2631e-01  6.5792e-01 +/- 0.0000e+00 0.0000e+00 0.0000e+00 [bar]
 4.2631e-01  1.7999e+01  9.2036e-01 +/- 0.0000e+00 0.0000e+00 0.0000e+00 [bar]
 6.5792e-01  9.2036e-01  2.1431e+01 +/- 0.0000e+00 0.0000e+00 0.0000e+00 [bar]
Ideal-gas pressure:   2.482132e+01 +/ 0.000000e+00 [bar]
Excess pressure:     -4.553472e+00 +/ 0.000000e+00 [bar]
Pressure:             2.026785e+01 +/ 0.000000e+00 [bar]

Total potential energy/kʙ  -2.616103e+03 (-2.723627e+03 +/- 0.000000e+00) [K]
-------------------------------------------------------------------------------
ExternalField-molecule
    Van der Waals/kʙ        0.000000e+00 ( 0.000000e+00 +/- 0.000000e+00) [K]
Framework-molecule
    Van der Waals/kʙ        0.000000e+00 ( 0.000000e+00 +/- 0.000000e+00) [K]
    Van der Waals (Tail)/kʙ 0.000000e+00 ( 0.000000e+00 +/- 0.000000e+00) [K]
    Coulombic Real/kʙ       0.000000e+00 ( 0.000000e+00 +/- 0.000000e+00) [K]
    Coulombic Fourier/kʙ    0.000000e+00 ( 0.000000e+00 +/- 0.000000e+00) [K]
Molecule-molecule
    Van der Waals/kʙ       -1.500508e+03 (-1.979081e+03 +/- 0.000000e+00) [K]
    Van der Waals (Tail)/kʙ-2.887197e+01 (-3.654293e+01 +/- 0.000000e+00) [K]
    Coulombic Real/kʙ      -1.097442e+03 (-6.357740e+02 +/- 0.000000e+00) [K]
    Coulombic Fourier/kʙ    1.071877e+01 (-7.222921e+01 +/- 0.000000e+00) [K]
    Molecule Intra/kʙ       0.000000e+00 ( 0.000000e+00 +/- 0.000000e+00) [K]

Current cycle: 700 out of 6000
===============================================================================

Box:      33.45664   0.00000   0.00000  Average:  33.54951   0.00000   0.00000
           0.00000  33.45664   0.00000             0.00000  33.54951   0.00000
           0.00000   0.00000  33.45664             0.00000   0.00000  33.54951
Lengths:  33.45664  33.45664  33.45664  Average:  33.54951  33.54951  33.54951
Angles:   90.00000  90.00000  90.00000  Average:  90.00000  90.00000  90.00000
Rectangular boundary conditions

net charge:   0.00000000

component 0 (CO2) lambda:  0 occupancy:  1 (1.000000)
    net charge:   0.00000000 [e]

Amount of molecules per component :
-------------------------------------------------------------------------------
Component 0 (CO2)
    molecules:      2.600000e+01 molecules  (2.593723e+01 +/- 0.000000e+00)
    number density: 6.942667e-04 molec./A^3 (6.866059e-04 +/- 0.000000e+00)
    density:        5.072431e+01 kg/m^3     (5.016460e+01 +/- 0.000000e+00)

Average pressure tensor: 
-------------------------------------------------------------------------------
 2.2058e+01  2.5484e-01 -1.7496e-01 +/- 0.0000e+00 0.0000e+00 0.0000e+00 [bar]
 2.5484e-01  1.8446e+01  9.3016e-01 +/- 0.0000e+00 0.0000e+00 0.0000e+00 [bar]
-1.7496e-01  9.3016e-01  2.1779e+01 +/- 0.0000e+00 0.0000e+00 0.0000e+00 [bar]
Ideal-gas pressure:   2.464703e+01 +/ 0.000000e+00 [bar]
Excess pressure:     -3.886301e+00 +/ 0.000000e+00 [bar]
Pressure:             2.076073e+01 +/ 0.000000e+00 [bar]

Total potential energy/kʙ  -2.061532e+03 (-2.689167e+03 +/- 0.000000e+00) [K]
-------------------------------------------------------------------------------
ExternalField-molecule
    Van der Waals/kʙ        0.000000e+00 ( 0.000000e+00 +/- 0.000000e+00) [K]
Framework-molecule
    Van der Waals/kʙ        0.000000e+00 ( 0.000000e+00 +/- 0.000000e+00) [K]
    Van der Waals (Tail)/kʙ 0.000000e+00 ( 0.000000e+00 +/- 0.000000e+00) [K]
    Coulombic Real/kʙ       0.000000e+00 ( 0.000000e+00 +/- 0.000000e+00) [K]
    Coulombic Fourier/kʙ    0.000000e+00 ( 0.000000e+00 +/- 0.000000e+00) [K]
Molecule-molecule
    Van der Waals/kʙ       -1.896988e+03 (-1.960640e+03 +/- 0.000000e+00) [K]
    Van der Waals (Tail)/kʙ-3.352246e+01 (-3.556938e+01 +/- 0.000000e+00) [K]
    Coulombic Real/kʙ      -7.330674e+01 (-6.268637e+02 +/- 0.000000e+00) [K]
    Coulombic Fourier/kʙ   -5.771540e+01 (-6.609398e+01 +/- 0.000000e+00) [K]
    Molecule Intra/kʙ       0.000000e+00 ( 0.000000e+00 +/- 0.000000e+00) [K]

Current cycle: 800 out of 6000
===============================================================================

Box:      33.37532   0.00000   0.00000  Average:  33.53980   0.00000   0.00000
           0.00000  33.37532   0.00000             0.00000  33.53980   0.00000
           0.00000   0.00000  33.37532             0.00000   0.00000  33.53980
Lengths:  33.37532  33.37532  33.37532  Average:  33.53980  33.53980  33.53980
Angles:   90.00000  90.00000  90.00000  Average:  90.00000  90.00000  90.00000
Rectangular boundary conditions

net charge:   0.00000000

component 0 (CO2) lambda:  0 occupancy:  1 (1.000000)
    net charge:   0.00000000 [e]

Amount of molecules per component :
-------------------------------------------------------------------------------
Component 0 (CO2)
    molecules:      1.900000e+01 molecules  (2.537453e+01 +/- 0.000000e+00)
    number density: 5.110664e-04 molec./A^3 (6.722266e-04 +/- 0.000000e+00)
    density:        3.733939e+01 kg/m^3     (4.911403e+01 +/- 0.000000e+00)

Average pressure tensor: 
-------------------------------------------------------------------------------
 2.1987e+01  4.5975e-01 -2.0185e-01 +/- 0.0000e+00 0.0000e+00 0.0000e+00 [bar]
 4.5975e-01  1.8283e+01  8.2984e-01 +/- 0.0000e+00 0.0000e+00 0.0000e+00 [bar]
-2.0185e-01  8.2984e-01  2.1481e+01 +/- 0.0000e+00 0.0000e+00 0.0000e+00 [bar]
Ideal-gas pressure:   2.413086e+01 +/ 0.000000e+00 [bar]
Excess pressure:     -3.546998e+00 +/ 0.000000e+00 [bar]
Pressure:             2.058386e+01 +/ 0.000000e+00 [bar]

Total potential energy/kʙ  -4.815306e+02 (-2.561901e+03 +/- 0.000000e+00) [K]
-------------------------------------------------------------------------------
ExternalField-molecule
    Van der Waals/kʙ        0.000000e+00 ( 0.000000e+00 +/- 0.000000e+00) [K]
Framework-molecule
    Van der Waals/kʙ        0.000000e+00 ( 0.000000e+00 +/- 0.000000e+00) [K]
    Van der Waals (Tail)/kʙ 0.000000e+00 ( 0.000000e+00 +/- 0.000000e+00) [K]
    Coulombic Real/kʙ       0.000000e+00 ( 0.000000e+00 +/- 0.000000e+00) [K]
    Coulombic Fourier/kʙ    0.000000e+00 ( 0.000000e+00 +/- 0.000000e+00) [K]
Molecule-molecule
    Van der Waals/kʙ       -7.288013e+02 (-1.864516e+03 +/- 0.000000e+00) [K]
    Van der Waals (Tail)/kʙ-1.803296e+01 (-3.375687e+01 +/- 0.000000e+00) [K]
    Coulombic Real/kʙ       2.523670e+02 (-6.011664e+02 +/- 0.000000e+00) [K]
    Coulombic Fourier/kʙ    1.293659e+01 (-6.246226e+01 +/- 0.000000e+00) [K]
    Molecule Intra/kʙ       0.000000e+00 ( 0.000000e+00 +/- 0.000000e+00) [K]

Current cycle: 900 out of 6000
===============================================================================

Box:      33.36952   0.00000   0.00000  Average:  33.51833   0.00000   0.00000
           0.00000  33.36952   0.00000             0.00000  33.51833   0.00000
           0.00000   0.00000  33.36952             0.00000   0.00000  33.51833
Lengths:  33.36952  33.36952  33.36952  Average:  33.51833  33.51833  33.51833
Angles:   90.00000  90.00000  90.00000  Average:  90.00000  90.00000  90.00000
Rectangular boundary conditions

net charge:   0.00000000

component 0 (CO2) lambda:  0 occupancy:  1 (1.000000)
    net charge:   0.00000000 [e]

Amount of molecules per component :
-------------------------------------------------------------------------------
Component 0 (CO2)
    molecules:      3.200000e+01 molecules  (2.519978e+01 +/- 0.000000e+00)
    number density: 8.611920e-04 molec./A^3 (6.688416e-04 +/- 0.000000e+00)
    density:        6.292016e+01 kg/m^3     (4.886671e+01 +/- 0.000000e+00)

Average pressure tensor: 
-------------------------------------------------------------------------------
 2.1529e+01  4.9516e-01 -3.1591e-01 +/- 0.0000e+00 0.0000e+00 0.0000e+00 [bar]
 4.9516e-01  1.8542e+01  1.1632e+00 +/- 0.0000e+00 0.0000e+00 0.0000e+00 [bar]
-3.1591e-01  1.1632e+00  2.1750e+01 +/- 0.0000e+00 0.0000e+00 0.0000e+00 [bar]
Ideal-gas pressure:   2.400934e+01 +/ 0.000000e+00 [bar]
Excess pressure:     -3.402522e+00 +/ 0.000000e+00 [bar]
Pressure:             2.060682e+01 +/ 0.000000e+00 [bar]

Total potential energy/kʙ  -3.581997e+03 (-2.556051e+03 +/- 0.000000e+00) [K]
-------------------------------------------------------------------------------
ExternalField-molecule
    Van der Waals/kʙ        0.000000e+00 ( 0.000000e+00 +/- 0.000000e+00) [K]
Framework-molecule
    Van der Waals/kʙ        0.000000e+00 ( 0.000000e+00 +/- 0.000000e+00) [K]
    Van der Waals (Tail)/kʙ 0.000000e+00 ( 0.000000e+00 +/- 0.000000e+00) [K]
    Coulombic Real/kʙ       0.000000e+00 ( 0.000000e+00 +/- 0.000000e+00) [K]
    Coulombic Fourier/kʙ    0.000000e+00 ( 0.000000e+00 +/- 0.000000e+00) [K]
Molecule-molecule
    Van der Waals/kʙ       -2.822192e+03 (-1.865567e+03 +/- 0.000000e+00) [K]
    Van der Waals (Tail)/kʙ-5.117834e+01 (-3.331429e+01 +/- 0.000000e+00) [K]
    Coulombic Real/kʙ      -6.323212e+02 (-5.943350e+02 +/- 0.000000e+00) [K]
    Coulombic Fourier/kʙ   -7.630517e+01 (-6.283393e+01 +/- 0.000000e+00) [K]
    Molecule Intra/kʙ       0.000000e+00 ( 0.000000e+00 +/- 0.000000e+00) [K]

Current cycle: 1000 out of 6000
===============================================================================

Box:      33.41521   0.00000   0.00000  Average:  33.51252   0.00000   0.00000
           0.00000  33.41521   0.00000             0.00000  33.51252   0.00000
           0.00000   0.00000  33.41521             0.00000   0.00000  33.51252
Lengths:  33.41521  33.41521  33.41521  Average:  33.51252  33.51252  33.51252
Angles:   90.00000  90.00000  90.00000  Average:  90.00000  90.00000  90.00000
Rectangular boundary conditions

net charge:   0.00000000

component 0 (CO2) lambda:  0 occupancy:  1 (1.000000)
    net charge:   0.00000000 [e]

Amount of molecules per component :
-------------------------------------------------------------------------------
Component 0 (CO2)
    molecules:      2.600000e+01 molecules  (2.514985e+01 +/- 0.000000e+00)
    number density: 6.968524e-04 molec./A^3 (6.678580e-04 +/- 0.000000e+00)
    density:        5.091323e+01 kg/m^3     (4.879485e+01 +/- 0.000000e+00)

Average pressure tensor: 
-------------------------------------------------------------------------------
 2.0577e+01  3.3511e-01 -3.4821e-01 +/- 0.0000e+00 0.0000e+00 0.0000e+00 [bar]
 3.3511e-01  1.8559e+01  8.2455e-01 +/- 0.0000e+00 0.0000e+00 0.0000e+00 [bar]
-3.4821e-01  8.2455e-01  2.0861e+01 +/- 0.0000e+00 0.0000e+00 0.0000e+00 [bar]
Ideal-gas pressure:   2.397404e+01 +/ 0.000000e+00 [bar]
Excess pressure:     -3.974929e+00 +/ 0.000000e+00 [bar]
Pressure:             1.999911e+01 +/ 0.000000e+00 [bar]

Total potential energy/kʙ  -3.520917e+03 (-2.557861e+03 +/- 0.000000e+00) [K]
-------------------------------------------------------------------------------
ExternalField-molecule
    Van der Waals/kʙ        0.000000e+00 ( 0.000000e+00 +/- 0.000000e+00) [K]
Framework-molecule
    Van der Waals/kʙ        0.000000e+00 ( 0.000000e+00 +/- 0.000000e+00) [K]
    Van der Waals (Tail)/kʙ 0.000000e+00 ( 0.000000e+00 +/- 0.000000e+00) [K]
    Coulombic Real/kʙ       0.000000e+00 ( 0.000000e+00 +/- 0.000000e+00) [K]
    Coulombic Fourier/kʙ    0.000000e+00 ( 0.000000e+00 +/- 0.000000e+00) [K]
Molecule-molecule
    Van der Waals/kʙ       -2.901941e+03 (-1.877163e+03 +/- 0.000000e+00) [K]
    Van der Waals (Tail)/kʙ-3.364731e+01 (-3.321122e+01 +/- 0.000000e+00) [K]
    Coulombic Real/kʙ      -6.257838e+02 (-5.877311e+02 +/- 0.000000e+00) [K]
    Coulombic Fourier/kʙ    4.045450e+01 (-5.975608e+01 +/- 0.000000e+00) [K]
    Molecule Intra/kʙ       0.000000e+00 ( 0.000000e+00 +/- 0.000000e+00) [K]

Current cycle: 1100 out of 6000
===============================================================================

Box:      33.60862   0.00000   0.00000  Average:  33.51653   0.00000   0.00000
           0.00000  33.60862   0.00000             0.00000  33.51653   0.00000
           0.00000   0.00000  33.60862             0.00000   0.00000  33.51653
Lengths:  33.60862  33.60862  33.60862  Average:  33.51653  33.51653  33.51653
Angles:   90.00000  90.00000  90.00000  Average:  90.00000  90.00000  90.00000
Rectangular boundary conditions

net charge:   0.00000000

component 0 (CO2) lambda:  0 occupancy:  1 (1.000000)
    net charge:   0.00000000 [e]

Amount of molecules per component :
-------------------------------------------------------------------------------
Component 0 (CO2)
    molecules:      2.800000e+01 molecules  (2.531880e+01 +/- 0.000000e+00)
    number density: 7.375749e-04 molec./A^3 (6.720765e-04 +/- 0.000000e+00)
    density:        5.388849e+01 kg/m^3     (4.910306e+01 +/- 0.000000e+00)

Average pressure tensor: 
-------------------------------------------------------------------------------
 2.0045e+01  3.0152e-01 -3.4043e-01 +/- 0.0000e+00 0.0000e+00 0.0000e+00 [bar]
 3.0152e-01  1.8549e+01  6.6045e-01 +/- 0.0000e+00 0.0000e+00 0.0000e+00 [bar]
-3.4043e-01  6.6045e-01  2.1088e+01 +/- 0.0000e+00 0.0000e+00 0.0000e+00 [bar]
Ideal-gas pressure:   2.412547e+01 +/ 0.000000e+00 [bar]
Excess pressure:     -4.231522e+00 +/ 0.000000e+00 [bar]
Pressure:             1.989395e+01 +/ 0.000000e+00 [bar]

Total potential energy/kʙ  -2.894989e+03 (-2.576966e+03 +/- 0.000000e+00) [K]
-------------------------------------------------------------------------------
ExternalField-molecule
    Van der Waals/kʙ        0.000000e+00 ( 0.000000e+00 +/- 0.000000e+00) [K]
Framework-molecule
    Van der Waals/kʙ        0.000000e+00 ( 0.000000e+00 +/- 0.000000e+00) [K]
    Van der Waals (Tail)/kʙ 0.000000e+00 ( 0.000000e+00 +/- 0.000000e+00) [K]
    Coulombic Real/kʙ       0.000000e+00 ( 0.000000e+00 +/- 0.000000e+00) [K]
    Coulombic Fourier/kʙ    0.000000e+00 ( 0.000000e+00 +/- 0.000000e+00) [K]
Molecule-molecule
    Van der Waals/kʙ       -2.390093e+03 (-1.902611e+03 +/- 0.000000e+00) [K]
    Van der Waals (Tail)/kʙ-3.835309e+01 (-3.398441e+01 +/- 0.000000e+00) [K]
    Coulombic Real/kʙ      -5.128280e+02 (-5.802260e+02 +/- 0.000000e+00) [K]
    Coulombic Fourier/kʙ    4.628532e+01 (-6.014478e+01 +/- 0.000000e+00) [K]
    Molecule Intra/kʙ       0.000000e+00 ( 0.000000e+00 +/- 0.000000e+00) [K]

Current cycle: 1200 out of 6000
===============================================================================

Box:      33.47913   0.00000   0.00000  Average:  33.52026   0.00000   0.00000
           0.00000  33.47913   0.00000             0.00000  33.52026   0.00000
           0.00000   0.00000  33.47913             0.00000   0.00000  33.52026
Lengths:  33.47913  33.47913  33.47913  Average:  33.52026  33.52026  33.52026
Angles:   90.00000  90.00000  90.00000  Average:  90.00000  90.00000  90.00000
Rectangular boundary conditions

net charge:   0.00000000

component 0 (CO2) lambda:  0 occupancy:  1 (1.000000)
    net charge:   0.00000000 [e]

Amount of molecules per component :
-------------------------------------------------------------------------------
Component 0 (CO2)
    molecules:      2.500000e+01 molecules  (2.528143e+01 +/- 0.000000e+00)
    number density: 6.662197e-04 molec./A^3 (6.708856e-04 +/- 0.000000e+00)
    density:        4.867515e+01 kg/m^3     (4.901605e+01 +/- 0.000000e+00)

Average pressure tensor: 
-------------------------------------------------------------------------------
 1.9905e+01  4.3569e-01 -3.7133e-01 +/- 0.0000e+00 0.0000e+00 0.0000e+00 [bar]
 4.3569e-01  1.8575e+01  4.0899e-01 +/- 0.0000e+00 0.0000e+00 0.0000e+00 [bar]
-3.7133e-01  4.0899e-01  2.0854e+01 +/- 0.0000e+00 0.0000e+00 0.0000e+00 [bar]
Ideal-gas pressure:   2.408272e+01 +/ 0.000000e+00 [bar]
Excess pressure:     -4.304771e+00 +/ 0.000000e+00 [bar]
Pressure:             1.977795e+01 +/ 0.000000e+00 [bar]

Total potential energy/kʙ  -1.768983e+03 (-2.574947e+03 +/- 0.000000e+00) [K]
-------------------------------------------------------------------------------
ExternalField-molecule
    Van der Waals/kʙ        0.000000e+00 ( 0.000000e+00 +/- 0.000000e+00) [K]
Framework-molecule
    Van der Waals/kʙ        0.000000e+00 ( 0.000000e+00 +/- 0.000000e+00) [K]
    Van der Waals (Tail)/kʙ 0.000000e+00 ( 0.000000e+00 +/- 0.000000e+00) [K]
    Coulombic Real/kʙ       0.000000e+00 ( 0.000000e+00 +/- 0.000000e+00) [K]
    Coulombic Fourier/kʙ    0.000000e+00 ( 0.000000e+00 +/- 0.000000e+00) [K]
Molecule-molecule
    Van der Waals/kʙ       -1.274996e+03 (-1.907992e+03 +/- 0.000000e+00) [K]
    Van der Waals (Tail)/kʙ-3.093098e+01 (-3.373383e+01 +/- 0.000000e+00) [K]
    Coulombic Real/kʙ      -4.655930e+02 (-5.738612e+02 +/- 0.000000e+00) [K]
    Coulombic Fourier/kʙ    2.536889e+00 (-5.935972e+01 +/- 0.000000e+00) [K]
    Molecule Intra/kʙ       0.000000e+00 ( 0.000000e+00 +/- 0.000000e+00) [K]

Current cycle: 1300 out of 6000
===============================================================================

Box:      33.60085   0.00000   0.00000  Average:  33.51577   0.00000   0.00000
           0.00000  33.60085   0.00000             0.00000  33.51577   0.00000
           0.00000   0.00000  33.60085             0.00000   0.00000  33.51577
Lengths:  33.60085  33.60085  33.60085  Average:  33.51577  33.51577  33.51577
Angles:   90.00000  90.00000  90.00000  Average:  90.00000  90.00000  90.00000
Rectangular boundary conditions

net charge:   0.00000000

component 0 (CO2) lambda:  0 occupancy:  1 (1.000000)
    net charge:   0.00000000 [e]

Amount of molecules per component :
-------------------------------------------------------------------------------
Component 0 (CO2)
    molecules:      2.600000e+01 molecules  (2.501537e+01 +/- 0.000000e+00)
    number density: 6.853658e-04 molec./A^3 (6.640631e-04 +/- 0.000000e+00)
    density:        5.007400e+01 kg/m^3     (4.851759e+01 +/- 0.000000e+00)

Average pressure tensor: 
-------------------------------------------------------------------------------
 1.9622e+01  4.6143e-01 -3.9364e-01 +/- 0.0000e+00 0.0000e+00 0.0000e+00 [bar]
 4.6143e-01  1.8532e+01  5.3649e-01 +/- 0.0000e+00 0.0000e+00 0.0000e+00 [bar]
-3.9364e-01  5.3649e-01  2.0449e+01 +/- 0.0000e+00 0.0000e+00 0.0000e+00 [bar]
Ideal-gas pressure:   2.383781e+01 +/ 0.000000e+00 [bar]
Excess pressure:     -4.303543e+00 +/ 0.000000e+00 [bar]
Pressure:             1.953427e+01 +/ 0.000000e+00 [bar]

Total potential energy/kʙ  -2.759065e+03 (-2.519961e+03 +/- 0.000000e+00) [K]
-------------------------------------------------------------------------------
ExternalField-molecule
    Van der Waals/kʙ        0.000000e+00 ( 0.000000e+00 +/- 0.000000e+00) [K]
Framework-molecule
    Van der Waals/kʙ        0.000000e+00 ( 0.000000e+00 +/- 0.000000e+00) [K]
    Van der Waals (Tail)/kʙ 0.000000e+00 ( 0.000000e+00 +/- 0.000000e+00) [K]
    Coulombic Real/kʙ       0.000000e+00 ( 0.000000e+00 +/- 0.000000e+00) [K]
    Coulombic Fourier/kʙ    0.000000e+00 ( 0.000000e+00 +/- 0.000000e+00) [K]
Molecule-molecule
    Van der Waals/kʙ       -2.210100e+03 (-1.868443e+03 +/- 0.000000e+00) [K]
    Van der Waals (Tail)/kʙ-3.309269e+01 (-3.322853e+01 +/- 0.000000e+00) [K]
    Coulombic Real/kʙ      -5.940755e+02 (-5.602154e+02 +/- 0.000000e+00) [K]
    Coulombic Fourier/kʙ    7.820366e+01 (-5.807374e+01 +/- 0.000000e+00) [K]
    Molecule Intra/kʙ       0.000000e+00 ( 0.000000e+00 +/- 0.000000e+00) [K]

Current cycle: 1400 out of 6000
===============================================================================

Box:      33.48958   0.00000   0.00000  Average:  33.51474   0.00000   0.00000
           0.00000  33.48958   0.00000             0.00000  33.51474   0.00000
           0.00000   0.00000  33.48958             0.00000   0.00000  33.51474
Lengths:  33.48958  33.48958  33.48958  Average:  33.51474  33.51474  33.51474
Angles:   90.00000  90.00000  90.00000  Average:  90.00000  90.00000  90.00000
Rectangular boundary conditions

net charge:   0.00000000

component 0 (CO2) lambda:  0 occupancy:  1 (1.000000)
    net charge:   0.00000000 [e]

Amount of molecules per component :
-------------------------------------------------------------------------------
Component 0 (CO2)
    molecules:      1.600000e+01 molecules  (2.474661e+01 +/- 0.000000e+00)
    number density: 4.259816e-04 molec./A^3 (6.569970e-04 +/- 0.000000e+00)
    density:        3.112295e+01 kg/m^3     (4.800133e+01 +/- 0.000000e+00)

Average pressure tensor: 
-------------------------------------------------------------------------------
 1.9647e+01  3.3432e-01 -3.9444e-01 +/- 0.0000e+00 0.0000e+00 0.0000e+00 [bar]
 3.3432e-01  1.8385e+01  4.4752e-01 +/- 0.0000e+00 0.0000e+00 0.0000e+00 [bar]
-3.9444e-01  4.4752e-01  2.0234e+01 +/- 0.0000e+00 0.0000e+00 0.0000e+00 [bar]
Ideal-gas pressure:   2.358416e+01 +/ 0.000000e+00 [bar]
Excess pressure:     -4.162214e+00 +/ 0.000000e+00 [bar]
Pressure:             1.942195e+01 +/ 0.000000e+00 [bar]

Total potential energy/kʙ  -4.293856e+02 (-2.500042e+03 +/- 0.000000e+00) [K]
-------------------------------------------------------------------------------
ExternalField-molecule
    Van der Waals/kʙ        0.000000e+00 ( 0.000000e+00 +/- 0.000000e+00) [K]
Framework-molecule
    Van der Waals/kʙ        0.000000e+00 ( 0.000000e+00 +/- 0.000000e+00) [K]
    Van der Waals (Tail)/kʙ 0.000000e+00 ( 0.000000e+00 +/- 0.000000e+00) [K]
    Coulombic Real/kʙ       0.000000e+00 ( 0.000000e+00 +/- 0.000000e+00) [K]
    Coulombic Fourier/kʙ    0.000000e+00 ( 0.000000e+00 +/- 0.000000e+00) [K]
Molecule-molecule
    Van der Waals/kʙ       -4.828420e+02 (-1.850245e+03 +/- 0.000000e+00) [K]
    Van der Waals (Tail)/kʙ-1.265747e+01 (-3.269448e+01 +/- 0.000000e+00) [K]
    Coulombic Real/kʙ       5.523391e+01 (-5.627549e+02 +/- 0.000000e+00) [K]
    Coulombic Fourier/kʙ    1.087992e+01 (-5.434795e+01 +/- 0.000000e+00) [K]
    Molecule Intra/kʙ       0.000000e+00 ( 0.000000e+00 +/- 0.000000e+00) [K]

Current cycle: 1500 out of 6000
===============================================================================

Box:      33.60917   0.00000   0.00000  Average:  33.51685   0.00000   0.00000
           0.00000  33.60917   0.00000             0.00000  33.51685   0.00000
           0.00000   0.00000  33.60917             0.00000   0.00000  33.51685
[...]
    number density: 6.459335e-04 molec./A^3 (7.524586e-04 +/- 1.383402e-04)
    density:        4.719301e+01 kg/m^3     (5.497592e+01 +/- 1.010737e+01)

Average pressure tensor: 
-------------------------------------------------------------------------------
 2.1942e+01  3.3098e-01 -4.4685e-01 +/- 3.2459e+00 1.2218e+00 1.0856e+00 [bar]
 3.3098e-01  2.1361e+01 -3.4614e-01 +/- 1.2218e+00 2.6970e+00 1.3872e+00 [bar]
-4.4685e-01 -3.4614e-01  2.2002e+01 +/- 1.0856e+00 1.3872e+00 2.7746e+00 [bar]
Ideal-gas pressure:   2.701094e+01 +/ 4.965987e+00 [bar]
Excess pressure:     -5.242627e+00 +/ 2.316441e+00 [bar]
Pressure:             2.176831e+01 +/ 2.806460e+00 [bar]

Total potential energy/kʙ  -2.427201e+03 (-3.322849e+03 +/- 1.264767e+03) [K]
-------------------------------------------------------------------------------
ExternalField-molecule
    Van der Waals/kʙ        0.000000e+00 ( 0.000000e+00 +/- 0.000000e+00) [K]
Framework-molecule
    Van der Waals/kʙ        0.000000e+00 ( 0.000000e+00 +/- 0.000000e+00) [K]
    Van der Waals (Tail)/kʙ 0.000000e+00 ( 0.000000e+00 +/- 0.000000e+00) [K]
    Coulombic Real/kʙ       0.000000e+00 ( 0.000000e+00 +/- 0.000000e+00) [K]
    Coulombic Fourier/kʙ    0.000000e+00 ( 0.000000e+00 +/- 0.000000e+00) [K]
Molecule-molecule
    Van der Waals/kʙ       -1.618198e+03 (-2.452295e+03 +/- 9.549374e+02) [K]
    Van der Waals (Tail)/kʙ-2.998914e+01 (-4.272582e+01 +/- 1.625340e+01) [K]
    Coulombic Real/kʙ      -6.771716e+02 (-7.543864e+02 +/- 2.711624e+02) [K]
    Coulombic Fourier/kʙ   -1.018418e+02 (-7.344152e+01 +/- 2.443778e+01) [K]
    Molecule Intra/kʙ       0.000000e+00 ( 0.000000e+00 +/- 0.000000e+00) [K]

Current cycle: 5800 out of 6000
===============================================================================

Box:      33.73074   0.00000   0.00000  Average:  33.63289   0.00000   0.00000
           0.00000  33.73074   0.00000             0.00000  33.63289   0.00000
           0.00000   0.00000  33.73074             0.00000   0.00000  33.63289
Lengths:  33.73074  33.73074  33.73074  Average:  33.63289  33.63289  33.63289
Angles:   90.00000  90.00000  90.00000  Average:  90.00000  90.00000  90.00000
Rectangular boundary conditions

net charge:   0.00000000

component 0 (CO2) lambda:  0 occupancy:  1 (1.000000)
    net charge:   0.00000000 [e]

Amount of molecules per component :
-------------------------------------------------------------------------------
Component 0 (CO2)
    molecules:      2.500000e+01 molecules  (2.872936e+01 +/- 5.570279e+00)
    number density: 6.514220e-04 molec./A^3 (7.528492e-04 +/- 1.325666e-04)
    density:        4.759401e+01 kg/m^3     (5.500445e+01 +/- 9.685543e+00)

Average pressure tensor: 
-------------------------------------------------------------------------------
 2.1968e+01  3.5673e-01 -4.1328e-01 +/- 3.1421e+00 1.2158e+00 9.9884e-01 [bar]
 3.5673e-01  2.1402e+01 -3.5804e-01 +/- 1.2158e+00 2.6989e+00 1.3871e+00 [bar]
-4.1328e-01 -3.5804e-01  2.1989e+01 +/- 9.9884e-01 1.3871e+00 2.6977e+00 [bar]
Ideal-gas pressure:   2.702496e+01 +/ 4.758731e+00 [bar]
Excess pressure:     -5.238673e+00 +/ 2.165432e+00 [bar]
Pressure:             2.178629e+01 +/ 2.745093e+00 [bar]

Total potential energy/kʙ  -2.531726e+03 (-3.320805e+03 +/- 1.188970e+03) [K]
-------------------------------------------------------------------------------
ExternalField-molecule
    Van der Waals/kʙ        0.000000e+00 ( 0.000000e+00 +/- 0.000000e+00) [K]
Framework-molecule
    Van der Waals/kʙ        0.000000e+00 ( 0.000000e+00 +/- 0.000000e+00) [K]
    Van der Waals (Tail)/kʙ 0.000000e+00 ( 0.000000e+00 +/- 0.000000e+00) [K]
    Coulombic Real/kʙ       0.000000e+00 ( 0.000000e+00 +/- 0.000000e+00) [K]
    Coulombic Fourier/kʙ    0.000000e+00 ( 0.000000e+00 +/- 0.000000e+00) [K]
Molecule-molecule
    Van der Waals/kʙ       -2.182865e+03 (-2.452880e+03 +/- 9.009245e+02) [K]
    Van der Waals (Tail)/kʙ-3.024396e+01 (-4.272412e+01 +/- 1.540076e+01) [K]
    Coulombic Real/kʙ      -2.617590e+02 (-7.524934e+02 +/- 2.536279e+02) [K]
    Coulombic Fourier/kʙ   -5.685765e+01 (-7.270770e+01 +/- 2.169989e+01) [K]
    Molecule Intra/kʙ       0.000000e+00 ( 0.000000e+00 +/- 0.000000e+00) [K]

Current cycle: 5900 out of 6000
===============================================================================

Box:      33.89148   0.00000   0.00000  Average:  33.63472   0.00000   0.00000
           0.00000  33.89148   0.00000             0.00000  33.63472   0.00000
           0.00000   0.00000  33.89148             0.00000   0.00000  33.63472
Lengths:  33.89148  33.89148  33.89148  Average:  33.63472  33.63472  33.63472
Angles:   90.00000  90.00000  90.00000  Average:  90.00000  90.00000  90.00000
Rectangular boundary conditions

net charge:   0.00000000

component 0 (CO2) lambda:  0 occupancy:  1 (1.000000)
    net charge:   0.00000000 [e]

Amount of molecules per component :
-------------------------------------------------------------------------------
Component 0 (CO2)
    molecules:      4.000000e+01 molecules  (2.872649e+01 +/- 5.342406e+00)
    number density: 1.027516e-03 molec./A^3 (7.526878e-04 +/- 1.269524e-04)
    density:        7.507205e+01 kg/m^3     (5.499266e+01 +/- 9.275356e+00)

Average pressure tensor: 
-------------------------------------------------------------------------------
 2.2010e+01  3.2209e-01 -5.0844e-01 +/- 3.0985e+00 1.2225e+00 1.1366e+00 [bar]
 3.2209e-01  2.1414e+01 -2.8322e-01 +/- 1.2225e+00 2.6582e+00 1.4022e+00 [bar]
-5.0844e-01 -2.8322e-01  2.2099e+01 +/- 1.1366e+00 1.4022e+00 2.8107e+00 [bar]
Ideal-gas pressure:   2.701917e+01 +/ 4.557197e+00 [bar]
Excess pressure:     -5.178089e+00 +/ 1.916407e+00 [bar]
Pressure:             2.184108e+01 +/ 2.765628e+00 [bar]

Total potential energy/kʙ  -7.615105e+03 (-3.319760e+03 +/- 1.131895e+03) [K]
-------------------------------------------------------------------------------
ExternalField-molecule
    Van der Waals/kʙ        0.000000e+00 ( 0.000000e+00 +/- 0.000000e+00) [K]
Framework-molecule
    Van der Waals/kʙ        0.000000e+00 ( 0.000000e+00 +/- 0.000000e+00) [K]
    Van der Waals (Tail)/kʙ 0.000000e+00 ( 0.000000e+00 +/- 0.000000e+00) [K]
    Coulombic Real/kʙ       0.000000e+00 ( 0.000000e+00 +/- 0.000000e+00) [K]
    Coulombic Fourier/kʙ    0.000000e+00 ( 0.000000e+00 +/- 0.000000e+00) [K]
Molecule-molecule
    Van der Waals/kʙ       -4.988561e+03 (-2.448889e+03 +/- 8.480565e+02) [K]
    Van der Waals (Tail)/kʙ-7.632813e+01 (-4.272809e+01 +/- 1.474858e+01) [K]
    Coulombic Real/kʙ      -2.336254e+03 (-7.556488e+02 +/- 2.504269e+02) [K]
    Coulombic Fourier/kʙ   -2.139628e+02 (-7.249362e+01 +/- 2.061844e+01) [K]
    Molecule Intra/kʙ       0.000000e+00 ( 0.000000e+00 +/- 0.000000e+00) [K]


Energy statistics             |  Energy [K]   | Recomputed [K]|  Drift [K]    |
===============================================================================
Total potential energy/kʙ     | -4.655462e+03 | -4.612473e+03 | -4.298895e+01 |
    external field VDW/kʙ     |  0.000000e+00 |  0.000000e+00 |  0.000000e+00 |
    external field Real/kʙ    |  0.000000e+00 |  0.000000e+00 |  0.000000e+00 |
    framework-molecule VDW/kʙ |  0.000000e+00 |  0.000000e+00 |  0.000000e+00 |
    framework-molecule Real/kʙ|  0.000000e+00 |  0.000000e+00 |  0.000000e+00 |
    molecule-molecule VDW/kʙ  | -3.913242e+03 | -3.875869e+03 | -3.737274e+01 |
    molecule-molecule Real/kʙ | -5.761651e+02 | -5.705489e+02 | -5.616212e+00 |
    Van der Waals (Tail)/kʙ   | -6.483166e+01 | -6.483166e+01 | -5.127522e-14 |
    Ewald Fourier/kʙ          |  2.074586e+03 |  2.074586e+03 | -1.914275e-12 |
    Ewald self/kʙ             | -6.795709e+05 | -6.795709e+05 |  0.000000e+00 |
    Ewald exclusion/kʙ        |  6.773951e+05 |  6.773951e+05 | -2.800311e-10 |
    intra VDW/kʙ              |  0.000000e+00 |  0.000000e+00 |  0.000000e+00 |
    intra Coulombic/kʙ        |  0.000000e+00 |  0.000000e+00 |  0.000000e+00 |
    polarization/kʙ           |  0.000000e+00 |  0.000000e+00 |  0.000000e+00 |
    dU/dlambda VDW/kʙ         |  0.000000e+00 |  0.000000e+00 |  0.000000e+00 |
    dU/dlambda Real/kʙ        |  0.000000e+00 |  0.000000e+00 |  0.000000e+00 |
    dU/dlambda Ewald/kʙ       |  0.000000e+00 |  0.000000e+00 |  0.000000e+00 |
-------------------------------------------------------------------------------


Monte-Carlo moves statistics
===============================================================================

    Gibbs volume         all:                3014
    Gibbs volume         total:              5991
    Gibbs volume         constructed:        5991
    Gibbs volume         accepted:           4460
    Gibbs volume         fraction:       0.744450
    Gibbs volume         max-change:     0.037500

Component 0 [CO2]
    Reinsertion (CBMC)   all:              149774
    Reinsertion (CBMC)   total:            149774
    Reinsertion (CBMC)   constructed:      149774
    Reinsertion (CBMC)   accepted:         104962
    Reinsertion (CBMC)   fraction:       0.700803
    Reinsertion (CBMC)   max-change:     0.000000

    Gibbs swap (CBMC)    all:              298796
    Gibbs swap (CBMC)    total:            596543
    Gibbs swap (CBMC)    constructed:      574548
    Gibbs swap (CBMC)    accepted:          49750
    Gibbs swap (CBMC)    fraction:       0.083397
    Gibbs swap (CBMC)    max-change:     0.000000

    Translation          all:              149828
    Translation          total:             50060      49856      49912
    Translation          constructed:       49982      49779      49838
    Translation          accepted:          42666      42671      42607
    Translation          fraction:       0.852297   0.855885   0.853642
    Translation          max-change:     1.500000   1.500000   1.500000

    Rotation             all:              149648
    Rotation             total:             49974      49840      49834
    Rotation             constructed:       49952      49817      49825
    Rotation             accepted:          42467      42208      42833
    Rotation             fraction:       0.849782   0.846870   0.859514
    Rotation             max-change:     1.500000   1.500000   1.500000



Production run counting of the MC moves summed over systems and components
===============================================================================

Reinsertion (CBMC)                   299195 (19.9463 [%])
Gibbs volume                           5991 (0.3994 [%])
Gibbs swap (CBMC)                    596543 (39.7695 [%])
Translation                          299115 (19.9410 [%])
Rotation                             299156 (19.9437 [%])

Production count MC-steps:          1500000 [-]
               All summed:          1500000 [-]
               difference:                0 [-]


Production run CPU timings of the MC moves
===============================================================================

Component 0 CO2

Rotation                              8.053526 [s]
    Ewald                             6.024284 [s]
    ExternalField-Molecule            0.005660 [s]
    Framework-Molecule                0.006259 [s]
    Molecule-Molecule                 1.123160 [s]
    Overhead                          0.894163 [s]

Reinsertion (CBMC)                   19.344786 [s]
    Ewald                             6.070211 [s]
    NonEwald                         12.544758 [s]
    Overhead                          0.729817 [s]

Translation                           8.047772 [s]
    Ewald                             6.028409 [s]
    ExternalField-Molecule            0.004852 [s]
    Framework-Molecule                0.012445 [s]
    Molecule-Molecule                 1.132921 [s]
    Overhead                          0.869145 [s]



Gibbs swap (CBMC)                   171.894126 [s]
    Ewald                            27.247716 [s]
    NonEwald                        142.036203 [s]
    Tail                              1.512619 [s]

Gibbs volume                         21.771634 [s]
    Ewald                            10.005308 [s]
    NonEwald                         10.899263 [s]
    Tail                              0.701820 [s]

Property sampling                     0.232287 [s]
Energy/pressure sampling:             0.485379 [s]


Production run CPU timings of the MC moves summed over systems and components
===============================================================================


Translation                          30.269454 [s]
    Ewald                            17.313976 [s]
    ExternalField-Molecule            0.009714 [s]
    Framework-Molecule                0.024665 [s]
    Molecule-Molecule                11.013505 [s]
    Overhead                          1.907594 [s]

Rotation                             30.174031 [s]
    Ewald                            17.321511 [s]
    ExternalField-Molecule            0.011422 [s]
    Framework-Molecule                0.012594 [s]
    Molecule-Molecule                10.989570 [s]
    Overhead                          1.838934 [s]

Reinsertion (CBMC)                  100.047565 [s]
    Ewald                            16.612801 [s]
    NonEwald                         82.495404 [s]
    Overhead                          0.939360 [s]

Gibbs volume                         43.286922 [s]
    Ewald                            19.889255 [s]
    NonEwald                         21.669122 [s]
    Tail                              1.396766 [s]
    Overhead                          0.331779 [s]

Gibbs swap (CBMC)                   289.787722 [s]
    Ewald                            52.380048 [s]
    NonEwald                        232.461917 [s]
    Tail                              2.804429 [s]
    Overhead                          2.141328 [s]

Property sampling:                    0.551420 [s]
Energy/pressure sampling:             9.772553 [s]

Production simulation time:         505.251708 [s]
                All summed:         503.889667 [s]
                  Overhead:           1.362041 [s]


Initalization simulation time:      161.015469 [s]
Equilibration simulation time:        0.000000 [s]
Production simulation time:         505.251708 [s]
Total simulation time:              666.267177 [s]


Energy averages and statistics:
===============================================================================

Framework-molecule energy:
-------------------------------------------------------------------------------



Framework-molecule energy contributions per energy type:
-------------------------------------------------------------------------------



Inter-molecular energy:
-------------------------------------------------------------------------------

    Inter-molecular energy/kʙ 0-0 [CO2-CO2]:
    ---------------------------------------------------------------------------
        Block[  0] -2.581663e+03
        Block[  1] -2.718288e+03
        Block[  2] -2.766109e+03
        Block[  3] -4.051583e+03
        Block[  4] -4.440321e+03
        -----------------------------------------------------------------------
        Average  -3.311593e+03 +/-  1.075852e+03 [K]



Inter-molecular energy contributions per energy type:
-------------------------------------------------------------------------------

    Van der Waals energy/kʙ 0-0 [CO2-CO2]:
    ---------------------------------------------------------------------------
        Block[  0] -1.913267e+03
        Block[  1] -1.989494e+03
        Block[  2] -2.033715e+03
        Block[  3] -2.969186e+03
        Block[  4] -3.320853e+03
        -----------------------------------------------------------------------
        Average  -2.445303e+03 +/-  8.096386e+02 [K]

    VDW Tail-Correction energy/kʙ 0-0 [CO2-CO2]:
    ---------------------------------------------------------------------------
        Block[  0] -3.375719e+01
        Block[  1] -3.540507e+01
        Block[  2] -3.409309e+01
        Block[  3] -5.305306e+01
        Block[  4] -5.733641e+01
        -----------------------------------------------------------------------
        Average  -4.272896e+01 +/-  1.427246e+01 [K]

    Coulomb Real energy/kʙ 0-0 [CO2-CO2]:
    ---------------------------------------------------------------------------
        Block[  0] -5.747635e+02
        Block[  1] -6.352982e+02
        Block[  2] -6.340067e+02
        Block[  3] -9.385381e+02
        Block[  4] -9.723645e+02
        -----------------------------------------------------------------------
        Average  -7.509942e+02 +/-  2.341622e+02 [K]

    Coulomb Fourier energy/kʙ 0-0 [CO2-CO2]:
    ---------------------------------------------------------------------------
        Block[  0] -5.987552e+01
        Block[  1] -5.809046e+01
        Block[  2] -6.429509e+01
        Block[  3] -9.080529e+01
        Block[  4] -8.976668e+01
        -----------------------------------------------------------------------
        Average  -7.256661e+01 +/-  2.028126e+01 [K]


Total energy/kʙ
-------------------------------------------------------------------------------
    Block[  0] -2.581663e+03
    Block[  1] -2.718288e+03
    Block[  2] -2.766109e+03
    Block[  3] -4.051583e+03
    Block[  4] -4.440321e+03
    ---------------------------------------------------------------------------
    Average  -3.311593e+03 +/-  1.075852e+03 [K]

Pressure averages and statistics:
===============================================================================

Average pressure tensor: 
-------------------------------------------------------------------------------
 2.2044e+01  2.9704e-01 -5.5433e-01 +/- 3.0499e+00 1.2305e+00 1.1880e+00 [bar]
 2.9704e-01  2.1538e+01 -3.0043e-01 +/- 1.2305e+00 2.7971e+00 1.3945e+00 [bar]
-5.5433e-01 -3.0043e-01  2.2122e+01 +/- 1.1880e+00 1.3945e+00 2.7938e+00 [bar]

    Block[  0]  2.408286e+06
    Block[  1]  2.477136e+06
    Block[  2]  2.446320e+06
    Block[  3]  3.049187e+06
    Block[  4]  3.145169e+06
    ---------------------------------------------------------------------------
    Ideal gas pressure   2.705220e+06 +/-  2.693247e-02 [Pa]
                         2.705220e+01 +/-  4.472244e+00 [bar]


    Block[  0] -4.302899e+05
    Block[  1] -3.633870e+05
    Block[  2] -4.475305e+05
    Block[  3] -6.352017e+05
    Block[  4] -6.990300e+05
    ---------------------------------------------------------------------------
    Excess pressure  -5.150878e+05 +/-  1.788635e+05 [Pa]
                     -5.150878e+00 +/-  1.788635e+00 [bar]


    Block[  0]  1.977996e+06
    Block[  1]  2.113749e+06
    Block[  2]  1.998789e+06
    Block[  3]  2.413985e+06
    Block[  4]  2.446139e+06
    ---------------------------------------------------------------------------
    Pressure average   2.190132e+06 +/-  2.797415e+05 [Pa]
                       2.190132e+01 +/-  2.797415e+00 [bar]


Enthalpy of adsorption
===============================================================================

Component 0 [CO2]
-------------------------------------------------------------------------------
    Block[  0] -4.466016e+02
    Block[  1] -4.708924e+02
    Block[  2] -4.576674e+02
    Block[  3] -4.923295e+02
    Block[  4] -5.161779e+02
    ---------------------------------------------------------------------------
    Enthalpy of adsorption: -4.767338e+02 +/-  3.458688e+01 [K]
                            -3.963786e+00 +/-  2.875714e-01 [kJ/mol]
    Warning: need to subtract the ideal-gas energy.


Densities
===============================================================================

Component 0 (CO2)
    Block[  0] 25.28166666666667
    Block[  1] 26.073333333333334
    Block[  2] 25.7525
    Block[  3] 32.78666666666667
    Block[  4] 33.96
    -----------------------------------------------------------------------
    Density average   2.877083e+01 +/-  5.253007e+00 [molecules]
    Density average   7.536079e-04 +/-  1.245858e-04 [molec/A^3]
    Density average   5.505989e+01 +/-  9.102450e+00 [kg.m⁻³]

