Compiler and run-time data
===============================================================================
RASPA 3.0.4

Random seed: 4106559880

Compiled as a 64-bits application
Compiler: gcc Ubuntu Clang 18.1.3 (1ubuntu1)
Compile Date = Mar 15 2025, Compile Time = 19:39:45

2025-06-03 10:59:44.557316
Simulation started on Tue, Jun 03
The start time was 10:59:00

Hostname:    c109
OS type:     Linux on x86_64
OS release:  6.8.0-58-generic
OS version:  #60-Ubuntu SMP PREEMPT_DYNAMIC Fri Mar 14 18:29:48 UTC 2025


Mutual consistent basic set of units:
===============================================================================

Unit of temperature: 1 [K]
Unit of length:      1e-10 [m]
Unit of time:        1e-12 [s]
Unit of mass:        1.6605402e-27 [kg]
Unit of charge:      1.60217733e-19 [C/particle]


Boltzmann constant (internal units):          0.8314464919307584 [-]
represents conversion from energy (internal units) to temperature (in Kelvin)

Derived units and their conversion factors:
===============================================================================

Unit of energy:                           1.6605402000000002e-23 [J]
Unit of energy:                           10.000008872307538 [J.mol⁻¹]
Unit of velocity:                         100 [m.s⁻¹]
Unit of force:                            1.6605402000000002e-13 [N]
Unit of diffusion:                        1.0000000000000002e-08 [m².s⁻¹]
Unit of acceleration:                     1.0000000000000002e-08 [m².s⁻¹]
Unit of torque:                           1.6605402000000002e-23 [N.m]
Unit of pressure:                         16605402 [Pa]
Unit of volume:                           1e-30 [m³]
Unit of density:                          1660.5402 [kg.m⁻³]
Unit of dynamic viscosity:                1.6605401999999997e-05 [N.s.m⁻²]
Unit of enthalpy:                         1.6605402000000002e-23 [J]
Unit of polarizability:                   1.5458657349975198e-35 [-]
Unit of Coulomb potential:                167101.08000665612 [K]
Unit of dielectric constant:              1.5458657349975193e-05 [s².C².kg⁻¹.m⁻³]
Unit of dipole moment:                    1.60217733e-29 [C.m]
Unit of Debye:                            4.803206799099162 [C.m]
Unit of electric potential:               0.00010364272224473431 [V]
Unit of electric field:                   1036427.222447343 [V.m⁻¹]
Unit of isothermal compressibility:       6.02213665167516e-08 [Pa⁻¹]
Unit of heat capacity:                    10.000008872307538 [J.mol⁻¹.K⁻¹]
Unit of volumetric expansion coefficient: 1 [K⁻¹]


Internal conversion factors:
===============================================================================

Energy (internal units) to Kelvin:      1.202724284692786 [-]
Kelvin to energy (internal units):      0.8314457542157567 [-]


System definitions
===============================================================================

Temperature:          270 [K]
Beta:                 0.004454530435389873 [-]
Pressure:             0 [Pa]
Helium void fraction: 1 [-]

Box:      30.00000   0.00000   0.00000
           0.00000  30.00000   0.00000
           0.00000   0.00000  30.00000
Lengths:  30.00000  30.00000  30.00000
Angles:   90.00000  90.00000  90.00000
Rectangular boundary conditions



Property measurement settings
===============================================================================




Pseudo-atoms
===============================================================================

  0 - C_co2    framework-atom: false
  1 - O_co2    framework-atom: false

  0 - C_co2    mass: 12.00000, charge:  0.70000
  1 - O_co2    mass: 15.99940, charge: -0.35000

  0 - C_co2    polarizability:  0.00000
  1 - O_co2    polarizability:  0.00000

  0 - J. J. Potoff et al., AIChE J. 2001, 47, 1676–1682.
  1 - J. J. Potoff et al., AIChE J. 2001, 47, 1676–1682.

Force field status
===============================================================================

Cutoff Framework-Molecule VDW:  12.00000 [Å]
Cutoff Molecule-Molecule VDW:   12.00000 [Å]
Cutoff Coulomb:                 12.00000 [Å]

Overlap-criteria VDW:           1.000000e+05 [K]

C_co2    - C_co2    Lennard-Jones p₀/kʙ:  27.00000 [K], p₁:  2.80000 [Å]
                                  shift:   0.00000 [K], tailcorrections: true
C_co2    - O_co2    Lennard-Jones p₀/kʙ:  46.18441 [K], p₁:  2.92500 [Å]
                                  shift:   0.00000 [K], tailcorrections: true
O_co2    - O_co2    Lennard-Jones p₀/kʙ:  79.00000 [K], p₁:  3.05000 [Å]
                                  shift:   0.00000 [K], tailcorrections: true

Ewald precision: 1e-06
Ewald alpha: 0.26505830360350674
Ewald k-vectors: 8 8 8


Component definitions
===============================================================================

Component 0 [CO2]

    Type: Adsorbate

    Critical temperature:  304.1282 [K]
    Critical pressure:     7377300 [Pa]
    Acentric factor:       0.22394 [-]

    Mol-fraction:                 1 [-]
    Swappable:                   true

    Mass:                         43.9988 [-]
    Fugacity coefficient:         -nan [-]
    Bulk fluid density:           0 [-]
    Compressibility:              1 [-]
    Excess molecules:             0 [-]

    Number Of Atoms:    3
    CBMC starting bead: 0
      0: O_co2  position  0.00000 -0.00000  1.16000, charge -0.35000
      1: C_co2  position  0.00000 -0.00000  0.00000, charge  0.70000
      2: O_co2  position  0.00000 -0.00000 -1.16000, charge -0.35000
    Diagonalized inertia-vector:      43.05758528 43.05758528 0.00000000
    Translational degrees of freedom: 3
    Rotational degrees of freedom:    2
    Shape of the molecule is: 'Linear'
    Net-charge:        0.00000000 [e]

    Move probabilities:
    Translation:                   0.199203 [-]
    Random translation:            0.000000 [-]
    Rotation:                      0.199203 [-]
    Random rotation:               0.000000 [-]
    Volume change:                 0.000000 [-]
    Reinsertion (CBMC):            0.199203 [-]
    Identity change (CBMC):        0.000000 [-]
    Swap:                          0.000000 [-]
    Swap (CBMC):                   0.000000 [-]
    Swap (CFCMC):                  0.000000 [-]
    Swap (CB/CFCMC):               0.000000 [-]
    Gibbs volume:                  0.003984 [-]
    Gibbs swap (CBMC):             0.398406 [-]
    Gibbs swap (CFCMC):            0.000000 [-]
    Widom:                         0.000000 [-]
    Widom (CFCMC):                 0.000000 [-]
    Widom (CB/CFCMC):              0.000000 [-]
    Parallel tempering:            0.000000 [-]
    Hybrid MC:                     0.000000 [-]

    number of blocking-pockets: 0

    number of bonds: 0





Number of pseudo-atoms
===============================================================================

Component   0 (CO2)
-------------------------------------------------------------------------------
    index   0 (C_co2): 210 atoms
    index   1 (O_co2): 420 atoms

Total number of pseudo-atoms:
-------------------------------------------------------------------------------
    index   0 (C_co2): 210 atoms
    index   1 (O_co2): 420 atoms




Energy status Recomputed from scratch
===============================================================================

Total potential energy/kʙ       -1.442997e+05 [K]
    external field VDW/kʙ        0.000000e+00 [K]
    external field Real/kʙ       0.000000e+00 [K]
    framework-molecule VDW/kʙ    0.000000e+00 [K]
    framework-molecule Real/kʙ   0.000000e+00 [K]
    molecule-molecule VDW/kʙ    -1.144689e+05 [K]
    molecule-molecule Real/kʙ   -2.500084e+04 [K]
    Van der Waals (Tail)/kʙ     -3.033270e+03 [K]
    Ewald Fourier/kʙ             1.055258e+04 [K]
    Ewald self/kʙ               -3.857024e+06 [K]
    Ewald exclusion/kʙ           3.844675e+06 [K]
    intra VDW/kʙ                 0.000000e+00 [K]
    intra Coulombic/kʙ           0.000000e+00 [K]
    polarization/kʙ              0.000000e+00 [K]
    dU/dlambda VDW/kʙ            0.000000e+00 [K]
    dU/dlambda Real/kʙ           0.000000e+00 [K]
    dU/dlambda Ewald/kʙ          0.000000e+00 [K]





Initialization: Current cycle: 0 out of 2000
===============================================================================

Box:      30.02820   0.00000   0.00000
           0.00000  30.02820   0.00000
           0.00000   0.00000  30.02820
Lengths:  30.02820  30.02820  30.02820
Angles:   90.00000  90.00000  90.00000
Rectangular boundary conditions

net charge:   0.00000000

component   0 (CO2) lambda:  0 occupancy:  0 (0.000000)
    net charge:   0.00000000 [e]

Amount of molecules per component :
-------------------------------------------------------------------------------
Component 0 (CO2)
    molecules:         2.030000e+02 molecules
    number density:    7.497353e-03 molec/A^3
    density:           5.477694e+02 kg/m^3

Total potential energy/kʙ       -1.445515e+05 [K]
-------------------------------------------------------------------------------
    external field VDW/kʙ        0.000000e+00 [K]
    external field Real/kʙ       0.000000e+00 [K]
    framework-molecule VDW/kʙ    0.000000e+00 [K]
    framework-molecule Real/kʙ   0.000000e+00 [K]
    molecule-molecule VDW/kʙ    -1.135133e+05 [K]
    molecule-molecule Real/kʙ   -2.602336e+04 [K]
    Van der Waals (Tail)/kʙ     -2.826443e+03 [K]
    Ewald Fourier/kʙ             9.749216e+03 [K]
    Ewald self/kʙ               -3.728457e+06 [K]
    Ewald exclusion/kʙ           3.716519e+06 [K]
    intra VDW/kʙ                 0.000000e+00 [K]
    intra Coulombic/kʙ           0.000000e+00 [K]
    polarization/kʙ              0.000000e+00 [K]
    dU/dlambda VDW/kʙ            0.000000e+00 [K]
    dU/dlambda Real/kʙ           0.000000e+00 [K]
    dU/dlambda Ewald/kʙ          0.000000e+00 [K]


Initialization: Current cycle: 100 out of 2000
===============================================================================

Box:      28.65404   0.00000   0.00000
           0.00000  28.65404   0.00000
           0.00000   0.00000  28.65404
Lengths:  28.65404  28.65404  28.65404
Angles:   90.00000  90.00000  90.00000
Rectangular boundary conditions

net charge:   0.00000000

component   0 (CO2) lambda:  0 occupancy:  0 (0.000000)
    net charge:   0.00000000 [e]

Amount of molecules per component :
-------------------------------------------------------------------------------
Component 0 (CO2)
    molecules:         2.260000e+02 molecules
    number density:    9.606181e-03 molec/A^3
    density:           7.018440e+02 kg/m^3

Total potential energy/kʙ       -2.297220e+05 [K]
-------------------------------------------------------------------------------
    external field VDW/kʙ        0.000000e+00 [K]
    external field Real/kʙ       0.000000e+00 [K]
    framework-molecule VDW/kʙ    0.000000e+00 [K]
    framework-molecule Real/kʙ   0.000000e+00 [K]
    molecule-molecule VDW/kʙ    -1.734064e+05 [K]
    molecule-molecule Real/kʙ   -4.796584e+04 [K]
    Van der Waals (Tail)/kʙ     -4.031767e+03 [K]
    Ewald Fourier/kʙ             8.972063e+03 [K]
    Ewald self/kʙ               -4.150893e+06 [K]
    Ewald exclusion/kʙ           4.137603e+06 [K]
    intra VDW/kʙ                 0.000000e+00 [K]
    intra Coulombic/kʙ           0.000000e+00 [K]
    polarization/kʙ              0.000000e+00 [K]
    dU/dlambda VDW/kʙ            0.000000e+00 [K]
    dU/dlambda Real/kʙ           0.000000e+00 [K]
    dU/dlambda Ewald/kʙ          0.000000e+00 [K]


Initialization: Current cycle: 200 out of 2000
===============================================================================

Box:      28.31674   0.00000   0.00000
           0.00000  28.31674   0.00000
           0.00000   0.00000  28.31674
Lengths:  28.31674  28.31674  28.31674
Angles:   90.00000  90.00000  90.00000
Rectangular boundary conditions

net charge:   0.00000000

component   0 (CO2) lambda:  0 occupancy:  0 (0.000000)
    net charge:   0.00000000 [e]

Amount of molecules per component :
-------------------------------------------------------------------------------
Component 0 (CO2)
    molecules:         2.260000e+02 molecules
    number density:    9.953566e-03 molec/A^3
    density:           7.272246e+02 kg/m^3

Total potential energy/kʙ       -2.441704e+05 [K]
-------------------------------------------------------------------------------
    external field VDW/kʙ        0.000000e+00 [K]
    external field Real/kʙ       0.000000e+00 [K]
    framework-molecule VDW/kʙ    0.000000e+00 [K]
    framework-molecule Real/kʙ   0.000000e+00 [K]
    molecule-molecule VDW/kʙ    -1.804688e+05 [K]
    molecule-molecule Real/kʙ   -5.453057e+04 [K]
    Van der Waals (Tail)/kʙ     -4.177566e+03 [K]
    Ewald Fourier/kʙ             8.296645e+03 [K]
    Ewald self/kʙ               -4.150893e+06 [K]
    Ewald exclusion/kʙ           4.137603e+06 [K]
    intra VDW/kʙ                 0.000000e+00 [K]
    intra Coulombic/kʙ           0.000000e+00 [K]
    polarization/kʙ              0.000000e+00 [K]
    dU/dlambda VDW/kʙ            0.000000e+00 [K]
    dU/dlambda Real/kʙ           0.000000e+00 [K]
    dU/dlambda Ewald/kʙ          0.000000e+00 [K]


Initialization: Current cycle: 300 out of 2000
===============================================================================

Box:      27.93649   0.00000   0.00000
           0.00000  27.93649   0.00000
           0.00000   0.00000  27.93649
Lengths:  27.93649  27.93649  27.93649
Angles:   90.00000  90.00000  90.00000
Rectangular boundary conditions

net charge:   0.00000000

component   0 (CO2) lambda:  0 occupancy:  0 (0.000000)
    net charge:   0.00000000 [e]

Amount of molecules per component :
-------------------------------------------------------------------------------
Component 0 (CO2)
    molecules:         2.160000e+02 molecules
    number density:    9.906911e-03 molec/A^3
    density:           7.238159e+02 kg/m^3

Total potential energy/kʙ       -2.306911e+05 [K]
-------------------------------------------------------------------------------
    external field VDW/kʙ        0.000000e+00 [K]
    external field Real/kʙ       0.000000e+00 [K]
    framework-molecule VDW/kʙ    0.000000e+00 [K]
    framework-molecule Real/kʙ   0.000000e+00 [K]
    molecule-molecule VDW/kʙ    -1.726153e+05 [K]
    molecule-molecule Real/kʙ   -4.953592e+04 [K]
    Van der Waals (Tail)/kʙ     -3.974003e+03 [K]
    Ewald Fourier/kʙ             8.136131e+03 [K]
    Ewald self/kʙ               -3.967225e+06 [K]
    Ewald exclusion/kʙ           3.954523e+06 [K]
    intra VDW/kʙ                 0.000000e+00 [K]
    intra Coulombic/kʙ           0.000000e+00 [K]
    polarization/kʙ              0.000000e+00 [K]
    dU/dlambda VDW/kʙ            0.000000e+00 [K]
    dU/dlambda Real/kʙ           0.000000e+00 [K]
    dU/dlambda Ewald/kʙ          0.000000e+00 [K]


Initialization: Current cycle: 400 out of 2000
===============================================================================

Box:      27.44655   0.00000   0.00000
           0.00000  27.44655   0.00000
           0.00000   0.00000  27.44655
Lengths:  27.44655  27.44655  27.44655
Angles:   90.00000  90.00000  90.00000
Rectangular boundary conditions

net charge:   0.00000000

component   0 (CO2) lambda:  0 occupancy:  0 (0.000000)
    net charge:   0.00000000 [e]

Amount of molecules per component :
-------------------------------------------------------------------------------
Component 0 (CO2)
    molecules:         2.270000e+02 molecules
    number density:    1.097899e-02 molec/A^3
    density:           8.021440e+02 kg/m^3

Total potential energy/kʙ       -2.505408e+05 [K]
-------------------------------------------------------------------------------
    external field VDW/kʙ        0.000000e+00 [K]
    external field Real/kʙ       0.000000e+00 [K]
    framework-molecule VDW/kʙ    0.000000e+00 [K]
    framework-molecule Real/kʙ   0.000000e+00 [K]
    molecule-molecule VDW/kʙ    -1.863432e+05 [K]
    molecule-molecule Real/kʙ   -5.401121e+04 [K]
    Van der Waals (Tail)/kʙ     -4.628333e+03 [K]
    Ewald Fourier/kʙ             7.790787e+03 [K]
    Ewald self/kʙ               -4.169260e+06 [K]
    Ewald exclusion/kʙ           4.155911e+06 [K]
    intra VDW/kʙ                 0.000000e+00 [K]
    intra Coulombic/kʙ           0.000000e+00 [K]
    polarization/kʙ              0.000000e+00 [K]
    dU/dlambda VDW/kʙ            0.000000e+00 [K]
    dU/dlambda Real/kʙ           0.000000e+00 [K]
    dU/dlambda Ewald/kʙ          0.000000e+00 [K]


Initialization: Current cycle: 500 out of 2000
===============================================================================

Box:      27.25004   0.00000   0.00000
           0.00000  27.25004   0.00000
           0.00000   0.00000  27.25004
Lengths:  27.25004  27.25004  27.25004
Angles:   90.00000  90.00000  90.00000
Rectangular boundary conditions

net charge:   0.00000000

component   0 (CO2) lambda:  0 occupancy:  0 (0.000000)
    net charge:   0.00000000 [e]

Amount of molecules per component :
-------------------------------------------------------------------------------
Component 0 (CO2)
    molecules:         2.320000e+02 molecules
    number density:    1.146533e-02 molec/A^3
    density:           8.376769e+02 kg/m^3

Total potential energy/kʙ       -2.751961e+05 [K]
-------------------------------------------------------------------------------
    external field VDW/kʙ        0.000000e+00 [K]
    external field Real/kʙ       0.000000e+00 [K]
    framework-molecule VDW/kʙ    0.000000e+00 [K]
    framework-molecule Real/kʙ   0.000000e+00 [K]
    molecule-molecule VDW/kʙ    -2.049465e+05 [K]
    molecule-molecule Real/kʙ   -5.898522e+04 [K]
    Van der Waals (Tail)/kʙ     -4.939817e+03 [K]
    Ewald Fourier/kʙ             7.318309e+03 [K]
    Ewald self/kʙ               -4.261093e+06 [K]
    Ewald exclusion/kʙ           4.247451e+06 [K]
    intra VDW/kʙ                 0.000000e+00 [K]
    intra Coulombic/kʙ           0.000000e+00 [K]
    polarization/kʙ              0.000000e+00 [K]
    dU/dlambda VDW/kʙ            0.000000e+00 [K]
    dU/dlambda Real/kʙ           0.000000e+00 [K]
    dU/dlambda Ewald/kʙ          0.000000e+00 [K]


Initialization: Current cycle: 600 out of 2000
===============================================================================

Box:      27.29287   0.00000   0.00000
           0.00000  27.29287   0.00000
           0.00000   0.00000  27.29287
Lengths:  27.29287  27.29287  27.29287
Angles:   90.00000  90.00000  90.00000
Rectangular boundary conditions

net charge:   0.00000000

component   0 (CO2) lambda:  0 occupancy:  0 (0.000000)
    net charge:   0.00000000 [e]

Amount of molecules per component :
-------------------------------------------------------------------------------
Component 0 (CO2)
    molecules:         2.200000e+02 molecules
    number density:    1.082119e-02 molec/A^3
    density:           7.906145e+02 kg/m^3

Total potential energy/kʙ       -2.442328e+05 [K]
-------------------------------------------------------------------------------
    external field VDW/kʙ        0.000000e+00 [K]
    external field Real/kʙ       0.000000e+00 [K]
    framework-molecule VDW/kʙ    0.000000e+00 [K]
    framework-molecule Real/kʙ   0.000000e+00 [K]
    molecule-molecule VDW/kʙ    -1.884031e+05 [K]
    molecule-molecule Real/kʙ   -4.622986e+04 [K]
    Van der Waals (Tail)/kʙ     -4.421136e+03 [K]
    Ewald Fourier/kʙ             7.758521e+03 [K]
    Ewald self/kʙ               -4.040692e+06 [K]
    Ewald exclusion/kʙ           4.027755e+06 [K]
    intra VDW/kʙ                 0.000000e+00 [K]
    intra Coulombic/kʙ           0.000000e+00 [K]
    polarization/kʙ              0.000000e+00 [K]
    dU/dlambda VDW/kʙ            0.000000e+00 [K]
    dU/dlambda Real/kʙ           0.000000e+00 [K]
    dU/dlambda Ewald/kʙ          0.000000e+00 [K]


Initialization: Current cycle: 700 out of 2000
===============================================================================

Box:      26.45551   0.00000   0.00000
           0.00000  26.45551   0.00000
           0.00000   0.00000  26.45551
Lengths:  26.45551  26.45551  26.45551
Angles:   90.00000  90.00000  90.00000
Rectangular boundary conditions

net charge:   0.00000000

component   0 (CO2) lambda:  0 occupancy:  0 (0.000000)
    net charge:   0.00000000 [e]

Amount of molecules per component :
-------------------------------------------------------------------------------
Component 0 (CO2)
    molecules:         2.130000e+02 molecules
    number density:    1.150353e-02 molec/A^3
    density:           8.404674e+02 kg/m^3

Total potential energy/kʙ       -2.520917e+05 [K]
-------------------------------------------------------------------------------
    external field VDW/kʙ        0.000000e+00 [K]
    external field Real/kʙ       0.000000e+00 [K]
    framework-molecule VDW/kʙ    0.000000e+00 [K]
    framework-molecule Real/kʙ   0.000000e+00 [K]
    molecule-molecule VDW/kʙ    -1.825438e+05 [K]
    molecule-molecule Real/kʙ   -5.898237e+04 [K]
    Van der Waals (Tail)/kʙ     -4.550371e+03 [K]
    Ewald Fourier/kʙ             6.510436e+03 [K]
    Ewald self/kʙ               -3.912125e+06 [K]
    Ewald exclusion/kʙ           3.899599e+06 [K]
    intra VDW/kʙ                 0.000000e+00 [K]
    intra Coulombic/kʙ           0.000000e+00 [K]
    polarization/kʙ              0.000000e+00 [K]
    dU/dlambda VDW/kʙ            0.000000e+00 [K]
    dU/dlambda Real/kʙ           0.000000e+00 [K]
    dU/dlambda Ewald/kʙ          0.000000e+00 [K]


Initialization: Current cycle: 800 out of 2000
===============================================================================

Box:      26.50635   0.00000   0.00000
           0.00000  26.50635   0.00000
           0.00000   0.00000  26.50635
Lengths:  26.50635  26.50635  26.50635
Angles:   90.00000  90.00000  90.00000
Rectangular boundary conditions

net charge:   0.00000000

component   0 (CO2) lambda:  0 occupancy:  0 (0.000000)
    net charge:   0.00000000 [e]

Amount of molecules per component :
-------------------------------------------------------------------------------
Component 0 (CO2)
    molecules:         2.240000e+02 molecules
    number density:    1.202814e-02 molec/A^3
    density:           8.787964e+02 kg/m^3

Total potential energy/kʙ       -2.698058e+05 [K]
-------------------------------------------------------------------------------
    external field VDW/kʙ        0.000000e+00 [K]
    external field Real/kʙ       0.000000e+00 [K]
    framework-molecule VDW/kʙ    0.000000e+00 [K]
    framework-molecule Real/kʙ   0.000000e+00 [K]
    molecule-molecule VDW/kʙ    -2.013108e+05 [K]
    molecule-molecule Real/kʙ   -5.779586e+04 [K]
    Van der Waals (Tail)/kʙ     -5.003601e+03 [K]
    Ewald Fourier/kʙ             7.476914e+03 [K]
    Ewald self/kʙ               -4.114159e+06 [K]
    Ewald exclusion/kʙ           4.100987e+06 [K]
    intra VDW/kʙ                 0.000000e+00 [K]
    intra Coulombic/kʙ           0.000000e+00 [K]
    polarization/kʙ              0.000000e+00 [K]
    dU/dlambda VDW/kʙ            0.000000e+00 [K]
    dU/dlambda Real/kʙ           0.000000e+00 [K]
    dU/dlambda Ewald/kʙ          0.000000e+00 [K]


Initialization: Current cycle: 900 out of 2000
===============================================================================

Box:      25.82109   0.00000   0.00000
           0.00000  25.82109   0.00000
           0.00000   0.00000  25.82109
Lengths:  25.82109  25.82109  25.82109
Angles:   90.00000  90.00000  90.00000
Rectangular boundary conditions

net charge:   0.00000000

component   0 (CO2) lambda:  0 occupancy:  0 (0.000000)
    net charge:   0.00000000 [e]

Amount of molecules per component :
-------------------------------------------------------------------------------
Component 0 (CO2)
    molecules:         2.090000e+02 molecules
    number density:    1.214010e-02 molec/A^3
    density:           8.869768e+02 kg/m^3

Total potential energy/kʙ       -2.603012e+05 [K]
-------------------------------------------------------------------------------
    external field VDW/kʙ        0.000000e+00 [K]
    external field Real/kʙ       0.000000e+00 [K]
    framework-molecule VDW/kʙ    0.000000e+00 [K]
    framework-molecule Real/kʙ   0.000000e+00 [K]
    molecule-molecule VDW/kʙ    -1.924557e+05 [K]
    molecule-molecule Real/kʙ   -5.649490e+04 [K]
    Van der Waals (Tail)/kʙ     -4.711996e+03 [K]
    Ewald Fourier/kʙ             5.651710e+03 [K]
    Ewald self/kʙ               -3.838657e+06 [K]
    Ewald exclusion/kʙ           3.826367e+06 [K]
    intra VDW/kʙ                 0.000000e+00 [K]
    intra Coulombic/kʙ           0.000000e+00 [K]
    polarization/kʙ              0.000000e+00 [K]
    dU/dlambda VDW/kʙ            0.000000e+00 [K]
    dU/dlambda Real/kʙ           0.000000e+00 [K]
    dU/dlambda Ewald/kʙ          0.000000e+00 [K]


Initialization: Current cycle: 1000 out of 2000
===============================================================================

Box:      25.41825   0.00000   0.00000
           0.00000  25.41825   0.00000
           0.00000   0.00000  25.41825
Lengths:  25.41825  25.41825  25.41825
Angles:   90.00000  90.00000  90.00000
Rectangular boundary conditions

net charge:   0.00000000

component   0 (CO2) lambda:  0 occupancy:  0 (0.000000)
    net charge:   0.00000000 [e]

Amount of molecules per component :
-------------------------------------------------------------------------------
Component 0 (CO2)
    molecules:         2.020000e+02 molecules
    number density:    1.230027e-02 molec/A^3
    density:           8.986786e+02 kg/m^3

Total potential energy/kʙ       -2.615544e+05 [K]
-------------------------------------------------------------------------------
    external field VDW/kʙ        0.000000e+00 [K]
    external field Real/kʙ       0.000000e+00 [K]
    framework-molecule VDW/kʙ    0.000000e+00 [K]
    framework-molecule Real/kʙ   0.000000e+00 [K]
    molecule-molecule VDW/kʙ    -1.927822e+05 [K]
    molecule-molecule Real/kʙ   -5.820450e+04 [K]
    Van der Waals (Tail)/kʙ     -4.614261e+03 [K]
    Ewald Fourier/kʙ             5.925290e+03 [K]
    Ewald self/kʙ               -3.710090e+06 [K]
    Ewald exclusion/kʙ           3.698211e+06 [K]
    intra VDW/kʙ                 0.000000e+00 [K]
    intra Coulombic/kʙ           0.000000e+00 [K]
    polarization/kʙ              0.000000e+00 [K]
    dU/dlambda VDW/kʙ            0.000000e+00 [K]
    dU/dlambda Real/kʙ           0.000000e+00 [K]
    dU/dlambda Ewald/kʙ          0.000000e+00 [K]


Initialization: Current cycle: 1100 out of 2000
===============================================================================

Box:      25.35351   0.00000   0.00000
           0.00000  25.35351   0.00000
           0.00000   0.00000  25.35351
Lengths:  25.35351  25.35351  25.35351
Angles:   90.00000  90.00000  90.00000
Rectangular boundary conditions

net charge:   0.00000000

component   0 (CO2) lambda:  0 occupancy:  0 (0.000000)
    net charge:   0.00000000 [e]

Amount of molecules per component :
-------------------------------------------------------------------------------
Component 0 (CO2)
    molecules:         2.160000e+02 molecules
    number density:    1.325377e-02 molec/A^3
    density:           9.683433e+02 kg/m^3

Total potential energy/kʙ       -2.908608e+05 [K]
-------------------------------------------------------------------------------
    external field VDW/kʙ        0.000000e+00 [K]
    external field Real/kʙ       0.000000e+00 [K]
    framework-molecule VDW/kʙ    0.000000e+00 [K]
    framework-molecule Real/kʙ   0.000000e+00 [K]
    molecule-molecule VDW/kʙ    -2.155501e+05 [K]
    molecule-molecule Real/kʙ   -6.347787e+04 [K]
    Van der Waals (Tail)/kʙ     -5.316545e+03 [K]
    Ewald Fourier/kʙ             6.185680e+03 [K]
    Ewald self/kʙ               -3.967225e+06 [K]
    Ewald exclusion/kʙ           3.954523e+06 [K]
    intra VDW/kʙ                 0.000000e+00 [K]
    intra Coulombic/kʙ           0.000000e+00 [K]
    polarization/kʙ              0.000000e+00 [K]
    dU/dlambda VDW/kʙ            0.000000e+00 [K]
    dU/dlambda Real/kʙ           0.000000e+00 [K]
    dU/dlambda Ewald/kʙ          0.000000e+00 [K]


Initialization: Current cycle: 1200 out of 2000
===============================================================================

Box:      25.24172   0.00000   0.00000
           0.00000  25.24172   0.00000
           0.00000   0.00000  25.24172
Lengths:  25.24172  25.24172  25.24172
Angles:   90.00000  90.00000  90.00000
Rectangular boundary conditions

net charge:   0.00000000

component   0 (CO2) lambda:  0 occupancy:  0 (0.000000)
    net charge:   0.00000000 [e]

Amount of molecules per component :
-------------------------------------------------------------------------------
Component 0 (CO2)
    molecules:         2.020000e+02 molecules
    number density:    1.256015e-02 molec/A^3
    density:           9.176660e+02 kg/m^3

Total potential energy/kʙ       -2.665687e+05 [K]
-------------------------------------------------------------------------------
    external field VDW/kʙ        0.000000e+00 [K]
    external field Real/kʙ       0.000000e+00 [K]
    framework-molecule VDW/kʙ    0.000000e+00 [K]
    framework-molecule Real/kʙ   0.000000e+00 [K]
    molecule-molecule VDW/kʙ    -1.974216e+05 [K]
    molecule-molecule Real/kʙ   -5.788429e+04 [K]
    Van der Waals (Tail)/kʙ     -4.711751e+03 [K]
    Ewald Fourier/kʙ             5.327667e+03 [K]
    Ewald self/kʙ               -3.710090e+06 [K]
    Ewald exclusion/kʙ           3.698211e+06 [K]
    intra VDW/kʙ                 0.000000e+00 [K]
    intra Coulombic/kʙ           0.000000e+00 [K]
    polarization/kʙ              0.000000e+00 [K]
    dU/dlambda VDW/kʙ            0.000000e+00 [K]
    dU/dlambda Real/kʙ           0.000000e+00 [K]
    dU/dlambda Ewald/kʙ          0.000000e+00 [K]


Initialization: Current cycle: 1300 out of 2000
===============================================================================

Box:      25.64691   0.00000   0.00000
           0.00000  25.64691   0.00000
           0.00000   0.00000  25.64691
Lengths:  25.64691  25.64691  25.64691
Angles:   90.00000  90.00000  90.00000
Rectangular boundary conditions

net charge:   0.00000000

component   0 (CO2) lambda:  0 occupancy:  0 (0.000000)
    net charge:   0.00000000 [e]

Amount of molecules per component :
-------------------------------------------------------------------------------
Component 0 (CO2)
    molecules:         2.190000e+02 molecules
    number density:    1.298192e-02 molec/A^3
    density:           9.484811e+02 kg/m^3

Total potential energy/kʙ       -2.863433e+05 [K]
-------------------------------------------------------------------------------
    external field VDW/kʙ        0.000000e+00 [K]
    external field Real/kʙ       0.000000e+00 [K]
    framework-molecule VDW/kʙ    0.000000e+00 [K]
    framework-molecule Real/kʙ   0.000000e+00 [K]
    molecule-molecule VDW/kʙ    -2.168834e+05 [K]
    molecule-molecule Real/kʙ   -5.766540e+04 [K]
    Van der Waals (Tail)/kʙ     -5.279821e+03 [K]
    Ewald Fourier/kʙ             6.363729e+03 [K]
    Ewald self/kʙ               -4.022325e+06 [K]
    Ewald exclusion/kʙ           4.009447e+06 [K]
    intra VDW/kʙ                 0.000000e+00 [K]
    intra Coulombic/kʙ           0.000000e+00 [K]
    polarization/kʙ              0.000000e+00 [K]
    dU/dlambda VDW/kʙ            0.000000e+00 [K]
    dU/dlambda Real/kʙ           0.000000e+00 [K]
    dU/dlambda Ewald/kʙ          0.000000e+00 [K]


Initialization: Current cycle: 1400 out of 2000
===============================================================================

Box:      25.64971   0.00000   0.00000
           0.00000  25.64971   0.00000
           0.00000   0.00000  25.64971
Lengths:  25.64971  25.64971  25.64971
Angles:   90.00000  90.00000  90.00000
Rectangular boundary conditions

net charge:   0.00000000

component   0 (CO2) lambda:  0 occupancy:  0 (0.000000)
    net charge:   0.00000000 [e]

Amount of molecules per component :
-------------------------------------------------------------------------------
Component 0 (CO2)
    molecules:         1.980000e+02 molecules
    number density:    1.173324e-02 molec/A^3
    density:           8.572503e+02 kg/m^3

Total potential energy/kʙ       -2.418336e+05 [K]
-------------------------------------------------------------------------------
    external field VDW/kʙ        0.000000e+00 [K]
    external field Real/kʙ       0.000000e+00 [K]
    framework-molecule VDW/kʙ    0.000000e+00 [K]
    framework-molecule Real/kʙ   0.000000e+00 [K]
    molecule-molecule VDW/kʙ    -1.796698e+05 [K]
    molecule-molecule Real/kʙ   -5.266807e+04 [K]
    Van der Waals (Tail)/kʙ     -4.314388e+03 [K]
    Ewald Fourier/kʙ             6.462272e+03 [K]
    Ewald self/kʙ               -3.636623e+06 [K]
    Ewald exclusion/kʙ           3.624979e+06 [K]
    intra VDW/kʙ                 0.000000e+00 [K]
    intra Coulombic/kʙ           0.000000e+00 [K]
    polarization/kʙ              0.000000e+00 [K]
    dU/dlambda VDW/kʙ            0.000000e+00 [K]
    dU/dlambda Real/kʙ           0.000000e+00 [K]
    dU/dlambda Ewald/kʙ          0.000000e+00 [K]


Initialization: Current cycle: 1500 out of 2000
===============================================================================

Box:      25.24248   0.00000   0.00000
           0.00000  25.24248   0.00000
           0.00000   0.00000  25.24248
Lengths:  25.24248  25.24248  25.24248
Angles:   90.00000  90.00000  90.00000
Rectangular boundary conditions

net charge:   0.00000000

component   0 (CO2) lambda:  0 occupancy:  0 (0.000000)
    net charge:   0.00000000 [e]

Amount of molecules per component :
-------------------------------------------------------------------------------
Component 0 (CO2)
    molecules:         2.190000e+02 molecules
    number density:    1.361595e-02 molec/A^3
    density:           9.948045e+02 kg/m^3

Total potential energy/kʙ       -3.101904e+05 [K]
-------------------------------------------------------------------------------
    external field VDW/kʙ        0.000000e+00 [K]
    external field Real/kʙ       0.000000e+00 [K]
    framework-molecule VDW/kʙ    0.000000e+00 [K]
    framework-molecule Real/kʙ   0.000000e+00 [K]
    molecule-molecule VDW/kʙ    -2.216739e+05 [K]
    molecule-molecule Real/kʙ   -7.575917e+04 [K]
    Van der Waals (Tail)/kʙ     -5.537685e+03 [K]
    Ewald Fourier/kʙ             5.658801e+03 [K]
    Ewald self/kʙ               -4.022325e+06 [K]
    Ewald exclusion/kʙ           4.009447e+06 [K]
    intra VDW/kʙ                 0.000000e+00 [K]
    intra Coulombic/kʙ           0.000000e+00 [K]
    polarization/kʙ              0.000000e+00 [K]
    dU/dlambda VDW/kʙ            0.000000e+00 [K]
    dU/dlambda Real/kʙ           0.000000e+00 [K]
    dU/dlambda Ewald/kʙ          0.000000e+00 [K]


Initialization: Current cycle: 1600 out of 2000
===============================================================================

Box:      25.52696   0.00000   0.00000
           0.00000  25.52696   0.00000
           0.00000   0.00000  25.52696
Lengths:  25.52696  25.52696  25.52696
Angles:   90.00000  90.00000  90.00000
Rectangular boundary conditions

net charge:   0.00000000

component   0 (CO2) lambda:  0 occupancy:  0 (0.000000)
    net charge:   0.00000000 [e]

Amount of molecules per component :
-------------------------------------------------------------------------------
Component 0 (CO2)
    molecules:         2.160000e+02 molecules
    number density:    1.298544e-02 molec/A^3
    density:           9.487382e+02 kg/m^3

Total potential energy/kʙ       -2.906463e+05 [K]
-------------------------------------------------------------------------------
    external field VDW/kʙ        0.000000e+00 [K]
    external field Real/kʙ       0.000000e+00 [K]
    framework-molecule VDW/kʙ    0.000000e+00 [K]
    framework-molecule Real/kʙ   0.000000e+00 [K]
    molecule-molecule VDW/kʙ    -2.126854e+05 [K]
    molecule-molecule Real/kʙ   -6.598553e+04 [K]
    Van der Waals (Tail)/kʙ     -5.208906e+03 [K]
    Ewald Fourier/kʙ             5.935481e+03 [K]
    Ewald self/kʙ               -3.967225e+06 [K]
    Ewald exclusion/kʙ           3.954523e+06 [K]
    intra VDW/kʙ                 0.000000e+00 [K]
    intra Coulombic/kʙ           0.000000e+00 [K]
    polarization/kʙ              0.000000e+00 [K]
    dU/dlambda VDW/kʙ            0.000000e+00 [K]
    dU/dlambda Real/kʙ           0.000000e+00 [K]
    dU/dlambda Ewald/kʙ          0.000000e+00 [K]


Initialization: Current cycle: 1700 out of 2000
===============================================================================

Box:      25.55636   0.00000   0.00000
           0.00000  25.55636   0.00000
           0.00000   0.00000  25.55636
Lengths:  25.55636  25.55636  25.55636
Angles:   90.00000  90.00000  90.00000
Rectangular boundary conditions

net charge:   0.00000000

component   0 (CO2) lambda:  0 occupancy:  0 (0.000000)
    net charge:   0.00000000 [e]

Amount of molecules per component :
-------------------------------------------------------------------------------
Component 0 (CO2)
    molecules:         2.130000e+02 molecules
    number density:    1.276093e-02 molec/A^3
    density:           9.323356e+02 kg/m^3

Total potential energy/kʙ       -2.871898e+05 [K]
-------------------------------------------------------------------------------
    external field VDW/kʙ        0.000000e+00 [K]
    external field Real/kʙ       0.000000e+00 [K]
    framework-molecule VDW/kʙ    0.000000e+00 [K]
    framework-molecule Real/kʙ   0.000000e+00 [K]
    molecule-molecule VDW/kʙ    -2.119199e+05 [K]
    molecule-molecule Real/kʙ   -6.342619e+04 [K]
    Van der Waals (Tail)/kʙ     -5.047755e+03 [K]
    Ewald Fourier/kʙ             5.729718e+03 [K]
    Ewald self/kʙ               -3.912125e+06 [K]
    Ewald exclusion/kʙ           3.899599e+06 [K]
    intra VDW/kʙ                 0.000000e+00 [K]
    intra Coulombic/kʙ           0.000000e+00 [K]
    polarization/kʙ              0.000000e+00 [K]
    dU/dlambda VDW/kʙ            0.000000e+00 [K]
    dU/dlambda Real/kʙ           0.000000e+00 [K]
    dU/dlambda Ewald/kʙ          0.000000e+00 [K]


Initialization: Current cycle: 1800 out of 2000
===============================================================================

Box:      25.82056   0.00000   0.00000
           0.00000  25.82056   0.00000
           0.00000   0.00000  25.82056
Lengths:  25.82056  25.82056  25.82056
Angles:   90.00000  90.00000  90.00000
Rectangular boundary conditions

net charge:   0.00000000

component   0 (CO2) lambda:  0 occupancy:  0 (0.000000)
    net charge:   0.00000000 [e]

Amount of molecules per component :
-------------------------------------------------------------------------------
Component 0 (CO2)
    molecules:         2.100000e+02 molecules
    number density:    1.219895e-02 molec/A^3
    density:           8.912759e+02 kg/m^3

Total potential energy/kʙ       -2.638687e+05 [K]
-------------------------------------------------------------------------------
    external field VDW/kʙ        0.000000e+00 [K]
    external field Real/kʙ       0.000000e+00 [K]
    framework-molecule VDW/kʙ    0.000000e+00 [K]
    framework-molecule Real/kʙ   0.000000e+00 [K]
    molecule-molecule VDW/kʙ    -1.994851e+05 [K]
    molecule-molecule Real/kʙ   -5.311341e+04 [K]
    Van der Waals (Tail)/kʙ     -4.757489e+03 [K]
    Ewald Fourier/kʙ             5.836516e+03 [K]
    Ewald self/kʙ               -3.857024e+06 [K]
    Ewald exclusion/kʙ           3.844675e+06 [K]
    intra VDW/kʙ                 0.000000e+00 [K]
    intra Coulombic/kʙ           0.000000e+00 [K]
    polarization/kʙ              0.000000e+00 [K]
    dU/dlambda VDW/kʙ            0.000000e+00 [K]
    dU/dlambda Real/kʙ           0.000000e+00 [K]
    dU/dlambda Ewald/kʙ          0.000000e+00 [K]


Initialization: Current cycle: 1900 out of 2000
===============================================================================

Box:      24.93030   0.00000   0.00000
           0.00000  24.93030   0.00000
           0.00000   0.00000  24.93030
Lengths:  24.93030  24.93030  24.93030
Angles:   90.00000  90.00000  90.00000
Rectangular boundary conditions

net charge:   0.00000000

component   0 (CO2) lambda:  0 occupancy:  0 (0.000000)
    net charge:   0.00000000 [e]

Amount of molecules per component :
-------------------------------------------------------------------------------
Component 0 (CO2)
    molecules:         2.130000e+02 molecules
    number density:    1.374665e-02 molec/A^3
    density:           1.004354e+03 kg/m^3

Total potential energy/kʙ       -3.000361e+05 [K]
-------------------------------------------------------------------------------
    external field VDW/kʙ        0.000000e+00 [K]
    external field Real/kʙ       0.000000e+00 [K]
    framework-molecule VDW/kʙ    0.000000e+00 [K]
    framework-molecule Real/kʙ   0.000000e+00 [K]
    molecule-molecule VDW/kʙ    -2.218773e+05 [K]
    molecule-molecule Real/kʙ   -6.639368e+04 [K]
    Van der Waals (Tail)/kʙ     -5.437668e+03 [K]
    Ewald Fourier/kʙ             6.198114e+03 [K]
    Ewald self/kʙ               -3.912125e+06 [K]
    Ewald exclusion/kʙ           3.899599e+06 [K]
    intra VDW/kʙ                 0.000000e+00 [K]
    intra Coulombic/kʙ           0.000000e+00 [K]
    polarization/kʙ              0.000000e+00 [K]
    dU/dlambda VDW/kʙ            0.000000e+00 [K]
    dU/dlambda Real/kʙ           0.000000e+00 [K]
    dU/dlambda Ewald/kʙ          0.000000e+00 [K]


Current cycle: 0 out of 6000
===============================================================================

Box:      25.10141   0.00000   0.00000  Average:  25.10141   0.00000   0.00000
           0.00000  25.10141   0.00000             0.00000  25.10141   0.00000
           0.00000   0.00000  25.10141             0.00000   0.00000  25.10141
Lengths:  25.10141  25.10141  25.10141  Average:  25.10141  25.10141  25.10141
Angles:   90.00000  90.00000  90.00000  Average:  90.00000  90.00000  90.00000
Rectangular boundary conditions

net charge:   0.00000000

component 0 (CO2) lambda:  0 occupancy:  0 (0.000000)
    net charge:   0.00000000 [e]

Amount of molecules per component :
-------------------------------------------------------------------------------
Component 0 (CO2)
    molecules:      2.040000e+02 molecules  (2.040000e+02 +/- 0.000000e+00)
    number density: 1.289840e-02 molec./A^3 (1.289840e-02 +/- 0.000000e+00)
    density:        9.423793e+02 kg/m^3     (9.423793e+02 +/- 0.000000e+00)

Average pressure tensor: 
-------------------------------------------------------------------------------
 4.8082e+02  0.0000e+00  0.0000e+00 +/- 0.0000e+00 0.0000e+00 0.0000e+00 [bar]
 0.0000e+00  4.8082e+02  0.0000e+00 +/- 0.0000e+00 0.0000e+00 0.0000e+00 [bar]
 0.0000e+00  0.0000e+00  4.8082e+02 +/- 0.0000e+00 0.0000e+00 0.0000e+00 [bar]
Ideal-gas pressure:   4.808209e+02 +/ 0.000000e+00 [bar]
Excess pressure:      0.000000e+00 +/ 0.000000e+00 [bar]
Pressure:             4.808209e+02 +/ 0.000000e+00 [bar]

Total potential energy/kʙ  -2.649103e+05 (-2.649103e+05 +/- 0.000000e+00) [K]
-------------------------------------------------------------------------------
ExternalField-molecule
    Van der Waals/kʙ        0.000000e+00 ( 0.000000e+00 +/- 0.000000e+00) [K]
Framework-molecule
    Van der Waals/kʙ        0.000000e+00 ( 0.000000e+00 +/- 0.000000e+00) [K]
    Van der Waals (Tail)/kʙ 0.000000e+00 ( 0.000000e+00 +/- 0.000000e+00) [K]
    Coulombic Real/kʙ       0.000000e+00 ( 0.000000e+00 +/- 0.000000e+00) [K]
    Coulombic Fourier/kʙ    0.000000e+00 ( 0.000000e+00 +/- 0.000000e+00) [K]
Molecule-molecule
    Van der Waals/kʙ       -1.965298e+05 (-1.965298e+05 +/- 0.000000e+00) [K]
    Van der Waals (Tail)/kʙ-4.886549e+03 (-4.886549e+03 +/- 0.000000e+00) [K]
    Coulombic Real/kʙ      -5.749923e+04 (-5.749923e+04 +/- 0.000000e+00) [K]
    Coulombic Fourier/kʙ   -5.994717e+03 (-5.994717e+03 +/- 0.000000e+00) [K]
    Molecule Intra/kʙ       0.000000e+00 ( 0.000000e+00 +/- 0.000000e+00) [K]

Current cycle: 100 out of 6000
===============================================================================

Box:      25.63282   0.00000   0.00000  Average:  25.49095   0.00000   0.00000
           0.00000  25.63282   0.00000             0.00000  25.49095   0.00000
           0.00000   0.00000  25.63282             0.00000   0.00000  25.49095
Lengths:  25.63282  25.63282  25.63282  Average:  25.49095  25.49095  25.49095
Angles:   90.00000  90.00000  90.00000  Average:  90.00000  90.00000  90.00000
Rectangular boundary conditions

net charge:   0.00000000

component 0 (CO2) lambda:  0 occupancy:  0 (0.000000)
    net charge:   0.00000000 [e]

Amount of molecules per component :
-------------------------------------------------------------------------------
Component 0 (CO2)
    molecules:      2.080000e+02 molecules  (2.106040e+02 +/- 0.000000e+00)
    number density: 1.235020e-02 molec./A^3 (1.271365e-02 +/- 0.000000e+00)
    density:        9.023269e+02 kg/m^3     (9.288813e+02 +/- 0.000000e+00)

Average pressure tensor: 
-------------------------------------------------------------------------------
-4.3483e+01 -3.8208e+01  4.2349e+01 +/- 0.0000e+00 0.0000e+00 0.0000e+00 [bar]
-3.8208e+01  5.5691e+01 -4.0535e+01 +/- 0.0000e+00 0.0000e+00 0.0000e+00 [bar]
 4.2349e+01 -4.0535e+01  4.5723e+01 +/- 0.0000e+00 0.0000e+00 0.0000e+00 [bar]
Ideal-gas pressure:   4.739340e+02 +/ 0.000000e+00 [bar]
Excess pressure:     -4.546236e+02 +/ 0.000000e+00 [bar]
Pressure:             1.931036e+01 +/ 0.000000e+00 [bar]

Total potential energy/kʙ  -2.620688e+05 (-2.729480e+05 +/- 0.000000e+00) [K]
-------------------------------------------------------------------------------
ExternalField-molecule
    Van der Waals/kʙ        0.000000e+00 ( 0.000000e+00 +/- 0.000000e+00) [K]
Framework-molecule
    Van der Waals/kʙ        0.000000e+00 ( 0.000000e+00 +/- 0.000000e+00) [K]
    Van der Waals (Tail)/kʙ 0.000000e+00 ( 0.000000e+00 +/- 0.000000e+00) [K]
    Coulombic Real/kʙ       0.000000e+00 ( 0.000000e+00 +/- 0.000000e+00) [K]
    Coulombic Fourier/kʙ    0.000000e+00 ( 0.000000e+00 +/- 0.000000e+00) [K]
Molecule-molecule
    Van der Waals/kʙ       -1.957197e+05 (-2.011278e+05 +/- 0.000000e+00) [K]
    Van der Waals (Tail)/kʙ-4.770607e+03 (-4.952266e+03 +/- 0.000000e+00) [K]
    Coulombic Real/kʙ      -5.562010e+04 (-6.047972e+04 +/- 0.000000e+00) [K]
    Coulombic Fourier/kʙ   -5.958382e+03 (-6.388237e+03 +/- 0.000000e+00) [K]
    Molecule Intra/kʙ       0.000000e+00 ( 0.000000e+00 +/- 0.000000e+00) [K]

Current cycle: 200 out of 6000
===============================================================================

Box:      25.40691   0.00000   0.00000  Average:  25.35744   0.00000   0.00000
           0.00000  25.40691   0.00000             0.00000  25.35744   0.00000
           0.00000   0.00000  25.40691             0.00000   0.00000  25.35744
Lengths:  25.40691  25.40691  25.40691  Average:  25.35744  25.35744  25.35744
Angles:   90.00000  90.00000  90.00000  Average:  90.00000  90.00000  90.00000
Rectangular boundary conditions

net charge:   0.00000000

component 0 (CO2) lambda:  0 occupancy:  0 (0.000000)
    net charge:   0.00000000 [e]

Amount of molecules per component :
-------------------------------------------------------------------------------
Component 0 (CO2)
    molecules:      2.110000e+02 molecules  (2.110398e+02 +/- 0.000000e+00)
    number density: 1.286551e-02 molec./A^3 (1.294719e-02 +/- 0.000000e+00)
    density:        9.399761e+02 kg/m^3     (9.459442e+02 +/- 0.000000e+00)

Average pressure tensor: 
-------------------------------------------------------------------------------
-2.3829e+01  1.4114e+01 -2.0823e+01 +/- 0.0000e+00 0.0000e+00 0.0000e+00 [bar]
 1.4114e+01  7.5005e+01  3.0941e+01 +/- 0.0000e+00 0.0000e+00 0.0000e+00 [bar]
-2.0823e+01  3.0941e+01  9.5243e+00 +/- 0.0000e+00 0.0000e+00 0.0000e+00 [bar]
Ideal-gas pressure:   4.826398e+02 +/ 0.000000e+00 [bar]
Excess pressure:     -4.624062e+02 +/ 0.000000e+00 [bar]
Pressure:             2.023357e+01 +/ 0.000000e+00 [bar]

Total potential energy/kʙ  -2.851545e+05 (-2.795025e+05 +/- 0.000000e+00) [K]
-------------------------------------------------------------------------------
ExternalField-molecule
    Van der Waals/kʙ        0.000000e+00 ( 0.000000e+00 +/- 0.000000e+00) [K]
Framework-molecule
    Van der Waals/kʙ        0.000000e+00 ( 0.000000e+00 +/- 0.000000e+00) [K]
    Van der Waals (Tail)/kʙ 0.000000e+00 ( 0.000000e+00 +/- 0.000000e+00) [K]
    Coulombic Real/kʙ       0.000000e+00 ( 0.000000e+00 +/- 0.000000e+00) [K]
    Coulombic Fourier/kʙ    0.000000e+00 ( 0.000000e+00 +/- 0.000000e+00) [K]
Molecule-molecule
    Van der Waals/kʙ       -2.109544e+05 (-2.059867e+05 +/- 0.000000e+00) [K]
    Van der Waals (Tail)/kʙ-5.041336e+03 (-5.041714e+03 +/- 0.000000e+00) [K]
    Coulombic Real/kʙ      -6.242947e+04 (-6.194075e+04 +/- 0.000000e+00) [K]
    Coulombic Fourier/kʙ   -6.729282e+03 (-6.533378e+03 +/- 0.000000e+00) [K]
    Molecule Intra/kʙ       0.000000e+00 ( 0.000000e+00 +/- 0.000000e+00) [K]

Current cycle: 300 out of 6000
===============================================================================

Box:      25.15571   0.00000   0.00000  Average:  25.27024   0.00000   0.00000
           0.00000  25.15571   0.00000             0.00000  25.27024   0.00000
           0.00000   0.00000  25.15571             0.00000   0.00000  25.27024
Lengths:  25.15571  25.15571  25.15571  Average:  25.27024  25.27024  25.27024
Angles:   90.00000  90.00000  90.00000  Average:  90.00000  90.00000  90.00000
Rectangular boundary conditions

net charge:   0.00000000

component 0 (CO2) lambda:  0 occupancy:  0 (0.000000)
    net charge:   0.00000000 [e]

Amount of molecules per component :
-------------------------------------------------------------------------------
Component 0 (CO2)
    molecules:      2.140000e+02 molecules  (2.122425e+02 +/- 0.000000e+00)
    number density: 1.344324e-02 molec./A^3 (1.315905e-02 +/- 0.000000e+00)
    density:        9.821860e+02 kg/m^3     (9.614228e+02 +/- 0.000000e+00)

Average pressure tensor: 
-------------------------------------------------------------------------------
-6.4043e+00  1.2089e+01  4.4727e-01 +/- 0.0000e+00 0.0000e+00 0.0000e+00 [bar]
 1.2089e+01  5.2538e+01  1.1984e+01 +/- 0.0000e+00 0.0000e+00 0.0000e+00 [bar]
 4.4727e-01  1.1984e+01  2.1336e+01 +/- 0.0000e+00 0.0000e+00 0.0000e+00 [bar]
Ideal-gas pressure:   4.905373e+02 +/ 0.000000e+00 [bar]
Excess pressure:     -4.680473e+02 +/ 0.000000e+00 [bar]
Pressure:             2.248999e+01 +/ 0.000000e+00 [bar]

Total potential energy/kʙ  -2.976170e+05 (-2.863925e+05 +/- 0.000000e+00) [K]
-------------------------------------------------------------------------------
ExternalField-molecule
    Van der Waals/kʙ        0.000000e+00 ( 0.000000e+00 +/- 0.000000e+00) [K]
Framework-molecule
    Van der Waals/kʙ        0.000000e+00 ( 0.000000e+00 +/- 0.000000e+00) [K]
    Van der Waals (Tail)/kʙ 0.000000e+00 ( 0.000000e+00 +/- 0.000000e+00) [K]
    Coulombic Real/kʙ       0.000000e+00 ( 0.000000e+00 +/- 0.000000e+00) [K]
    Coulombic Fourier/kʙ    0.000000e+00 ( 0.000000e+00 +/- 0.000000e+00) [K]
Molecule-molecule
    Van der Waals/kʙ       -2.172749e+05 (-2.113599e+05 +/- 0.000000e+00) [K]
    Van der Waals (Tail)/kʙ-5.342615e+03 (-5.162705e+03 +/- 0.000000e+00) [K]
    Coulombic Real/kʙ      -6.802119e+04 (-6.324337e+04 +/- 0.000000e+00) [K]
    Coulombic Fourier/kʙ   -6.978267e+03 (-6.626503e+03 +/- 0.000000e+00) [K]
    Molecule Intra/kʙ       0.000000e+00 ( 0.000000e+00 +/- 0.000000e+00) [K]

Current cycle: 400 out of 6000
===============================================================================

Box:      25.32670   0.00000   0.00000  Average:  25.27199   0.00000   0.00000
           0.00000  25.32670   0.00000             0.00000  25.27199   0.00000
           0.00000   0.00000  25.32670             0.00000   0.00000  25.27199
Lengths:  25.32670  25.32670  25.32670  Average:  25.27199  25.27199  25.27199
Angles:   90.00000  90.00000  90.00000  Average:  90.00000  90.00000  90.00000
Rectangular boundary conditions

net charge:   0.00000000

component 0 (CO2) lambda:  0 occupancy:  0 (0.000000)
    net charge:   0.00000000 [e]

Amount of molecules per component :
-------------------------------------------------------------------------------
Component 0 (CO2)
    molecules:      2.100000e+02 molecules  (2.124514e+02 +/- 0.000000e+00)
    number density: 1.292658e-02 molec./A^3 (1.316773e-02 +/- 0.000000e+00)
    density:        9.444381e+02 kg/m^3     (9.620571e+02 +/- 0.000000e+00)

Average pressure tensor: 
-------------------------------------------------------------------------------
 9.0804e+00 -9.3228e-02 -3.1235e+01 +/- 0.0000e+00 0.0000e+00 0.0000e+00 [bar]
-9.3228e-02  4.8553e+01  3.4580e+01 +/- 0.0000e+00 0.0000e+00 0.0000e+00 [bar]
-3.1235e+01  3.4580e+01  4.1285e+01 +/- 0.0000e+00 0.0000e+00 0.0000e+00 [bar]
Ideal-gas pressure:   4.908609e+02 +/ 0.000000e+00 [bar]
Excess pressure:     -4.578882e+02 +/ 0.000000e+00 [bar]
Pressure:             3.297277e+01 +/ 0.000000e+00 [bar]

Total potential energy/kʙ  -2.783558e+05 (-2.874835e+05 +/- 0.000000e+00) [K]
-------------------------------------------------------------------------------
ExternalField-molecule
    Van der Waals/kʙ        0.000000e+00 ( 0.000000e+00 +/- 0.000000e+00) [K]
Framework-molecule
    Van der Waals/kʙ        0.000000e+00 ( 0.000000e+00 +/- 0.000000e+00) [K]
    Van der Waals (Tail)/kʙ 0.000000e+00 ( 0.000000e+00 +/- 0.000000e+00) [K]
    Coulombic Real/kʙ       0.000000e+00 ( 0.000000e+00 +/- 0.000000e+00) [K]
    Coulombic Fourier/kʙ    0.000000e+00 ( 0.000000e+00 +/- 0.000000e+00) [K]
Molecule-molecule
    Van der Waals/kʙ       -2.114060e+05 (-2.119878e+05 +/- 0.000000e+00) [K]
    Van der Waals (Tail)/kʙ-5.041261e+03 (-5.178983e+03 +/- 0.000000e+00) [K]
    Coulombic Real/kʙ      -5.534485e+04 (-6.370436e+04 +/- 0.000000e+00) [K]
    Coulombic Fourier/kʙ   -6.563684e+03 (-6.612359e+03 +/- 0.000000e+00) [K]
    Molecule Intra/kʙ       0.000000e+00 ( 0.000000e+00 +/- 0.000000e+00) [K]

Current cycle: 500 out of 6000
===============================================================================

Box:      24.89636   0.00000   0.00000  Average:  25.19820   0.00000   0.00000
           0.00000  24.89636   0.00000             0.00000  25.19820   0.00000
           0.00000   0.00000  24.89636             0.00000   0.00000  25.19820
Lengths:  24.89636  24.89636  24.89636  Average:  25.19820  25.19820  25.19820
Angles:   90.00000  90.00000  90.00000  Average:  90.00000  90.00000  90.00000
Rectangular boundary conditions

net charge:   0.00000000

component 0 (CO2) lambda:  0 occupancy:  0 (0.000000)
    net charge:   0.00000000 [e]

Amount of molecules per component :
-------------------------------------------------------------------------------
Component 0 (CO2)
    molecules:      2.110000e+02 molecules  (2.113253e+02 +/- 0.000000e+00)
    number density: 1.367335e-02 molec./A^3 (1.321368e-02 +/- 0.000000e+00)
    density:        9.989983e+02 kg/m^3     (9.654140e+02 +/- 0.000000e+00)

Average pressure tensor: 
-------------------------------------------------------------------------------
 1.2449e+01  5.2899e+00 -4.1732e+01 +/- 0.0000e+00 0.0000e+00 0.0000e+00 [bar]
 5.2899e+00  5.3002e+01  5.7864e+01 +/- 0.0000e+00 0.0000e+00 0.0000e+00 [bar]
-4.1732e+01  5.7864e+01  6.3397e+00 +/- 0.0000e+00 0.0000e+00 0.0000e+00 [bar]
Ideal-gas pressure:   4.925737e+02 +/ 0.000000e+00 [bar]
Excess pressure:     -4.686436e+02 +/ 0.000000e+00 [bar]
Pressure:             2.393015e+01 +/ 0.000000e+00 [bar]

Total potential energy/kʙ  -2.949804e+05 (-2.879674e+05 +/- 0.000000e+00) [K]
-------------------------------------------------------------------------------
ExternalField-molecule
    Van der Waals/kʙ        0.000000e+00 ( 0.000000e+00 +/- 0.000000e+00) [K]
Framework-molecule
    Van der Waals/kʙ        0.000000e+00 ( 0.000000e+00 +/- 0.000000e+00) [K]
    Van der Waals (Tail)/kʙ 0.000000e+00 ( 0.000000e+00 +/- 0.000000e+00) [K]
    Coulombic Real/kʙ       0.000000e+00 ( 0.000000e+00 +/- 0.000000e+00) [K]
    Coulombic Fourier/kʙ    0.000000e+00 ( 0.000000e+00 +/- 0.000000e+00) [K]
Molecule-molecule
    Van der Waals/kʙ       -2.184512e+05 (-2.124715e+05 +/- 0.000000e+00) [K]
    Van der Waals (Tail)/kʙ-5.357887e+03 (-5.186605e+03 +/- 0.000000e+00) [K]
    Coulombic Real/kʙ      -6.367566e+04 (-6.365657e+04 +/- 0.000000e+00) [K]
    Coulombic Fourier/kʙ   -7.495609e+03 (-6.652806e+03 +/- 0.000000e+00) [K]
    Molecule Intra/kʙ       0.000000e+00 ( 0.000000e+00 +/- 0.000000e+00) [K]

Current cycle: 600 out of 6000
===============================================================================

Box:      24.96945   0.00000   0.00000  Average:  25.15079   0.00000   0.00000
           0.00000  24.96945   0.00000             0.00000  25.15079   0.00000
           0.00000   0.00000  24.96945             0.00000   0.00000  25.15079
Lengths:  24.96945  24.96945  24.96945  Average:  25.15079  25.15079  25.15079
Angles:   90.00000  90.00000  90.00000  Average:  90.00000  90.00000  90.00000
Rectangular boundary conditions

net charge:   0.00000000

component 0 (CO2) lambda:  0 occupancy:  0 (0.000000)
    net charge:   0.00000000 [e]

Amount of molecules per component :
-------------------------------------------------------------------------------
Component 0 (CO2)
    molecules:      2.040000e+02 molecules  (2.102146e+02 +/- 0.000000e+00)
    number density: 1.310398e-02 molec./A^3 (1.321711e-02 +/- 0.000000e+00)
    density:        9.573990e+02 kg/m^3     (9.656648e+02 +/- 0.000000e+00)

Average pressure tensor: 
-------------------------------------------------------------------------------
 1.0761e+01  4.8833e+00 -2.5101e+01 +/- 0.0000e+00 0.0000e+00 0.0000e+00 [bar]
 4.8833e+00  7.1582e+01  5.5543e+01 +/- 0.0000e+00 0.0000e+00 0.0000e+00 [bar]
-2.5101e+01  5.5543e+01  1.2000e+01 +/- 0.0000e+00 0.0000e+00 0.0000e+00 [bar]
Ideal-gas pressure:   4.927016e+02 +/ 0.000000e+00 [bar]
Excess pressure:     -4.612541e+02 +/ 0.000000e+00 [bar]
Pressure:             3.144750e+01 +/ 0.000000e+00 [bar]

Total potential energy/kʙ  -2.839204e+05 (-2.860207e+05 +/- 0.000000e+00) [K]
-------------------------------------------------------------------------------
ExternalField-molecule
    Van der Waals/kʙ        0.000000e+00 ( 0.000000e+00 +/- 0.000000e+00) [K]
Framework-molecule
    Van der Waals/kʙ        0.000000e+00 ( 0.000000e+00 +/- 0.000000e+00) [K]
    Van der Waals (Tail)/kʙ 0.000000e+00 ( 0.000000e+00 +/- 0.000000e+00) [K]
    Coulombic Real/kʙ       0.000000e+00 ( 0.000000e+00 +/- 0.000000e+00) [K]
    Coulombic Fourier/kʙ    0.000000e+00 ( 0.000000e+00 +/- 0.000000e+00) [K]
Molecule-molecule
    Van der Waals/kʙ       -2.080286e+05 (-2.109122e+05 +/- 0.000000e+00) [K]
    Van der Waals (Tail)/kʙ-4.964432e+03 (-5.151351e+03 +/- 0.000000e+00) [K]
    Coulombic Real/kʙ      -6.482158e+04 (-6.336492e+04 +/- 0.000000e+00) [K]
    Coulombic Fourier/kʙ   -6.105796e+03 (-6.592330e+03 +/- 0.000000e+00) [K]
    Molecule Intra/kʙ       0.000000e+00 ( 0.000000e+00 +/- 0.000000e+00) [K]

Current cycle: 700 out of 6000
===============================================================================

Box:      25.00875   0.00000   0.00000  Average:  25.13213   0.00000   0.00000
           0.00000  25.00875   0.00000             0.00000  25.13213   0.00000
           0.00000   0.00000  25.00875             0.00000   0.00000  25.13213
Lengths:  25.00875  25.00875  25.00875  Average:  25.13213  25.13213  25.13213
Angles:   90.00000  90.00000  90.00000  Average:  90.00000  90.00000  90.00000
Rectangular boundary conditions

net charge:   0.00000000

component 0 (CO2) lambda:  0 occupancy:  0 (0.000000)
    net charge:   0.00000000 [e]

Amount of molecules per component :
-------------------------------------------------------------------------------
Component 0 (CO2)
    molecules:      2.140000e+02 molecules  (2.097732e+02 +/- 0.000000e+00)
    number density: 1.368162e-02 molec./A^3 (1.321825e-02 +/- 0.000000e+00)
    density:        9.996028e+02 kg/m^3     (9.657478e+02 +/- 0.000000e+00)

Average pressure tensor: 
-------------------------------------------------------------------------------
-3.4238e+00 -5.1828e+00 -1.9397e+01 +/- 0.0000e+00 0.0000e+00 0.0000e+00 [bar]
-5.1828e+00  6.5903e+01  5.0956e+01 +/- 0.0000e+00 0.0000e+00 0.0000e+00 [bar]
-1.9397e+01  5.0956e+01  1.2872e+01 +/- 0.0000e+00 0.0000e+00 0.0000e+00 [bar]
Ideal-gas pressure:   4.927440e+02 +/ 0.000000e+00 [bar]
Excess pressure:     -4.676271e+02 +/ 0.000000e+00 [bar]
Pressure:             2.511688e+01 +/ 0.000000e+00 [bar]

Total potential energy/kʙ  -3.003268e+05 (-2.857131e+05 +/- 0.000000e+00) [K]
-------------------------------------------------------------------------------
ExternalField-molecule
    Van der Waals/kʙ        0.000000e+00 ( 0.000000e+00 +/- 0.000000e+00) [K]
Framework-molecule
    Van der Waals/kʙ        0.000000e+00 ( 0.000000e+00 +/- 0.000000e+00) [K]
    Van der Waals (Tail)/kʙ 0.000000e+00 ( 0.000000e+00 +/- 0.000000e+00) [K]
    Coulombic Real/kʙ       0.000000e+00 ( 0.000000e+00 +/- 0.000000e+00) [K]
    Coulombic Fourier/kʙ    0.000000e+00 ( 0.000000e+00 +/- 0.000000e+00) [K]
Molecule-molecule
    Van der Waals/kʙ       -2.207682e+05 (-2.106774e+05 +/- 0.000000e+00) [K]
    Van der Waals (Tail)/kʙ-5.437354e+03 (-5.144895e+03 +/- 0.000000e+00) [K]
    Coulombic Real/kʙ      -6.734164e+04 (-6.335561e+04 +/- 0.000000e+00) [K]
    Coulombic Fourier/kʙ   -6.779588e+03 (-6.535131e+03 +/- 0.000000e+00) [K]
    Molecule Intra/kʙ       0.000000e+00 ( 0.000000e+00 +/- 0.000000e+00) [K]

Current cycle: 800 out of 6000
===============================================================================

Box:      25.00879   0.00000   0.00000  Average:  25.10958   0.00000   0.00000
           0.00000  25.00879   0.00000             0.00000  25.10958   0.00000
           0.00000   0.00000  25.00879             0.00000   0.00000  25.10958
Lengths:  25.00879  25.00879  25.00879  Average:  25.10958  25.10958  25.10958
Angles:   90.00000  90.00000  90.00000  Average:  90.00000  90.00000  90.00000
Rectangular boundary conditions

net charge:   0.00000000

component 0 (CO2) lambda:  0 occupancy:  0 (0.000000)
    net charge:   0.00000000 [e]

Amount of molecules per component :
-------------------------------------------------------------------------------
Component 0 (CO2)
    molecules:      2.070000e+02 molecules  (2.096155e+02 +/- 0.000000e+00)
    number density: 1.323404e-02 molec./A^3 (1.324389e-02 +/- 0.000000e+00)
    density:        9.669016e+02 kg/m^3     (9.676216e+02 +/- 0.000000e+00)

Average pressure tensor: 
-------------------------------------------------------------------------------
-2.3741e+01 -2.8707e+00 -1.9987e+01 +/- 0.0000e+00 0.0000e+00 0.0000e+00 [bar]
-2.8707e+00  6.2144e+01  4.4879e+01 +/- 0.0000e+00 0.0000e+00 0.0000e+00 [bar]
-1.9987e+01  4.4879e+01  3.0648e+01 +/- 0.0000e+00 0.0000e+00 0.0000e+00 [bar]
Ideal-gas pressure:   4.937001e+02 +/ 0.000000e+00 [bar]
Excess pressure:     -4.706829e+02 +/ 0.000000e+00 [bar]
Pressure:             2.301717e+01 +/ 0.000000e+00 [bar]

Total potential energy/kʙ  -2.853308e+05 (-2.858179e+05 +/- 0.000000e+00) [K]
-------------------------------------------------------------------------------
ExternalField-molecule
    Van der Waals/kʙ        0.000000e+00 ( 0.000000e+00 +/- 0.000000e+00) [K]
Framework-molecule
    Van der Waals/kʙ        0.000000e+00 ( 0.000000e+00 +/- 0.000000e+00) [K]
    Van der Waals (Tail)/kʙ 0.000000e+00 ( 0.000000e+00 +/- 0.000000e+00) [K]
    Coulombic Real/kʙ       0.000000e+00 ( 0.000000e+00 +/- 0.000000e+00) [K]
    Coulombic Fourier/kʙ    0.000000e+00 ( 0.000000e+00 +/- 0.000000e+00) [K]
Molecule-molecule
    Van der Waals/kʙ       -2.117520e+05 (-2.106962e+05 +/- 0.000000e+00) [K]
    Van der Waals (Tail)/kʙ-5.087436e+03 (-5.143241e+03 +/- 0.000000e+00) [K]
    Coulombic Real/kʙ      -6.259833e+04 (-6.344652e+04 +/- 0.000000e+00) [K]
    Coulombic Fourier/kʙ   -5.893103e+03 (-6.531936e+03 +/- 0.000000e+00) [K]
    Molecule Intra/kʙ       0.000000e+00 ( 0.000000e+00 +/- 0.000000e+00) [K]

Current cycle: 900 out of 6000
===============================================================================

Box:      24.97976   0.00000   0.00000  Average:  25.09401   0.00000   0.00000
           0.00000  24.97976   0.00000             0.00000  25.09401   0.00000
           0.00000   0.00000  24.97976             0.00000   0.00000  25.09401
Lengths:  24.97976  24.97976  24.97976  Average:  25.09401  25.09401  25.09401
Angles:   90.00000  90.00000  90.00000  Average:  90.00000  90.00000  90.00000
Rectangular boundary conditions

net charge:   0.00000000

component 0 (CO2) lambda:  0 occupancy:  0 (0.000000)
    net charge:   0.00000000 [e]

Amount of molecules per component :
-------------------------------------------------------------------------------
Component 0 (CO2)
    molecules:      2.020000e+02 molecules  (2.091853e+02 +/- 0.000000e+00)
    number density: 1.295945e-02 molec./A^3 (1.324076e-02 +/- 0.000000e+00)
    density:        9.468398e+02 kg/m^3     (9.673929e+02 +/- 0.000000e+00)

Average pressure tensor: 
-------------------------------------------------------------------------------
 1.4881e+00 -6.7506e+00 -1.6670e+01 +/- 0.0000e+00 0.0000e+00 0.0000e+00 [bar]
-6.7506e+00  4.5352e+01  4.6725e+01 +/- 0.0000e+00 0.0000e+00 0.0000e+00 [bar]
-1.6670e+01  4.6725e+01  3.1740e+01 +/- 0.0000e+00 0.0000e+00 0.0000e+00 [bar]
Ideal-gas pressure:   4.935834e+02 +/ 0.000000e+00 [bar]
Excess pressure:     -4.673902e+02 +/ 0.000000e+00 [bar]
Pressure:             2.619313e+01 +/ 0.000000e+00 [bar]

Total potential energy/kʙ  -2.688397e+05 (-2.849833e+05 +/- 0.000000e+00) [K]
-------------------------------------------------------------------------------
ExternalField-molecule
    Van der Waals/kʙ        0.000000e+00 ( 0.000000e+00 +/- 0.000000e+00) [K]
Framework-molecule
    Van der Waals/kʙ        0.000000e+00 ( 0.000000e+00 +/- 0.000000e+00) [K]
    Van der Waals (Tail)/kʙ 0.000000e+00 ( 0.000000e+00 +/- 0.000000e+00) [K]
    Coulombic Real/kʙ       0.000000e+00 ( 0.000000e+00 +/- 0.000000e+00) [K]
    Coulombic Fourier/kʙ    0.000000e+00 ( 0.000000e+00 +/- 0.000000e+00) [K]
Molecule-molecule
    Van der Waals/kʙ       -1.987568e+05 (-2.100212e+05 +/- 0.000000e+00) [K]
    Van der Waals (Tail)/kʙ-4.861544e+03 (-5.128413e+03 +/- 0.000000e+00) [K]
    Coulombic Real/kʙ      -5.892406e+04 (-6.333245e+04 +/- 0.000000e+00) [K]
    Coulombic Fourier/kʙ   -6.297274e+03 (-6.501193e+03 +/- 0.000000e+00) [K]
    Molecule Intra/kʙ       0.000000e+00 ( 0.000000e+00 +/- 0.000000e+00) [K]

Current cycle: 1000 out of 6000
===============================================================================

Box:      25.12925   0.00000   0.00000  Average:  25.08166   0.00000   0.00000
           0.00000  25.12925   0.00000             0.00000  25.08166   0.00000
           0.00000   0.00000  25.12925             0.00000   0.00000  25.08166
Lengths:  25.12925  25.12925  25.12925  Average:  25.08166  25.08166  25.08166
Angles:   90.00000  90.00000  90.00000  Average:  90.00000  90.00000  90.00000
Rectangular boundary conditions

net charge:   0.00000000

component 0 (CO2) lambda:  0 occupancy:  0 (0.000000)
    net charge:   0.00000000 [e]

Amount of molecules per component :
-------------------------------------------------------------------------------
Component 0 (CO2)
    molecules:      2.050000e+02 molecules  (2.088821e+02 +/- 0.000000e+00)
    number density: 1.291860e-02 molec./A^3 (1.324080e-02 +/- 0.000000e+00)
    density:        9.438547e+02 kg/m^3     (9.673955e+02 +/- 0.000000e+00)

Average pressure tensor: 
-------------------------------------------------------------------------------
 4.3980e+00 -1.0850e+01 -1.7326e+01 +/- 0.0000e+00 0.0000e+00 0.0000e+00 [bar]
-1.0850e+01  2.8736e+01  4.1230e+01 +/- 0.0000e+00 0.0000e+00 0.0000e+00 [bar]
-1.7326e+01  4.1230e+01  5.4805e+01 +/- 0.0000e+00 0.0000e+00 0.0000e+00 [bar]
Ideal-gas pressure:   4.935847e+02 +/ 0.000000e+00 [bar]
Excess pressure:     -4.642715e+02 +/ 0.000000e+00 [bar]
Pressure:             2.931316e+01 +/ 0.000000e+00 [bar]

Total potential energy/kʙ  -2.778483e+05 (-2.845072e+05 +/- 0.000000e+00) [K]
-------------------------------------------------------------------------------
ExternalField-molecule
    Van der Waals/kʙ        0.000000e+00 ( 0.000000e+00 +/- 0.000000e+00) [K]
Framework-molecule
    Van der Waals/kʙ        0.000000e+00 ( 0.000000e+00 +/- 0.000000e+00) [K]
    Van der Waals (Tail)/kʙ 0.000000e+00 ( 0.000000e+00 +/- 0.000000e+00) [K]
    Coulombic Real/kʙ       0.000000e+00 ( 0.000000e+00 +/- 0.000000e+00) [K]
    Coulombic Fourier/kʙ    0.000000e+00 ( 0.000000e+00 +/- 0.000000e+00) [K]
Molecule-molecule
    Van der Waals/kʙ       -2.080688e+05 (-2.097876e+05 +/- 0.000000e+00) [K]
    Van der Waals (Tail)/kʙ-4.918191e+03 (-5.119708e+03 +/- 0.000000e+00) [K]
    Coulombic Real/kʙ      -5.934023e+04 (-6.317179e+04 +/- 0.000000e+00) [K]
    Coulombic Fourier/kʙ   -5.521058e+03 (-6.428084e+03 +/- 0.000000e+00) [K]
    Molecule Intra/kʙ       0.000000e+00 ( 0.000000e+00 +/- 0.000000e+00) [K]

Current cycle: 1100 out of 6000
===============================================================================

Box:      25.27462   0.00000   0.00000  Average:  25.09322   0.00000   0.00000
           0.00000  25.27462   0.00000             0.00000  25.09322   0.00000
           0.00000   0.00000  25.27462             0.00000   0.00000  25.09322
Lengths:  25.27462  25.27462  25.27462  Average:  25.09322  25.09322  25.09322
Angles:   90.00000  90.00000  90.00000  Average:  90.00000  90.00000  90.00000
Rectangular boundary conditions

net charge:   0.00000000

component 0 (CO2) lambda:  0 occupancy:  0 (0.000000)
    net charge:   0.00000000 [e]

Amount of molecules per component :
-------------------------------------------------------------------------------
Component 0 (CO2)
    molecules:      2.120000e+02 molecules  (2.089700e+02 +/- 0.000000e+00)
    number density: 1.313052e-02 molec./A^3 (1.322830e-02 +/- 0.000000e+00)
    density:        9.593379e+02 kg/m^3     (9.664821e+02 +/- 0.000000e+00)

Average pressure tensor: 
-------------------------------------------------------------------------------
-5.2775e+00 -4.8190e+00 -1.6955e+01 +/- 0.0000e+00 0.0000e+00 0.0000e+00 [bar]
-4.8190e+00  1.9151e+01  3.6867e+01 +/- 0.0000e+00 0.0000e+00 0.0000e+00 [bar]
-1.6955e+01  3.6867e+01  5.5327e+01 +/- 0.0000e+00 0.0000e+00 0.0000e+00 [bar]
Ideal-gas pressure:   4.931187e+02 +/ 0.000000e+00 [bar]
Excess pressure:     -4.700517e+02 +/ 0.000000e+00 [bar]
Pressure:             2.306693e+01 +/ 0.000000e+00 [bar]

Total potential energy/kʙ  -2.867706e+05 (-2.845593e+05 +/- 0.000000e+00) [K]
-------------------------------------------------------------------------------
ExternalField-molecule
    Van der Waals/kʙ        0.000000e+00 ( 0.000000e+00 +/- 0.000000e+00) [K]
Framework-molecule
    Van der Waals/kʙ        0.000000e+00 ( 0.000000e+00 +/- 0.000000e+00) [K]
    Van der Waals (Tail)/kʙ 0.000000e+00 ( 0.000000e+00 +/- 0.000000e+00) [K]
    Coulombic Real/kʙ       0.000000e+00 ( 0.000000e+00 +/- 0.000000e+00) [K]
    Coulombic Fourier/kʙ    0.000000e+00 ( 0.000000e+00 +/- 0.000000e+00) [K]
Molecule-molecule
    Van der Waals/kʙ       -2.112298e+05 (-2.097193e+05 +/- 0.000000e+00) [K]
    Van der Waals (Tail)/kʙ-5.169563e+03 (-5.119064e+03 +/- 0.000000e+00) [K]
    Coulombic Real/kʙ      -6.361104e+04 (-6.329158e+04 +/- 0.000000e+00) [K]
    Coulombic Fourier/kʙ   -6.760222e+03 (-6.429302e+03 +/- 0.000000e+00) [K]
    Molecule Intra/kʙ       0.000000e+00 ( 0.000000e+00 +/- 0.000000e+00) [K]

Current cycle: 1200 out of 6000
===============================================================================

Box:      25.03418   0.00000   0.00000  Average:  25.10967   0.00000   0.00000
           0.00000  25.03418   0.00000             0.00000  25.10967   0.00000
           0.00000   0.00000  25.03418             0.00000   0.00000  25.10967
Lengths:  25.03418  25.03418  25.03418  Average:  25.10967  25.10967  25.10967
Angles:   90.00000  90.00000  90.00000  Average:  90.00000  90.00000  90.00000
Rectangular boundary conditions

net charge:   0.00000000

component 0 (CO2) lambda:  0 occupancy:  0 (0.000000)
    net charge:   0.00000000 [e]

Amount of molecules per component :
-------------------------------------------------------------------------------
Component 0 (CO2)
    molecules:      2.080000e+02 molecules  (2.088659e+02 +/- 0.000000e+00)
    number density: 1.325754e-02 molec./A^3 (1.319614e-02 +/- 0.000000e+00)
    density:        9.686189e+02 kg/m^3     (9.641329e+02 +/- 0.000000e+00)

Average pressure tensor: 
-------------------------------------------------------------------------------
-6.3547e+00  1.7932e+00 -1.3240e+01 +/- 0.0000e+00 0.0000e+00 0.0000e+00 [bar]
 1.7932e+00  2.6054e+01  2.5384e+01 +/- 0.0000e+00 0.0000e+00 0.0000e+00 [bar]
-1.3240e+01  2.5384e+01  3.6660e+01 +/- 0.0000e+00 0.0000e+00 0.0000e+00 [bar]
Ideal-gas pressure:   4.919201e+02 +/ 0.000000e+00 [bar]
Excess pressure:     -4.731339e+02 +/ 0.000000e+00 [bar]
Pressure:             1.878615e+01 +/ 0.000000e+00 [bar]

Total potential energy/kʙ  -2.801572e+05 (-2.832831e+05 +/- 0.000000e+00) [K]
-------------------------------------------------------------------------------
ExternalField-molecule
    Van der Waals/kʙ        0.000000e+00 ( 0.000000e+00 +/- 0.000000e+00) [K]
Framework-molecule
    Van der Waals/kʙ        0.000000e+00 ( 0.000000e+00 +/- 0.000000e+00) [K]
    Van der Waals (Tail)/kʙ 0.000000e+00 ( 0.000000e+00 +/- 0.000000e+00) [K]
    Coulombic Real/kʙ       0.000000e+00 ( 0.000000e+00 +/- 0.000000e+00) [K]
    Coulombic Fourier/kʙ    0.000000e+00 ( 0.000000e+00 +/- 0.000000e+00) [K]
Molecule-molecule
    Van der Waals/kʙ       -2.050853e+05 (-2.090384e+05 +/- 0.000000e+00) [K]
    Van der Waals (Tail)/kʙ-5.121093e+03 (-5.102899e+03 +/- 0.000000e+00) [K]
    Coulombic Real/kʙ      -6.356470e+04 (-6.272897e+04 +/- 0.000000e+00) [K]
    Coulombic Fourier/kʙ   -6.386126e+03 (-6.412812e+03 +/- 0.000000e+00) [K]
    Molecule Intra/kʙ       0.000000e+00 ( 0.000000e+00 +/- 0.000000e+00) [K]

Current cycle: 1300 out of 6000
===============================================================================

Box:      25.84967   0.00000   0.00000  Average:  25.13771   0.00000   0.00000
           0.00000  25.84967   0.00000             0.00000  25.13771   0.00000
           0.00000   0.00000  25.84967             0.00000   0.00000  25.13771
Lengths:  25.84967  25.84967  25.84967  Average:  25.13771  25.13771  25.13771
Angles:   90.00000  90.00000  90.00000  Average:  90.00000  90.00000  90.00000
Rectangular boundary conditions

net charge:   0.00000000

component 0 (CO2) lambda:  0 occupancy:  0 (0.000000)
    net charge:   0.00000000 [e]

Amount of molecules per component :
-------------------------------------------------------------------------------
Component 0 (CO2)
    molecules:      2.170000e+02 molecules  (2.093613e+02 +/- 0.000000e+00)
    number density: 1.256304e-02 molec./A^3 (1.318286e-02 +/- 0.000000e+00)
    density:        9.178771e+02 kg/m^3     (9.631623e+02 +/- 0.000000e+00)

Average pressure tensor: 
-------------------------------------------------------------------------------
-3.0697e+00 -4.4562e+00 -7.0028e+00 +/- 0.0000e+00 0.0000e+00 0.0000e+00 [bar]
-4.4562e+00  2.0365e+01  2.0920e+01 +/- 0.0000e+00 0.0000e+00 0.0000e+00 [bar]
-7.0028e+00  2.0920e+01  1.4662e+01 +/- 0.0000e+00 0.0000e+00 0.0000e+00 [bar]
Ideal-gas pressure:   4.914248e+02 +/ 0.000000e+00 [bar]
Excess pressure:     -4.807722e+02 +/ 0.000000e+00 [bar]
Pressure:             1.065260e+01 +/ 0.000000e+00 [bar]

Total potential energy/kʙ  -2.827598e+05 (-2.838317e+05 +/- 0.000000e+00) [K]
-------------------------------------------------------------------------------
ExternalField-molecule
    Van der Waals/kʙ        0.000000e+00 ( 0.000000e+00 +/- 0.000000e+00) [K]
Framework-molecule
    Van der Waals/kʙ        0.000000e+00 ( 0.000000e+00 +/- 0.000000e+00) [K]
    Van der Waals (Tail)/kʙ 0.000000e+00 ( 0.000000e+00 +/- 0.000000e+00) [K]
    Coulombic Real/kʙ       0.000000e+00 ( 0.000000e+00 +/- 0.000000e+00) [K]
    Coulombic Fourier/kʙ    0.000000e+00 ( 0.000000e+00 +/- 0.000000e+00) [K]
Molecule-molecule
    Van der Waals/kʙ       -2.154365e+05 (-2.094992e+05 +/- 0.000000e+00) [K]
    Van der Waals (Tail)/kʙ-5.062799e+03 (-5.111812e+03 +/- 0.000000e+00) [K]
    Coulombic Real/kʙ      -5.608548e+04 (-6.280437e+04 +/- 0.000000e+00) [K]
    Coulombic Fourier/kʙ   -6.174992e+03 (-6.416335e+03 +/- 0.000000e+00) [K]
    Molecule Intra/kʙ       0.000000e+00 ( 0.000000e+00 +/- 0.000000e+00) [K]

Current cycle: 1400 out of 6000
===============================================================================

Box:      25.27591   0.00000   0.00000  Average:  25.17656   0.00000   0.00000
           0.00000  25.27591   0.00000             0.00000  25.17656   0.00000
           0.00000   0.00000  25.27591             0.00000   0.00000  25.17656
Lengths:  25.27591  25.27591  25.27591  Average:  25.17656  25.17656  25.17656
Angles:   90.00000  90.00000  90.00000  Average:  90.00000  90.00000  90.00000
Rectangular boundary conditions

net charge:   0.00000000

component 0 (CO2) lambda:  0 occupancy:  0 (0.000000)
    net charge:   0.00000000 [e]

Amount of molecules per component :
-------------------------------------------------------------------------------
Component 0 (CO2)
    molecules:      2.010000e+02 molecules  (2.096288e+02 +/- 0.000000e+00)
    number density: 1.244732e-02 molec./A^3 (1.314007e-02 +/- 0.000000e+00)
    density:        9.094225e+02 kg/m^3     (9.600357e+02 +/- 0.000000e+00)

Average pressure tensor: 
-------------------------------------------------------------------------------
 6.6728e+00 -3.1166e+00 -3.7619e+00 +/- 0.0000e+00 0.0000e+00 0.0000e+00 [bar]
-3.1166e+00  7.0045e+00  1.6376e+01 +/- 0.0000e+00 0.0000e+00 0.0000e+00 [bar]
-3.7619e+00  1.6376e+01  2.1844e+01 +/- 0.0000e+00 0.0000e+00 0.0000e+00 [bar]
Ideal-gas pressure:   4.898296e+02 +/ 0.000000e+00 [bar]
Excess pressure:     -4.779891e+02 +/ 0.000000e+00 [bar]
Pressure:             1.184048e+01 +/ 0.000000e+00 [bar]

Total potential energy/kʙ  -2.600411e+05 (-2.828873e+05 +/- 0.000000e+00) [K]
-------------------------------------------------------------------------------
ExternalField-molecule
    Van der Waals/kʙ        0.000000e+00 ( 0.000000e+00 +/- 0.000000e+00) [K]
Framework-molecule
    Van der Waals/kʙ        0.000000e+00 ( 0.000000e+00 +/- 0.000000e+00) [K]
    Van der Waals (Tail)/kʙ 0.000000e+00 ( 0.000000e+00 +/- 0.000000e+00) [K]
    Coulombic Real/kʙ       0.000000e+00 ( 0.000000e+00 +/- 0.000000e+00) [K]
    Coulombic Fourier/kʙ    0.000000e+00 ( 0.000000e+00 +/- 0.000000e+00) [K]
Molecule-molecule
    Van der Waals/kʙ       -1.932804e+05 (-2.088324e+05 +/- 0.000000e+00) [K]
    Van der Waals (Tail)/kʙ-4.646309e+03 (-5.095965e+03 +/- 0.000000e+00) [K]
    Coulombic Real/kʙ      -5.610369e+04 (-6.256078e+04 +/- 0.000000e+00) [K]
    Coulombic Fourier/kʙ   -6.010700e+03 (-6.398202e+03 +/- 0.000000e+00) [K]
    Molecule Intra/kʙ       0.000000e+00 ( 0.000000e+00 +/- 0.000000e+00) [K]

Current cycle: 1500 out of 6000
===============================================================================

Box:      25.21981   0.00000   0.00000  Average:  25.18078   0.00000   0.00000
           0.00000  25.21981   0.00000             0.00000  25.18078   0.00000
           0.00000   0.00000  25.21981             0.00000   0.00000  25.18078
[...]
    number density: 1.336552e-02 molec./A^3 (1.297867e-02 +/- 1.819077e-04)
    density:        9.765075e+02 kg/m^3     (9.482437e+02 +/- 1.329049e+01)

Average pressure tensor: 
-------------------------------------------------------------------------------
 1.3880e+01 -2.2828e+01 -8.7914e+00 +/- 2.8546e+01 3.5713e+01 4.4816e+01 [bar]
-2.2828e+01  1.8040e+01  8.7179e+00 +/- 3.5713e+01 4.1731e+01 1.9182e+01 [bar]
-8.7914e+00  8.7179e+00  4.3340e+01 +/- 4.4816e+01 1.9182e+01 5.6311e+01 [bar]
Ideal-gas pressure:   4.838131e+02 +/ 6.781077e+00 [bar]
Excess pressure:     -4.587265e+02 +/ 3.444074e+01 [bar]
Pressure:             2.508654e+01 +/ 3.447959e+01 [bar]

Total potential energy/kʙ  -2.974108e+05 (-2.793651e+05 +/- 3.892853e+03) [K]
-------------------------------------------------------------------------------
ExternalField-molecule
    Van der Waals/kʙ        0.000000e+00 ( 0.000000e+00 +/- 0.000000e+00) [K]
Framework-molecule
    Van der Waals/kʙ        0.000000e+00 ( 0.000000e+00 +/- 0.000000e+00) [K]
    Van der Waals (Tail)/kʙ 0.000000e+00 ( 0.000000e+00 +/- 0.000000e+00) [K]
    Coulombic Real/kʙ       0.000000e+00 ( 0.000000e+00 +/- 0.000000e+00) [K]
    Coulombic Fourier/kʙ    0.000000e+00 ( 0.000000e+00 +/- 0.000000e+00) [K]
Molecule-molecule
    Van der Waals/kʙ       -2.156740e+05 (-2.060584e+05 +/- 2.773600e+03) [K]
    Van der Waals (Tail)/kʙ-5.386190e+03 (-5.045440e+03 +/- 6.207079e+01) [K]
    Coulombic Real/kʙ      -7.016028e+04 (-6.191800e+04 +/- 1.050325e+03) [K]
    Coulombic Fourier/kʙ   -6.190366e+03 (-6.343280e+03 +/- 8.462609e+01) [K]
    Molecule Intra/kʙ       0.000000e+00 ( 0.000000e+00 +/- 0.000000e+00) [K]

Current cycle: 5800 out of 6000
===============================================================================

Box:      25.53940   0.00000   0.00000  Average:  25.27806   0.00000   0.00000
           0.00000  25.53940   0.00000             0.00000  25.27806   0.00000
           0.00000   0.00000  25.53940             0.00000   0.00000  25.27806
Lengths:  25.53940  25.53940  25.53940  Average:  25.27806  25.27806  25.27806
Angles:   90.00000  90.00000  90.00000  Average:  90.00000  90.00000  90.00000
Rectangular boundary conditions

net charge:   0.00000000

component 0 (CO2) lambda:  0 occupancy:  0 (0.000000)
    net charge:   0.00000000 [e]

Amount of molecules per component :
-------------------------------------------------------------------------------
Component 0 (CO2)
    molecules:      2.090000e+02 molecules  (2.095808e+02 +/- 1.213402e+00)
    number density: 1.254626e-02 molec./A^3 (1.297875e-02 +/- 1.817455e-04)
    density:        9.166509e+02 kg/m^3     (9.482494e+02 +/- 1.327864e+01)

Average pressure tensor: 
-------------------------------------------------------------------------------
 1.3888e+01 -2.2107e+01 -7.6477e+00 +/- 2.8504e+01 3.6153e+01 4.3521e+01 [bar]
-2.2107e+01  1.9224e+01  7.7283e+00 +/- 3.6153e+01 3.6492e+01 2.0713e+01 [bar]
-7.6477e+00  7.7283e+00  4.1441e+01 +/- 4.3521e+01 2.0713e+01 5.4118e+01 [bar]
Ideal-gas pressure:   4.838160e+02 +/ 6.775028e+00 [bar]
Excess pressure:     -4.589652e+02 +/ 3.449240e+01 [bar]
Pressure:             2.485076e+01 +/ 3.452872e+01 [bar]

Total potential energy/kʙ  -2.735849e+05 (-2.793794e+05 +/- 3.847453e+03) [K]
-------------------------------------------------------------------------------
ExternalField-molecule
    Van der Waals/kʙ        0.000000e+00 ( 0.000000e+00 +/- 0.000000e+00) [K]
Framework-molecule
    Van der Waals/kʙ        0.000000e+00 ( 0.000000e+00 +/- 0.000000e+00) [K]
    Van der Waals (Tail)/kʙ 0.000000e+00 ( 0.000000e+00 +/- 0.000000e+00) [K]
    Coulombic Real/kʙ       0.000000e+00 ( 0.000000e+00 +/- 0.000000e+00) [K]
    Coulombic Fourier/kʙ    0.000000e+00 ( 0.000000e+00 +/- 0.000000e+00) [K]
Molecule-molecule
    Van der Waals/kʙ       -1.992970e+05 (-2.060587e+05 +/- 2.740140e+03) [K]
    Van der Waals (Tail)/kʙ-4.869638e+03 (-5.045388e+03 +/- 6.116878e+01) [K]
    Coulombic Real/kʙ      -6.293025e+04 (-6.193169e+04 +/- 1.046994e+03) [K]
    Coulombic Fourier/kʙ   -6.488036e+03 (-6.343602e+03 +/- 8.034069e+01) [K]
    Molecule Intra/kʙ       0.000000e+00 ( 0.000000e+00 +/- 0.000000e+00) [K]

Current cycle: 5900 out of 6000
===============================================================================

Box:      25.24327   0.00000   0.00000  Average:  25.27900   0.00000   0.00000
           0.00000  25.24327   0.00000             0.00000  25.27900   0.00000
           0.00000   0.00000  25.24327             0.00000   0.00000  25.27900
Lengths:  25.24327  25.24327  25.24327  Average:  25.27900  25.27900  25.27900
Angles:   90.00000  90.00000  90.00000  Average:  90.00000  90.00000  90.00000
Rectangular boundary conditions

net charge:   0.00000000

component 0 (CO2) lambda:  0 occupancy:  0 (0.000000)
    net charge:   0.00000000 [e]

Amount of molecules per component :
-------------------------------------------------------------------------------
Component 0 (CO2)
    molecules:      2.100000e+02 molecules  (2.095606e+02 +/- 1.206283e+00)
    number density: 1.305517e-02 molec./A^3 (1.297605e-02 +/- 1.810139e-04)
    density:        9.538331e+02 kg/m^3     (9.480523e+02 +/- 1.322519e+01)

Average pressure tensor: 
-------------------------------------------------------------------------------
 1.3961e+01 -2.3505e+01 -6.4418e+00 +/- 2.8496e+01 3.4818e+01 4.2821e+01 [bar]
-2.3505e+01  2.1453e+01  9.1406e+00 +/- 3.4818e+01 3.0621e+01 1.5951e+01 [bar]
-6.4418e+00  9.1406e+00  4.3118e+01 +/- 4.2821e+01 1.5951e+01 5.5142e+01 [bar]
Ideal-gas pressure:   4.837154e+02 +/ 6.747758e+00 [bar]
Excess pressure:     -4.575382e+02 +/ 3.418205e+01 [bar]
Pressure:             2.617718e+01 +/ 3.430735e+01 [bar]

Total potential energy/kʙ  -2.856833e+05 (-2.792008e+05 +/- 3.995812e+03) [K]
-------------------------------------------------------------------------------
ExternalField-molecule
    Van der Waals/kʙ        0.000000e+00 ( 0.000000e+00 +/- 0.000000e+00) [K]
Framework-molecule
    Van der Waals/kʙ        0.000000e+00 ( 0.000000e+00 +/- 0.000000e+00) [K]
    Van der Waals (Tail)/kʙ 0.000000e+00 ( 0.000000e+00 +/- 0.000000e+00) [K]
    Coulombic Real/kʙ       0.000000e+00 ( 0.000000e+00 +/- 0.000000e+00) [K]
    Coulombic Fourier/kʙ    0.000000e+00 ( 0.000000e+00 +/- 0.000000e+00) [K]
Molecule-molecule
    Van der Waals/kʙ       -2.091246e+05 (-2.059290e+05 +/- 2.863878e+03) [K]
    Van der Waals (Tail)/kʙ-5.091410e+03 (-5.042963e+03 +/- 6.349615e+01) [K]
    Coulombic Real/kʙ      -6.554106e+04 (-6.189049e+04 +/- 1.058359e+03) [K]
    Coulombic Fourier/kʙ   -5.926217e+03 (-6.338333e+03 +/- 8.846062e+01) [K]
    Molecule Intra/kʙ       0.000000e+00 ( 0.000000e+00 +/- 0.000000e+00) [K]


Energy statistics             |  Energy [K]   | Recomputed [K]|  Drift [K]    |
===============================================================================
Total potential energy/kʙ     | -2.718155e+05 | -2.718155e+05 |  3.618526e-09 |
    external field VDW/kʙ     |  0.000000e+00 |  0.000000e+00 |  0.000000e+00 |
    external field Real/kʙ    |  0.000000e+00 |  0.000000e+00 |  0.000000e+00 |
    framework-molecule VDW/kʙ |  0.000000e+00 |  0.000000e+00 |  0.000000e+00 |
    framework-molecule Real/kʙ|  0.000000e+00 |  0.000000e+00 |  0.000000e+00 |
    molecule-molecule VDW/kʙ  | -1.989708e+05 | -1.989708e+05 | -7.000777e-11 |
    molecule-molecule Real/kʙ | -6.148064e+04 | -6.148064e+04 | -2.187743e-10 |
    Van der Waals (Tail)/kʙ   | -4.842565e+03 | -4.842565e+03 |  1.203259e-11 |
    Ewald Fourier/kʙ          |  5.710094e+03 |  5.710094e+03 | -2.515904e-11 |
    Ewald self/kʙ             | -3.820291e+06 | -3.820291e+06 |  1.120124e-09 |
    Ewald exclusion/kʙ        |  3.808059e+06 |  3.808059e+06 |  2.800311e-09 |
    intra VDW/kʙ              |  0.000000e+00 |  0.000000e+00 |  0.000000e+00 |
    intra Coulombic/kʙ        |  0.000000e+00 |  0.000000e+00 |  0.000000e+00 |
    polarization/kʙ           |  0.000000e+00 |  0.000000e+00 |  0.000000e+00 |
    dU/dlambda VDW/kʙ         |  0.000000e+00 |  0.000000e+00 |  0.000000e+00 |
    dU/dlambda Real/kʙ        |  0.000000e+00 |  0.000000e+00 |  0.000000e+00 |
    dU/dlambda Ewald/kʙ       |  0.000000e+00 |  0.000000e+00 |  0.000000e+00 |
-------------------------------------------------------------------------------


Monte-Carlo moves statistics
===============================================================================

    Gibbs volume         all:                2930
    Gibbs volume         total:              5942
    Gibbs volume         constructed:        5942
    Gibbs volume         accepted:           2184
    Gibbs volume         fraction:       0.367553
    Gibbs volume         max-change:     0.046111

Component 0 [CO2]
    Reinsertion (CBMC)   all:              149701
    Reinsertion (CBMC)   total:            149701
    Reinsertion (CBMC)   constructed:      144251
    Reinsertion (CBMC)   accepted:           8339
    Reinsertion (CBMC)   fraction:       0.055704
    Reinsertion (CBMC)   max-change:     0.000000

    Gibbs swap (CBMC)    all:              298394
    Gibbs swap (CBMC)    total:            597323
    Gibbs swap (CBMC)    constructed:      585919
    Gibbs swap (CBMC)    accepted:          83365
    Gibbs swap (CBMC)    fraction:       0.139564
    Gibbs swap (CBMC)    max-change:     0.000000

    Translation          all:              149147
    Translation          total:             49832      49837      49478
    Translation          constructed:       49823      49574      49470
    Translation          accepted:          21423      18561      21329
    Translation          fraction:       0.429904   0.372434   0.431080
    Translation          max-change:     0.843296   0.887825   0.848133

    Rotation             all:              149432
    Rotation             total:             50134      49619      49679
    Rotation             constructed:       50091      49619      49679
    Rotation             accepted:          20793      27312      38405
    Rotation             fraction:       0.414748   0.550434   0.773063
    Rotation             max-change:     0.919202   0.740852   0.409091



Production run counting of the MC moves summed over systems and components
===============================================================================

Reinsertion (CBMC)                   298571 (19.9047 [%])
Gibbs volume                           5942 (0.3961 [%])
Gibbs swap (CBMC)                    597323 (39.8215 [%])
Translation                          298735 (19.9157 [%])
Rotation                             299429 (19.9619 [%])

Production count MC-steps:          1500000 [-]
               All summed:          1500000 [-]
               difference:                0 [-]


Production run CPU timings of the MC moves
===============================================================================

Component 0 CO2

Rotation                             20.987542 [s]
    Ewald                             5.246399 [s]
    ExternalField-Molecule            0.007814 [s]
    Framework-Molecule                0.008667 [s]
    Molecule-Molecule                15.243158 [s]
    Overhead                          0.481504 [s]

Reinsertion (CBMC)                  120.230004 [s]
    Ewald                             5.241035 [s]
    NonEwald                        114.822078 [s]
    Overhead                          0.166891 [s]

Translation                          21.000917 [s]
    Ewald                             5.233116 [s]
    ExternalField-Molecule            0.007926 [s]
    Framework-Molecule                0.012606 [s]
    Molecule-Molecule                15.358880 [s]
    Overhead                          0.388389 [s]



Gibbs swap (CBMC)                   169.823589 [s]
    Ewald                            16.335410 [s]
    NonEwald                        151.496701 [s]
    Tail                              1.267649 [s]

Gibbs volume                         23.373834 [s]
    Ewald                             5.366774 [s]
    NonEwald                         17.144081 [s]
    Tail                              0.732643 [s]

Property sampling                     0.320555 [s]
Energy/pressure sampling:             8.723471 [s]


Production run CPU timings of the MC moves summed over systems and components
===============================================================================


Translation                          28.455474 [s]
    Ewald                            10.459718 [s]
    ExternalField-Molecule            0.015718 [s]
    Framework-Molecule                0.025467 [s]
    Molecule-Molecule                17.034744 [s]
    Overhead                          0.919827 [s]

Rotation                             28.476397 [s]
    Ewald                            10.496328 [s]
    ExternalField-Molecule            0.015750 [s]
    Framework-Molecule                0.017184 [s]
    Molecule-Molecule                16.915543 [s]
    Overhead                          1.031592 [s]

Reinsertion (CBMC)                  143.186540 [s]
    Ewald                            10.551859 [s]
    NonEwald                        132.048349 [s]
    Overhead                          0.586332 [s]

Gibbs volume                         47.165396 [s]
    Ewald                            10.728552 [s]
    NonEwald                         34.730598 [s]
    Tail                              1.444715 [s]
    Overhead                          0.261531 [s]

Gibbs swap (CBMC)                   352.389043 [s]
    Ewald                            33.317759 [s]
    NonEwald                        314.589808 [s]
    Tail                              2.966623 [s]
    Overhead                          1.514853 [s]

Property sampling:                    0.629225 [s]
Energy/pressure sampling:             9.558272 [s]

Production simulation time:         610.886678 [s]
                All summed:         609.860347 [s]
                  Overhead:           1.026331 [s]


Initalization simulation time:      192.038915 [s]
Equilibration simulation time:        0.000000 [s]
Production simulation time:         610.886678 [s]
Total simulation time:              802.925593 [s]


Energy averages and statistics:
===============================================================================

Framework-molecule energy:
-------------------------------------------------------------------------------



Framework-molecule energy contributions per energy type:
-------------------------------------------------------------------------------



Inter-molecular energy:
-------------------------------------------------------------------------------

    Inter-molecular energy/kʙ 0-0 [CO2-CO2]:
    ---------------------------------------------------------------------------
        Block[  0] -2.833091e+05
        Block[  1] -2.777057e+05
        Block[  2] -2.818588e+05
        Block[  3] -2.759965e+05
        Block[  4] -2.780072e+05
        -----------------------------------------------------------------------
        Average  -2.793754e+05 +/-  3.812252e+03 [K]



Inter-molecular energy contributions per energy type:
-------------------------------------------------------------------------------

    Van der Waals energy/kʙ 0-0 [CO2-CO2]:
    ---------------------------------------------------------------------------
        Block[  0] -2.090713e+05
        Block[  1] -2.049922e+05
        Block[  2] -2.075517e+05
        Block[  3] -2.038219e+05
        Block[  4] -2.048663e+05
        -----------------------------------------------------------------------
        Average  -2.060607e+05 +/-  2.696253e+03 [K]

    VDW Tail-Correction energy/kʙ 0-0 [CO2-CO2]:
    ---------------------------------------------------------------------------
        Block[  0] -5.102747e+03
        Block[  1] -5.017579e+03
        Block[  2] -5.092426e+03
        Block[  3] -4.999780e+03
        Block[  4] -5.016006e+03
        -----------------------------------------------------------------------
        Average  -5.045707e+03 +/-  5.959969e+01 [K]

    Coulomb Real energy/kʙ 0-0 [CO2-CO2]:
    ---------------------------------------------------------------------------
        Block[  0] -6.272201e+04
        Block[  1] -6.135601e+04
        Block[  2] -6.281773e+04
        Block[  3] -6.088283e+04
        Block[  4] -6.186725e+04
        -----------------------------------------------------------------------
        Average  -6.192916e+04 +/-  1.047054e+03 [K]

    Coulomb Fourier energy/kʙ 0-0 [CO2-CO2]:
    ---------------------------------------------------------------------------
        Block[  0] -6.413034e+03
        Block[  1] -6.339865e+03
        Block[  2] -6.396916e+03
        Block[  3] -6.291976e+03
        Block[  4] -6.257594e+03
        -----------------------------------------------------------------------
        Average  -6.339877e+03 +/-  8.251405e+01 [K]


Total energy/kʙ
-------------------------------------------------------------------------------
    Block[  0] -2.833091e+05
    Block[  1] -2.777057e+05
    Block[  2] -2.818588e+05
    Block[  3] -2.759965e+05
    Block[  4] -2.780072e+05
    ---------------------------------------------------------------------------
    Average  -2.793754e+05 +/-  3.812252e+03 [K]

Pressure averages and statistics:
===============================================================================

Average pressure tensor: 
-------------------------------------------------------------------------------
 1.2048e+01 -2.0743e+01 -6.9772e+00 +/- 2.8342e+01 3.6908e+01 4.2969e+01 [bar]
-2.0743e+01  2.1256e+01  7.9840e+00 +/- 3.6908e+01 3.0215e+01 1.7883e+01 [bar]
-6.9772e+00  7.9840e+00  4.4445e+01 +/- 4.2969e+01 1.7883e+01 5.5946e+01 [bar]

    Block[  0]  4.919182e+07
    Block[  1]  4.810022e+07
    Block[  2]  4.843121e+07
    Block[  3]  4.771647e+07
    Block[  4]  4.845751e+07
    ---------------------------------------------------------------------------
    Ideal gas pressure   4.837944e+07 +/-  4.071347e-02 [Pa]
                         4.837944e+02 +/-  6.760635e+00 [bar]


    Block[  0] -4.729597e+07
    Block[  1] -4.891260e+07
    Block[  2] -4.154368e+07
    Block[  3] -4.526124e+07
    Block[  4] -4.592548e+07
    ---------------------------------------------------------------------------
    Excess pressure  -4.578779e+07 +/-  3.419540e+06 [Pa]
                     -4.578779e+02 +/-  3.419540e+01 [bar]


    Block[  0]  1.895843e+06
    Block[  1] -8.123847e+05
    Block[  2]  6.887530e+06
    Block[  3]  2.455234e+06
    Block[  4]  2.532030e+06
    ---------------------------------------------------------------------------
    Pressure average   2.591650e+06 +/-  3.430823e+06 [Pa]
                       2.591650e+01 +/-  3.430823e+01 [bar]


Enthalpy of adsorption
===============================================================================

Component 0 [CO2]
-------------------------------------------------------------------------------
    Block[  0] -2.358669e+03
    Block[  1] -1.883642e+03
    Block[  2] -1.850021e+03
    Block[  3] -2.275787e+03
    Block[  4] -2.440955e+03
    ---------------------------------------------------------------------------
    Enthalpy of adsorption: -2.161815e+03 +/-  3.423926e+02 [K]
                            -1.797433e+01 +/-  2.846811e+00 [kJ/mol]
    Warning: need to subtract the ideal-gas energy.


Densities
===============================================================================

Component 0 (CO2)
    Block[  0] 208.86666666666667
    Block[  1] 209.7266666666667
    Block[  2] 210.28500000000003
    Block[  3] 210.5691666666667
    Block[  4] 208.5625
    -----------------------------------------------------------------------
    Density average   2.096020e+02 +/-  1.082056e+00 [molecules]
    Density average   1.297817e-02 +/-  1.813594e-04 [molec/A^3]
    Density average   9.482072e+02 +/-  1.325043e+01 [kg.m⁻³]

