Compiler and run-time data
===============================================================================
RASPA 3.0.4

Random seed: 4106559880

Compiled as a 64-bits application
Compiler: gcc Ubuntu Clang 18.1.3 (1ubuntu1)
Compile Date = Mar 15 2025, Compile Time = 19:39:45

2025-06-03 10:59:44.556270
Simulation started on Tue, Jun 03
The start time was 10:59:00

Hostname:    c109
OS type:     Linux on x86_64
OS release:  6.8.0-58-generic
OS version:  #60-Ubuntu SMP PREEMPT_DYNAMIC Fri Mar 14 18:29:48 UTC 2025


Mutual consistent basic set of units:
===============================================================================

Unit of temperature: 1 [K]
Unit of length:      1e-10 [m]
Unit of time:        1e-12 [s]
Unit of mass:        1.6605402e-27 [kg]
Unit of charge:      1.60217733e-19 [C/particle]


Boltzmann constant (internal units):          0.8314464919307584 [-]
represents conversion from energy (internal units) to temperature (in Kelvin)

Derived units and their conversion factors:
===============================================================================

Unit of energy:                           1.6605402000000002e-23 [J]
Unit of energy:                           10.000008872307538 [J.mol⁻¹]
Unit of velocity:                         100 [m.s⁻¹]
Unit of force:                            1.6605402000000002e-13 [N]
Unit of diffusion:                        1.0000000000000002e-08 [m².s⁻¹]
Unit of acceleration:                     1.0000000000000002e-08 [m².s⁻¹]
Unit of torque:                           1.6605402000000002e-23 [N.m]
Unit of pressure:                         16605402 [Pa]
Unit of volume:                           1e-30 [m³]
Unit of density:                          1660.5402 [kg.m⁻³]
Unit of dynamic viscosity:                1.6605401999999997e-05 [N.s.m⁻²]
Unit of enthalpy:                         1.6605402000000002e-23 [J]
Unit of polarizability:                   1.5458657349975198e-35 [-]
Unit of Coulomb potential:                167101.08000665612 [K]
Unit of dielectric constant:              1.5458657349975193e-05 [s².C².kg⁻¹.m⁻³]
Unit of dipole moment:                    1.60217733e-29 [C.m]
Unit of Debye:                            4.803206799099162 [C.m]
Unit of electric potential:               0.00010364272224473431 [V]
Unit of electric field:                   1036427.222447343 [V.m⁻¹]
Unit of isothermal compressibility:       6.02213665167516e-08 [Pa⁻¹]
Unit of heat capacity:                    10.000008872307538 [J.mol⁻¹.K⁻¹]
Unit of volumetric expansion coefficient: 1 [K⁻¹]


Internal conversion factors:
===============================================================================

Energy (internal units) to Kelvin:      1.202724284692786 [-]
Kelvin to energy (internal units):      0.8314457542157567 [-]


System definitions
===============================================================================

Temperature:          270 [K]
Beta:                 0.004454530435389873 [-]
Pressure:             0 [Pa]
Helium void fraction: 1 [-]

Box:      30.00000   0.00000   0.00000
           0.00000  30.00000   0.00000
           0.00000   0.00000  30.00000
Lengths:  30.00000  30.00000  30.00000
Angles:   90.00000  90.00000  90.00000
Rectangular boundary conditions



Property measurement settings
===============================================================================




Pseudo-atoms
===============================================================================

  0 - C_co2    framework-atom: false
  1 - O_co2    framework-atom: false

  0 - C_co2    mass: 12.00000, charge:  0.70000
  1 - O_co2    mass: 15.99940, charge: -0.35000

  0 - C_co2    polarizability:  0.00000
  1 - O_co2    polarizability:  0.00000

  0 - J. J. Potoff et al., AIChE J. 2001, 47, 1676–1682.
  1 - J. J. Potoff et al., AIChE J. 2001, 47, 1676–1682.

Force field status
===============================================================================

Cutoff Framework-Molecule VDW:  12.00000 [Å]
Cutoff Molecule-Molecule VDW:   12.00000 [Å]
Cutoff Coulomb:                 12.00000 [Å]

Overlap-criteria VDW:           1.000000e+05 [K]

C_co2    - C_co2    Lennard-Jones p₀/kʙ:  27.00000 [K], p₁:  2.80000 [Å]
                                  shift:   0.00000 [K], tailcorrections: true
C_co2    - O_co2    Lennard-Jones p₀/kʙ:  46.18441 [K], p₁:  2.92500 [Å]
                                  shift:   0.00000 [K], tailcorrections: true
O_co2    - O_co2    Lennard-Jones p₀/kʙ:  79.00000 [K], p₁:  3.05000 [Å]
                                  shift:   0.00000 [K], tailcorrections: true

Ewald precision: 1e-06
Ewald alpha: 0.26505830360350674
Ewald k-vectors: 8 8 8


Component definitions
===============================================================================

Component 0 [CO2]

    Type: Adsorbate

    Critical temperature:  304.1282 [K]
    Critical pressure:     7377300 [Pa]
    Acentric factor:       0.22394 [-]

    Mol-fraction:                 1 [-]
    Swappable:                   true

    Mass:                         43.9988 [-]
    Fugacity coefficient:         -nan [-]
    Bulk fluid density:           0 [-]
    Compressibility:              1 [-]
    Excess molecules:             0 [-]

    Number Of Atoms:    3
    CBMC starting bead: 0
      0: O_co2  position  0.00000 -0.00000  1.16000, charge -0.35000
      1: C_co2  position  0.00000 -0.00000  0.00000, charge  0.70000
      2: O_co2  position  0.00000 -0.00000 -1.16000, charge -0.35000
    Diagonalized inertia-vector:      43.05758528 43.05758528 0.00000000
    Translational degrees of freedom: 3
    Rotational degrees of freedom:    2
    Shape of the molecule is: 'Linear'
    Net-charge:        0.00000000 [e]

    Move probabilities:
    Translation:                   0.199203 [-]
    Random translation:            0.000000 [-]
    Rotation:                      0.199203 [-]
    Random rotation:               0.000000 [-]
    Volume change:                 0.000000 [-]
    Reinsertion (CBMC):            0.199203 [-]
    Identity change (CBMC):        0.000000 [-]
    Swap:                          0.000000 [-]
    Swap (CBMC):                   0.000000 [-]
    Swap (CFCMC):                  0.000000 [-]
    Swap (CB/CFCMC):               0.000000 [-]
    Gibbs volume:                  0.003984 [-]
    Gibbs swap (CBMC):             0.398406 [-]
    Gibbs swap (CFCMC):            0.000000 [-]
    Widom:                         0.000000 [-]
    Widom (CFCMC):                 0.000000 [-]
    Widom (CB/CFCMC):              0.000000 [-]
    Parallel tempering:            0.000000 [-]
    Hybrid MC:                     0.000000 [-]

    number of blocking-pockets: 0

    number of bonds: 0





Number of pseudo-atoms
===============================================================================

Component   0 (CO2)
-------------------------------------------------------------------------------
    index   0 (C_co2): 40 atoms
    index   1 (O_co2): 80 atoms

Total number of pseudo-atoms:
-------------------------------------------------------------------------------
    index   0 (C_co2): 40 atoms
    index   1 (O_co2): 80 atoms




Energy status Recomputed from scratch
===============================================================================

Total potential energy/kʙ       -7.401160e+03 [K]
    external field VDW/kʙ        0.000000e+00 [K]
    external field Real/kʙ       0.000000e+00 [K]
    framework-molecule VDW/kʙ    0.000000e+00 [K]
    framework-molecule Real/kʙ   0.000000e+00 [K]
    molecule-molecule VDW/kʙ    -5.575042e+03 [K]
    molecule-molecule Real/kʙ   -1.689602e+03 [K]
    Van der Waals (Tail)/kʙ     -1.100506e+02 [K]
    Ewald Fourier/kʙ             2.325760e+03 [K]
    Ewald self/kʙ               -7.346713e+05 [K]
    Ewald exclusion/kʙ           7.323191e+05 [K]
    intra VDW/kʙ                 0.000000e+00 [K]
    intra Coulombic/kʙ           0.000000e+00 [K]
    polarization/kʙ              0.000000e+00 [K]
    dU/dlambda VDW/kʙ            0.000000e+00 [K]
    dU/dlambda Real/kʙ           0.000000e+00 [K]
    dU/dlambda Ewald/kʙ          0.000000e+00 [K]





Initialization: Current cycle: 0 out of 2000
===============================================================================

Box:      29.97174   0.00000   0.00000
           0.00000  29.97174   0.00000
           0.00000   0.00000  29.97174
Lengths:  29.97174  29.97174  29.97174
Angles:   90.00000  90.00000  90.00000
Rectangular boundary conditions

net charge:   0.00000000

component   0 (CO2) lambda:  0 occupancy:  1 (1.000000)
    net charge:   0.00000000 [e]

Amount of molecules per component :
-------------------------------------------------------------------------------
Component 0 (CO2)
    molecules:         4.700000e+01 molecules
    number density:    1.745669e-03 molec/A^3
    density:           1.275416e+02 kg/m^3

Total potential energy/kʙ       -8.110980e+03 [K]
-------------------------------------------------------------------------------
    external field VDW/kʙ        0.000000e+00 [K]
    external field Real/kʙ       0.000000e+00 [K]
    framework-molecule VDW/kʙ    0.000000e+00 [K]
    framework-molecule Real/kʙ   0.000000e+00 [K]
    molecule-molecule VDW/kʙ    -6.249695e+03 [K]
    molecule-molecule Real/kʙ   -1.576139e+03 [K]
    Van der Waals (Tail)/kʙ     -1.523688e+02 [K]
    Ewald Fourier/kʙ             2.631088e+03 [K]
    Ewald self/kʙ               -8.632388e+05 [K]
    Ewald exclusion/kʙ           8.604749e+05 [K]
    intra VDW/kʙ                 0.000000e+00 [K]
    intra Coulombic/kʙ           0.000000e+00 [K]
    polarization/kʙ              0.000000e+00 [K]
    dU/dlambda VDW/kʙ            0.000000e+00 [K]
    dU/dlambda Real/kʙ           0.000000e+00 [K]
    dU/dlambda Ewald/kʙ          0.000000e+00 [K]


Initialization: Current cycle: 100 out of 2000
===============================================================================

Box:      31.23494   0.00000   0.00000
           0.00000  31.23494   0.00000
           0.00000   0.00000  31.23494
Lengths:  31.23494  31.23494  31.23494
Angles:   90.00000  90.00000  90.00000
Rectangular boundary conditions

net charge:   0.00000000

component   0 (CO2) lambda:  0 occupancy:  1 (1.000000)
    net charge:   0.00000000 [e]

Amount of molecules per component :
-------------------------------------------------------------------------------
Component 0 (CO2)
    molecules:         2.400000e+01 molecules
    number density:    7.875700e-04 molec/A^3
    density:           5.754121e+01 kg/m^3

Total potential energy/kʙ       -4.137787e+03 [K]
-------------------------------------------------------------------------------
    external field VDW/kʙ        0.000000e+00 [K]
    external field Real/kʙ       0.000000e+00 [K]
    framework-molecule VDW/kʙ    0.000000e+00 [K]
    framework-molecule Real/kʙ   0.000000e+00 [K]
    molecule-molecule VDW/kʙ    -3.281396e+03 [K]
    molecule-molecule Real/kʙ   -7.589608e+02 [K]
    Van der Waals (Tail)/kʙ     -3.510239e+01 [K]
    Ewald Fourier/kʙ             1.349008e+03 [K]
    Ewald self/kʙ               -4.408028e+05 [K]
    Ewald exclusion/kʙ           4.393914e+05 [K]
    intra VDW/kʙ                 0.000000e+00 [K]
    intra Coulombic/kʙ           0.000000e+00 [K]
    polarization/kʙ              0.000000e+00 [K]
    dU/dlambda VDW/kʙ            0.000000e+00 [K]
    dU/dlambda Real/kʙ           0.000000e+00 [K]
    dU/dlambda Ewald/kʙ          0.000000e+00 [K]


Initialization: Current cycle: 200 out of 2000
===============================================================================

Box:      31.51299   0.00000   0.00000
           0.00000  31.51299   0.00000
           0.00000   0.00000  31.51299
Lengths:  31.51299  31.51299  31.51299
Angles:   90.00000  90.00000  90.00000
Rectangular boundary conditions

net charge:   0.00000000

component   0 (CO2) lambda:  0 occupancy:  1 (1.000000)
    net charge:   0.00000000 [e]

Amount of molecules per component :
-------------------------------------------------------------------------------
Component 0 (CO2)
    molecules:         2.400000e+01 molecules
    number density:    7.669062e-04 molec/A^3
    density:           5.603148e+01 kg/m^3

Total potential energy/kʙ       -1.966971e+03 [K]
-------------------------------------------------------------------------------
    external field VDW/kʙ        0.000000e+00 [K]
    external field Real/kʙ       0.000000e+00 [K]
    framework-molecule VDW/kʙ    0.000000e+00 [K]
    framework-molecule Real/kʙ   0.000000e+00 [K]
    molecule-molecule VDW/kʙ    -1.046453e+03 [K]
    molecule-molecule Real/kʙ   -8.449729e+02 [K]
    Van der Waals (Tail)/kʙ     -3.418139e+01 [K]
    Ewald Fourier/kʙ             1.369972e+03 [K]
    Ewald self/kʙ               -4.408028e+05 [K]
    Ewald exclusion/kʙ           4.393914e+05 [K]
    intra VDW/kʙ                 0.000000e+00 [K]
    intra Coulombic/kʙ           0.000000e+00 [K]
    polarization/kʙ              0.000000e+00 [K]
    dU/dlambda VDW/kʙ            0.000000e+00 [K]
    dU/dlambda Real/kʙ           0.000000e+00 [K]
    dU/dlambda Ewald/kʙ          0.000000e+00 [K]


Initialization: Current cycle: 300 out of 2000
===============================================================================

Box:      31.81305   0.00000   0.00000
           0.00000  31.81305   0.00000
           0.00000   0.00000  31.81305
Lengths:  31.81305  31.81305  31.81305
Angles:   90.00000  90.00000  90.00000
Rectangular boundary conditions

net charge:   0.00000000

component   0 (CO2) lambda:  0 occupancy:  1 (1.000000)
    net charge:   0.00000000 [e]

Amount of molecules per component :
-------------------------------------------------------------------------------
Component 0 (CO2)
    molecules:         3.400000e+01 molecules
    number density:    1.055998e-03 molec/A^3
    density:           7.715300e+01 kg/m^3

Total potential energy/kʙ       -4.328328e+03 [K]
-------------------------------------------------------------------------------
    external field VDW/kʙ        0.000000e+00 [K]
    external field Real/kʙ       0.000000e+00 [K]
    framework-molecule VDW/kʙ    0.000000e+00 [K]
    framework-molecule Real/kʙ   0.000000e+00 [K]
    molecule-molecule VDW/kʙ    -3.430523e+03 [K]
    molecule-molecule Real/kʙ   -6.953337e+02 [K]
    Van der Waals (Tail)/kʙ     -6.667732e+01 [K]
    Ewald Fourier/kʙ             1.863598e+03 [K]
    Ewald self/kʙ               -6.244706e+05 [K]
    Ewald exclusion/kʙ           6.224712e+05 [K]
    intra VDW/kʙ                 0.000000e+00 [K]
    intra Coulombic/kʙ           0.000000e+00 [K]
    polarization/kʙ              0.000000e+00 [K]
    dU/dlambda VDW/kʙ            0.000000e+00 [K]
    dU/dlambda Real/kʙ           0.000000e+00 [K]
    dU/dlambda Ewald/kʙ          0.000000e+00 [K]


Initialization: Current cycle: 400 out of 2000
===============================================================================

Box:      32.18002   0.00000   0.00000
           0.00000  32.18002   0.00000
           0.00000   0.00000  32.18002
Lengths:  32.18002  32.18002  32.18002
Angles:   90.00000  90.00000  90.00000
Rectangular boundary conditions

net charge:   0.00000000

component   0 (CO2) lambda:  0 occupancy:  1 (1.000000)
    net charge:   0.00000000 [e]

Amount of molecules per component :
-------------------------------------------------------------------------------
Component 0 (CO2)
    molecules:         2.300000e+01 molecules
    number density:    6.901901e-04 molec/A^3
    density:           5.042647e+01 kg/m^3

Total potential energy/kʙ       -1.763871e+03 [K]
-------------------------------------------------------------------------------
    external field VDW/kʙ        0.000000e+00 [K]
    external field Real/kʙ       0.000000e+00 [K]
    framework-molecule VDW/kʙ    0.000000e+00 [K]
    framework-molecule Real/kʙ   0.000000e+00 [K]
    molecule-molecule VDW/kʙ    -1.408410e+03 [K]
    molecule-molecule Real/kʙ   -3.661303e+02 [K]
    Van der Waals (Tail)/kʙ     -2.948036e+01 [K]
    Ewald Fourier/kʙ             1.392679e+03 [K]
    Ewald self/kʙ               -4.224360e+05 [K]
    Ewald exclusion/kʙ           4.210835e+05 [K]
    intra VDW/kʙ                 0.000000e+00 [K]
    intra Coulombic/kʙ           0.000000e+00 [K]
    polarization/kʙ              0.000000e+00 [K]
    dU/dlambda VDW/kʙ            0.000000e+00 [K]
    dU/dlambda Real/kʙ           0.000000e+00 [K]
    dU/dlambda Ewald/kʙ          0.000000e+00 [K]


Initialization: Current cycle: 500 out of 2000
===============================================================================

Box:      32.32134   0.00000   0.00000
           0.00000  32.32134   0.00000
           0.00000   0.00000  32.32134
Lengths:  32.32134  32.32134  32.32134
Angles:   90.00000  90.00000  90.00000
Rectangular boundary conditions

net charge:   0.00000000

component   0 (CO2) lambda:  0 occupancy:  1 (1.000000)
    net charge:   0.00000000 [e]

Amount of molecules per component :
-------------------------------------------------------------------------------
Component 0 (CO2)
    molecules:         1.800000e+01 molecules
    number density:    5.330950e-04 molec/A^3
    density:           3.894883e+01 kg/m^3

Total potential energy/kʙ       -2.205305e+02 [K]
-------------------------------------------------------------------------------
    external field VDW/kʙ        0.000000e+00 [K]
    external field Real/kʙ       0.000000e+00 [K]
    framework-molecule VDW/kʙ    0.000000e+00 [K]
    framework-molecule Real/kʙ   0.000000e+00 [K]
    molecule-molecule VDW/kʙ    -1.552777e+02 [K]
    molecule-molecule Real/kʙ   -2.226041e+01 [K]
    Van der Waals (Tail)/kʙ     -1.782023e+01 [K]
    Ewald Fourier/kʙ             1.033329e+03 [K]
    Ewald self/kʙ               -3.306021e+05 [K]
    Ewald exclusion/kʙ           3.295436e+05 [K]
    intra VDW/kʙ                 0.000000e+00 [K]
    intra Coulombic/kʙ           0.000000e+00 [K]
    polarization/kʙ              0.000000e+00 [K]
    dU/dlambda VDW/kʙ            0.000000e+00 [K]
    dU/dlambda Real/kʙ           0.000000e+00 [K]
    dU/dlambda Ewald/kʙ          0.000000e+00 [K]


Initialization: Current cycle: 600 out of 2000
===============================================================================

Box:      32.29081   0.00000   0.00000
           0.00000  32.29081   0.00000
           0.00000   0.00000  32.29081
Lengths:  32.29081  32.29081  32.29081
Angles:   90.00000  90.00000  90.00000
Rectangular boundary conditions

net charge:   0.00000000

component   0 (CO2) lambda:  0 occupancy:  1 (1.000000)
    net charge:   0.00000000 [e]

Amount of molecules per component :
-------------------------------------------------------------------------------
Component 0 (CO2)
    molecules:         3.000000e+01 molecules
    number density:    8.910137e-04 molec/A^3
    density:           6.509899e+01 kg/m^3

Total potential energy/kʙ       -2.608304e+03 [K]
-------------------------------------------------------------------------------
    external field VDW/kʙ        0.000000e+00 [K]
    external field Real/kʙ       0.000000e+00 [K]
    framework-molecule VDW/kʙ    0.000000e+00 [K]
    framework-molecule Real/kʙ   0.000000e+00 [K]
    molecule-molecule VDW/kʙ    -2.195469e+03 [K]
    molecule-molecule Real/kʙ   -3.236314e+02 [K]
    Van der Waals (Tail)/kʙ     -4.964115e+01 [K]
    Ewald Fourier/kʙ             1.724608e+03 [K]
    Ewald self/kʙ               -5.510035e+05 [K]
    Ewald exclusion/kʙ           5.492393e+05 [K]
    intra VDW/kʙ                 0.000000e+00 [K]
    intra Coulombic/kʙ           0.000000e+00 [K]
    polarization/kʙ              0.000000e+00 [K]
    dU/dlambda VDW/kʙ            0.000000e+00 [K]
    dU/dlambda Real/kʙ           0.000000e+00 [K]
    dU/dlambda Ewald/kʙ          0.000000e+00 [K]


Initialization: Current cycle: 700 out of 2000
===============================================================================

Box:      32.86074   0.00000   0.00000
           0.00000  32.86074   0.00000
           0.00000   0.00000  32.86074
Lengths:  32.86074  32.86074  32.86074
Angles:   90.00000  90.00000  90.00000
Rectangular boundary conditions

net charge:   0.00000000

component   0 (CO2) lambda:  0 occupancy:  1 (1.000000)
    net charge:   0.00000000 [e]

Amount of molecules per component :
-------------------------------------------------------------------------------
Component 0 (CO2)
    molecules:         3.700000e+01 molecules
    number density:    1.042725e-03 molec/A^3
    density:           7.618329e+01 kg/m^3

Total potential energy/kʙ       -5.732386e+03 [K]
-------------------------------------------------------------------------------
    external field VDW/kʙ        0.000000e+00 [K]
    external field Real/kʙ       0.000000e+00 [K]
    framework-molecule VDW/kʙ    0.000000e+00 [K]
    framework-molecule Real/kʙ   0.000000e+00 [K]
    molecule-molecule VDW/kʙ    -5.018610e+03 [K]
    molecule-molecule Real/kʙ   -4.202614e+02 [K]
    Van der Waals (Tail)/kʙ     -7.164862e+01 [K]
    Ewald Fourier/kʙ             1.953943e+03 [K]
    Ewald self/kʙ               -6.795709e+05 [K]
    Ewald exclusion/kʙ           6.773951e+05 [K]
    intra VDW/kʙ                 0.000000e+00 [K]
    intra Coulombic/kʙ           0.000000e+00 [K]
    polarization/kʙ              0.000000e+00 [K]
    dU/dlambda VDW/kʙ            0.000000e+00 [K]
    dU/dlambda Real/kʙ           0.000000e+00 [K]
    dU/dlambda Ewald/kʙ          0.000000e+00 [K]


Initialization: Current cycle: 800 out of 2000
===============================================================================

Box:      32.82769   0.00000   0.00000
           0.00000  32.82769   0.00000
           0.00000   0.00000  32.82769
Lengths:  32.82769  32.82769  32.82769
Angles:   90.00000  90.00000  90.00000
Rectangular boundary conditions

net charge:   0.00000000

component   0 (CO2) lambda:  0 occupancy:  1 (1.000000)
    net charge:   0.00000000 [e]

Amount of molecules per component :
-------------------------------------------------------------------------------
Component 0 (CO2)
    molecules:         2.600000e+01 molecules
    number density:    7.349407e-04 molec/A^3
    density:           5.369603e+01 kg/m^3

Total potential energy/kʙ       -2.699889e+03 [K]
-------------------------------------------------------------------------------
    external field VDW/kʙ        0.000000e+00 [K]
    external field Real/kʙ       0.000000e+00 [K]
    framework-molecule VDW/kʙ    0.000000e+00 [K]
    framework-molecule Real/kʙ   0.000000e+00 [K]
    molecule-molecule VDW/kʙ    -2.183079e+03 [K]
    molecule-molecule Real/kʙ   -3.698724e+02 [K]
    Van der Waals (Tail)/kʙ     -3.548640e+01 [K]
    Ewald Fourier/kʙ             1.417495e+03 [K]
    Ewald self/kʙ               -4.775363e+05 [K]
    Ewald exclusion/kʙ           4.760074e+05 [K]
    intra VDW/kʙ                 0.000000e+00 [K]
    intra Coulombic/kʙ           0.000000e+00 [K]
    polarization/kʙ              0.000000e+00 [K]
    dU/dlambda VDW/kʙ            0.000000e+00 [K]
    dU/dlambda Real/kʙ           0.000000e+00 [K]
    dU/dlambda Ewald/kʙ          0.000000e+00 [K]


Initialization: Current cycle: 900 out of 2000
===============================================================================

Box:      33.25735   0.00000   0.00000
           0.00000  33.25735   0.00000
           0.00000   0.00000  33.25735
Lengths:  33.25735  33.25735  33.25735
Angles:   90.00000  90.00000  90.00000
Rectangular boundary conditions

net charge:   0.00000000

component   0 (CO2) lambda:  0 occupancy:  1 (1.000000)
    net charge:   0.00000000 [e]

Amount of molecules per component :
-------------------------------------------------------------------------------
Component 0 (CO2)
    molecules:         4.100000e+01 molecules
    number density:    1.114605e-03 molec/A^3
    density:           8.143495e+01 kg/m^3

Total potential energy/kʙ       -5.205574e+03 [K]
-------------------------------------------------------------------------------
    external field VDW/kʙ        0.000000e+00 [K]
    external field Real/kʙ       0.000000e+00 [K]
    framework-molecule VDW/kʙ    0.000000e+00 [K]
    framework-molecule Real/kʙ   0.000000e+00 [K]
    molecule-molecule VDW/kʙ    -3.990259e+03 [K]
    molecule-molecule Real/kʙ   -1.050859e+03 [K]
    Van der Waals (Tail)/kʙ     -8.486743e+01 [K]
    Ewald Fourier/kʙ             2.331443e+03 [K]
    Ewald self/kʙ               -7.530381e+05 [K]
    Ewald exclusion/kʙ           7.506270e+05 [K]
    intra VDW/kʙ                 0.000000e+00 [K]
    intra Coulombic/kʙ           0.000000e+00 [K]
    polarization/kʙ              0.000000e+00 [K]
    dU/dlambda VDW/kʙ            0.000000e+00 [K]
    dU/dlambda Real/kʙ           0.000000e+00 [K]
    dU/dlambda Ewald/kʙ          0.000000e+00 [K]


Initialization: Current cycle: 1000 out of 2000
===============================================================================

Box:      33.49472   0.00000   0.00000
           0.00000  33.49472   0.00000
           0.00000   0.00000  33.49472
Lengths:  33.49472  33.49472  33.49472
Angles:   90.00000  90.00000  90.00000
Rectangular boundary conditions

net charge:   0.00000000

component   0 (CO2) lambda:  0 occupancy:  1 (1.000000)
    net charge:   0.00000000 [e]

Amount of molecules per component :
-------------------------------------------------------------------------------
Component 0 (CO2)
    molecules:         4.800000e+01 molecules
    number density:    1.277357e-03 molec/A^3
    density:           9.332589e+01 kg/m^3

Total potential energy/kʙ       -9.636093e+03 [K]
-------------------------------------------------------------------------------
    external field VDW/kʙ        0.000000e+00 [K]
    external field Real/kʙ       0.000000e+00 [K]
    framework-molecule VDW/kʙ    0.000000e+00 [K]
    framework-molecule Real/kʙ   0.000000e+00 [K]
    molecule-molecule VDW/kʙ    -6.577696e+03 [K]
    molecule-molecule Real/kʙ   -2.909603e+03 [K]
    Van der Waals (Tail)/kʙ     -1.138649e+02 [K]
    Ewald Fourier/kʙ             2.787742e+03 [K]
    Ewald self/kʙ               -8.816055e+05 [K]
    Ewald exclusion/kʙ           8.787829e+05 [K]
    intra VDW/kʙ                 0.000000e+00 [K]
    intra Coulombic/kʙ           0.000000e+00 [K]
    polarization/kʙ              0.000000e+00 [K]
    dU/dlambda VDW/kʙ            0.000000e+00 [K]
    dU/dlambda Real/kʙ           0.000000e+00 [K]
    dU/dlambda Ewald/kʙ          0.000000e+00 [K]


Initialization: Current cycle: 1100 out of 2000
===============================================================================

Box:      33.53186   0.00000   0.00000
           0.00000  33.53186   0.00000
           0.00000   0.00000  33.53186
Lengths:  33.53186  33.53186  33.53186
Angles:   90.00000  90.00000  90.00000
Rectangular boundary conditions

net charge:   0.00000000

component   0 (CO2) lambda:  0 occupancy:  1 (1.000000)
    net charge:   0.00000000 [e]

Amount of molecules per component :
-------------------------------------------------------------------------------
Component 0 (CO2)
    molecules:         3.400000e+01 molecules
    number density:    9.017909e-04 molec/A^3
    density:           6.588639e+01 kg/m^3

Total potential energy/kʙ       -3.199725e+03 [K]
-------------------------------------------------------------------------------
    external field VDW/kʙ        0.000000e+00 [K]
    external field Real/kʙ       0.000000e+00 [K]
    framework-molecule VDW/kʙ    0.000000e+00 [K]
    framework-molecule Real/kʙ   0.000000e+00 [K]
    molecule-molecule VDW/kʙ    -3.048663e+03 [K]
    molecule-molecule Real/kʙ    1.157394e+01 [K]
    Van der Waals (Tail)/kʙ     -5.694046e+01 [K]
    Ewald Fourier/kʙ             1.893697e+03 [K]
    Ewald self/kʙ               -6.244706e+05 [K]
    Ewald exclusion/kʙ           6.224712e+05 [K]
    intra VDW/kʙ                 0.000000e+00 [K]
    intra Coulombic/kʙ           0.000000e+00 [K]
    polarization/kʙ              0.000000e+00 [K]
    dU/dlambda VDW/kʙ            0.000000e+00 [K]
    dU/dlambda Real/kʙ           0.000000e+00 [K]
    dU/dlambda Ewald/kʙ          0.000000e+00 [K]


Initialization: Current cycle: 1200 out of 2000
===============================================================================

Box:      33.59537   0.00000   0.00000
           0.00000  33.59537   0.00000
           0.00000   0.00000  33.59537
Lengths:  33.59537  33.59537  33.59537
Angles:   90.00000  90.00000  90.00000
Rectangular boundary conditions

net charge:   0.00000000

component   0 (CO2) lambda:  0 occupancy:  1 (1.000000)
    net charge:   0.00000000 [e]

Amount of molecules per component :
-------------------------------------------------------------------------------
Component 0 (CO2)
    molecules:         4.800000e+01 molecules
    number density:    1.265910e-03 molec/A^3
    density:           9.248955e+01 kg/m^3

Total potential energy/kʙ       -1.020139e+04 [K]
-------------------------------------------------------------------------------
    external field VDW/kʙ        0.000000e+00 [K]
    external field Real/kʙ       0.000000e+00 [K]
    framework-molecule VDW/kʙ    0.000000e+00 [K]
    framework-molecule Real/kʙ   0.000000e+00 [K]
    molecule-molecule VDW/kʙ    -7.729552e+03 [K]
    molecule-molecule Real/kʙ   -1.905690e+03 [K]
    Van der Waals (Tail)/kʙ     -1.128445e+02 [K]
    Ewald Fourier/kʙ             2.369364e+03 [K]
    Ewald self/kʙ               -8.816055e+05 [K]
    Ewald exclusion/kʙ           8.787829e+05 [K]
    intra VDW/kʙ                 0.000000e+00 [K]
    intra Coulombic/kʙ           0.000000e+00 [K]
    polarization/kʙ              0.000000e+00 [K]
    dU/dlambda VDW/kʙ            0.000000e+00 [K]
    dU/dlambda Real/kʙ           0.000000e+00 [K]
    dU/dlambda Ewald/kʙ          0.000000e+00 [K]


Initialization: Current cycle: 1300 out of 2000
===============================================================================

Box:      33.36131   0.00000   0.00000
           0.00000  33.36131   0.00000
           0.00000   0.00000  33.36131
Lengths:  33.36131  33.36131  33.36131
Angles:   90.00000  90.00000  90.00000
Rectangular boundary conditions

net charge:   0.00000000

component   0 (CO2) lambda:  0 occupancy:  1 (1.000000)
    net charge:   0.00000000 [e]

Amount of molecules per component :
-------------------------------------------------------------------------------
Component 0 (CO2)
    molecules:         3.100000e+01 molecules
    number density:    8.348958e-04 molec/A^3
    density:           6.099892e+01 kg/m^3

Total potential energy/kʙ       -3.893465e+03 [K]
-------------------------------------------------------------------------------
    external field VDW/kʙ        0.000000e+00 [K]
    external field Real/kʙ       0.000000e+00 [K]
    framework-molecule VDW/kʙ    0.000000e+00 [K]
    framework-molecule Real/kʙ   0.000000e+00 [K]
    molecule-molecule VDW/kʙ    -2.358630e+03 [K]
    molecule-molecule Real/kʙ   -1.389602e+03 [K]
    Van der Waals (Tail)/kʙ     -4.806514e+01 [K]
    Ewald Fourier/kʙ             1.725807e+03 [K]
    Ewald self/kʙ               -5.693702e+05 [K]
    Ewald exclusion/kʙ           5.675473e+05 [K]
    intra VDW/kʙ                 0.000000e+00 [K]
    intra Coulombic/kʙ           0.000000e+00 [K]
    polarization/kʙ              0.000000e+00 [K]
    dU/dlambda VDW/kʙ            0.000000e+00 [K]
    dU/dlambda Real/kʙ           0.000000e+00 [K]
    dU/dlambda Ewald/kʙ          0.000000e+00 [K]


Initialization: Current cycle: 1400 out of 2000
===============================================================================

Box:      33.35966   0.00000   0.00000
           0.00000  33.35966   0.00000
           0.00000   0.00000  33.35966
Lengths:  33.35966  33.35966  33.35966
Angles:   90.00000  90.00000  90.00000
Rectangular boundary conditions

net charge:   0.00000000

component   0 (CO2) lambda:  0 occupancy:  1 (1.000000)
    net charge:   0.00000000 [e]

Amount of molecules per component :
-------------------------------------------------------------------------------
Component 0 (CO2)
    molecules:         5.200000e+01 molecules
    number density:    1.400679e-03 molec/A^3
    density:           1.023360e+02 kg/m^3

Total potential energy/kʙ       -9.025011e+03 [K]
-------------------------------------------------------------------------------
    external field VDW/kʙ        0.000000e+00 [K]
    external field Real/kʙ       0.000000e+00 [K]
    framework-molecule VDW/kʙ    0.000000e+00 [K]
    framework-molecule Real/kʙ   0.000000e+00 [K]
    molecule-molecule VDW/kʙ    -6.865430e+03 [K]
    molecule-molecule Real/kʙ   -1.860520e+03 [K]
    Van der Waals (Tail)/kʙ     -1.352627e+02 [K]
    Ewald Fourier/kʙ             2.894094e+03 [K]
    Ewald self/kʙ               -9.550727e+05 [K]
    Ewald exclusion/kʙ           9.520148e+05 [K]
    intra VDW/kʙ                 0.000000e+00 [K]
    intra Coulombic/kʙ           0.000000e+00 [K]
    polarization/kʙ              0.000000e+00 [K]
    dU/dlambda VDW/kʙ            0.000000e+00 [K]
    dU/dlambda Real/kʙ           0.000000e+00 [K]
    dU/dlambda Ewald/kʙ          0.000000e+00 [K]


Initialization: Current cycle: 1500 out of 2000
===============================================================================

Box:      33.59494   0.00000   0.00000
           0.00000  33.59494   0.00000
           0.00000   0.00000  33.59494
Lengths:  33.59494  33.59494  33.59494
Angles:   90.00000  90.00000  90.00000
Rectangular boundary conditions

net charge:   0.00000000

component   0 (CO2) lambda:  0 occupancy:  1 (1.000000)
    net charge:   0.00000000 [e]

Amount of molecules per component :
-------------------------------------------------------------------------------
Component 0 (CO2)
    molecules:         3.100000e+01 molecules
    number density:    8.175985e-04 molec/A^3
    density:           5.973515e+01 kg/m^3

Total potential energy/kʙ       -1.864648e+03 [K]
-------------------------------------------------------------------------------
    external field VDW/kʙ        0.000000e+00 [K]
    external field Real/kʙ       0.000000e+00 [K]
    framework-molecule VDW/kʙ    0.000000e+00 [K]
    framework-molecule Real/kʙ   0.000000e+00 [K]
    molecule-molecule VDW/kʙ    -2.082032e+03 [K]
    molecule-molecule Real/kʙ    2.099603e+02 [K]
    Van der Waals (Tail)/kʙ     -4.706933e+01 [K]
    Ewald Fourier/kʙ             1.877468e+03 [K]
    Ewald self/kʙ               -5.693702e+05 [K]
    Ewald exclusion/kʙ           5.675473e+05 [K]
    intra VDW/kʙ                 0.000000e+00 [K]
    intra Coulombic/kʙ           0.000000e+00 [K]
    polarization/kʙ              0.000000e+00 [K]
    dU/dlambda VDW/kʙ            0.000000e+00 [K]
    dU/dlambda Real/kʙ           0.000000e+00 [K]
    dU/dlambda Ewald/kʙ          0.000000e+00 [K]


Initialization: Current cycle: 1600 out of 2000
===============================================================================

Box:      33.43173   0.00000   0.00000
           0.00000  33.43173   0.00000
           0.00000   0.00000  33.43173
Lengths:  33.43173  33.43173  33.43173
Angles:   90.00000  90.00000  90.00000
Rectangular boundary conditions

net charge:   0.00000000

component   0 (CO2) lambda:  0 occupancy:  1 (1.000000)
    net charge:   0.00000000 [e]

Amount of molecules per component :
-------------------------------------------------------------------------------
Component 0 (CO2)
    molecules:         3.400000e+01 molecules
    number density:    9.099186e-04 molec/A^3
    density:           6.648021e+01 kg/m^3

Total potential energy/kʙ       -5.906320e+03 [K]
-------------------------------------------------------------------------------
    external field VDW/kʙ        0.000000e+00 [K]
    external field Real/kʙ       0.000000e+00 [K]
    framework-molecule VDW/kʙ    0.000000e+00 [K]
    framework-molecule Real/kʙ   0.000000e+00 [K]
    molecule-molecule VDW/kʙ    -3.224253e+03 [K]
    molecule-molecule Real/kʙ   -2.360278e+03 [K]
    Van der Waals (Tail)/kʙ     -5.745365e+01 [K]
    Ewald Fourier/kʙ             1.735056e+03 [K]
    Ewald self/kʙ               -6.244706e+05 [K]
    Ewald exclusion/kʙ           6.224712e+05 [K]
    intra VDW/kʙ                 0.000000e+00 [K]
    intra Coulombic/kʙ           0.000000e+00 [K]
    polarization/kʙ              0.000000e+00 [K]
    dU/dlambda VDW/kʙ            0.000000e+00 [K]
    dU/dlambda Real/kʙ           0.000000e+00 [K]
    dU/dlambda Ewald/kʙ          0.000000e+00 [K]


Initialization: Current cycle: 1700 out of 2000
===============================================================================

Box:      33.41455   0.00000   0.00000
           0.00000  33.41455   0.00000
           0.00000   0.00000  33.41455
Lengths:  33.41455  33.41455  33.41455
Angles:   90.00000  90.00000  90.00000
Rectangular boundary conditions

net charge:   0.00000000

component   0 (CO2) lambda:  0 occupancy:  1 (1.000000)
    net charge:   0.00000000 [e]

Amount of molecules per component :
-------------------------------------------------------------------------------
Component 0 (CO2)
    molecules:         3.700000e+01 molecules
    number density:    9.917330e-04 molec/A^3
    density:           7.245771e+01 kg/m^3

Total potential energy/kʙ       -4.001507e+03 [K]
-------------------------------------------------------------------------------
    external field VDW/kʙ        0.000000e+00 [K]
    external field Real/kʙ       0.000000e+00 [K]
    framework-molecule VDW/kʙ    0.000000e+00 [K]
    framework-molecule Real/kʙ   0.000000e+00 [K]
    molecule-molecule VDW/kʙ    -2.524626e+03 [K]
    molecule-molecule Real/kʙ   -1.201526e+03 [K]
    Van der Waals (Tail)/kʙ     -6.814479e+01 [K]
    Ewald Fourier/kʙ             1.968599e+03 [K]
    Ewald self/kʙ               -6.795709e+05 [K]
    Ewald exclusion/kʙ           6.773951e+05 [K]
    intra VDW/kʙ                 0.000000e+00 [K]
    intra Coulombic/kʙ           0.000000e+00 [K]
    polarization/kʙ              0.000000e+00 [K]
    dU/dlambda VDW/kʙ            0.000000e+00 [K]
    dU/dlambda Real/kʙ           0.000000e+00 [K]
    dU/dlambda Ewald/kʙ          0.000000e+00 [K]


Initialization: Current cycle: 1800 out of 2000
===============================================================================

Box:      33.25767   0.00000   0.00000
           0.00000  33.25767   0.00000
           0.00000   0.00000  33.25767
Lengths:  33.25767  33.25767  33.25767
Angles:   90.00000  90.00000  90.00000
Rectangular boundary conditions

net charge:   0.00000000

component   0 (CO2) lambda:  0 occupancy:  1 (1.000000)
    net charge:   0.00000000 [e]

Amount of molecules per component :
-------------------------------------------------------------------------------
Component 0 (CO2)
    molecules:         4.000000e+01 molecules
    number density:    1.087388e-03 molec/A^3
    density:           7.944643e+01 kg/m^3

Total potential energy/kʙ       -5.937852e+03 [K]
-------------------------------------------------------------------------------
    external field VDW/kʙ        0.000000e+00 [K]
    external field Real/kʙ       0.000000e+00 [K]
    framework-molecule VDW/kʙ    0.000000e+00 [K]
    framework-molecule Real/kʙ   0.000000e+00 [K]
    molecule-molecule VDW/kʙ    -4.143266e+03 [K]
    molecule-molecule Real/kʙ   -1.705115e+03 [K]
    Van der Waals (Tail)/kʙ     -8.077570e+01 [K]
    Ewald Fourier/kʙ             2.343531e+03 [K]
    Ewald self/kʙ               -7.346713e+05 [K]
    Ewald exclusion/kʙ           7.323191e+05 [K]
    intra VDW/kʙ                 0.000000e+00 [K]
    intra Coulombic/kʙ           0.000000e+00 [K]
    polarization/kʙ              0.000000e+00 [K]
    dU/dlambda VDW/kʙ            0.000000e+00 [K]
    dU/dlambda Real/kʙ           0.000000e+00 [K]
    dU/dlambda Ewald/kʙ          0.000000e+00 [K]


Initialization: Current cycle: 1900 out of 2000
===============================================================================

Box:      33.76812   0.00000   0.00000
           0.00000  33.76812   0.00000
           0.00000   0.00000  33.76812
Lengths:  33.76812  33.76812  33.76812
Angles:   90.00000  90.00000  90.00000
Rectangular boundary conditions

net charge:   0.00000000

component   0 (CO2) lambda:  0 occupancy:  1 (1.000000)
    net charge:   0.00000000 [e]

Amount of molecules per component :
-------------------------------------------------------------------------------
Component 0 (CO2)
    molecules:         3.700000e+01 molecules
    number density:    9.609063e-04 molec/A^3
    density:           7.020546e+01 kg/m^3

Total potential energy/kʙ       -4.423782e+03 [K]
-------------------------------------------------------------------------------
    external field VDW/kʙ        0.000000e+00 [K]
    external field Real/kʙ       0.000000e+00 [K]
    framework-molecule VDW/kʙ    0.000000e+00 [K]
    framework-molecule Real/kʙ   0.000000e+00 [K]
    molecule-molecule VDW/kʙ    -2.565997e+03 [K]
    molecule-molecule Real/kʙ   -1.700347e+03 [K]
    Van der Waals (Tail)/kʙ     -6.602660e+01 [K]
    Ewald Fourier/kʙ             2.084398e+03 [K]
    Ewald self/kʙ               -6.795709e+05 [K]
    Ewald exclusion/kʙ           6.773951e+05 [K]
    intra VDW/kʙ                 0.000000e+00 [K]
    intra Coulombic/kʙ           0.000000e+00 [K]
    polarization/kʙ              0.000000e+00 [K]
    dU/dlambda VDW/kʙ            0.000000e+00 [K]
    dU/dlambda Real/kʙ           0.000000e+00 [K]
    dU/dlambda Ewald/kʙ          0.000000e+00 [K]


Current cycle: 0 out of 6000
===============================================================================

Box:      33.67396   0.00000   0.00000  Average:  33.67396   0.00000   0.00000
           0.00000  33.67396   0.00000             0.00000  33.67396   0.00000
           0.00000   0.00000  33.67396             0.00000   0.00000  33.67396
Lengths:  33.67396  33.67396  33.67396  Average:  33.67396  33.67396  33.67396
Angles:   90.00000  90.00000  90.00000  Average:  90.00000  90.00000  90.00000
Rectangular boundary conditions

net charge:   0.00000000

component 0 (CO2) lambda:  0 occupancy:  1 (1.000000)
    net charge:   0.00000000 [e]

Amount of molecules per component :
-------------------------------------------------------------------------------
Component 0 (CO2)
    molecules:      4.600000e+01 molecules  (4.600000e+01 +/- 0.000000e+00)
    number density: 1.204690e-03 molec./A^3 (1.204690e-03 +/- 0.000000e+00)
    density:        8.801674e+01 kg/m^3     (8.801674e+01 +/- 0.000000e+00)

Average pressure tensor: 
-------------------------------------------------------------------------------
 4.4908e+01  0.0000e+00  0.0000e+00 +/- 0.0000e+00 0.0000e+00 0.0000e+00 [bar]
 0.0000e+00  4.4908e+01  0.0000e+00 +/- 0.0000e+00 0.0000e+00 0.0000e+00 [bar]
 0.0000e+00  0.0000e+00  4.4908e+01 +/- 0.0000e+00 0.0000e+00 0.0000e+00 [bar]
Ideal-gas pressure:   4.490791e+01 +/ 0.000000e+00 [bar]
Excess pressure:      0.000000e+00 +/ 0.000000e+00 [bar]
Pressure:             4.490791e+01 +/ 0.000000e+00 [bar]

Total potential energy/kʙ  -7.460228e+03 (-7.460228e+03 +/- 0.000000e+00) [K]
-------------------------------------------------------------------------------
ExternalField-molecule
    Van der Waals/kʙ        0.000000e+00 ( 0.000000e+00 +/- 0.000000e+00) [K]
Framework-molecule
    Van der Waals/kʙ        0.000000e+00 ( 0.000000e+00 +/- 0.000000e+00) [K]
    Van der Waals (Tail)/kʙ 0.000000e+00 ( 0.000000e+00 +/- 0.000000e+00) [K]
    Coulombic Real/kʙ       0.000000e+00 ( 0.000000e+00 +/- 0.000000e+00) [K]
    Coulombic Fourier/kʙ    0.000000e+00 ( 0.000000e+00 +/- 0.000000e+00) [K]
Molecule-molecule
    Van der Waals/kʙ       -5.044062e+03 (-5.044062e+03 +/- 0.000000e+00) [K]
    Van der Waals (Tail)/kʙ-1.029128e+02 (-1.029128e+02 +/- 0.000000e+00) [K]
    Coulombic Real/kʙ      -2.143645e+03 (-2.143645e+03 +/- 0.000000e+00) [K]
    Coulombic Fourier/kʙ   -1.696086e+02 (-1.696086e+02 +/- 0.000000e+00) [K]
    Molecule Intra/kʙ       0.000000e+00 ( 0.000000e+00 +/- 0.000000e+00) [K]

Current cycle: 100 out of 6000
===============================================================================

Box:      33.36963   0.00000   0.00000  Average:  33.45194   0.00000   0.00000
           0.00000  33.36963   0.00000             0.00000  33.45194   0.00000
           0.00000   0.00000  33.36963             0.00000   0.00000  33.45194
Lengths:  33.36963  33.36963  33.36963  Average:  33.45194  33.45194  33.45194
Angles:   90.00000  90.00000  90.00000  Average:  90.00000  90.00000  90.00000
Rectangular boundary conditions

net charge:   0.00000000

component 0 (CO2) lambda:  0 occupancy:  1 (1.000000)
    net charge:   0.00000000 [e]

Amount of molecules per component :
-------------------------------------------------------------------------------
Component 0 (CO2)
    molecules:      4.200000e+01 molecules  (3.939604e+01 +/- 0.000000e+00)
    number density: 1.130303e-03 molec./A^3 (1.051732e-03 +/- 0.000000e+00)
    density:        8.258189e+01 kg/m^3     (7.684131e+01 +/- 0.000000e+00)

Average pressure tensor: 
-------------------------------------------------------------------------------
 2.3347e+01  2.3378e+00 -1.4424e+00 +/- 0.0000e+00 0.0000e+00 0.0000e+00 [bar]
 2.3378e+00  3.2751e+01  3.1675e+00 +/- 0.0000e+00 0.0000e+00 0.0000e+00 [bar]
-1.4424e+00  3.1675e+00  3.5023e+01 +/- 0.0000e+00 0.0000e+00 0.0000e+00 [bar]
Ideal-gas pressure:   3.920599e+01 +/ 0.000000e+00 [bar]
Excess pressure:     -8.832448e+00 +/ 0.000000e+00 [bar]
Pressure:             3.037354e+01 +/ 0.000000e+00 [bar]

Total potential energy/kʙ  -6.459028e+03 (-5.743992e+03 +/- 0.000000e+00) [K]
-------------------------------------------------------------------------------
ExternalField-molecule
    Van der Waals/kʙ        0.000000e+00 ( 0.000000e+00 +/- 0.000000e+00) [K]
Framework-molecule
    Van der Waals/kʙ        0.000000e+00 ( 0.000000e+00 +/- 0.000000e+00) [K]
    Van der Waals (Tail)/kʙ 0.000000e+00 ( 0.000000e+00 +/- 0.000000e+00) [K]
    Coulombic Real/kʙ       0.000000e+00 ( 0.000000e+00 +/- 0.000000e+00) [K]
    Coulombic Fourier/kʙ    0.000000e+00 ( 0.000000e+00 +/- 0.000000e+00) [K]
Molecule-molecule
    Van der Waals/kʙ       -4.966959e+03 (-4.323333e+03 +/- 0.000000e+00) [K]
    Van der Waals (Tail)/kʙ-8.816180e+01 (-8.146463e+01 +/- 0.000000e+00) [K]
    Coulombic Real/kʙ      -1.319999e+03 (-1.222375e+03 +/- 0.000000e+00) [K]
    Coulombic Fourier/kʙ   -8.390766e+01 (-1.168192e+02 +/- 0.000000e+00) [K]
    Molecule Intra/kʙ       0.000000e+00 ( 0.000000e+00 +/- 0.000000e+00) [K]

Current cycle: 200 out of 6000
===============================================================================

Box:      33.50124   0.00000   0.00000  Average:  33.52769   0.00000   0.00000
           0.00000  33.50124   0.00000             0.00000  33.52769   0.00000
           0.00000   0.00000  33.50124             0.00000   0.00000  33.52769
Lengths:  33.50124  33.50124  33.50124  Average:  33.52769  33.52769  33.52769
Angles:   90.00000  90.00000  90.00000  Average:  90.00000  90.00000  90.00000
Rectangular boundary conditions

net charge:   0.00000000

component 0 (CO2) lambda:  0 occupancy:  1 (1.000000)
    net charge:   0.00000000 [e]

Amount of molecules per component :
-------------------------------------------------------------------------------
Component 0 (CO2)
    molecules:      3.900000e+01 molecules  (3.896020e+01 +/- 0.000000e+00)
    number density: 1.037246e-03 molec./A^3 (1.033179e-03 +/- 0.000000e+00)
    density:        7.578298e+01 kg/m^3     (7.548582e+01 +/- 0.000000e+00)

Average pressure tensor: 
-------------------------------------------------------------------------------
 3.1205e+01  6.3817e-01 -2.1327e+00 +/- 0.0000e+00 0.0000e+00 0.0000e+00 [bar]
 6.3817e-01  3.0803e+01 -1.1209e+00 +/- 0.0000e+00 0.0000e+00 0.0000e+00 [bar]
-2.1327e+00 -1.1209e+00  3.4507e+01 +/- 0.0000e+00 0.0000e+00 0.0000e+00 [bar]
Ideal-gas pressure:   3.851439e+01 +/ 0.000000e+00 [bar]
Excess pressure:     -6.342846e+00 +/ 0.000000e+00 [bar]
Pressure:             3.217154e+01 +/ 0.000000e+00 [bar]

Total potential energy/kʙ  -4.499363e+03 (-5.792175e+03 +/- 0.000000e+00) [K]
-------------------------------------------------------------------------------
ExternalField-molecule
    Van der Waals/kʙ        0.000000e+00 ( 0.000000e+00 +/- 0.000000e+00) [K]
Framework-molecule
    Van der Waals/kʙ        0.000000e+00 ( 0.000000e+00 +/- 0.000000e+00) [K]
    Van der Waals (Tail)/kʙ 0.000000e+00 ( 0.000000e+00 +/- 0.000000e+00) [K]
    Coulombic Real/kʙ       0.000000e+00 ( 0.000000e+00 +/- 0.000000e+00) [K]
    Coulombic Fourier/kʙ    0.000000e+00 ( 0.000000e+00 +/- 0.000000e+00) [K]
Molecule-molecule
    Van der Waals/kʙ       -3.601519e+03 (-4.233172e+03 +/- 0.000000e+00) [K]
    Van der Waals (Tail)/kʙ-7.512469e+01 (-7.986269e+01 +/- 0.000000e+00) [K]
    Coulombic Real/kʙ      -7.311728e+02 (-1.367815e+03 +/- 0.000000e+00) [K]
    Coulombic Fourier/kʙ   -9.154700e+01 (-1.113257e+02 +/- 0.000000e+00) [K]
    Molecule Intra/kʙ       0.000000e+00 ( 0.000000e+00 +/- 0.000000e+00) [K]

Current cycle: 300 out of 6000
===============================================================================

Box:      33.64369   0.00000   0.00000  Average:  33.57732   0.00000   0.00000
           0.00000  33.64369   0.00000             0.00000  33.57732   0.00000
           0.00000   0.00000  33.64369             0.00000   0.00000  33.57732
Lengths:  33.64369  33.64369  33.64369  Average:  33.57732  33.57732  33.57732
Angles:   90.00000  90.00000  90.00000  Average:  90.00000  90.00000  90.00000
Rectangular boundary conditions

net charge:   0.00000000

component 0 (CO2) lambda:  0 occupancy:  1 (1.000000)
    net charge:   0.00000000 [e]

Amount of molecules per component :
-------------------------------------------------------------------------------
Component 0 (CO2)
    molecules:      3.600000e+01 molecules  (3.775748e+01 +/- 0.000000e+00)
    number density: 9.453480e-04 molec./A^3 (9.973470e-04 +/- 0.000000e+00)
    density:        6.906874e+01 kg/m^3     (7.286788e+01 +/- 0.000000e+00)

Average pressure tensor: 
-------------------------------------------------------------------------------
 2.9762e+01 -1.1894e-01 -1.7585e+00 +/- 0.0000e+00 0.0000e+00 0.0000e+00 [bar]
-1.1894e-01  2.7475e+01 -1.2115e+00 +/- 0.0000e+00 0.0000e+00 0.0000e+00 [bar]
-1.7585e+00 -1.2115e+00  2.8754e+01 +/- 0.0000e+00 0.0000e+00 0.0000e+00 [bar]
Ideal-gas pressure:   3.717866e+01 +/ 0.000000e+00 [bar]
Excess pressure:     -8.515053e+00 +/ 0.000000e+00 [bar]
Pressure:             2.866361e+01 +/ 0.000000e+00 [bar]

Total potential energy/kʙ  -6.943654e+03 (-5.471366e+03 +/- 0.000000e+00) [K]
-------------------------------------------------------------------------------
ExternalField-molecule
    Van der Waals/kʙ        0.000000e+00 ( 0.000000e+00 +/- 0.000000e+00) [K]
Framework-molecule
    Van der Waals/kʙ        0.000000e+00 ( 0.000000e+00 +/- 0.000000e+00) [K]
    Van der Waals (Tail)/kʙ 0.000000e+00 ( 0.000000e+00 +/- 0.000000e+00) [K]
    Coulombic Real/kʙ       0.000000e+00 ( 0.000000e+00 +/- 0.000000e+00) [K]
    Coulombic Fourier/kʙ    0.000000e+00 ( 0.000000e+00 +/- 0.000000e+00) [K]
Molecule-molecule
    Van der Waals/kʙ       -4.178935e+03 (-4.004152e+03 +/- 0.000000e+00) [K]
    Van der Waals (Tail)/kʙ-6.320194e+01 (-7.435956e+01 +/- 0.000000e+00) [K]
    Coulombic Real/kʙ      -2.482068e+03 (-1.281112e+03 +/- 0.000000e+00) [K]
    Coulombic Fourier/kʙ   -2.194491e+02 (-1.117417e+02 +/- 0.000000e+00) [K]
    Molecule Intra/kʙ       0.000000e+00 ( 0.000000e+00 +/- 0.000000e+00) [K]

Current cycle: 400 out of 6000
===============================================================================

Box:      33.54717   0.00000   0.00000  Average:  33.57672   0.00000   0.00000
           0.00000  33.54717   0.00000             0.00000  33.57672   0.00000
           0.00000   0.00000  33.54717             0.00000   0.00000  33.57672
Lengths:  33.54717  33.54717  33.54717  Average:  33.57672  33.57672  33.57672
Angles:   90.00000  90.00000  90.00000  Average:  90.00000  90.00000  90.00000
Rectangular boundary conditions

net charge:   0.00000000

component 0 (CO2) lambda:  0 occupancy:  1 (1.000000)
    net charge:   0.00000000 [e]

Amount of molecules per component :
-------------------------------------------------------------------------------
Component 0 (CO2)
    molecules:      4.000000e+01 molecules  (3.754863e+01 +/- 0.000000e+00)
    number density: 1.059479e-03 molec./A^3 (9.918553e-04 +/- 0.000000e+00)
    density:        7.740735e+01 kg/m^3     (7.246665e+01 +/- 0.000000e+00)

Average pressure tensor: 
-------------------------------------------------------------------------------
 2.9116e+01  1.3593e-01 -1.2425e+00 +/- 0.0000e+00 0.0000e+00 0.0000e+00 [bar]
 1.3593e-01  2.5846e+01 -1.8498e+00 +/- 0.0000e+00 0.0000e+00 0.0000e+00 [bar]
-1.2425e+00 -1.8498e+00  2.9923e+01 +/- 0.0000e+00 0.0000e+00 0.0000e+00 [bar]
Ideal-gas pressure:   3.697395e+01 +/ 0.000000e+00 [bar]
Excess pressure:     -8.678909e+00 +/ 0.000000e+00 [bar]
Pressure:             2.829504e+01 +/ 0.000000e+00 [bar]

Total potential energy/kʙ  -6.175358e+03 (-5.237261e+03 +/- 0.000000e+00) [K]
-------------------------------------------------------------------------------
ExternalField-molecule
    Van der Waals/kʙ        0.000000e+00 ( 0.000000e+00 +/- 0.000000e+00) [K]
Framework-molecule
    Van der Waals/kʙ        0.000000e+00 ( 0.000000e+00 +/- 0.000000e+00) [K]
    Van der Waals (Tail)/kʙ 0.000000e+00 ( 0.000000e+00 +/- 0.000000e+00) [K]
    Coulombic Real/kʙ       0.000000e+00 ( 0.000000e+00 +/- 0.000000e+00) [K]
    Coulombic Fourier/kʙ    0.000000e+00 ( 0.000000e+00 +/- 0.000000e+00) [K]
Molecule-molecule
    Van der Waals/kʙ       -3.977767e+03 (-3.840350e+03 +/- 0.000000e+00) [K]
    Van der Waals (Tail)/kʙ-7.870251e+01 (-7.261032e+01 +/- 0.000000e+00) [K]
    Coulombic Real/kʙ      -1.778604e+03 (-1.211154e+03 +/- 0.000000e+00) [K]
    Coulombic Fourier/kʙ   -3.402855e+02 (-1.131475e+02 +/- 0.000000e+00) [K]
    Molecule Intra/kʙ       0.000000e+00 ( 0.000000e+00 +/- 0.000000e+00) [K]

Current cycle: 500 out of 6000
===============================================================================

Box:      33.78659   0.00000   0.00000  Average:  33.61763   0.00000   0.00000
           0.00000  33.78659   0.00000             0.00000  33.61763   0.00000
           0.00000   0.00000  33.78659             0.00000   0.00000  33.61763
Lengths:  33.78659  33.78659  33.78659  Average:  33.61763  33.61763  33.61763
Angles:   90.00000  90.00000  90.00000  Average:  90.00000  90.00000  90.00000
Rectangular boundary conditions

net charge:   0.00000000

component 0 (CO2) lambda:  0 occupancy:  1 (1.000000)
    net charge:   0.00000000 [e]

Amount of molecules per component :
-------------------------------------------------------------------------------
Component 0 (CO2)
    molecules:      3.900000e+01 molecules  (3.867465e+01 +/- 0.000000e+00)
    number density: 1.011187e-03 molec./A^3 (1.017476e-03 +/- 0.000000e+00)
    density:        7.387908e+01 kg/m^3     (7.433854e+01 +/- 0.000000e+00)

Average pressure tensor: 
-------------------------------------------------------------------------------
 3.1067e+01 -1.2093e-01 -1.3406e+00 +/- 0.0000e+00 0.0000e+00 0.0000e+00 [bar]
-1.2093e-01  2.7394e+01 -1.2159e+00 +/- 0.0000e+00 0.0000e+00 0.0000e+00 [bar]
-1.3406e+00 -1.2159e+00  2.8722e+01 +/- 0.0000e+00 0.0000e+00 0.0000e+00 [bar]
Ideal-gas pressure:   3.792902e+01 +/ 0.000000e+00 [bar]
Excess pressure:     -8.867910e+00 +/ 0.000000e+00 [bar]
Pressure:             2.906111e+01 +/ 0.000000e+00 [bar]

Total potential energy/kʙ  -8.158207e+03 (-5.596897e+03 +/- 0.000000e+00) [K]
-------------------------------------------------------------------------------
ExternalField-molecule
    Van der Waals/kʙ        0.000000e+00 ( 0.000000e+00 +/- 0.000000e+00) [K]
Framework-molecule
    Van der Waals/kʙ        0.000000e+00 ( 0.000000e+00 +/- 0.000000e+00) [K]
    Van der Waals (Tail)/kʙ 0.000000e+00 ( 0.000000e+00 +/- 0.000000e+00) [K]
    Coulombic Real/kʙ       0.000000e+00 ( 0.000000e+00 +/- 0.000000e+00) [K]
    Coulombic Fourier/kʙ    0.000000e+00 ( 0.000000e+00 +/- 0.000000e+00) [K]
Molecule-molecule
    Van der Waals/kʙ       -4.853050e+03 (-4.072613e+03 +/- 0.000000e+00) [K]
    Van der Waals (Tail)/kʙ-7.323732e+01 (-7.511526e+01 +/- 0.000000e+00) [K]
    Coulombic Real/kʙ      -2.886368e+03 (-1.329829e+03 +/- 0.000000e+00) [K]
    Coulombic Fourier/kʙ   -3.455516e+02 (-1.193392e+02 +/- 0.000000e+00) [K]
    Molecule Intra/kʙ       0.000000e+00 ( 0.000000e+00 +/- 0.000000e+00) [K]

Current cycle: 600 out of 6000
===============================================================================

Box:      33.74674   0.00000   0.00000  Average:  33.64414   0.00000   0.00000
           0.00000  33.74674   0.00000             0.00000  33.64414   0.00000
           0.00000   0.00000  33.74674             0.00000   0.00000  33.64414
Lengths:  33.74674  33.74674  33.74674  Average:  33.64414  33.64414  33.64414
Angles:   90.00000  90.00000  90.00000  Average:  90.00000  90.00000  90.00000
Rectangular boundary conditions

net charge:   0.00000000

component 0 (CO2) lambda:  0 occupancy:  1 (1.000000)
    net charge:   0.00000000 [e]

Amount of molecules per component :
-------------------------------------------------------------------------------
Component 0 (CO2)
    molecules:      4.600000e+01 molecules  (3.978536e+01 +/- 0.000000e+00)
    number density: 1.196913e-03 molec./A^3 (1.043931e-03 +/- 0.000000e+00)
    density:        8.744849e+01 kg/m^3     (7.627139e+01 +/- 0.000000e+00)

Average pressure tensor: 
-------------------------------------------------------------------------------
 3.3571e+01 -1.1613e+00 -3.0403e+00 +/- 0.0000e+00 0.0000e+00 0.0000e+00 [bar]
-1.1613e+00  2.8294e+01 -1.4204e+00 +/- 0.0000e+00 0.0000e+00 0.0000e+00 [bar]
-3.0403e+00 -1.4204e+00  3.0018e+01 +/- 0.0000e+00 0.0000e+00 0.0000e+00 [bar]
Ideal-gas pressure:   3.891520e+01 +/ 0.000000e+00 [bar]
Excess pressure:     -8.287532e+00 +/ 0.000000e+00 [bar]
Pressure:             3.062767e+01 +/ 0.000000e+00 [bar]

Total potential energy/kʙ  -1.022344e+04 (-5.962399e+03 +/- 0.000000e+00) [K]
-------------------------------------------------------------------------------
ExternalField-molecule
    Van der Waals/kʙ        0.000000e+00 ( 0.000000e+00 +/- 0.000000e+00) [K]
Framework-molecule
    Van der Waals/kʙ        0.000000e+00 ( 0.000000e+00 +/- 0.000000e+00) [K]
    Van der Waals (Tail)/kʙ 0.000000e+00 ( 0.000000e+00 +/- 0.000000e+00) [K]
    Coulombic Real/kʙ       0.000000e+00 ( 0.000000e+00 +/- 0.000000e+00) [K]
    Coulombic Fourier/kʙ    0.000000e+00 ( 0.000000e+00 +/- 0.000000e+00) [K]
Molecule-molecule
    Van der Waals/kʙ       -7.450499e+03 (-4.339702e+03 +/- 0.000000e+00) [K]
    Van der Waals (Tail)/kʙ-1.022484e+02 (-8.008356e+01 +/- 0.000000e+00) [K]
    Coulombic Real/kʙ      -2.374879e+03 (-1.416198e+03 +/- 0.000000e+00) [K]
    Coulombic Fourier/kʙ   -2.958176e+02 (-1.264156e+02 +/- 0.000000e+00) [K]
    Molecule Intra/kʙ       0.000000e+00 ( 0.000000e+00 +/- 0.000000e+00) [K]

Current cycle: 700 out of 6000
===============================================================================

Box:      33.72517   0.00000   0.00000  Average:  33.65479   0.00000   0.00000
           0.00000  33.72517   0.00000             0.00000  33.65479   0.00000
           0.00000   0.00000  33.72517             0.00000   0.00000  33.65479
Lengths:  33.72517  33.72517  33.72517  Average:  33.65479  33.65479  33.65479
Angles:   90.00000  90.00000  90.00000  Average:  90.00000  90.00000  90.00000
Rectangular boundary conditions

net charge:   0.00000000

component 0 (CO2) lambda:  0 occupancy:  1 (1.000000)
    net charge:   0.00000000 [e]

Amount of molecules per component :
-------------------------------------------------------------------------------
Component 0 (CO2)
    molecules:      3.600000e+01 molecules  (4.022682e+01 +/- 0.000000e+00)
    number density: 9.385123e-04 molec./A^3 (1.054578e-03 +/- 0.000000e+00)
    density:        6.856932e+01 kg/m^3     (7.704924e+01 +/- 0.000000e+00)

Average pressure tensor: 
-------------------------------------------------------------------------------
 3.3422e+01 -6.4337e-01 -2.7010e+00 +/- 0.0000e+00 0.0000e+00 0.0000e+00 [bar]
-6.4337e-01  2.8459e+01 -8.6186e-01 +/- 0.0000e+00 0.0000e+00 0.0000e+00 [bar]
-2.7010e+00 -8.6186e-01  2.9689e+01 +/- 0.0000e+00 0.0000e+00 0.0000e+00 [bar]
Ideal-gas pressure:   3.931208e+01 +/ 0.000000e+00 [bar]
Excess pressure:     -8.788939e+00 +/ 0.000000e+00 [bar]
Pressure:             3.052314e+01 +/ 0.000000e+00 [bar]

Total potential energy/kʙ  -6.283103e+03 (-6.058544e+03 +/- 0.000000e+00) [K]
-------------------------------------------------------------------------------
ExternalField-molecule
    Van der Waals/kʙ        0.000000e+00 ( 0.000000e+00 +/- 0.000000e+00) [K]
Framework-molecule
    Van der Waals/kʙ        0.000000e+00 ( 0.000000e+00 +/- 0.000000e+00) [K]
    Van der Waals (Tail)/kʙ 0.000000e+00 ( 0.000000e+00 +/- 0.000000e+00) [K]
    Coulombic Real/kʙ       0.000000e+00 ( 0.000000e+00 +/- 0.000000e+00) [K]
    Coulombic Fourier/kʙ    0.000000e+00 ( 0.000000e+00 +/- 0.000000e+00) [K]
Molecule-molecule
    Van der Waals/kʙ       -3.781026e+03 (-4.393411e+03 +/- 0.000000e+00) [K]
    Van der Waals (Tail)/kʙ-6.274494e+01 (-8.152080e+01 +/- 0.000000e+00) [K]
    Coulombic Real/kʙ      -2.408068e+03 (-1.447666e+03 +/- 0.000000e+00) [K]
    Coulombic Fourier/kʙ   -3.126344e+01 (-1.359455e+02 +/- 0.000000e+00) [K]
    Molecule Intra/kʙ       0.000000e+00 ( 0.000000e+00 +/- 0.000000e+00) [K]

Current cycle: 800 out of 6000
===============================================================================

Box:      33.72515   0.00000   0.00000  Average:  33.66740   0.00000   0.00000
           0.00000  33.72515   0.00000             0.00000  33.66740   0.00000
           0.00000   0.00000  33.72515             0.00000   0.00000  33.66740
Lengths:  33.72515  33.72515  33.72515  Average:  33.66740  33.66740  33.66740
Angles:   90.00000  90.00000  90.00000  Average:  90.00000  90.00000  90.00000
Rectangular boundary conditions

net charge:   0.00000000

component 0 (CO2) lambda:  0 occupancy:  1 (1.000000)
    net charge:   0.00000000 [e]

Amount of molecules per component :
-------------------------------------------------------------------------------
Component 0 (CO2)
    molecules:      4.300000e+01 molecules  (4.038452e+01 +/- 0.000000e+00)
    number density: 1.121003e-03 molec./A^3 (1.057554e-03 +/- 0.000000e+00)
    density:        8.190237e+01 kg/m^3     (7.726668e+01 +/- 0.000000e+00)

Average pressure tensor: 
-------------------------------------------------------------------------------
 3.4436e+01 -1.4823e-01 -2.7718e+00 +/- 0.0000e+00 0.0000e+00 0.0000e+00 [bar]
-1.4823e-01  3.0239e+01 -1.9308e+00 +/- 0.0000e+00 0.0000e+00 0.0000e+00 [bar]
-2.7718e+00 -1.9308e+00  3.0980e+01 +/- 0.0000e+00 0.0000e+00 0.0000e+00 [bar]
Ideal-gas pressure:   3.942302e+01 +/ 0.000000e+00 [bar]
Excess pressure:     -7.538054e+00 +/ 0.000000e+00 [bar]
Pressure:             3.188496e+01 +/ 0.000000e+00 [bar]

Total potential energy/kʙ  -6.714002e+03 (-6.203119e+03 +/- 0.000000e+00) [K]
-------------------------------------------------------------------------------
ExternalField-molecule
    Van der Waals/kʙ        0.000000e+00 ( 0.000000e+00 +/- 0.000000e+00) [K]
Framework-molecule
    Van der Waals/kʙ        0.000000e+00 ( 0.000000e+00 +/- 0.000000e+00) [K]
    Van der Waals (Tail)/kʙ 0.000000e+00 ( 0.000000e+00 +/- 0.000000e+00) [K]
    Coulombic Real/kʙ       0.000000e+00 ( 0.000000e+00 +/- 0.000000e+00) [K]
    Coulombic Fourier/kʙ    0.000000e+00 ( 0.000000e+00 +/- 0.000000e+00) [K]
Molecule-molecule
    Van der Waals/kʙ       -4.843687e+03 (-4.517184e+03 +/- 0.000000e+00) [K]
    Van der Waals (Tail)/kʙ-8.951819e+01 (-8.265545e+01 +/- 0.000000e+00) [K]
    Coulombic Real/kʙ      -1.635996e+03 (-1.463341e+03 +/- 0.000000e+00) [K]
    Coulombic Fourier/kʙ   -1.448000e+02 (-1.399388e+02 +/- 0.000000e+00) [K]
    Molecule Intra/kʙ       0.000000e+00 ( 0.000000e+00 +/- 0.000000e+00) [K]

Current cycle: 900 out of 6000
===============================================================================

Box:      33.74109   0.00000   0.00000  Average:  33.67619   0.00000   0.00000
           0.00000  33.74109   0.00000             0.00000  33.67619   0.00000
           0.00000   0.00000  33.74109             0.00000   0.00000  33.67619
Lengths:  33.74109  33.74109  33.74109  Average:  33.67619  33.67619  33.67619
Angles:   90.00000  90.00000  90.00000  Average:  90.00000  90.00000  90.00000
Rectangular boundary conditions

net charge:   0.00000000

component 0 (CO2) lambda:  0 occupancy:  1 (1.000000)
    net charge:   0.00000000 [e]

Amount of molecules per component :
-------------------------------------------------------------------------------
Component 0 (CO2)
    molecules:      4.800000e+01 molecules  (4.081465e+01 +/- 0.000000e+00)
    number density: 1.249580e-03 molec./A^3 (1.067974e-03 +/- 0.000000e+00)
    density:        9.129642e+01 kg/m^3     (7.802802e+01 +/- 0.000000e+00)

Average pressure tensor: 
-------------------------------------------------------------------------------
 3.2491e+01 -1.8610e-01 -2.8589e+00 +/- 0.0000e+00 0.0000e+00 0.0000e+00 [bar]
-1.8610e-01  3.0143e+01 -1.6323e+00 +/- 0.0000e+00 0.0000e+00 0.0000e+00 [bar]
-2.8589e+00 -1.6323e+00  3.1244e+01 +/- 0.0000e+00 0.0000e+00 0.0000e+00 [bar]
Ideal-gas pressure:   3.981147e+01 +/ 0.000000e+00 [bar]
Excess pressure:     -8.519059e+00 +/ 0.000000e+00 [bar]
Pressure:             3.129241e+01 +/ 0.000000e+00 [bar]

Total potential energy/kʙ  -1.000048e+04 (-6.352707e+03 +/- 0.000000e+00) [K]
-------------------------------------------------------------------------------
ExternalField-molecule
    Van der Waals/kʙ        0.000000e+00 ( 0.000000e+00 +/- 0.000000e+00) [K]
Framework-molecule
    Van der Waals/kʙ        0.000000e+00 ( 0.000000e+00 +/- 0.000000e+00) [K]
    Van der Waals (Tail)/kʙ 0.000000e+00 ( 0.000000e+00 +/- 0.000000e+00) [K]
    Coulombic Real/kʙ       0.000000e+00 ( 0.000000e+00 +/- 0.000000e+00) [K]
    Coulombic Fourier/kʙ    0.000000e+00 ( 0.000000e+00 +/- 0.000000e+00) [K]
Molecule-molecule
    Van der Waals/kʙ       -5.944434e+03 (-4.624054e+03 +/- 0.000000e+00) [K]
    Van der Waals (Tail)/kʙ-1.113888e+02 (-8.474001e+01 +/- 0.000000e+00) [K]
    Coulombic Real/kʙ      -3.834016e+03 (-1.503670e+03 +/- 0.000000e+00) [K]
    Coulombic Fourier/kʙ   -1.106441e+02 (-1.402429e+02 +/- 0.000000e+00) [K]
    Molecule Intra/kʙ       0.000000e+00 ( 0.000000e+00 +/- 0.000000e+00) [K]

Current cycle: 1000 out of 6000
===============================================================================

Box:      33.65846   0.00000   0.00000  Average:  33.68316   0.00000   0.00000
           0.00000  33.65846   0.00000             0.00000  33.68316   0.00000
           0.00000   0.00000  33.65846             0.00000   0.00000  33.68316
Lengths:  33.65846  33.65846  33.65846  Average:  33.68316  33.68316  33.68316
Angles:   90.00000  90.00000  90.00000  Average:  90.00000  90.00000  90.00000
Rectangular boundary conditions

net charge:   0.00000000

component 0 (CO2) lambda:  0 occupancy:  1 (1.000000)
    net charge:   0.00000000 [e]

Amount of molecules per component :
-------------------------------------------------------------------------------
Component 0 (CO2)
    molecules:      4.500000e+01 molecules  (4.111788e+01 +/- 0.000000e+00)
    number density: 1.180130e-03 molec./A^3 (1.075270e-03 +/- 0.000000e+00)
    density:        8.622229e+01 kg/m^3     (7.856106e+01 +/- 0.000000e+00)

Average pressure tensor: 
-------------------------------------------------------------------------------
 3.2634e+01 -4.0139e-01 -2.1469e+00 +/- 0.0000e+00 0.0000e+00 0.0000e+00 [bar]
-4.0139e-01  3.0567e+01 -1.2109e+00 +/- 0.0000e+00 0.0000e+00 0.0000e+00 [bar]
-2.1469e+00 -1.2109e+00  3.1846e+01 +/- 0.0000e+00 0.0000e+00 0.0000e+00 [bar]
Ideal-gas pressure:   4.008344e+01 +/ 0.000000e+00 [bar]
Excess pressure:     -8.401148e+00 +/ 0.000000e+00 [bar]
Pressure:             3.168229e+01 +/ 0.000000e+00 [bar]

Total potential energy/kʙ  -6.461687e+03 (-6.371046e+03 +/- 0.000000e+00) [K]
-------------------------------------------------------------------------------
ExternalField-molecule
    Van der Waals/kʙ        0.000000e+00 ( 0.000000e+00 +/- 0.000000e+00) [K]
Framework-molecule
    Van der Waals/kʙ        0.000000e+00 ( 0.000000e+00 +/- 0.000000e+00) [K]
    Van der Waals (Tail)/kʙ 0.000000e+00 ( 0.000000e+00 +/- 0.000000e+00) [K]
    Coulombic Real/kʙ       0.000000e+00 ( 0.000000e+00 +/- 0.000000e+00) [K]
    Coulombic Fourier/kʙ    0.000000e+00 ( 0.000000e+00 +/- 0.000000e+00) [K]
Molecule-molecule
    Van der Waals/kʙ       -4.841082e+03 (-4.666131e+03 +/- 0.000000e+00) [K]
    Van der Waals (Tail)/kʙ-9.862306e+01 (-8.598914e+01 +/- 0.000000e+00) [K]
    Coulombic Real/kʙ      -1.286669e+03 (-1.479440e+03 +/- 0.000000e+00) [K]
    Coulombic Fourier/kʙ   -2.353124e+02 (-1.394857e+02 +/- 0.000000e+00) [K]
    Molecule Intra/kʙ       0.000000e+00 ( 0.000000e+00 +/- 0.000000e+00) [K]

Current cycle: 1100 out of 6000
===============================================================================

Box:      33.57676   0.00000   0.00000  Average:  33.67673   0.00000   0.00000
           0.00000  33.57676   0.00000             0.00000  33.67673   0.00000
           0.00000   0.00000  33.57676             0.00000   0.00000  33.67673
Lengths:  33.57676  33.57676  33.57676  Average:  33.67673  33.67673  33.67673
Angles:   90.00000  90.00000  90.00000  Average:  90.00000  90.00000  90.00000
Rectangular boundary conditions

net charge:   0.00000000

component 0 (CO2) lambda:  0 occupancy:  1 (1.000000)
    net charge:   0.00000000 [e]

Amount of molecules per component :
-------------------------------------------------------------------------------
Component 0 (CO2)
    molecules:      3.800000e+01 molecules  (4.102997e+01 +/- 0.000000e+00)
    number density: 1.003846e-03 molec./A^3 (1.073614e-03 +/- 0.000000e+00)
    density:        7.334272e+01 kg/m^3     (7.844006e+01 +/- 0.000000e+00)

Average pressure tensor: 
-------------------------------------------------------------------------------
 3.1831e+01 -5.6494e-01 -2.0760e+00 +/- 0.0000e+00 0.0000e+00 0.0000e+00 [bar]
-5.6494e-01  2.9876e+01 -1.1524e+00 +/- 0.0000e+00 0.0000e+00 0.0000e+00 [bar]
-2.0760e+00 -1.1524e+00  3.0927e+01 +/- 0.0000e+00 0.0000e+00 0.0000e+00 [bar]
Ideal-gas pressure:   4.002170e+01 +/ 0.000000e+00 [bar]
Excess pressure:     -9.143453e+00 +/ 0.000000e+00 [bar]
Pressure:             3.087825e+01 +/ 0.000000e+00 [bar]

Total potential energy/kʙ  -5.187839e+03 (-6.304214e+03 +/- 0.000000e+00) [K]
-------------------------------------------------------------------------------
ExternalField-molecule
    Van der Waals/kʙ        0.000000e+00 ( 0.000000e+00 +/- 0.000000e+00) [K]
Framework-molecule
    Van der Waals/kʙ        0.000000e+00 ( 0.000000e+00 +/- 0.000000e+00) [K]
    Van der Waals (Tail)/kʙ 0.000000e+00 ( 0.000000e+00 +/- 0.000000e+00) [K]
    Coulombic Real/kʙ       0.000000e+00 ( 0.000000e+00 +/- 0.000000e+00) [K]
    Coulombic Fourier/kʙ    0.000000e+00 ( 0.000000e+00 +/- 0.000000e+00) [K]
Molecule-molecule
    Van der Waals/kʙ       -4.431366e+03 (-4.631798e+03 +/- 0.000000e+00) [K]
    Van der Waals (Tail)/kʙ-7.084138e+01 (-8.530114e+01 +/- 0.000000e+00) [K]
    Coulombic Real/kʙ      -6.597254e+02 (-1.447461e+03 +/- 0.000000e+00) [K]
    Coulombic Fourier/kʙ   -2.590579e+01 (-1.396534e+02 +/- 0.000000e+00) [K]
    Molecule Intra/kʙ       0.000000e+00 ( 0.000000e+00 +/- 0.000000e+00) [K]

Current cycle: 1200 out of 6000
===============================================================================

Box:      33.71117   0.00000   0.00000  Average:  33.66761   0.00000   0.00000
           0.00000  33.71117   0.00000             0.00000  33.66761   0.00000
           0.00000   0.00000  33.71117             0.00000   0.00000  33.66761
Lengths:  33.71117  33.71117  33.71117  Average:  33.66761  33.66761  33.66761
Angles:   90.00000  90.00000  90.00000  Average:  90.00000  90.00000  90.00000
Rectangular boundary conditions

net charge:   0.00000000

component 0 (CO2) lambda:  0 occupancy:  1 (1.000000)
    net charge:   0.00000000 [e]

Amount of molecules per component :
-------------------------------------------------------------------------------
Component 0 (CO2)
    molecules:      4.200000e+01 molecules  (4.113405e+01 +/- 0.000000e+00)
    number density: 1.096296e-03 molec./A^3 (1.077297e-03 +/- 0.000000e+00)
    density:        8.009726e+01 kg/m^3     (7.870916e+01 +/- 0.000000e+00)

Average pressure tensor: 
-------------------------------------------------------------------------------
 3.1192e+01 -4.3983e-01 -1.5745e+00 +/- 0.0000e+00 0.0000e+00 0.0000e+00 [bar]
-4.3983e-01  2.9802e+01 -1.1848e+00 +/- 0.0000e+00 0.0000e+00 0.0000e+00 [bar]
-1.5745e+00 -1.1848e+00  3.0818e+01 +/- 0.0000e+00 0.0000e+00 0.0000e+00 [bar]
Ideal-gas pressure:   4.015900e+01 +/ 0.000000e+00 [bar]
Excess pressure:     -9.554862e+00 +/ 0.000000e+00 [bar]
Pressure:             3.060414e+01 +/ 0.000000e+00 [bar]

Total potential energy/kʙ  -8.517647e+03 (-6.431894e+03 +/- 0.000000e+00) [K]
-------------------------------------------------------------------------------
ExternalField-molecule
    Van der Waals/kʙ        0.000000e+00 ( 0.000000e+00 +/- 0.000000e+00) [K]
Framework-molecule
    Van der Waals/kʙ        0.000000e+00 ( 0.000000e+00 +/- 0.000000e+00) [K]
    Van der Waals (Tail)/kʙ 0.000000e+00 ( 0.000000e+00 +/- 0.000000e+00) [K]
    Coulombic Real/kʙ       0.000000e+00 ( 0.000000e+00 +/- 0.000000e+00) [K]
    Coulombic Fourier/kʙ    0.000000e+00 ( 0.000000e+00 +/- 0.000000e+00) [K]
Molecule-molecule
    Van der Waals/kʙ       -6.239939e+03 (-4.728373e+03 +/- 0.000000e+00) [K]
    Van der Waals (Tail)/kʙ-8.550930e+01 (-8.572885e+01 +/- 0.000000e+00) [K]
    Coulombic Real/kʙ      -2.126016e+03 (-1.478018e+03 +/- 0.000000e+00) [K]
    Coulombic Fourier/kʙ   -6.618262e+01 (-1.397752e+02 +/- 0.000000e+00) [K]
    Molecule Intra/kʙ       0.000000e+00 ( 0.000000e+00 +/- 0.000000e+00) [K]

Current cycle: 1300 out of 6000
===============================================================================

Box:      33.24009   0.00000   0.00000  Average:  33.65175   0.00000   0.00000
           0.00000  33.24009   0.00000             0.00000  33.65175   0.00000
           0.00000   0.00000  33.24009             0.00000   0.00000  33.65175
Lengths:  33.24009  33.24009  33.24009  Average:  33.65175  33.65175  33.65175
Angles:   90.00000  90.00000  90.00000  Average:  90.00000  90.00000  90.00000
Rectangular boundary conditions

net charge:   0.00000000

component 0 (CO2) lambda:  0 occupancy:  1 (1.000000)
    net charge:   0.00000000 [e]

Amount of molecules per component :
-------------------------------------------------------------------------------
Component 0 (CO2)
    molecules:      3.300000e+01 molecules  (4.063874e+01 +/- 0.000000e+00)
    number density: 8.985189e-04 molec./A^3 (1.065602e-03 +/- 0.000000e+00)
    density:        6.564733e+01 kg/m^3     (7.785473e+01 +/- 0.000000e+00)

Average pressure tensor: 
-------------------------------------------------------------------------------
 3.1283e+01 -6.2918e-01 -1.2649e+00 +/- 0.0000e+00 0.0000e+00 0.0000e+00 [bar]
-6.2918e-01  2.9919e+01 -9.5782e-01 +/- 0.0000e+00 0.0000e+00 0.0000e+00 [bar]
-1.2649e+00 -9.5782e-01  3.0459e+01 +/- 0.0000e+00 0.0000e+00 0.0000e+00 [bar]
Ideal-gas pressure:   3.972305e+01 +/ 0.000000e+00 [bar]
Excess pressure:     -9.169571e+00 +/ 0.000000e+00 [bar]
Pressure:             3.055348e+01 +/ 0.000000e+00 [bar]

Total potential energy/kʙ  -3.818987e+03 (-6.220897e+03 +/- 0.000000e+00) [K]
-------------------------------------------------------------------------------
ExternalField-molecule
    Van der Waals/kʙ        0.000000e+00 ( 0.000000e+00 +/- 0.000000e+00) [K]
Framework-molecule
    Van der Waals/kʙ        0.000000e+00 ( 0.000000e+00 +/- 0.000000e+00) [K]
    Van der Waals (Tail)/kʙ 0.000000e+00 ( 0.000000e+00 +/- 0.000000e+00) [K]
    Coulombic Real/kʙ       0.000000e+00 ( 0.000000e+00 +/- 0.000000e+00) [K]
    Coulombic Fourier/kʙ    0.000000e+00 ( 0.000000e+00 +/- 0.000000e+00) [K]
Molecule-molecule
    Van der Waals/kʙ       -3.317630e+03 (-4.582227e+03 +/- 0.000000e+00) [K]
    Van der Waals (Tail)/kʙ-5.506522e+01 (-8.346558e+01 +/- 0.000000e+00) [K]
    Coulombic Real/kʙ      -4.364017e+02 (-1.421180e+03 +/- 0.000000e+00) [K]
    Coulombic Fourier/kʙ   -9.890119e+00 (-1.340250e+02 +/- 0.000000e+00) [K]
    Molecule Intra/kʙ       0.000000e+00 ( 0.000000e+00 +/- 0.000000e+00) [K]

Current cycle: 1400 out of 6000
===============================================================================

Box:      33.57603   0.00000   0.00000  Average:  33.62936   0.00000   0.00000
           0.00000  33.57603   0.00000             0.00000  33.62936   0.00000
           0.00000   0.00000  33.57603             0.00000   0.00000  33.62936
Lengths:  33.57603  33.57603  33.57603  Average:  33.62936  33.62936  33.62936
Angles:   90.00000  90.00000  90.00000  Average:  90.00000  90.00000  90.00000
Rectangular boundary conditions

net charge:   0.00000000

component 0 (CO2) lambda:  0 occupancy:  1 (1.000000)
    net charge:   0.00000000 [e]

Amount of molecules per component :
-------------------------------------------------------------------------------
Component 0 (CO2)
    molecules:      4.900000e+01 molecules  (4.037116e+01 +/- 0.000000e+00)
    number density: 1.294517e-03 molec./A^3 (1.060528e-03 +/- 0.000000e+00)
    density:        9.457965e+01 kg/m^3     (7.748397e+01 +/- 0.000000e+00)

Average pressure tensor: 
-------------------------------------------------------------------------------
 3.1473e+01 -7.6795e-01 -1.0772e+00 +/- 0.0000e+00 0.0000e+00 0.0000e+00 [bar]
-7.6795e-01  2.9507e+01 -9.5335e-01 +/- 0.0000e+00 0.0000e+00 0.0000e+00 [bar]
-1.0772e+00 -9.5335e-01  3.0432e+01 +/- 0.0000e+00 0.0000e+00 0.0000e+00 [bar]
Ideal-gas pressure:   3.953388e+01 +/ 0.000000e+00 [bar]
Excess pressure:     -9.063224e+00 +/ 0.000000e+00 [bar]
Pressure:             3.047066e+01 +/ 0.000000e+00 [bar]

Total potential energy/kʙ  -8.267687e+03 (-6.142074e+03 +/- 0.000000e+00) [K]
-------------------------------------------------------------------------------
ExternalField-molecule
    Van der Waals/kʙ        0.000000e+00 ( 0.000000e+00 +/- 0.000000e+00) [K]
Framework-molecule
    Van der Waals/kʙ        0.000000e+00 ( 0.000000e+00 +/- 0.000000e+00) [K]
    Van der Waals (Tail)/kʙ 0.000000e+00 ( 0.000000e+00 +/- 0.000000e+00) [K]
    Coulombic Real/kʙ       0.000000e+00 ( 0.000000e+00 +/- 0.000000e+00) [K]
    Coulombic Fourier/kʙ    0.000000e+00 ( 0.000000e+00 +/- 0.000000e+00) [K]
Molecule-molecule
    Van der Waals/kʙ       -6.207707e+03 (-4.533380e+03 +/- 0.000000e+00) [K]
    Van der Waals (Tail)/kʙ-1.177986e+02 (-8.309819e+01 +/- 0.000000e+00) [K]
    Coulombic Real/kʙ      -1.676692e+03 (-1.392021e+03 +/- 0.000000e+00) [K]
    Coulombic Fourier/kʙ   -2.654886e+02 (-1.335749e+02 +/- 0.000000e+00) [K]
    Molecule Intra/kʙ       0.000000e+00 ( 0.000000e+00 +/- 0.000000e+00) [K]

Current cycle: 1500 out of 6000
===============================================================================

Box:      33.60772   0.00000   0.00000  Average:  33.62714   0.00000   0.00000
           0.00000  33.60772   0.00000             0.00000  33.62714   0.00000
           0.00000   0.00000  33.60772             0.00000   0.00000  33.62714
[...]
    number density: 8.738437e-04 molec./A^3 (1.066985e-03 +/- 2.917576e-05)
    density:        6.384452e+01 kg/m^3     (7.795578e+01 +/- 2.131631e+00)

Average pressure tensor: 
-------------------------------------------------------------------------------
 3.1097e+01  4.8965e-01 -9.9093e-04 +/- 1.9434e+00 1.2601e+00 1.2342e+00 [bar]
 4.8965e-01  3.0762e+01 -2.4926e-01 +/- 1.2601e+00 1.1459e+00 1.5745e+00 [bar]
-9.9093e-04 -2.4926e-01  2.9870e+01 +/- 1.2342e+00 1.5745e+00 2.1083e+00 [bar]
Ideal-gas pressure:   3.977461e+01 +/ 1.087601e+00 [bar]
Excess pressure:     -9.198384e+00 +/ 9.642219e-01 [bar]
Pressure:             3.057623e+01 +/ 7.175423e-01 [bar]

Total potential energy/kʙ  -3.012139e+03 (-6.139647e+03 +/- 4.064732e+02) [K]
-------------------------------------------------------------------------------
ExternalField-molecule
    Van der Waals/kʙ        0.000000e+00 ( 0.000000e+00 +/- 0.000000e+00) [K]
Framework-molecule
    Van der Waals/kʙ        0.000000e+00 ( 0.000000e+00 +/- 0.000000e+00) [K]
    Van der Waals (Tail)/kʙ 0.000000e+00 ( 0.000000e+00 +/- 0.000000e+00) [K]
    Coulombic Real/kʙ       0.000000e+00 ( 0.000000e+00 +/- 0.000000e+00) [K]
    Coulombic Fourier/kʙ    0.000000e+00 ( 0.000000e+00 +/- 0.000000e+00) [K]
Molecule-molecule
    Van der Waals/kʙ       -2.195904e+03 (-4.520560e+03 +/- 3.121636e+02) [K]
    Van der Waals (Tail)/kʙ-5.355302e+01 (-8.315286e+01 +/- 5.709653e+00) [K]
    Coulombic Real/kʙ      -5.460427e+02 (-1.409379e+03 +/- 9.408712e+01) [K]
    Coulombic Fourier/kʙ   -2.166393e+02 (-1.265543e+02 +/- 1.248103e+01) [K]
    Molecule Intra/kʙ       0.000000e+00 ( 0.000000e+00 +/- 0.000000e+00) [K]

Current cycle: 5800 out of 6000
===============================================================================

Box:      33.42447   0.00000   0.00000  Average:  33.57127   0.00000   0.00000
           0.00000  33.42447   0.00000             0.00000  33.57127   0.00000
           0.00000   0.00000  33.42447             0.00000   0.00000  33.57127
Lengths:  33.42447  33.42447  33.42447  Average:  33.57127  33.57127  33.57127
Angles:   90.00000  90.00000  90.00000  Average:  90.00000  90.00000  90.00000
Rectangular boundary conditions

net charge:   0.00000000

component 0 (CO2) lambda:  0 occupancy:  1 (1.000000)
    net charge:   0.00000000 [e]

Amount of molecules per component :
-------------------------------------------------------------------------------
Component 0 (CO2)
    molecules:      4.100000e+01 molecules  (4.041924e+01 +/- 1.213402e+00)
    number density: 1.097970e-03 molec./A^3 (1.066639e-03 +/- 2.639033e-05)
    density:        8.021956e+01 kg/m^3     (7.793045e+01 +/- 1.928123e+00)

Average pressure tensor: 
-------------------------------------------------------------------------------
 3.0997e+01  4.9993e-01 -1.1640e-01 +/- 2.0970e+00 1.2093e+00 1.0939e+00 [bar]
 4.9993e-01  3.0782e+01 -2.5198e-01 +/- 1.2093e+00 1.1563e+00 1.5553e+00 [bar]
-1.1640e-01 -2.5198e-01  2.9846e+01 +/- 1.0939e+00 1.5553e+00 1.9534e+00 [bar]
Ideal-gas pressure:   3.976169e+01 +/ 9.837673e-01 [bar]
Excess pressure:     -9.219947e+00 +/ 9.656817e-01 [bar]
Pressure:             3.054174e+01 +/ 7.009546e-01 [bar]

Total potential energy/kʙ  -7.281623e+03 (-6.138267e+03 +/- 3.958140e+02) [K]
-------------------------------------------------------------------------------
ExternalField-molecule
    Van der Waals/kʙ        0.000000e+00 ( 0.000000e+00 +/- 0.000000e+00) [K]
Framework-molecule
    Van der Waals/kʙ        0.000000e+00 ( 0.000000e+00 +/- 0.000000e+00) [K]
    Van der Waals (Tail)/kʙ 0.000000e+00 ( 0.000000e+00 +/- 0.000000e+00) [K]
    Coulombic Real/kʙ       0.000000e+00 ( 0.000000e+00 +/- 0.000000e+00) [K]
    Coulombic Fourier/kʙ    0.000000e+00 ( 0.000000e+00 +/- 0.000000e+00) [K]
Molecule-molecule
    Van der Waals/kʙ       -5.665503e+03 (-4.520372e+03 +/- 3.020582e+02) [K]
    Van der Waals (Tail)/kʙ-8.360081e+01 (-8.309770e+01 +/- 5.317386e+00) [K]
    Coulombic Real/kʙ      -1.388138e+03 (-1.408788e+03 +/- 9.396289e+01) [K]
    Coulombic Fourier/kʙ   -1.443814e+02 (-1.260096e+02 +/- 1.201222e+01) [K]
    Molecule Intra/kʙ       0.000000e+00 ( 0.000000e+00 +/- 0.000000e+00) [K]

Current cycle: 5900 out of 6000
===============================================================================

Box:      33.59450   0.00000   0.00000  Average:  33.57079   0.00000   0.00000
           0.00000  33.59450   0.00000             0.00000  33.57079   0.00000
           0.00000   0.00000  33.59450             0.00000   0.00000  33.57079
Lengths:  33.59450  33.59450  33.59450  Average:  33.57079  33.57079  33.57079
Angles:   90.00000  90.00000  90.00000  Average:  90.00000  90.00000  90.00000
Rectangular boundary conditions

net charge:   0.00000000

component 0 (CO2) lambda:  0 occupancy:  1 (1.000000)
    net charge:   0.00000000 [e]

Amount of molecules per component :
-------------------------------------------------------------------------------
Component 0 (CO2)
    molecules:      4.000000e+01 molecules  (4.043942e+01 +/- 1.206283e+00)
    number density: 1.055008e-03 molec./A^3 (1.067252e-03 +/- 2.651609e-05)
    density:        7.708066e+01 kg/m^3     (7.797526e+01 +/- 1.937311e+00)

Average pressure tensor: 
-------------------------------------------------------------------------------
 3.0865e+01  5.2435e-01 -2.2337e-01 +/- 2.3193e+00 1.2050e+00 1.0918e+00 [bar]
 5.2435e-01  3.0715e+01 -3.3891e-01 +/- 1.2050e+00 1.0713e+00 1.4869e+00 [bar]
-2.2337e-01 -3.3891e-01  2.9739e+01 +/- 1.0918e+00 1.4869e+00 1.6864e+00 [bar]
Ideal-gas pressure:   3.978455e+01 +/ 9.884551e-01 [bar]
Excess pressure:     -9.345059e+00 +/ 1.232158e+00 [bar]
Pressure:             3.043949e+01 +/ 7.523229e-01 [bar]

Total potential energy/kʙ  -3.752822e+03 (-6.147715e+03 +/- 4.024963e+02) [K]
-------------------------------------------------------------------------------
ExternalField-molecule
    Van der Waals/kʙ        0.000000e+00 ( 0.000000e+00 +/- 0.000000e+00) [K]
Framework-molecule
    Van der Waals/kʙ        0.000000e+00 ( 0.000000e+00 +/- 0.000000e+00) [K]
    Van der Waals (Tail)/kʙ 0.000000e+00 ( 0.000000e+00 +/- 0.000000e+00) [K]
    Coulombic Real/kʙ       0.000000e+00 ( 0.000000e+00 +/- 0.000000e+00) [K]
    Coulombic Fourier/kʙ    0.000000e+00 ( 0.000000e+00 +/- 0.000000e+00) [K]
Molecule-molecule
    Van der Waals/kʙ       -3.700322e+03 (-4.528432e+03 +/- 3.082978e+02) [K]
    Van der Waals (Tail)/kʙ-7.837035e+01 (-8.328113e+01 +/- 5.502349e+00) [K]
    Coulombic Real/kʙ       2.298048e+01 (-1.410477e+03 +/- 9.426336e+01) [K]
    Coulombic Fourier/kʙ    2.889531e+00 (-1.255249e+02 +/- 1.188715e+01) [K]
    Molecule Intra/kʙ       0.000000e+00 ( 0.000000e+00 +/- 0.000000e+00) [K]


Energy statistics             |  Energy [K]   | Recomputed [K]|  Drift [K]    |
===============================================================================
Total potential energy/kʙ     | -8.741162e+03 | -8.741162e+03 |  5.443548e-10 |
    external field VDW/kʙ     |  0.000000e+00 |  0.000000e+00 |  0.000000e+00 |
    external field Real/kʙ    |  0.000000e+00 |  0.000000e+00 |  0.000000e+00 |
    framework-molecule VDW/kʙ |  0.000000e+00 |  0.000000e+00 |  0.000000e+00 |
    framework-molecule Real/kʙ|  0.000000e+00 |  0.000000e+00 |  0.000000e+00 |
    molecule-molecule VDW/kʙ  | -6.123855e+03 | -6.123855e+03 | -1.422033e-11 |
    molecule-molecule Real/kʙ | -2.438681e+03 | -2.438681e+03 | -1.367339e-12 |
    Van der Waals (Tail)/kʙ   | -8.757200e+01 | -8.757200e+01 | -9.400457e-13 |
    Ewald Fourier/kʙ          |  2.378783e+03 |  2.378783e+03 |  8.204035e-13 |
    Ewald self/kʙ             | -7.714048e+05 | -7.714048e+05 |  0.000000e+00 |
    Ewald exclusion/kʙ        |  7.689350e+05 |  7.689350e+05 |  5.600621e-10 |
    intra VDW/kʙ              |  0.000000e+00 |  0.000000e+00 |  0.000000e+00 |
    intra Coulombic/kʙ        |  0.000000e+00 |  0.000000e+00 |  0.000000e+00 |
    polarization/kʙ           |  0.000000e+00 |  0.000000e+00 |  0.000000e+00 |
    dU/dlambda VDW/kʙ         |  0.000000e+00 |  0.000000e+00 |  0.000000e+00 |
    dU/dlambda Real/kʙ        |  0.000000e+00 |  0.000000e+00 |  0.000000e+00 |
    dU/dlambda Ewald/kʙ       |  0.000000e+00 |  0.000000e+00 |  0.000000e+00 |
-------------------------------------------------------------------------------


Monte-Carlo moves statistics
===============================================================================

    Gibbs volume         all:                3012
    Gibbs volume         total:              5942
    Gibbs volume         constructed:        5942
    Gibbs volume         accepted:           2184
    Gibbs volume         fraction:       0.367553
    Gibbs volume         max-change:     0.046111

Component 0 [CO2]
    Reinsertion (CBMC)   all:              148870
    Reinsertion (CBMC)   total:            148870
    Reinsertion (CBMC)   constructed:      148870
    Reinsertion (CBMC)   accepted:          96158
    Reinsertion (CBMC)   fraction:       0.645919
    Reinsertion (CBMC)   max-change:     0.000000

    Gibbs swap (CBMC)    all:              298929
    Gibbs swap (CBMC)    total:            597323
    Gibbs swap (CBMC)    constructed:      585919
    Gibbs swap (CBMC)    accepted:          83365
    Gibbs swap (CBMC)    fraction:       0.139564
    Gibbs swap (CBMC)    max-change:     0.000000

    Translation          all:              149588
    Translation          total:             49824      50057      49707
    Translation          constructed:       49719      49945      49601
    Translation          accepted:          40881      40832      40359
    Translation          fraction:       0.820508   0.815710   0.811938
    Translation          max-change:     1.500000   1.500000   1.500000

    Rotation             all:              149997
    Rotation             total:             50142      49823      50032
    Rotation             constructed:       50113      49805      50008
    Rotation             accepted:          40703      40743      40594
    Rotation             fraction:       0.811755   0.817755   0.811361
    Rotation             max-change:     1.500000   1.500000   1.500000



Production run counting of the MC moves summed over systems and components
===============================================================================

Reinsertion (CBMC)                   298571 (19.9047 [%])
Gibbs volume                           5942 (0.3961 [%])
Gibbs swap (CBMC)                    597323 (39.8215 [%])
Translation                          298735 (19.9157 [%])
Rotation                             299429 (19.9619 [%])

Production count MC-steps:          1500000 [-]
               All summed:          1500000 [-]
               difference:                0 [-]


Production run CPU timings of the MC moves
===============================================================================

Component 0 CO2

Rotation                              7.488855 [s]
    Ewald                             5.249929 [s]
    ExternalField-Molecule            0.007936 [s]
    Framework-Molecule                0.008517 [s]
    Molecule-Molecule                 1.672385 [s]
    Overhead                          0.550088 [s]

Reinsertion (CBMC)                   22.956536 [s]
    Ewald                             5.310824 [s]
    NonEwald                         17.226271 [s]
    Overhead                          0.419441 [s]

Translation                           7.454557 [s]
    Ewald                             5.226602 [s]
    ExternalField-Molecule            0.007792 [s]
    Framework-Molecule                0.012861 [s]
    Molecule-Molecule                 1.675864 [s]
    Overhead                          0.531438 [s]



Gibbs swap (CBMC)                   182.565454 [s]
    Ewald                            16.982349 [s]
    NonEwald                        163.093107 [s]
    Tail                              1.698974 [s]

Gibbs volume                         23.791562 [s]
    Ewald                             5.361778 [s]
    NonEwald                         17.586517 [s]
    Tail                              0.712072 [s]

Property sampling                     0.308670 [s]
Energy/pressure sampling:             0.834801 [s]


Production run CPU timings of the MC moves summed over systems and components
===============================================================================


Translation                          28.455474 [s]
    Ewald                            10.459718 [s]
    ExternalField-Molecule            0.015718 [s]
    Framework-Molecule                0.025467 [s]
    Molecule-Molecule                17.034744 [s]
    Overhead                          0.919827 [s]

Rotation                             28.476397 [s]
    Ewald                            10.496328 [s]
    ExternalField-Molecule            0.015750 [s]
    Framework-Molecule                0.017184 [s]
    Molecule-Molecule                16.915543 [s]
    Overhead                          1.031592 [s]

Reinsertion (CBMC)                  143.186540 [s]
    Ewald                            10.551859 [s]
    NonEwald                        132.048349 [s]
    Overhead                          0.586332 [s]

Gibbs volume                         47.165396 [s]
    Ewald                            10.728552 [s]
    NonEwald                         34.730598 [s]
    Tail                              1.444715 [s]
    Overhead                          0.261531 [s]

Gibbs swap (CBMC)                   352.389043 [s]
    Ewald                            33.317759 [s]
    NonEwald                        314.589808 [s]
    Tail                              2.966623 [s]
    Overhead                          1.514853 [s]

Property sampling:                    0.629225 [s]
Energy/pressure sampling:             9.558272 [s]

Production simulation time:         610.886678 [s]
                All summed:         609.860347 [s]
                  Overhead:           1.026331 [s]


Initalization simulation time:      192.038915 [s]
Equilibration simulation time:        0.000000 [s]
Production simulation time:         610.886678 [s]
Total simulation time:              802.925593 [s]


Energy averages and statistics:
===============================================================================

Framework-molecule energy:
-------------------------------------------------------------------------------



Framework-molecule energy contributions per energy type:
-------------------------------------------------------------------------------



Inter-molecular energy:
-------------------------------------------------------------------------------

    Inter-molecular energy/kʙ 0-0 [CO2-CO2]:
    ---------------------------------------------------------------------------
        Block[  0] -6.414513e+03
        Block[  1] -6.293556e+03
        Block[  2] -5.723225e+03
        Block[  3] -5.893104e+03
        Block[  4] -6.350450e+03
        -----------------------------------------------------------------------
        Average  -6.134970e+03 +/-  3.815150e+02 [K]



Inter-molecular energy contributions per energy type:
-------------------------------------------------------------------------------

    Van der Waals energy/kʙ 0-0 [CO2-CO2]:
    ---------------------------------------------------------------------------
        Block[  0] -4.715776e+03
        Block[  1] -4.601352e+03
        Block[  2] -4.231567e+03
        Block[  3] -4.315478e+03
        Block[  4] -4.725487e+03
        -----------------------------------------------------------------------
        Average  -4.517932e+03 +/-  2.859231e+02 [K]

    VDW Tail-Correction energy/kʙ 0-0 [CO2-CO2]:
    ---------------------------------------------------------------------------
        Block[  0] -8.573068e+01
        Block[  1] -8.379105e+01
        Block[  2] -7.773665e+01
        Block[  3] -8.048978e+01
        Block[  4] -8.735619e+01
        -----------------------------------------------------------------------
        Average  -8.302087e+01 +/-  4.850483e+00 [K]

    Coulomb Real energy/kʙ 0-0 [CO2-CO2]:
    ---------------------------------------------------------------------------
        Block[  0] -1.472618e+03
        Block[  1] -1.484653e+03
        Block[  2] -1.300247e+03
        Block[  3] -1.373091e+03
        Block[  4] -1.412275e+03
        -----------------------------------------------------------------------
        Average  -1.408577e+03 +/-  9.392763e+01 [K]

    Coulomb Fourier energy/kʙ 0-0 [CO2-CO2]:
    ---------------------------------------------------------------------------
        Block[  0] -1.403884e+02
        Block[  1] -1.237602e+02
        Block[  2] -1.136744e+02
        Block[  3] -1.240441e+02
        Block[  4] -1.253323e+02
        -----------------------------------------------------------------------
        Average  -1.254399e+02 +/-  1.188614e+01 [K]


Total energy/kʙ
-------------------------------------------------------------------------------
    Block[  0] -6.414513e+03
    Block[  1] -6.293556e+03
    Block[  2] -5.723225e+03
    Block[  3] -5.893104e+03
    Block[  4] -6.350450e+03
    ---------------------------------------------------------------------------
    Average  -6.134970e+03 +/-  3.815150e+02 [K]

Pressure averages and statistics:
===============================================================================

Average pressure tensor: 
-------------------------------------------------------------------------------
 3.1000e+01  4.6093e-01 -2.2244e-01 +/- 1.8865e+00 1.0096e+00 1.0899e+00 [bar]
 4.6093e-01  3.0768e+01 -2.9124e-01 +/- 1.0096e+00 1.1117e+00 1.5076e+00 [bar]
-2.2244e-01 -2.9124e-01  2.9715e+01 +/- 1.0899e+00 1.5076e+00 1.6180e+00 [bar]

    Block[  0]  4.015841e+06
    Block[  1]  3.969036e+06
    Block[  2]  3.912152e+06
    Block[  3]  3.906877e+06
    Block[  4]  4.068658e+06
    ---------------------------------------------------------------------------
    Ideal gas pressure   3.974513e+06 +/-  5.161443e-03 [Pa]
                         3.974513e+01 +/-  8.570783e-01 [bar]


    Block[  0] -9.545489e+05
    Block[  1] -8.267603e+05
    Block[  2] -9.078487e+05
    Block[  3] -9.019963e+05
    Block[  4] -1.034298e+06
    ---------------------------------------------------------------------------
    Excess pressure  -9.250905e+05 +/-  9.473765e+04 [Pa]
                     -9.250905e+00 +/-  9.473765e-01 [bar]


    Block[  0]  3.061292e+06
    Block[  1]  3.142275e+06
    Block[  2]  3.004303e+06
    Block[  3]  3.004881e+06
    Block[  4]  3.034360e+06
    ---------------------------------------------------------------------------
    Pressure average   3.049422e+06 +/-  7.079922e+04 [Pa]
                       3.049422e+01 +/-  7.079922e-01 [bar]


Enthalpy of adsorption
===============================================================================

Component 0 [CO2]
-------------------------------------------------------------------------------
    Block[  0] -5.762305e+02
    Block[  1] -5.885144e+02
    Block[  2] -5.505980e+02
    Block[  3] -5.632011e+02
    Block[  4] -5.751876e+02
    ---------------------------------------------------------------------------
    Enthalpy of adsorption: -5.707463e+02 +/-  1.786577e+01 [K]
                            -4.745450e+00 +/-  1.485443e-01 [kJ/mol]
    Warning: need to subtract the ideal-gas energy.


Densities
===============================================================================

Component 0 (CO2)
    Block[  0] 41.13333333333333
    Block[  1] 40.27333333333333
    Block[  2] 39.715
    Block[  3] 39.43083333333334
    Block[  4] 41.4375
    -----------------------------------------------------------------------
    Density average   4.039800e+01 +/-  1.082056e+00 [molecules]
    Density average   1.066195e-03 +/-  2.299180e-05 [molec/A^3]
    Density average   7.789800e+01 +/-  1.679820e+00 [kg.m⁻³]

