Compiler and run-time data
===============================================================================
RASPA 3.0.4

Random seed: 2662420761

Compiled as a 64-bits application
Compiler: gcc Ubuntu Clang 18.1.3 (1ubuntu1)
Compile Date = Mar 15 2025, Compile Time = 19:39:45

2025-06-02 13:11:29.164461
Simulation started on Mon, Jun 02
The start time was 13:11:00

Hostname:    c060
OS type:     Linux on x86_64
OS release:  6.8.0-58-generic
OS version:  #60-Ubuntu SMP PREEMPT_DYNAMIC Fri Mar 14 18:29:48 UTC 2025


Mutual consistent basic set of units:
===============================================================================

Unit of temperature: 1 [K]
Unit of length:      1e-10 [m]
Unit of time:        1e-12 [s]
Unit of mass:        1.6605402e-27 [kg]
Unit of charge:      1.60217733e-19 [C/particle]


Boltzmann constant (internal units):          0.8314464919307584 [-]
represents conversion from energy (internal units) to temperature (in Kelvin)

Derived units and their conversion factors:
===============================================================================

Unit of energy:                           1.6605402000000002e-23 [J]
Unit of energy:                           10.000008872307538 [J.mol⁻¹]
Unit of velocity:                         100 [m.s⁻¹]
Unit of force:                            1.6605402000000002e-13 [N]
Unit of diffusion:                        1.0000000000000002e-08 [m².s⁻¹]
Unit of acceleration:                     1.0000000000000002e-08 [m².s⁻¹]
Unit of torque:                           1.6605402000000002e-23 [N.m]
Unit of pressure:                         16605402 [Pa]
Unit of volume:                           1e-30 [m³]
Unit of density:                          1660.5402 [kg.m⁻³]
Unit of dynamic viscosity:                1.6605401999999997e-05 [N.s.m⁻²]
Unit of enthalpy:                         1.6605402000000002e-23 [J]
Unit of polarizability:                   1.5458657349975198e-35 [-]
Unit of Coulomb potential:                167101.08000665612 [K]
Unit of dielectric constant:              1.5458657349975193e-05 [s².C².kg⁻¹.m⁻³]
Unit of dipole moment:                    1.60217733e-29 [C.m]
Unit of Debye:                            4.803206799099162 [C.m]
Unit of electric potential:               0.00010364272224473431 [V]
Unit of electric field:                   1036427.222447343 [V.m⁻¹]
Unit of isothermal compressibility:       6.02213665167516e-08 [Pa⁻¹]
Unit of heat capacity:                    10.000008872307538 [J.mol⁻¹.K⁻¹]
Unit of volumetric expansion coefficient: 1 [K⁻¹]


Internal conversion factors:
===============================================================================

Energy (internal units) to Kelvin:      1.202724284692786 [-]
Kelvin to energy (internal units):      0.8314457542157567 [-]


System definitions
===============================================================================

Temperature:          250 [K]
Beta:                 0.0048108928702210625 [-]
Pressure:             6e+06 [Pa]
Helium void fraction: 1 [-]

Box:      30.00000   0.00000   0.00000
           0.00000  30.00000   0.00000
           0.00000   0.00000  30.00000
Lengths:  30.00000  30.00000  30.00000
Angles:   90.00000  90.00000  90.00000
Rectangular boundary conditions



Property measurement settings
===============================================================================




Pseudo-atoms
===============================================================================

  0 - C_co2    framework-atom: false
  1 - O_co2    framework-atom: false

  0 - C_co2    mass: 12.00000, charge:  0.70000
  1 - O_co2    mass: 15.99940, charge: -0.35000

  0 - C_co2    polarizability:  0.00000
  1 - O_co2    polarizability:  0.00000

  0 - J. J. Potoff et al., AIChE J. 2001, 47, 1676–1682.
  1 - J. J. Potoff et al., AIChE J. 2001, 47, 1676–1682.

Force field status
===============================================================================

Cutoff Framework-Molecule VDW:  11.00000 [Å]
Cutoff Molecule-Molecule VDW:   11.00000 [Å]
Cutoff Coulomb:                 11.00000 [Å]

Overlap-criteria VDW:           1.000000e+05 [K]

C_co2    - C_co2    Lennard-Jones p₀/kʙ:  27.00000 [K], p₁:  2.80000 [Å]
                                  shift:   0.00000 [K], tailcorrections: true
C_co2    - O_co2    Lennard-Jones p₀/kʙ:  46.18441 [K], p₁:  2.92500 [Å]
                                  shift:   0.00000 [K], tailcorrections: true
O_co2    - O_co2    Lennard-Jones p₀/kʙ:  79.00000 [K], p₁:  3.05000 [Å]
                                  shift:   0.00000 [K], tailcorrections: true

Ewald precision: 1e-06
Ewald alpha: 0.2903408740940883
Ewald k-vectors: 9 9 9


Component definitions
===============================================================================

Component 0 [CO2]

    Type: Adsorbate

    Critical temperature:  304.1282 [K]
    Critical pressure:     7377300 [Pa]
    Acentric factor:       0.22394 [-]

    Mol-fraction:                 1 [-]
    Swappable:                   false

    Mass:                         43.9988 [-]
    Bulk fluid density:           0 [-]
    Compressibility:              0 [-]
    Excess molecules:             0 [-]

    Number Of Atoms:    3
    CBMC starting bead: 0
      0: O_co2  position  0.00000 -0.00000  1.16000, charge -0.35000
      1: C_co2  position  0.00000 -0.00000  0.00000, charge  0.70000
      2: O_co2  position  0.00000 -0.00000 -1.16000, charge -0.35000
    Diagonalized inertia-vector:      43.05758528 43.05758528 0.00000000
    Translational degrees of freedom: 3
    Rotational degrees of freedom:    2
    Shape of the molecule is: 'Linear'
    Net-charge:        0.00000000 [e]

    Move probabilities:
    Translation:                   0.331126 [-]
    Random translation:            0.000000 [-]
    Rotation:                      0.331126 [-]
    Random rotation:               0.000000 [-]
    Volume change:                 0.006623 [-]
    Reinsertion (CBMC):            0.331126 [-]
    Identity change (CBMC):        0.000000 [-]
    Swap:                          0.000000 [-]
    Swap (CBMC):                   0.000000 [-]
    Swap (CFCMC):                  0.000000 [-]
    Swap (CB/CFCMC):               0.000000 [-]
    Gibbs volume:                  0.000000 [-]
    Gibbs swap (CBMC):             0.000000 [-]
    Gibbs swap (CFCMC):            0.000000 [-]
    Widom:                         0.000000 [-]
    Widom (CFCMC):                 0.000000 [-]
    Widom (CB/CFCMC):              0.000000 [-]
    Parallel tempering:            0.000000 [-]
    Hybrid MC:                     0.000000 [-]

    number of blocking-pockets: 0

    number of bonds: 0





Number of pseudo-atoms
===============================================================================

Component   0 (CO2)
-------------------------------------------------------------------------------
    index   0 (C_co2): 250 atoms
    index   1 (O_co2): 500 atoms

Total number of pseudo-atoms:
-------------------------------------------------------------------------------
    index   0 (C_co2): 250 atoms
    index   1 (O_co2): 500 atoms




Energy status Recomputed from scratch
===============================================================================

Total potential energy/kʙ       -1.401057e+05 [K]
    external field VDW/kʙ        0.000000e+00 [K]
    external field Real/kʙ       0.000000e+00 [K]
    framework-molecule VDW/kʙ    0.000000e+00 [K]
    framework-molecule Real/kʙ   0.000000e+00 [K]
    molecule-molecule VDW/kʙ    -1.080488e+05 [K]
    molecule-molecule Real/kʙ   -2.354709e+04 [K]
    Van der Waals (Tail)/kʙ     -5.580763e+03 [K]
    Ewald Fourier/kʙ             1.976235e+04 [K]
    Ewald self/kʙ               -5.029674e+06 [K]
    Ewald exclusion/kʙ           5.006983e+06 [K]
    intra VDW/kʙ                 0.000000e+00 [K]
    intra Coulombic/kʙ           0.000000e+00 [K]
    polarization/kʙ              0.000000e+00 [K]
    dU/dlambda VDW/kʙ            0.000000e+00 [K]
    dU/dlambda Real/kʙ           0.000000e+00 [K]
    dU/dlambda Ewald/kʙ          0.000000e+00 [K]





Initialization: Current cycle: 0 out of 1000
===============================================================================

Box:      30.00000   0.00000   0.00000
           0.00000  30.00000   0.00000
           0.00000   0.00000  30.00000
Lengths:  30.00000  30.00000  30.00000
Angles:   90.00000  90.00000  90.00000
Rectangular boundary conditions

net charge:   0.00000000

component   0 (CO2) lambda:  0 occupancy:  1 (1.000000)
    net charge:   0.00000000 [e]

Amount of molecules per component :
-------------------------------------------------------------------------------
Component 0 (CO2)
    molecules:         2.500000e+02 molecules
    number density:    9.259259e-03 molec/A^3
    density:           6.764973e+02 kg/m^3

Total potential energy/kʙ       -1.965422e+05 [K]
-------------------------------------------------------------------------------
    external field VDW/kʙ        0.000000e+00 [K]
    external field Real/kʙ       0.000000e+00 [K]
    framework-molecule VDW/kʙ    0.000000e+00 [K]
    framework-molecule Real/kʙ   0.000000e+00 [K]
    molecule-molecule VDW/kʙ    -1.578877e+05 [K]
    molecule-molecule Real/kʙ   -2.867167e+04 [K]
    Van der Waals (Tail)/kʙ     -5.580763e+03 [K]
    Ewald Fourier/kʙ             1.828927e+04 [K]
    Ewald self/kʙ               -5.029674e+06 [K]
    Ewald exclusion/kʙ           5.006983e+06 [K]
    intra VDW/kʙ                 0.000000e+00 [K]
    intra Coulombic/kʙ           0.000000e+00 [K]
    polarization/kʙ              0.000000e+00 [K]
    dU/dlambda VDW/kʙ            0.000000e+00 [K]
    dU/dlambda Real/kʙ           0.000000e+00 [K]
    dU/dlambda Ewald/kʙ          0.000000e+00 [K]


Initialization: Current cycle: 100 out of 1000
===============================================================================

Box:      28.26574   0.00000   0.00000
           0.00000  28.26574   0.00000
           0.00000   0.00000  28.26574
Lengths:  28.26574  28.26574  28.26574
Angles:   90.00000  90.00000  90.00000
Rectangular boundary conditions

net charge:   0.00000000

component   0 (CO2) lambda:  0 occupancy:  1 (1.000000)
    net charge:   0.00000000 [e]

Amount of molecules per component :
-------------------------------------------------------------------------------
Component 0 (CO2)
    molecules:         2.500000e+02 molecules
    number density:    1.107029e-02 molec/A^3
    density:           8.088144e+02 kg/m^3

Total potential energy/kʙ       -3.160997e+05 [K]
-------------------------------------------------------------------------------
    external field VDW/kʙ        0.000000e+00 [K]
    external field Real/kʙ       0.000000e+00 [K]
    framework-molecule VDW/kʙ    0.000000e+00 [K]
    framework-molecule Real/kʙ   0.000000e+00 [K]
    molecule-molecule VDW/kʙ    -2.258211e+05 [K]
    molecule-molecule Real/kʙ   -7.193359e+04 [K]
    Van der Waals (Tail)/kʙ     -6.672312e+03 [K]
    Ewald Fourier/kʙ             1.101868e+04 [K]
    Ewald self/kʙ               -5.029674e+06 [K]
    Ewald exclusion/kʙ           5.006983e+06 [K]
    intra VDW/kʙ                 0.000000e+00 [K]
    intra Coulombic/kʙ           0.000000e+00 [K]
    polarization/kʙ              0.000000e+00 [K]
    dU/dlambda VDW/kʙ            0.000000e+00 [K]
    dU/dlambda Real/kʙ           0.000000e+00 [K]
    dU/dlambda Ewald/kʙ          0.000000e+00 [K]


Initialization: Current cycle: 200 out of 1000
===============================================================================

Box:      26.95766   0.00000   0.00000
           0.00000  26.95766   0.00000
           0.00000   0.00000  26.95766
Lengths:  26.95766  26.95766  26.95766
Angles:   90.00000  90.00000  90.00000
Rectangular boundary conditions

net charge:   0.00000000

component   0 (CO2) lambda:  0 occupancy:  1 (1.000000)
    net charge:   0.00000000 [e]

Amount of molecules per component :
-------------------------------------------------------------------------------
Component 0 (CO2)
    molecules:         2.500000e+02 molecules
    number density:    1.276125e-02 molec/A^3
    density:           9.323590e+02 kg/m^3

Total potential energy/kʙ       -3.252354e+05 [K]
-------------------------------------------------------------------------------
    external field VDW/kʙ        0.000000e+00 [K]
    external field Real/kʙ       0.000000e+00 [K]
    framework-molecule VDW/kʙ    0.000000e+00 [K]
    framework-molecule Real/kʙ   0.000000e+00 [K]
    molecule-molecule VDW/kʙ    -2.382567e+05 [K]
    molecule-molecule Real/kʙ   -6.830554e+04 [K]
    Van der Waals (Tail)/kʙ     -7.691493e+03 [K]
    Ewald Fourier/kʙ             1.170968e+04 [K]
    Ewald self/kʙ               -5.029674e+06 [K]
    Ewald exclusion/kʙ           5.006983e+06 [K]
    intra VDW/kʙ                 0.000000e+00 [K]
    intra Coulombic/kʙ           0.000000e+00 [K]
    polarization/kʙ              0.000000e+00 [K]
    dU/dlambda VDW/kʙ            0.000000e+00 [K]
    dU/dlambda Real/kʙ           0.000000e+00 [K]
    dU/dlambda Ewald/kʙ          0.000000e+00 [K]


Initialization: Current cycle: 300 out of 1000
===============================================================================

Box:      26.45884   0.00000   0.00000
           0.00000  26.45884   0.00000
           0.00000   0.00000  26.45884
Lengths:  26.45884  26.45884  26.45884
Angles:   90.00000  90.00000  90.00000
Rectangular boundary conditions

net charge:   0.00000000

component   0 (CO2) lambda:  0 occupancy:  1 (1.000000)
    net charge:   0.00000000 [e]

Amount of molecules per component :
-------------------------------------------------------------------------------
Component 0 (CO2)
    molecules:         2.500000e+02 molecules
    number density:    1.349670e-02 molec/A^3
    density:           9.860921e+02 kg/m^3

Total potential energy/kʙ       -3.524715e+05 [K]
-------------------------------------------------------------------------------
    external field VDW/kʙ        0.000000e+00 [K]
    external field Real/kʙ       0.000000e+00 [K]
    framework-molecule VDW/kʙ    0.000000e+00 [K]
    framework-molecule Real/kʙ   0.000000e+00 [K]
    molecule-molecule VDW/kʙ    -2.615331e+05 [K]
    molecule-molecule Real/kʙ   -7.091607e+04 [K]
    Van der Waals (Tail)/kʙ     -8.134764e+03 [K]
    Ewald Fourier/kʙ             1.080380e+04 [K]
    Ewald self/kʙ               -5.029674e+06 [K]
    Ewald exclusion/kʙ           5.006983e+06 [K]
    intra VDW/kʙ                 0.000000e+00 [K]
    intra Coulombic/kʙ           0.000000e+00 [K]
    polarization/kʙ              0.000000e+00 [K]
    dU/dlambda VDW/kʙ            0.000000e+00 [K]
    dU/dlambda Real/kʙ           0.000000e+00 [K]
    dU/dlambda Ewald/kʙ          0.000000e+00 [K]


Initialization: Current cycle: 400 out of 1000
===============================================================================

Box:      26.03507   0.00000   0.00000
           0.00000  26.03507   0.00000
           0.00000   0.00000  26.03507
Lengths:  26.03507  26.03507  26.03507
Angles:   90.00000  90.00000  90.00000
Rectangular boundary conditions

net charge:   0.00000000

component   0 (CO2) lambda:  0 occupancy:  1 (1.000000)
    net charge:   0.00000000 [e]

Amount of molecules per component :
-------------------------------------------------------------------------------
Component 0 (CO2)
    molecules:         2.500000e+02 molecules
    number density:    1.416653e-02 molec/A^3
    density:           1.035031e+03 kg/m^3

Total potential energy/kʙ       -3.685426e+05 [K]
-------------------------------------------------------------------------------
    external field VDW/kʙ        0.000000e+00 [K]
    external field Real/kʙ       0.000000e+00 [K]
    framework-molecule VDW/kʙ    0.000000e+00 [K]
    framework-molecule Real/kʙ   0.000000e+00 [K]
    molecule-molecule VDW/kʙ    -2.728114e+05 [K]
    molecule-molecule Real/kʙ   -7.545738e+04 [K]
    Van der Waals (Tail)/kʙ     -8.538487e+03 [K]
    Ewald Fourier/kʙ             1.095603e+04 [K]
    Ewald self/kʙ               -5.029674e+06 [K]
    Ewald exclusion/kʙ           5.006983e+06 [K]
    intra VDW/kʙ                 0.000000e+00 [K]
    intra Coulombic/kʙ           0.000000e+00 [K]
    polarization/kʙ              0.000000e+00 [K]
    dU/dlambda VDW/kʙ            0.000000e+00 [K]
    dU/dlambda Real/kʙ           0.000000e+00 [K]
    dU/dlambda Ewald/kʙ          0.000000e+00 [K]


Initialization: Current cycle: 500 out of 1000
===============================================================================

Box:      26.13625   0.00000   0.00000
           0.00000  26.13625   0.00000
           0.00000   0.00000  26.13625
Lengths:  26.13625  26.13625  26.13625
Angles:   90.00000  90.00000  90.00000
Rectangular boundary conditions

net charge:   0.00000000

component   0 (CO2) lambda:  0 occupancy:  1 (1.000000)
    net charge:   0.00000000 [e]

Amount of molecules per component :
-------------------------------------------------------------------------------
Component 0 (CO2)
    molecules:         2.500000e+02 molecules
    number density:    1.400265e-02 molec/A^3
    density:           1.023058e+03 kg/m^3

Total potential energy/kʙ       -3.711297e+05 [K]
-------------------------------------------------------------------------------
    external field VDW/kʙ        0.000000e+00 [K]
    external field Real/kʙ       0.000000e+00 [K]
    framework-molecule VDW/kʙ    0.000000e+00 [K]
    framework-molecule Real/kʙ   0.000000e+00 [K]
    molecule-molecule VDW/kʙ    -2.641628e+05 [K]
    molecule-molecule Real/kʙ   -8.556735e+04 [K]
    Van der Waals (Tail)/kʙ     -8.439713e+03 [K]
    Ewald Fourier/kʙ             9.731498e+03 [K]
    Ewald self/kʙ               -5.029674e+06 [K]
    Ewald exclusion/kʙ           5.006983e+06 [K]
    intra VDW/kʙ                 0.000000e+00 [K]
    intra Coulombic/kʙ           0.000000e+00 [K]
    polarization/kʙ              0.000000e+00 [K]
    dU/dlambda VDW/kʙ            0.000000e+00 [K]
    dU/dlambda Real/kʙ           0.000000e+00 [K]
    dU/dlambda Ewald/kʙ          0.000000e+00 [K]


Initialization: Current cycle: 600 out of 1000
===============================================================================

Box:      25.98702   0.00000   0.00000
           0.00000  25.98702   0.00000
           0.00000   0.00000  25.98702
Lengths:  25.98702  25.98702  25.98702
Angles:   90.00000  90.00000  90.00000
Rectangular boundary conditions

net charge:   0.00000000

component   0 (CO2) lambda:  0 occupancy:  1 (1.000000)
    net charge:   0.00000000 [e]

Amount of molecules per component :
-------------------------------------------------------------------------------
Component 0 (CO2)
    molecules:         2.500000e+02 molecules
    number density:    1.424527e-02 molec/A^3
    density:           1.040784e+03 kg/m^3

Total potential energy/kʙ       -3.724935e+05 [K]
-------------------------------------------------------------------------------
    external field VDW/kʙ        0.000000e+00 [K]
    external field Real/kʙ       0.000000e+00 [K]
    framework-molecule VDW/kʙ    0.000000e+00 [K]
    framework-molecule Real/kʙ   0.000000e+00 [K]
    molecule-molecule VDW/kʙ    -2.693245e+05 [K]
    molecule-molecule Real/kʙ   -8.230466e+04 [K]
    Van der Waals (Tail)/kʙ     -8.585940e+03 [K]
    Ewald Fourier/kʙ             1.041303e+04 [K]
    Ewald self/kʙ               -5.029674e+06 [K]
    Ewald exclusion/kʙ           5.006983e+06 [K]
    intra VDW/kʙ                 0.000000e+00 [K]
    intra Coulombic/kʙ           0.000000e+00 [K]
    polarization/kʙ              0.000000e+00 [K]
    dU/dlambda VDW/kʙ            0.000000e+00 [K]
    dU/dlambda Real/kʙ           0.000000e+00 [K]
    dU/dlambda Ewald/kʙ          0.000000e+00 [K]


Initialization: Current cycle: 700 out of 1000
===============================================================================

Box:      25.73168   0.00000   0.00000
           0.00000  25.73168   0.00000
           0.00000   0.00000  25.73168
Lengths:  25.73168  25.73168  25.73168
Angles:   90.00000  90.00000  90.00000
Rectangular boundary conditions

net charge:   0.00000000

component   0 (CO2) lambda:  0 occupancy:  1 (1.000000)
    net charge:   0.00000000 [e]

Amount of molecules per component :
-------------------------------------------------------------------------------
Component 0 (CO2)
    molecules:         2.500000e+02 molecules
    number density:    1.467357e-02 molec/A^3
    density:           1.072076e+03 kg/m^3

Total potential energy/kʙ       -3.837217e+05 [K]
-------------------------------------------------------------------------------
    external field VDW/kʙ        0.000000e+00 [K]
    external field Real/kʙ       0.000000e+00 [K]
    framework-molecule VDW/kʙ    0.000000e+00 [K]
    framework-molecule Real/kʙ   0.000000e+00 [K]
    molecule-molecule VDW/kʙ    -2.787925e+05 [K]
    molecule-molecule Real/kʙ   -8.293146e+04 [K]
    Van der Waals (Tail)/kʙ     -8.844087e+03 [K]
    Ewald Fourier/kʙ             9.537760e+03 [K]
    Ewald self/kʙ               -5.029674e+06 [K]
    Ewald exclusion/kʙ           5.006983e+06 [K]
    intra VDW/kʙ                 0.000000e+00 [K]
    intra Coulombic/kʙ           0.000000e+00 [K]
    polarization/kʙ              0.000000e+00 [K]
    dU/dlambda VDW/kʙ            0.000000e+00 [K]
    dU/dlambda Real/kʙ           0.000000e+00 [K]
    dU/dlambda Ewald/kʙ          0.000000e+00 [K]


Initialization: Current cycle: 800 out of 1000
===============================================================================

Box:      25.96608   0.00000   0.00000
           0.00000  25.96608   0.00000
           0.00000   0.00000  25.96608
Lengths:  25.96608  25.96608  25.96608
Angles:   90.00000  90.00000  90.00000
Rectangular boundary conditions

net charge:   0.00000000

component   0 (CO2) lambda:  0 occupancy:  1 (1.000000)
    net charge:   0.00000000 [e]

Amount of molecules per component :
-------------------------------------------------------------------------------
Component 0 (CO2)
    molecules:         2.500000e+02 molecules
    number density:    1.427976e-02 molec/A^3
    density:           1.043304e+03 kg/m^3

Total potential energy/kʙ       -3.836642e+05 [K]
-------------------------------------------------------------------------------
    external field VDW/kʙ        0.000000e+00 [K]
    external field Real/kʙ       0.000000e+00 [K]
    framework-molecule VDW/kʙ    0.000000e+00 [K]
    framework-molecule Real/kʙ   0.000000e+00 [K]
    molecule-molecule VDW/kʙ    -2.791345e+05 [K]
    molecule-molecule Real/kʙ   -8.325436e+04 [K]
    Van der Waals (Tail)/kʙ     -8.606730e+03 [K]
    Ewald Fourier/kʙ             1.002279e+04 [K]
    Ewald self/kʙ               -5.029674e+06 [K]
    Ewald exclusion/kʙ           5.006983e+06 [K]
    intra VDW/kʙ                 0.000000e+00 [K]
    intra Coulombic/kʙ           0.000000e+00 [K]
    polarization/kʙ              0.000000e+00 [K]
    dU/dlambda VDW/kʙ            0.000000e+00 [K]
    dU/dlambda Real/kʙ           0.000000e+00 [K]
    dU/dlambda Ewald/kʙ          0.000000e+00 [K]


Initialization: Current cycle: 900 out of 1000
===============================================================================

Box:      26.08666   0.00000   0.00000
           0.00000  26.08666   0.00000
           0.00000   0.00000  26.08666
Lengths:  26.08666  26.08666  26.08666
Angles:   90.00000  90.00000  90.00000
Rectangular boundary conditions

net charge:   0.00000000

component   0 (CO2) lambda:  0 occupancy:  1 (1.000000)
    net charge:   0.00000000 [e]

Amount of molecules per component :
-------------------------------------------------------------------------------
Component 0 (CO2)
    molecules:         2.500000e+02 molecules
    number density:    1.408265e-02 molec/A^3
    density:           1.028903e+03 kg/m^3

Total potential energy/kʙ       -3.726047e+05 [K]
-------------------------------------------------------------------------------
    external field VDW/kʙ        0.000000e+00 [K]
    external field Real/kʙ       0.000000e+00 [K]
    framework-molecule VDW/kʙ    0.000000e+00 [K]
    framework-molecule Real/kʙ   0.000000e+00 [K]
    molecule-molecule VDW/kʙ    -2.643639e+05 [K]
    molecule-molecule Real/kʙ   -8.729400e+04 [K]
    Van der Waals (Tail)/kʙ     -8.487928e+03 [K]
    Ewald Fourier/kʙ             1.023250e+04 [K]
    Ewald self/kʙ               -5.029674e+06 [K]
    Ewald exclusion/kʙ           5.006983e+06 [K]
    intra VDW/kʙ                 0.000000e+00 [K]
    intra Coulombic/kʙ           0.000000e+00 [K]
    polarization/kʙ              0.000000e+00 [K]
    dU/dlambda VDW/kʙ            0.000000e+00 [K]
    dU/dlambda Real/kʙ           0.000000e+00 [K]
    dU/dlambda Ewald/kʙ          0.000000e+00 [K]


Current cycle: 0 out of 5000
===============================================================================

Box:      26.11809   0.00000   0.00000  Average:  26.11809   0.00000   0.00000
           0.00000  26.11809   0.00000             0.00000  26.11809   0.00000
           0.00000   0.00000  26.11809             0.00000   0.00000  26.11809
Lengths:  26.11809  26.11809  26.11809  Average:  26.11809  26.11809  26.11809
Angles:   90.00000  90.00000  90.00000  Average:  90.00000  90.00000  90.00000
Rectangular boundary conditions

net charge:   0.00000000

component 0 (CO2) lambda:  0 occupancy:  1 (1.000000)
    net charge:   0.00000000 [e]

Amount of molecules per component :
-------------------------------------------------------------------------------
Component 0 (CO2)
    molecules:      2.500000e+02 molecules  (2.500000e+02 +/- 0.000000e+00)
    number density: 1.403188e-02 molec./A^3 (1.403188e-02 +/- 0.000000e+00)
    density:        1.025193e+03 kg/m^3     (1.025193e+03 +/- 0.000000e+00)

Average pressure tensor: 
-------------------------------------------------------------------------------
 4.8433e+02  0.0000e+00  0.0000e+00 +/- 0.0000e+00 0.0000e+00 0.0000e+00 [bar]
 0.0000e+00  4.8433e+02  0.0000e+00 +/- 0.0000e+00 0.0000e+00 0.0000e+00 [bar]
 0.0000e+00  0.0000e+00  4.8433e+02 +/- 0.0000e+00 0.0000e+00 0.0000e+00 [bar]
Ideal-gas pressure:   4.843280e+02 +/ 0.000000e+00 [bar]
Excess pressure:      0.000000e+00 +/ 0.000000e+00 [bar]
Pressure:             4.843280e+02 +/ 0.000000e+00 [bar]

Total potential energy/kʙ  -3.698808e+05 (-3.698808e+05 +/- 0.000000e+00) [K]
-------------------------------------------------------------------------------
ExternalField-molecule
    Van der Waals/kʙ        0.000000e+00 ( 0.000000e+00 +/- 0.000000e+00) [K]
Framework-molecule
    Van der Waals/kʙ        0.000000e+00 ( 0.000000e+00 +/- 0.000000e+00) [K]
    Van der Waals (Tail)/kʙ 0.000000e+00 ( 0.000000e+00 +/- 0.000000e+00) [K]
    Coulombic Real/kʙ       0.000000e+00 ( 0.000000e+00 +/- 0.000000e+00) [K]
    Coulombic Fourier/kʙ    0.000000e+00 ( 0.000000e+00 +/- 0.000000e+00) [K]
Molecule-molecule
    Van der Waals/kʙ       -2.749715e+05 (-2.749715e+05 +/- 0.000000e+00) [K]
    Van der Waals (Tail)/kʙ-8.457328e+03 (-8.457328e+03 +/- 0.000000e+00) [K]
    Coulombic Real/kʙ      -7.429852e+04 (-7.429852e+04 +/- 0.000000e+00) [K]
    Coulombic Fourier/kʙ   -1.215340e+04 (-1.215340e+04 +/- 0.000000e+00) [K]
    Molecule Intra/kʙ       0.000000e+00 ( 0.000000e+00 +/- 0.000000e+00) [K]

Current cycle: 100 out of 5000
===============================================================================

Box:      25.75822   0.00000   0.00000  Average:  25.86052   0.00000   0.00000
           0.00000  25.75822   0.00000             0.00000  25.86052   0.00000
           0.00000   0.00000  25.75822             0.00000   0.00000  25.86052
Lengths:  25.75822  25.75822  25.75822  Average:  25.86052  25.86052  25.86052
Angles:   90.00000  90.00000  90.00000  Average:  90.00000  90.00000  90.00000
Rectangular boundary conditions

net charge:   0.00000000

component 0 (CO2) lambda:  0 occupancy:  1 (1.000000)
    net charge:   0.00000000 [e]

Amount of molecules per component :
-------------------------------------------------------------------------------
Component 0 (CO2)
    molecules:      2.500000e+02 molecules  (2.500000e+02 +/- 0.000000e+00)
    number density: 1.462826e-02 molec./A^3 (1.445731e-02 +/- 0.000000e+00)
    density:        1.068765e+03 kg/m^3     (1.056276e+03 +/- 0.000000e+00)

Average pressure tensor: 
-------------------------------------------------------------------------------
-7.7053e+01  2.0143e+02  1.6000e+00 +/- 0.0000e+00 0.0000e+00 0.0000e+00 [bar]
 2.0143e+02  6.7232e+01 -8.6576e+00 +/- 0.0000e+00 0.0000e+00 0.0000e+00 [bar]
 1.6000e+00 -8.6576e+00  2.7606e+02 +/- 0.0000e+00 0.0000e+00 0.0000e+00 [bar]
Ideal-gas pressure:   4.990123e+02 +/ 0.000000e+00 [bar]
Excess pressure:     -4.102656e+02 +/ 0.000000e+00 [bar]
Pressure:             8.874677e+01 +/ 0.000000e+00 [bar]

Total potential energy/kʙ  -3.831718e+05 (-3.799499e+05 +/- 0.000000e+00) [K]
-------------------------------------------------------------------------------
ExternalField-molecule
    Van der Waals/kʙ        0.000000e+00 ( 0.000000e+00 +/- 0.000000e+00) [K]
Framework-molecule
    Van der Waals/kʙ        0.000000e+00 ( 0.000000e+00 +/- 0.000000e+00) [K]
    Van der Waals (Tail)/kʙ 0.000000e+00 ( 0.000000e+00 +/- 0.000000e+00) [K]
    Coulombic Real/kʙ       0.000000e+00 ( 0.000000e+00 +/- 0.000000e+00) [K]
    Coulombic Fourier/kʙ    0.000000e+00 ( 0.000000e+00 +/- 0.000000e+00) [K]
Molecule-molecule
    Van der Waals/kʙ       -2.787017e+05 (-2.749274e+05 +/- 0.000000e+00) [K]
    Van der Waals (Tail)/kʙ-8.816777e+03 (-8.716103e+03 +/- 0.000000e+00) [K]
    Coulombic Real/kʙ      -8.290122e+04 (-8.323143e+04 +/- 0.000000e+00) [K]
    Coulombic Fourier/kʙ   -1.275212e+04 (-1.307494e+04 +/- 0.000000e+00) [K]
    Molecule Intra/kʙ       0.000000e+00 ( 0.000000e+00 +/- 0.000000e+00) [K]

Current cycle: 200 out of 5000
===============================================================================

Box:      25.80004   0.00000   0.00000  Average:  25.78750   0.00000   0.00000
           0.00000  25.80004   0.00000             0.00000  25.78750   0.00000
           0.00000   0.00000  25.80004             0.00000   0.00000  25.78750
Lengths:  25.80004  25.80004  25.80004  Average:  25.78750  25.78750  25.78750
Angles:   90.00000  90.00000  90.00000  Average:  90.00000  90.00000  90.00000
Rectangular boundary conditions

net charge:   0.00000000

component 0 (CO2) lambda:  0 occupancy:  1 (1.000000)
    net charge:   0.00000000 [e]

Amount of molecules per component :
-------------------------------------------------------------------------------
Component 0 (CO2)
    molecules:      2.500000e+02 molecules  (2.500000e+02 +/- 0.000000e+00)
    number density: 1.455724e-02 molec./A^3 (1.458046e-02 +/- 0.000000e+00)
    density:        1.063577e+03 kg/m^3     (1.065274e+03 +/- 0.000000e+00)

Average pressure tensor: 
-------------------------------------------------------------------------------
-1.2758e+02  1.7799e+02  1.0234e+02 +/- 0.0000e+00 0.0000e+00 0.0000e+00 [bar]
 1.7799e+02  8.3216e+01 -2.7621e+01 +/- 0.0000e+00 0.0000e+00 0.0000e+00 [bar]
 1.0234e+02 -2.7621e+01  1.4806e+02 +/- 0.0000e+00 0.0000e+00 0.0000e+00 [bar]
Ideal-gas pressure:   5.032630e+02 +/ 0.000000e+00 [bar]
Excess pressure:     -4.686969e+02 +/ 0.000000e+00 [bar]
Pressure:             3.456611e+01 +/ 0.000000e+00 [bar]

Total potential energy/kʙ  -3.871205e+05 (-3.830280e+05 +/- 0.000000e+00) [K]
-------------------------------------------------------------------------------
ExternalField-molecule
    Van der Waals/kʙ        0.000000e+00 ( 0.000000e+00 +/- 0.000000e+00) [K]
Framework-molecule
    Van der Waals/kʙ        0.000000e+00 ( 0.000000e+00 +/- 0.000000e+00) [K]
    Van der Waals (Tail)/kʙ 0.000000e+00 ( 0.000000e+00 +/- 0.000000e+00) [K]
    Coulombic Real/kʙ       0.000000e+00 ( 0.000000e+00 +/- 0.000000e+00) [K]
    Coulombic Fourier/kʙ    0.000000e+00 ( 0.000000e+00 +/- 0.000000e+00) [K]
Molecule-molecule
    Van der Waals/kʙ       -2.748618e+05 (-2.776891e+05 +/- 0.000000e+00) [K]
    Van der Waals (Tail)/kʙ-8.773975e+03 (-8.776222e+03 +/- 0.000000e+00) [K]
    Coulombic Real/kʙ      -9.087235e+04 (-8.353823e+04 +/- 0.000000e+00) [K]
    Coulombic Fourier/kʙ   -1.261239e+04 (-1.302441e+04 +/- 0.000000e+00) [K]
    Molecule Intra/kʙ       0.000000e+00 ( 0.000000e+00 +/- 0.000000e+00) [K]

Current cycle: 300 out of 5000
===============================================================================

Box:      25.77167   0.00000   0.00000  Average:  25.76216   0.00000   0.00000
           0.00000  25.77167   0.00000             0.00000  25.76216   0.00000
           0.00000   0.00000  25.77167             0.00000   0.00000  25.76216
Lengths:  25.77167  25.77167  25.77167  Average:  25.76216  25.76216  25.76216
Angles:   90.00000  90.00000  90.00000  Average:  90.00000  90.00000  90.00000
Rectangular boundary conditions

net charge:   0.00000000

component 0 (CO2) lambda:  0 occupancy:  1 (1.000000)
    net charge:   0.00000000 [e]

Amount of molecules per component :
-------------------------------------------------------------------------------
Component 0 (CO2)
    molecules:      2.500000e+02 molecules  (2.500000e+02 +/- 0.000000e+00)
    number density: 1.460536e-02 molec./A^3 (1.462342e-02 +/- 0.000000e+00)
    density:        1.067093e+03 kg/m^3     (1.068412e+03 +/- 0.000000e+00)

Average pressure tensor: 
-------------------------------------------------------------------------------
-6.8028e+01  1.4904e+02  7.6834e+01 +/- 0.0000e+00 0.0000e+00 0.0000e+00 [bar]
 1.4904e+02  1.0056e+02  1.6372e+01 +/- 0.0000e+00 0.0000e+00 0.0000e+00 [bar]
 7.6834e+01  1.6372e+01  1.1200e+02 +/- 0.0000e+00 0.0000e+00 0.0000e+00 [bar]
Ideal-gas pressure:   5.047457e+02 +/ 0.000000e+00 [bar]
Excess pressure:     -4.565685e+02 +/ 0.000000e+00 [bar]
Pressure:             4.817723e+01 +/ 0.000000e+00 [bar]

Total potential energy/kʙ  -3.842033e+05 (-3.837433e+05 +/- 0.000000e+00) [K]
-------------------------------------------------------------------------------
ExternalField-molecule
    Van der Waals/kʙ        0.000000e+00 ( 0.000000e+00 +/- 0.000000e+00) [K]
Framework-molecule
    Van der Waals/kʙ        0.000000e+00 ( 0.000000e+00 +/- 0.000000e+00) [K]
    Van der Waals (Tail)/kʙ 0.000000e+00 ( 0.000000e+00 +/- 0.000000e+00) [K]
    Coulombic Real/kʙ       0.000000e+00 ( 0.000000e+00 +/- 0.000000e+00) [K]
    Coulombic Fourier/kʙ    0.000000e+00 ( 0.000000e+00 +/- 0.000000e+00) [K]
Molecule-molecule
    Van der Waals/kʙ       -2.779572e+05 (-2.783264e+05 +/- 0.000000e+00) [K]
    Van der Waals (Tail)/kʙ-8.802978e+03 (-8.810961e+03 +/- 0.000000e+00) [K]
    Coulombic Real/kʙ      -8.462907e+04 (-8.365137e+04 +/- 0.000000e+00) [K]
    Coulombic Fourier/kʙ   -1.281409e+04 (-1.295450e+04 +/- 0.000000e+00) [K]
    Molecule Intra/kʙ       0.000000e+00 ( 0.000000e+00 +/- 0.000000e+00) [K]

Current cycle: 400 out of 5000
===============================================================================

Box:      25.82653   0.00000   0.00000  Average:  25.74447   0.00000   0.00000
           0.00000  25.82653   0.00000             0.00000  25.74447   0.00000
           0.00000   0.00000  25.82653             0.00000   0.00000  25.74447
Lengths:  25.82653  25.82653  25.82653  Average:  25.74447  25.74447  25.74447
Angles:   90.00000  90.00000  90.00000  Average:  90.00000  90.00000  90.00000
Rectangular boundary conditions

net charge:   0.00000000

component 0 (CO2) lambda:  0 occupancy:  1 (1.000000)
    net charge:   0.00000000 [e]

Amount of molecules per component :
-------------------------------------------------------------------------------
Component 0 (CO2)
    molecules:      2.500000e+02 molecules  (2.500000e+02 +/- 0.000000e+00)
    number density: 1.451248e-02 molec./A^3 (1.465359e-02 +/- 0.000000e+00)
    density:        1.060307e+03 kg/m^3     (1.070616e+03 +/- 0.000000e+00)

Average pressure tensor: 
-------------------------------------------------------------------------------
-2.0079e+01  9.5832e+01  2.4498e+01 +/- 0.0000e+00 0.0000e+00 0.0000e+00 [bar]
 9.5832e+01  1.2376e+02  5.0480e+00 +/- 0.0000e+00 0.0000e+00 0.0000e+00 [bar]
 2.4498e+01  5.0480e+00  1.5124e+02 +/- 0.0000e+00 0.0000e+00 0.0000e+00 [bar]
Ideal-gas pressure:   5.057871e+02 +/ 0.000000e+00 [bar]
Excess pressure:     -4.208134e+02 +/ 0.000000e+00 [bar]
Pressure:             8.497380e+01 +/ 0.000000e+00 [bar]

Total potential energy/kʙ  -3.900585e+05 (-3.853283e+05 +/- 0.000000e+00) [K]
-------------------------------------------------------------------------------
ExternalField-molecule
    Van der Waals/kʙ        0.000000e+00 ( 0.000000e+00 +/- 0.000000e+00) [K]
Framework-molecule
    Van der Waals/kʙ        0.000000e+00 ( 0.000000e+00 +/- 0.000000e+00) [K]
    Van der Waals (Tail)/kʙ 0.000000e+00 ( 0.000000e+00 +/- 0.000000e+00) [K]
    Coulombic Real/kʙ       0.000000e+00 ( 0.000000e+00 +/- 0.000000e+00) [K]
    Coulombic Fourier/kʙ    0.000000e+00 ( 0.000000e+00 +/- 0.000000e+00) [K]
Molecule-molecule
    Van der Waals/kʙ       -2.805006e+05 (-2.791475e+05 +/- 0.000000e+00) [K]
    Van der Waals (Tail)/kʙ-8.746998e+03 (-8.843352e+03 +/- 0.000000e+00) [K]
    Coulombic Real/kʙ      -8.813759e+04 (-8.433768e+04 +/- 0.000000e+00) [K]
    Coulombic Fourier/kʙ   -1.267330e+04 (-1.299985e+04 +/- 0.000000e+00) [K]
    Molecule Intra/kʙ       0.000000e+00 ( 0.000000e+00 +/- 0.000000e+00) [K]

Current cycle: 500 out of 5000
===============================================================================

Box:      25.71285   0.00000   0.00000  Average:  25.74353   0.00000   0.00000
           0.00000  25.71285   0.00000             0.00000  25.74353   0.00000
           0.00000   0.00000  25.71285             0.00000   0.00000  25.74353
Lengths:  25.71285  25.71285  25.71285  Average:  25.74353  25.74353  25.74353
Angles:   90.00000  90.00000  90.00000  Average:  90.00000  90.00000  90.00000
Rectangular boundary conditions

net charge:   0.00000000

component 0 (CO2) lambda:  0 occupancy:  1 (1.000000)
    net charge:   0.00000000 [e]

Amount of molecules per component :
-------------------------------------------------------------------------------
Component 0 (CO2)
    molecules:      2.500000e+02 molecules  (2.500000e+02 +/- 0.000000e+00)
    number density: 1.470582e-02 molec./A^3 (1.465511e-02 +/- 0.000000e+00)
    density:        1.074433e+03 kg/m^3     (1.070728e+03 +/- 0.000000e+00)

Average pressure tensor: 
-------------------------------------------------------------------------------
 1.2451e+01  1.1848e+02  2.0032e+00 +/- 0.0000e+00 0.0000e+00 0.0000e+00 [bar]
 1.1848e+02  1.3445e+02 -7.8178e+00 +/- 0.0000e+00 0.0000e+00 0.0000e+00 [bar]
 2.0032e+00 -7.8178e+00  1.0273e+02 +/- 0.0000e+00 0.0000e+00 0.0000e+00 [bar]
Ideal-gas pressure:   5.058397e+02 +/ 0.000000e+00 [bar]
Excess pressure:     -4.226282e+02 +/ 0.000000e+00 [bar]
Pressure:             8.321154e+01 +/ 0.000000e+00 [bar]

Total potential energy/kʙ  -3.837974e+05 (-3.856547e+05 +/- 0.000000e+00) [K]
-------------------------------------------------------------------------------
ExternalField-molecule
    Van der Waals/kʙ        0.000000e+00 ( 0.000000e+00 +/- 0.000000e+00) [K]
Framework-molecule
    Van der Waals/kʙ        0.000000e+00 ( 0.000000e+00 +/- 0.000000e+00) [K]
    Van der Waals (Tail)/kʙ 0.000000e+00 ( 0.000000e+00 +/- 0.000000e+00) [K]
    Coulombic Real/kʙ       0.000000e+00 ( 0.000000e+00 +/- 0.000000e+00) [K]
    Coulombic Fourier/kʙ    0.000000e+00 ( 0.000000e+00 +/- 0.000000e+00) [K]
Molecule-molecule
    Van der Waals/kʙ       -2.760480e+05 (-2.788927e+05 +/- 0.000000e+00) [K]
    Van der Waals (Tail)/kʙ-8.863528e+03 (-8.843681e+03 +/- 0.000000e+00) [K]
    Coulombic Real/kʙ      -8.568873e+04 (-8.489716e+04 +/- 0.000000e+00) [K]
    Coulombic Fourier/kʙ   -1.319715e+04 (-1.302116e+04 +/- 0.000000e+00) [K]
    Molecule Intra/kʙ       0.000000e+00 ( 0.000000e+00 +/- 0.000000e+00) [K]

Current cycle: 600 out of 5000
===============================================================================

Box:      25.79789   0.00000   0.00000  Average:  25.77009   0.00000   0.00000
           0.00000  25.79789   0.00000             0.00000  25.77009   0.00000
           0.00000   0.00000  25.79789             0.00000   0.00000  25.77009
Lengths:  25.79789  25.79789  25.79789  Average:  25.77009  25.77009  25.77009
Angles:   90.00000  90.00000  90.00000  Average:  90.00000  90.00000  90.00000
Rectangular boundary conditions

net charge:   0.00000000

component 0 (CO2) lambda:  0 occupancy:  1 (1.000000)
    net charge:   0.00000000 [e]

Amount of molecules per component :
-------------------------------------------------------------------------------
Component 0 (CO2)
    molecules:      2.500000e+02 molecules  (2.500000e+02 +/- 0.000000e+00)
    number density: 1.456087e-02 molec./A^3 (1.461017e-02 +/- 0.000000e+00)
    density:        1.063842e+03 kg/m^3     (1.067444e+03 +/- 0.000000e+00)

Average pressure tensor: 
-------------------------------------------------------------------------------
 3.6922e+00  1.1759e+02  1.0027e+01 +/- 0.0000e+00 0.0000e+00 0.0000e+00 [bar]
 1.1759e+02  1.1527e+02 -4.5180e+00 +/- 0.0000e+00 0.0000e+00 0.0000e+00 [bar]
 1.0027e+01 -4.5180e+00  1.0062e+02 +/- 0.0000e+00 0.0000e+00 0.0000e+00 [bar]
Ideal-gas pressure:   5.042885e+02 +/ 0.000000e+00 [bar]
Excess pressure:     -4.310940e+02 +/ 0.000000e+00 [bar]
Pressure:             7.319451e+01 +/ 0.000000e+00 [bar]

Total potential energy/kʙ  -3.841806e+05 (-3.852116e+05 +/- 0.000000e+00) [K]
-------------------------------------------------------------------------------
ExternalField-molecule
    Van der Waals/kʙ        0.000000e+00 ( 0.000000e+00 +/- 0.000000e+00) [K]
Framework-molecule
    Van der Waals/kʙ        0.000000e+00 ( 0.000000e+00 +/- 0.000000e+00) [K]
    Van der Waals (Tail)/kʙ 0.000000e+00 ( 0.000000e+00 +/- 0.000000e+00) [K]
    Coulombic Real/kʙ       0.000000e+00 ( 0.000000e+00 +/- 0.000000e+00) [K]
    Coulombic Fourier/kʙ    0.000000e+00 ( 0.000000e+00 +/- 0.000000e+00) [K]
Molecule-molecule
    Van der Waals/kʙ       -2.702761e+05 (-2.776172e+05 +/- 0.000000e+00) [K]
    Van der Waals (Tail)/kʙ-8.776162e+03 (-8.815156e+03 +/- 0.000000e+00) [K]
    Coulombic Real/kʙ      -9.183268e+04 (-8.578637e+04 +/- 0.000000e+00) [K]
    Coulombic Fourier/kʙ   -1.329564e+04 (-1.299280e+04 +/- 0.000000e+00) [K]
    Molecule Intra/kʙ       0.000000e+00 ( 0.000000e+00 +/- 0.000000e+00) [K]

Current cycle: 700 out of 5000
===============================================================================

Box:      26.01347   0.00000   0.00000  Average:  25.81091   0.00000   0.00000
           0.00000  26.01347   0.00000             0.00000  25.81091   0.00000
           0.00000   0.00000  26.01347             0.00000   0.00000  25.81091
Lengths:  26.01347  26.01347  26.01347  Average:  25.81091  25.81091  25.81091
Angles:   90.00000  90.00000  90.00000  Average:  90.00000  90.00000  90.00000
Rectangular boundary conditions

net charge:   0.00000000

component 0 (CO2) lambda:  0 occupancy:  1 (1.000000)
    net charge:   0.00000000 [e]

Amount of molecules per component :
-------------------------------------------------------------------------------
Component 0 (CO2)
    molecules:      2.500000e+02 molecules  (2.500000e+02 +/- 0.000000e+00)
    number density: 1.420186e-02 molec./A^3 (1.454216e-02 +/- 0.000000e+00)
    density:        1.037612e+03 kg/m^3     (1.062475e+03 +/- 0.000000e+00)

Average pressure tensor: 
-------------------------------------------------------------------------------
 1.2427e+01  1.1953e+02 -6.7855e+00 +/- 0.0000e+00 0.0000e+00 0.0000e+00 [bar]
 1.1953e+02  8.1666e+01 -2.5586e+01 +/- 0.0000e+00 0.0000e+00 0.0000e+00 [bar]
-6.7855e+00 -2.5586e+01  1.0050e+02 +/- 0.0000e+00 0.0000e+00 0.0000e+00 [bar]
Ideal-gas pressure:   5.019410e+02 +/ 0.000000e+00 [bar]
Excess pressure:     -4.370772e+02 +/ 0.000000e+00 [bar]
Pressure:             6.486382e+01 +/ 0.000000e+00 [bar]

Total potential energy/kʙ  -3.724498e+05 (-3.832846e+05 +/- 0.000000e+00) [K]
-------------------------------------------------------------------------------
ExternalField-molecule
    Van der Waals/kʙ        0.000000e+00 ( 0.000000e+00 +/- 0.000000e+00) [K]
Framework-molecule
    Van der Waals/kʙ        0.000000e+00 ( 0.000000e+00 +/- 0.000000e+00) [K]
    Van der Waals (Tail)/kʙ 0.000000e+00 ( 0.000000e+00 +/- 0.000000e+00) [K]
    Coulombic Real/kʙ       0.000000e+00 ( 0.000000e+00 +/- 0.000000e+00) [K]
    Coulombic Fourier/kʙ    0.000000e+00 ( 0.000000e+00 +/- 0.000000e+00) [K]
Molecule-molecule
    Van der Waals/kʙ       -2.689838e+05 (-2.762529e+05 +/- 0.000000e+00) [K]
    Van der Waals (Tail)/kʙ-8.559779e+03 (-8.767547e+03 +/- 0.000000e+00) [K]
    Coulombic Real/kʙ      -8.249476e+04 (-8.533599e+04 +/- 0.000000e+00) [K]
    Coulombic Fourier/kʙ   -1.241141e+04 (-1.292813e+04 +/- 0.000000e+00) [K]
    Molecule Intra/kʙ       0.000000e+00 ( 0.000000e+00 +/- 0.000000e+00) [K]

Current cycle: 800 out of 5000
===============================================================================

Box:      25.90964   0.00000   0.00000  Average:  25.81387   0.00000   0.00000
           0.00000  25.90964   0.00000             0.00000  25.81387   0.00000
           0.00000   0.00000  25.90964             0.00000   0.00000  25.81387
Lengths:  25.90964  25.90964  25.90964  Average:  25.81387  25.81387  25.81387
Angles:   90.00000  90.00000  90.00000  Average:  90.00000  90.00000  90.00000
Rectangular boundary conditions

net charge:   0.00000000

component 0 (CO2) lambda:  0 occupancy:  1 (1.000000)
    net charge:   0.00000000 [e]

Amount of molecules per component :
-------------------------------------------------------------------------------
Component 0 (CO2)
    molecules:      2.500000e+02 molecules  (2.500000e+02 +/- 0.000000e+00)
    number density: 1.437329e-02 molec./A^3 (1.453695e-02 +/- 0.000000e+00)
    density:        1.050137e+03 kg/m^3     (1.062094e+03 +/- 0.000000e+00)

Average pressure tensor: 
-------------------------------------------------------------------------------
-2.8423e+01  1.2475e+02  1.1496e+01 +/- 0.0000e+00 0.0000e+00 0.0000e+00 [bar]
 1.2475e+02  6.9653e+01 -2.8627e+01 +/- 0.0000e+00 0.0000e+00 0.0000e+00 [bar]
 1.1496e+01 -2.8627e+01  9.9969e+01 +/- 0.0000e+00 0.0000e+00 0.0000e+00 [bar]
Ideal-gas pressure:   5.017611e+02 +/ 0.000000e+00 [bar]
Excess pressure:     -4.546947e+02 +/ 0.000000e+00 [bar]
Pressure:             4.706633e+01 +/ 0.000000e+00 [bar]

Total potential energy/kʙ  -3.776654e+05 (-3.826066e+05 +/- 0.000000e+00) [K]
-------------------------------------------------------------------------------
ExternalField-molecule
    Van der Waals/kʙ        0.000000e+00 ( 0.000000e+00 +/- 0.000000e+00) [K]
Framework-molecule
    Van der Waals/kʙ        0.000000e+00 ( 0.000000e+00 +/- 0.000000e+00) [K]
    Van der Waals (Tail)/kʙ 0.000000e+00 ( 0.000000e+00 +/- 0.000000e+00) [K]
    Coulombic Real/kʙ       0.000000e+00 ( 0.000000e+00 +/- 0.000000e+00) [K]
    Coulombic Fourier/kʙ    0.000000e+00 ( 0.000000e+00 +/- 0.000000e+00) [K]
Molecule-molecule
    Van der Waals/kʙ       -2.763707e+05 (-2.761804e+05 +/- 0.000000e+00) [K]
    Van der Waals (Tail)/kʙ-8.663101e+03 (-8.762893e+03 +/- 0.000000e+00) [K]
    Coulombic Real/kʙ      -7.918998e+04 (-8.473351e+04 +/- 0.000000e+00) [K]
    Coulombic Fourier/kʙ   -1.344155e+04 (-1.292984e+04 +/- 0.000000e+00) [K]
    Molecule Intra/kʙ       0.000000e+00 ( 0.000000e+00 +/- 0.000000e+00) [K]

Current cycle: 900 out of 5000
===============================================================================

Box:      25.52803   0.00000   0.00000  Average:  25.79484   0.00000   0.00000
           0.00000  25.52803   0.00000             0.00000  25.79484   0.00000
           0.00000   0.00000  25.52803             0.00000   0.00000  25.79484
Lengths:  25.52803  25.52803  25.52803  Average:  25.79484  25.79484  25.79484
Angles:   90.00000  90.00000  90.00000  Average:  90.00000  90.00000  90.00000
Rectangular boundary conditions

net charge:   0.00000000

component 0 (CO2) lambda:  0 occupancy:  1 (1.000000)
    net charge:   0.00000000 [e]

Amount of molecules per component :
-------------------------------------------------------------------------------
Component 0 (CO2)
    molecules:      2.500000e+02 molecules  (2.500000e+02 +/- 0.000000e+00)
    number density: 1.502756e-02 molec./A^3 (1.456935e-02 +/- 0.000000e+00)
    density:        1.097939e+03 kg/m^3     (1.064462e+03 +/- 0.000000e+00)

Average pressure tensor: 
-------------------------------------------------------------------------------
-4.1304e+01  1.2778e+02  4.1636e+01 +/- 0.0000e+00 0.0000e+00 0.0000e+00 [bar]
 1.2778e+02  7.5297e+01 -4.6676e+01 +/- 0.0000e+00 0.0000e+00 0.0000e+00 [bar]
 4.1636e+01 -4.6676e+01  1.0213e+02 +/- 0.0000e+00 0.0000e+00 0.0000e+00 [bar]
Ideal-gas pressure:   5.028794e+02 +/ 0.000000e+00 [bar]
Excess pressure:     -4.575054e+02 +/ 0.000000e+00 [bar]
Pressure:             4.537399e+01 +/ 0.000000e+00 [bar]

Total potential energy/kʙ  -3.963177e+05 (-3.832178e+05 +/- 0.000000e+00) [K]
-------------------------------------------------------------------------------
ExternalField-molecule
    Van der Waals/kʙ        0.000000e+00 ( 0.000000e+00 +/- 0.000000e+00) [K]
Framework-molecule
    Van der Waals/kʙ        0.000000e+00 ( 0.000000e+00 +/- 0.000000e+00) [K]
    Van der Waals (Tail)/kʙ 0.000000e+00 ( 0.000000e+00 +/- 0.000000e+00) [K]
    Coulombic Real/kʙ       0.000000e+00 ( 0.000000e+00 +/- 0.000000e+00) [K]
    Coulombic Fourier/kʙ    0.000000e+00 ( 0.000000e+00 +/- 0.000000e+00) [K]
Molecule-molecule
    Van der Waals/kʙ       -2.847163e+05 (-2.767294e+05 +/- 0.000000e+00) [K]
    Van der Waals (Tail)/kʙ-9.057444e+03 (-8.783219e+03 +/- 0.000000e+00) [K]
    Coulombic Real/kʙ      -8.908432e+04 (-8.473334e+04 +/- 0.000000e+00) [K]
    Coulombic Fourier/kʙ   -1.345957e+04 (-1.297188e+04 +/- 0.000000e+00) [K]
    Molecule Intra/kʙ       0.000000e+00 ( 0.000000e+00 +/- 0.000000e+00) [K]

Current cycle: 1000 out of 5000
===============================================================================

Box:      25.88244   0.00000   0.00000  Average:  25.77796   0.00000   0.00000
           0.00000  25.88244   0.00000             0.00000  25.77796   0.00000
           0.00000   0.00000  25.88244             0.00000   0.00000  25.77796
Lengths:  25.88244  25.88244  25.88244  Average:  25.77796  25.77796  25.77796
Angles:   90.00000  90.00000  90.00000  Average:  90.00000  90.00000  90.00000
Rectangular boundary conditions

net charge:   0.00000000

component 0 (CO2) lambda:  0 occupancy:  1 (1.000000)
    net charge:   0.00000000 [e]

Amount of molecules per component :
-------------------------------------------------------------------------------
Component 0 (CO2)
    molecules:      2.500000e+02 molecules  (2.500000e+02 +/- 0.000000e+00)
    number density: 1.441865e-02 molec./A^3 (1.459810e-02 +/- 0.000000e+00)
    density:        1.053451e+03 kg/m^3     (1.066562e+03 +/- 0.000000e+00)

Average pressure tensor: 
-------------------------------------------------------------------------------
-4.2968e+01  1.2344e+02  3.7795e+01 +/- 0.0000e+00 0.0000e+00 0.0000e+00 [bar]
 1.2344e+02  8.7283e+01 -4.8257e+01 +/- 0.0000e+00 0.0000e+00 0.0000e+00 [bar]
 3.7795e+01 -4.8257e+01  1.1795e+02 +/- 0.0000e+00 0.0000e+00 0.0000e+00 [bar]
Ideal-gas pressure:   5.038719e+02 +/ 0.000000e+00 [bar]
Excess pressure:     -4.497852e+02 +/ 0.000000e+00 [bar]
Pressure:             5.408668e+01 +/ 0.000000e+00 [bar]

Total potential energy/kʙ  -3.831558e+05 (-3.838753e+05 +/- 0.000000e+00) [K]
-------------------------------------------------------------------------------
ExternalField-molecule
    Van der Waals/kʙ        0.000000e+00 ( 0.000000e+00 +/- 0.000000e+00) [K]
Framework-molecule
    Van der Waals/kʙ        0.000000e+00 ( 0.000000e+00 +/- 0.000000e+00) [K]
    Van der Waals (Tail)/kʙ 0.000000e+00 ( 0.000000e+00 +/- 0.000000e+00) [K]
    Coulombic Real/kʙ       0.000000e+00 ( 0.000000e+00 +/- 0.000000e+00) [K]
    Coulombic Fourier/kʙ    0.000000e+00 ( 0.000000e+00 +/- 0.000000e+00) [K]
Molecule-molecule
    Van der Waals/kʙ       -2.687173e+05 (-2.770720e+05 +/- 0.000000e+00) [K]
    Van der Waals (Tail)/kʙ-8.690442e+03 (-8.797456e+03 +/- 0.000000e+00) [K]
    Coulombic Real/kʙ      -9.162263e+04 (-8.498643e+04 +/- 0.000000e+00) [K]
    Coulombic Fourier/kʙ   -1.412550e+04 (-1.301951e+04 +/- 0.000000e+00) [K]
    Molecule Intra/kʙ       0.000000e+00 ( 0.000000e+00 +/- 0.000000e+00) [K]

Current cycle: 1100 out of 5000
===============================================================================

Box:      26.26800   0.00000   0.00000  Average:  25.79247   0.00000   0.00000
           0.00000  26.26800   0.00000             0.00000  25.79247   0.00000
           0.00000   0.00000  26.26800             0.00000   0.00000  25.79247
Lengths:  26.26800  26.26800  26.26800  Average:  25.79247  25.79247  25.79247
Angles:   90.00000  90.00000  90.00000  Average:  90.00000  90.00000  90.00000
Rectangular boundary conditions

net charge:   0.00000000

component 0 (CO2) lambda:  0 occupancy:  1 (1.000000)
    net charge:   0.00000000 [e]

Amount of molecules per component :
-------------------------------------------------------------------------------
Component 0 (CO2)
    molecules:      2.500000e+02 molecules  (2.500000e+02 +/- 0.000000e+00)
    number density: 1.379301e-02 molec./A^3 (1.457372e-02 +/- 0.000000e+00)
    density:        1.007741e+03 kg/m^3     (1.064781e+03 +/- 0.000000e+00)

Average pressure tensor: 
-------------------------------------------------------------------------------
-6.3075e+01  1.2493e+02  2.5425e+01 +/- 0.0000e+00 0.0000e+00 0.0000e+00 [bar]
 1.2493e+02  9.4532e+01 -4.1847e+01 +/- 0.0000e+00 0.0000e+00 0.0000e+00 [bar]
 2.5425e+01 -4.1847e+01  1.0363e+02 +/- 0.0000e+00 0.0000e+00 0.0000e+00 [bar]
Ideal-gas pressure:   5.030304e+02 +/ 0.000000e+00 [bar]
Excess pressure:     -4.580018e+02 +/ 0.000000e+00 [bar]
Pressure:             4.502864e+01 +/ 0.000000e+00 [bar]

Total potential energy/kʙ  -3.530181e+05 (-3.832786e+05 +/- 0.000000e+00) [K]
-------------------------------------------------------------------------------
ExternalField-molecule
    Van der Waals/kʙ        0.000000e+00 ( 0.000000e+00 +/- 0.000000e+00) [K]
Framework-molecule
    Van der Waals/kʙ        0.000000e+00 ( 0.000000e+00 +/- 0.000000e+00) [K]
    Van der Waals (Tail)/kʙ 0.000000e+00 ( 0.000000e+00 +/- 0.000000e+00) [K]
    Coulombic Real/kʙ       0.000000e+00 ( 0.000000e+00 +/- 0.000000e+00) [K]
    Coulombic Fourier/kʙ    0.000000e+00 ( 0.000000e+00 +/- 0.000000e+00) [K]
Molecule-molecule
    Van der Waals/kʙ       -2.593987e+05 (-2.766207e+05 +/- 0.000000e+00) [K]
    Van der Waals (Tail)/kʙ-8.313358e+03 (-8.778822e+03 +/- 0.000000e+00) [K]
    Coulombic Real/kʙ      -7.368165e+04 (-8.490356e+04 +/- 0.000000e+00) [K]
    Coulombic Fourier/kʙ   -1.162442e+04 (-1.297554e+04 +/- 0.000000e+00) [K]
    Molecule Intra/kʙ       0.000000e+00 ( 0.000000e+00 +/- 0.000000e+00) [K]

Current cycle: 1200 out of 5000
===============================================================================

Box:      26.02045   0.00000   0.00000  Average:  25.82809   0.00000   0.00000
           0.00000  26.02045   0.00000             0.00000  25.82809   0.00000
           0.00000   0.00000  26.02045             0.00000   0.00000  25.82809
Lengths:  26.02045  26.02045  26.02045  Average:  25.82809  25.82809  25.82809
Angles:   90.00000  90.00000  90.00000  Average:  90.00000  90.00000  90.00000
Rectangular boundary conditions

net charge:   0.00000000

component 0 (CO2) lambda:  0 occupancy:  1 (1.000000)
    net charge:   0.00000000 [e]

Amount of molecules per component :
-------------------------------------------------------------------------------
Component 0 (CO2)
    molecules:      2.500000e+02 molecules  (2.500000e+02 +/- 0.000000e+00)
    number density: 1.419043e-02 molec./A^3 (1.451518e-02 +/- 0.000000e+00)
    density:        1.036777e+03 kg/m^3     (1.060504e+03 +/- 0.000000e+00)

Average pressure tensor: 
-------------------------------------------------------------------------------
-7.4827e+01  1.2526e+02  2.4512e+01 +/- 0.0000e+00 0.0000e+00 0.0000e+00 [bar]
 1.2526e+02  9.5660e+01 -4.0027e+01 +/- 0.0000e+00 0.0000e+00 0.0000e+00 [bar]
 2.4512e+01 -4.0027e+01  1.1209e+02 +/- 0.0000e+00 0.0000e+00 0.0000e+00 [bar]
Ideal-gas pressure:   5.010097e+02 +/ 0.000000e+00 [bar]
Excess pressure:     -4.567017e+02 +/ 0.000000e+00 [bar]
Pressure:             4.430798e+01 +/ 0.000000e+00 [bar]

Total potential energy/kʙ  -3.584821e+05 (-3.812201e+05 +/- 0.000000e+00) [K]
-------------------------------------------------------------------------------
ExternalField-molecule
    Van der Waals/kʙ        0.000000e+00 ( 0.000000e+00 +/- 0.000000e+00) [K]
Framework-molecule
    Van der Waals/kʙ        0.000000e+00 ( 0.000000e+00 +/- 0.000000e+00) [K]
    Van der Waals (Tail)/kʙ 0.000000e+00 ( 0.000000e+00 +/- 0.000000e+00) [K]
    Coulombic Real/kʙ       0.000000e+00 ( 0.000000e+00 +/- 0.000000e+00) [K]
    Coulombic Fourier/kʙ    0.000000e+00 ( 0.000000e+00 +/- 0.000000e+00) [K]
Molecule-molecule
    Van der Waals/kʙ       -2.622673e+05 (-2.753862e+05 +/- 0.000000e+00) [K]
    Van der Waals (Tail)/kʙ-8.552888e+03 (-8.745669e+03 +/- 0.000000e+00) [K]
    Coulombic Real/kʙ      -7.576565e+04 (-8.421905e+04 +/- 0.000000e+00) [K]
    Coulombic Fourier/kʙ   -1.189622e+04 (-1.286922e+04 +/- 0.000000e+00) [K]
    Molecule Intra/kʙ       0.000000e+00 ( 0.000000e+00 +/- 0.000000e+00) [K]

Current cycle: 1300 out of 5000
===============================================================================

Box:      25.72633   0.00000   0.00000  Average:  25.83671   0.00000   0.00000
           0.00000  25.72633   0.00000             0.00000  25.83671   0.00000
           0.00000   0.00000  25.72633             0.00000   0.00000  25.83671
Lengths:  25.72633  25.72633  25.72633  Average:  25.83671  25.83671  25.83671
Angles:   90.00000  90.00000  90.00000  Average:  90.00000  90.00000  90.00000
Rectangular boundary conditions

net charge:   0.00000000

component 0 (CO2) lambda:  0 occupancy:  1 (1.000000)
    net charge:   0.00000000 [e]

Amount of molecules per component :
-------------------------------------------------------------------------------
Component 0 (CO2)
    molecules:      2.500000e+02 molecules  (2.500000e+02 +/- 0.000000e+00)
    number density: 1.468272e-02 molec./A^3 (1.450042e-02 +/- 0.000000e+00)
    density:        1.072745e+03 kg/m^3     (1.059425e+03 +/- 0.000000e+00)

Average pressure tensor: 
-------------------------------------------------------------------------------
-7.1501e+01  1.2113e+02  2.8641e+01 +/- 0.0000e+00 0.0000e+00 0.0000e+00 [bar]
 1.2113e+02  1.0237e+02 -3.3675e+01 +/- 0.0000e+00 0.0000e+00 0.0000e+00 [bar]
 2.8641e+01 -3.3675e+01  1.1223e+02 +/- 0.0000e+00 0.0000e+00 0.0000e+00 [bar]
Ideal-gas pressure:   5.005002e+02 +/ 0.000000e+00 [bar]
Excess pressure:     -4.528003e+02 +/ 0.000000e+00 [bar]
Pressure:             4.769992e+01 +/ 0.000000e+00 [bar]

Total potential energy/kʙ  -3.791624e+05 (-3.807944e+05 +/- 0.000000e+00) [K]
-------------------------------------------------------------------------------
ExternalField-molecule
    Van der Waals/kʙ        0.000000e+00 ( 0.000000e+00 +/- 0.000000e+00) [K]
Framework-molecule
    Van der Waals/kʙ        0.000000e+00 ( 0.000000e+00 +/- 0.000000e+00) [K]
    Van der Waals (Tail)/kʙ 0.000000e+00 ( 0.000000e+00 +/- 0.000000e+00) [K]
    Coulombic Real/kʙ       0.000000e+00 ( 0.000000e+00 +/- 0.000000e+00) [K]
    Coulombic Fourier/kʙ    0.000000e+00 ( 0.000000e+00 +/- 0.000000e+00) [K]
Molecule-molecule
    Van der Waals/kʙ       -2.731764e+05 (-2.750041e+05 +/- 0.000000e+00) [K]
    Van der Waals (Tail)/kʙ-8.849607e+03 (-8.737104e+03 +/- 0.000000e+00) [K]
    Coulombic Real/kʙ      -8.564505e+04 (-8.423478e+04 +/- 0.000000e+00) [K]
    Coulombic Fourier/kʙ   -1.149129e+04 (-1.281835e+04 +/- 0.000000e+00) [K]
    Molecule Intra/kʙ       0.000000e+00 ( 0.000000e+00 +/- 0.000000e+00) [K]

Current cycle: 1400 out of 5000
===============================================================================

Box:      26.12381   0.00000   0.00000  Average:  25.84954   0.00000   0.00000
           0.00000  26.12381   0.00000             0.00000  25.84954   0.00000
           0.00000   0.00000  26.12381             0.00000   0.00000  25.84954
Lengths:  26.12381  26.12381  26.12381  Average:  25.84954  25.84954  25.84954
Angles:   90.00000  90.00000  90.00000  Average:  90.00000  90.00000  90.00000
Rectangular boundary conditions

net charge:   0.00000000

component 0 (CO2) lambda:  0 occupancy:  1 (1.000000)
    net charge:   0.00000000 [e]

Amount of molecules per component :
-------------------------------------------------------------------------------
Component 0 (CO2)
    molecules:      2.500000e+02 molecules  (2.500000e+02 +/- 0.000000e+00)
    number density: 1.402267e-02 molec./A^3 (1.447890e-02 +/- 0.000000e+00)
    density:        1.024520e+03 kg/m^3     (1.057854e+03 +/- 0.000000e+00)

Average pressure tensor: 
-------------------------------------------------------------------------------
-4.6345e+01  1.0506e+02  3.5642e+01 +/- 0.0000e+00 0.0000e+00 0.0000e+00 [bar]
 1.0506e+02  9.3735e+01 -2.1201e+01 +/- 0.0000e+00 0.0000e+00 0.0000e+00 [bar]
 3.5642e+01 -2.1201e+01  1.2249e+02 +/- 0.0000e+00 0.0000e+00 0.0000e+00 [bar]
Ideal-gas pressure:   4.997576e+02 +/ 0.000000e+00 [bar]
Excess pressure:     -4.431315e+02 +/ 0.000000e+00 [bar]
Pressure:             5.662609e+01 +/ 0.000000e+00 [bar]

Total potential energy/kʙ  -3.677152e+05 (-3.801450e+05 +/- 0.000000e+00) [K]
-------------------------------------------------------------------------------
ExternalField-molecule
    Van der Waals/kʙ        0.000000e+00 ( 0.000000e+00 +/- 0.000000e+00) [K]
Framework-molecule
    Van der Waals/kʙ        0.000000e+00 ( 0.000000e+00 +/- 0.000000e+00) [K]
    Van der Waals (Tail)/kʙ 0.000000e+00 ( 0.000000e+00 +/- 0.000000e+00) [K]
    Coulombic Real/kʙ       0.000000e+00 ( 0.000000e+00 +/- 0.000000e+00) [K]
    Coulombic Fourier/kʙ    0.000000e+00 ( 0.000000e+00 +/- 0.000000e+00) [K]
Molecule-molecule
    Van der Waals/kʙ       -2.656082e+05 (-2.743765e+05 +/- 0.000000e+00) [K]
    Van der Waals (Tail)/kʙ-8.451776e+03 (-8.723876e+03 +/- 0.000000e+00) [K]
    Coulombic Real/kʙ      -8.023359e+04 (-8.422592e+04 +/- 0.000000e+00) [K]
    Coulombic Fourier/kʙ   -1.342153e+04 (-1.281879e+04 +/- 0.000000e+00) [K]
    Molecule Intra/kʙ       0.000000e+00 ( 0.000000e+00 +/- 0.000000e+00) [K]

Current cycle: 1500 out of 5000
===============================================================================

Box:      26.00057   0.00000   0.00000  Average:  25.84722   0.00000   0.00000
           0.00000  26.00057   0.00000             0.00000  25.84722   0.00000
           0.00000   0.00000  26.00057             0.00000   0.00000  25.84722
Lengths:  26.00057  26.00057  26.00057  Average:  25.84722  25.84722  25.84722
Angles:   90.00000  90.00000  90.00000  Average:  90.00000  90.00000  90.00000
Rectangular boundary conditions

net charge:   0.00000000

component 0 (CO2) lambda:  0 occupancy:  1 (1.000000)
    net charge:   0.00000000 [e]

Amount of molecules per component :
-------------------------------------------------------------------------------
Component 0 (CO2)
    molecules:      2.500000e+02 molecules  (2.500000e+02 +/- 0.000000e+00)
    number density: 1.422301e-02 molec./A^3 (1.448257e-02 +/- 0.000000e+00)
    density:        1.039157e+03 kg/m^3     (1.058122e+03 +/- 0.000000e+00)

Average pressure tensor: 
-------------------------------------------------------------------------------
-4.2875e+01  9.4869e+01  3.9050e+01 +/- 0.0000e+00 0.0000e+00 0.0000e+00 [bar]
 9.4869e+01  9.6171e+01 -3.1242e+01 +/- 0.0000e+00 0.0000e+00 0.0000e+00 [bar]
 3.9050e+01 -3.1242e+01  1.1766e+02 +/- 0.0000e+00 0.0000e+00 0.0000e+00 [bar]
Ideal-gas pressure:   4.998842e+02 +/ 0.000000e+00 [bar]
Excess pressure:     -4.429003e+02 +/ 0.000000e+00 [bar]
Pressure:             5.698390e+01 +/ 0.000000e+00 [bar]

Total potential energy/kʙ  -3.704162e+05 (-3.799545e+05 +/- 0.000000e+00) [K]
-------------------------------------------------------------------------------
ExternalField-molecule
    Van der Waals/kʙ        0.000000e+00 ( 0.000000e+00 +/- 0.000000e+00) [K]
Framework-molecule
    Van der Waals/kʙ        0.000000e+00 ( 0.000000e+00 +/- 0.000000e+00) [K]
    Van der Waals (Tail)/kʙ 0.000000e+00 ( 0.000000e+00 +/- 0.000000e+00) [K]
    Coulombic Real/kʙ       0.000000e+00 ( 0.000000e+00 +/- 0.000000e+00) [K]
    Coulombic Fourier/kʙ    0.000000e+00 ( 0.000000e+00 +/- 0.000000e+00) [K]
Molecule-molecule
    Van der Waals/kʙ       -2.665030e+05 (-2.743905e+05 +/- 0.000000e+00) [K]
    Van der Waals (Tail)/kʙ-8.572525e+03 (-8.726705e+03 +/- 0.000000e+00) [K]
    Coulombic Real/kʙ      -8.262229e+04 (-8.404278e+04 +/- 0.000000e+00) [K]
    Coulombic Fourier/kʙ   -1.271843e+04 (-1.279451e+04 +/- 0.000000e+00) [K]
    Molecule Intra/kʙ       0.000000e+00 ( 0.000000e+00 +/- 0.000000e+00) [K]

Current cycle: 1600 out of 5000
===============================================================================

Box:      25.83446   0.00000   0.00000  Average:  25.84983   0.00000   0.00000
           0.00000  25.83446   0.00000             0.00000  25.84983   0.00000
           0.00000   0.00000  25.83446             0.00000   0.00000  25.84983
Lengths:  25.83446  25.83446  25.83446  Average:  25.84983  25.84983  25.84983
Angles:   90.00000  90.00000  90.00000  Average:  90.00000  90.00000  90.00000
Rectangular boundary conditions

net charge:   0.00000000

component 0 (CO2) lambda:  0 occupancy:  1 (1.000000)
    net charge:   0.00000000 [e]

Amount of molecules per component :
-------------------------------------------------------------------------------
Component 0 (CO2)
    molecules:      2.500000e+02 molecules  (2.500000e+02 +/- 0.000000e+00)
    number density: 1.449912e-02 molec./A^3 (1.447793e-02 +/- 0.000000e+00)
    density:        1.059330e+03 kg/m^3     (1.057782e+03 +/- 0.000000e+00)

Average pressure tensor: 
-------------------------------------------------------------------------------
-2.7427e+01  9.3423e+01  3.9799e+01 +/- 0.0000e+00 0.0000e+00 0.0000e+00 [bar]
 9.3423e+01  8.6379e+01 -3.8121e+01 +/- 0.0000e+00 0.0000e+00 0.0000e+00 [bar]
 3.9799e+01 -3.8121e+01  1.2391e+02 +/- 0.0000e+00 0.0000e+00 0.0000e+00 [bar]
Ideal-gas pressure:   4.997239e+02 +/ 0.000000e+00 [bar]
Excess pressure:     -4.387709e+02 +/ 0.000000e+00 [bar]
Pressure:             6.095307e+01 +/ 0.000000e+00 [bar]

Total potential energy/kʙ  -3.805705e+05 (-3.800367e+05 +/- 0.000000e+00) [K]
-------------------------------------------------------------------------------
ExternalField-molecule
    Van der Waals/kʙ        0.000000e+00 ( 0.000000e+00 +/- 0.000000e+00) [K]
Framework-molecule
    Van der Waals/kʙ        0.000000e+00 ( 0.000000e+00 +/- 0.000000e+00) [K]
    Van der Waals (Tail)/kʙ 0.000000e+00 ( 0.000000e+00 +/- 0.000000e+00) [K]
    Coulombic Real/kʙ       0.000000e+00 ( 0.000000e+00 +/- 0.000000e+00) [K]
    Coulombic Fourier/kʙ    0.000000e+00 ( 0.000000e+00 +/- 0.000000e+00) [K]
Molecule-molecule
    Van der Waals/kʙ       -2.755383e+05 (-2.741987e+05 +/- 0.000000e+00) [K]
    Van der Waals (Tail)/kʙ-8.738943e+03 (-8.725063e+03 +/- 0.000000e+00) [K]
    Coulombic Real/kʙ      -8.441344e+04 (-8.431059e+04 +/- 0.000000e+00) [K]
    Coulombic Fourier/kʙ   -1.187976e+04 (-1.280232e+04 +/- 0.000000e+00) [K]
    Molecule Intra/kʙ       0.000000e+00 ( 0.000000e+00 +/- 0.000000e+00) [K]

Current cycle: 1700 out of 5000
===============================================================================

Box:      25.98518   0.00000   0.00000  Average:  25.85537   0.00000   0.00000
           0.00000  25.98518   0.00000             0.00000  25.85537   0.00000
           0.00000   0.00000  25.98518             0.00000   0.00000  25.85537
Lengths:  25.98518  25.98518  25.98518  Average:  25.85537  25.85537  25.85537
Angles:   90.00000  90.00000  90.00000  Average:  90.00000  90.00000  90.00000
Rectangular boundary conditions

net charge:   0.00000000

component 0 (CO2) lambda:  0 occupancy:  1 (1.000000)
    net charge:   0.00000000 [e]

Amount of molecules per component :
-------------------------------------------------------------------------------
Component 0 (CO2)
    molecules:      2.500000e+02 molecules  (2.500000e+02 +/- 0.000000e+00)
    number density: 1.424830e-02 molec./A^3 (1.446846e-02 +/- 0.000000e+00)
    density:        1.041005e+03 kg/m^3     (1.057091e+03 +/- 0.000000e+00)

Average pressure tensor: 
-------------------------------------------------------------------------------
-1.2956e+01  1.0029e+02  4.5420e+01 +/- 0.0000e+00 0.0000e+00 0.0000e+00 [bar]
 1.0029e+02  8.3767e+01 -2.8945e+01 +/- 0.0000e+00 0.0000e+00 0.0000e+00 [bar]
 4.5420e+01 -2.8945e+01  1.1187e+02 +/- 0.0000e+00 0.0000e+00 0.0000e+00 [bar]
Ideal-gas pressure:   4.993971e+02 +/ 0.000000e+00 [bar]
Excess pressure:     -4.385035e+02 +/ 0.000000e+00 [bar]
Pressure:             6.089365e+01 +/ 0.000000e+00 [bar]

Total potential energy/kʙ  -3.709970e+05 (-3.795739e+05 +/- 0.000000e+00) [K]
-------------------------------------------------------------------------------
ExternalField-molecule
    Van der Waals/kʙ        0.000000e+00 ( 0.000000e+00 +/- 0.000000e+00) [K]
Framework-molecule
    Van der Waals/kʙ        0.000000e+00 ( 0.000000e+00 +/- 0.000000e+00) [K]
    Van der Waals (Tail)/kʙ 0.000000e+00 ( 0.000000e+00 +/- 0.000000e+00) [K]
    Coulombic Real/kʙ       0.000000e+00 ( 0.000000e+00 +/- 0.000000e+00) [K]
    Coulombic Fourier/kʙ    0.000000e+00 ( 0.000000e+00 +/- 0.000000e+00) [K]
Molecule-molecule
    Van der Waals/kʙ       -2.682551e+05 (-2.739161e+05 +/- 0.000000e+00) [K]
    Van der Waals (Tail)/kʙ-8.587768e+03 (-8.719545e+03 +/- 0.000000e+00) [K]
    Coulombic Real/kʙ      -8.142890e+04 (-8.415185e+04 +/- 0.000000e+00) [K]
    Coulombic Fourier/kʙ   -1.272518e+04 (-1.278638e+04 +/- 0.000000e+00) [K]
    Molecule Intra/kʙ       0.000000e+00 ( 0.000000e+00 +/- 0.000000e+00) [K]

Current cycle: 1800 out of 5000
===============================================================================

Box:      26.09573   0.00000   0.00000  Average:  25.86405   0.00000   0.00000
           0.00000  26.09573   0.00000             0.00000  25.86405   0.00000
           0.00000   0.00000  26.09573             0.00000   0.00000  25.86405
Lengths:  26.09573  26.09573  26.09573  Average:  25.86405  25.86405  25.86405
Angles:   90.00000  90.00000  90.00000  Average:  90.00000  90.00000  90.00000
Rectangular boundary conditions

net charge:   0.00000000

component 0 (CO2) lambda:  0 occupancy:  1 (1.000000)
    net charge:   0.00000000 [e]

Amount of molecules per component :
-------------------------------------------------------------------------------
Component 0 (CO2)
    molecules:      2.500000e+02 molecules  (2.500000e+02 +/- 0.000000e+00)
    number density: 1.406798e-02 molec./A^3 (1.445390e-02 +/- 0.000000e+00)
    density:        1.027831e+03 kg/m^3     (1.056026e+03 +/- 0.000000e+00)

Average pressure tensor: 
-------------------------------------------------------------------------------
-7.1128e+00  1.0123e+02  5.0404e+01 +/- 0.0000e+00 0.0000e+00 0.0000e+00 [bar]
 1.0123e+02  7.2933e+01 -3.4436e+01 +/- 0.0000e+00 0.0000e+00 0.0000e+00 [bar]
 5.0404e+01 -3.4436e+01  1.0980e+02 +/- 0.0000e+00 0.0000e+00 0.0000e+00 [bar]
Ideal-gas pressure:   4.988944e+02 +/ 0.000000e+00 [bar]
Excess pressure:     -4.403532e+02 +/ 0.000000e+00 [bar]
Pressure:             5.854119e+01 +/ 0.000000e+00 [bar]

Total potential energy/kʙ  -3.721309e+05 (-3.792838e+05 +/- 0.000000e+00) [K]
-------------------------------------------------------------------------------
ExternalField-molecule
    Van der Waals/kʙ        0.000000e+00 ( 0.000000e+00 +/- 0.000000e+00) [K]
Framework-molecule
    Van der Waals/kʙ        0.000000e+00 ( 0.000000e+00 +/- 0.000000e+00) [K]
    Van der Waals (Tail)/kʙ 0.000000e+00 ( 0.000000e+00 +/- 0.000000e+00) [K]
    Coulombic Real/kʙ       0.000000e+00 ( 0.000000e+00 +/- 0.000000e+00) [K]
    Coulombic Fourier/kʙ    0.000000e+00 ( 0.000000e+00 +/- 0.000000e+00) [K]
Molecule-molecule
    Van der Waals/kʙ       -2.658367e+05 (-2.736846e+05 +/- 0.000000e+00) [K]
    Van der Waals (Tail)/kʙ-8.479086e+03 (-8.709084e+03 +/- 0.000000e+00) [K]
    Coulombic Real/kʙ      -8.539131e+04 (-8.409183e+04 +/- 0.000000e+00) [K]
    Coulombic Fourier/kʙ   -1.242373e+04 (-1.279832e+04 +/- 0.000000e+00) [K]
    Molecule Intra/kʙ       0.000000e+00 ( 0.000000e+00 +/- 0.000000e+00) [K]

Current cycle: 1900 out of 5000
===============================================================================

Box:      26.12312   0.00000   0.00000  Average:  25.88128   0.00000   0.00000
           0.00000  26.12312   0.00000             0.00000  25.88128   0.00000
           0.00000   0.00000  26.12312             0.00000   0.00000  25.88128
Lengths:  26.12312  26.12312  26.12312  Average:  25.88128  25.88128  25.88128
Angles:   90.00000  90.00000  90.00000  Average:  90.00000  90.00000  90.00000
Rectangular boundary conditions

net charge:   0.00000000

component 0 (CO2) lambda:  0 occupancy:  1 (1.000000)
    net charge:   0.00000000 [e]

Amount of molecules per component :
-------------------------------------------------------------------------------
Component 0 (CO2)
    molecules:      2.500000e+02 molecules  (2.500000e+02 +/- 0.000000e+00)
    number density: 1.402377e-02 molec./A^3 (1.442561e-02 +/- 0.000000e+00)
    density:        1.024601e+03 kg/m^3     (1.053960e+03 +/- 0.000000e+00)

Average pressure tensor: 
-------------------------------------------------------------------------------
-3.3515e+00  1.0578e+02  4.9117e+01 +/- 0.0000e+00 0.0000e+00 0.0000e+00 [bar]
 1.0578e+02  6.3127e+01 -3.6548e+01 +/- 0.0000e+00 0.0000e+00 0.0000e+00 [bar]
 4.9117e+01 -3.6548e+01  1.1597e+02 +/- 0.0000e+00 0.0000e+00 0.0000e+00 [bar]
Ideal-gas pressure:   4.979181e+02 +/ 0.000000e+00 [bar]
Excess pressure:     -4.393354e+02 +/ 0.000000e+00 [bar]
Pressure:             5.858265e+01 +/ 0.000000e+00 [bar]

Total potential energy/kʙ  -3.595269e+05 (-3.786745e+05 +/- 0.000000e+00) [K]
-------------------------------------------------------------------------------
ExternalField-molecule
    Van der Waals/kʙ        0.000000e+00 ( 0.000000e+00 +/- 0.000000e+00) [K]
Framework-molecule
    Van der Waals/kʙ        0.000000e+00 ( 0.000000e+00 +/- 0.000000e+00) [K]
    Van der Waals (Tail)/kʙ 0.000000e+00 ( 0.000000e+00 +/- 0.000000e+00) [K]
    Coulombic Real/kʙ       0.000000e+00 ( 0.000000e+00 +/- 0.000000e+00) [K]
    Coulombic Fourier/kʙ    0.000000e+00 ( 0.000000e+00 +/- 0.000000e+00) [K]
Molecule-molecule
    Van der Waals/kʙ       -2.646472e+05 (-2.732189e+05 +/- 0.000000e+00) [K]
    Van der Waals (Tail)/kʙ-8.452439e+03 (-8.693032e+03 +/- 0.000000e+00) [K]
    Coulombic Real/kʙ      -7.377349e+04 (-8.396581e+04 +/- 0.000000e+00) [K]
    Coulombic Fourier/kʙ   -1.265370e+04 (-1.279671e+04 +/- 0.000000e+00) [K]
    Molecule Intra/kʙ       0.000000e+00 ( 0.000000e+00 +/- 0.000000e+00) [K]

Current cycle: 2000 out of 5000
===============================================================================

Box:      26.33355   0.00000   0.00000  Average:  25.88906   0.00000   0.00000
           0.00000  26.33355   0.00000             0.00000  25.88906   0.00000
           0.00000   0.00000  26.33355             0.00000   0.00000  25.88906
Lengths:  26.33355  26.33355  26.33355  Average:  25.88906  25.88906  25.88906
Angles:   90.00000  90.00000  90.00000  Average:  90.00000  90.00000  90.00000
Rectangular boundary conditions

net charge:   0.00000000

component 0 (CO2) lambda:  0 occupancy:  1 (1.000000)
    net charge:   0.00000000 [e]

Amount of molecules per component :
-------------------------------------------------------------------------------
Component 0 (CO2)
    molecules:      2.500000e+02 molecules  (2.500000e+02 +/- 0.000000e+00)
    number density: 1.369026e-02 molec./A^3 (1.441260e-02 +/- 0.000000e+00)
    density:        1.000234e+03 kg/m^3     (1.053009e+03 +/- 0.000000e+00)

Average pressure tensor: 
-------------------------------------------------------------------------------
-6.5706e+00  9.1560e+01  5.2932e+01 +/- 0.0000e+00 0.0000e+00 0.0000e+00 [bar]
 9.1560e+01  6.9660e+01 -4.2783e+01 +/- 0.0000e+00 0.0000e+00 0.0000e+00 [bar]
 5.2932e+01 -4.2783e+01  1.1159e+02 +/- 0.0000e+00 0.0000e+00 0.0000e+00 [bar]
Ideal-gas pressure:   4.974690e+02 +/ 0.000000e+00 [bar]
Excess pressure:     -4.392428e+02 +/ 0.000000e+00 [bar]
Pressure:             5.822615e+01 +/ 0.000000e+00 [bar]

Total potential energy/kʙ  -3.527054e+05 (-3.781572e+05 +/- 0.000000e+00) [K]
-------------------------------------------------------------------------------
ExternalField-molecule
    Van der Waals/kʙ        0.000000e+00 ( 0.000000e+00 +/- 0.000000e+00) [K]
Framework-molecule
    Van der Waals/kʙ        0.000000e+00 ( 0.000000e+00 +/- 0.000000e+00) [K]
    Van der Waals (Tail)/kʙ 0.000000e+00 ( 0.000000e+00 +/- 0.000000e+00) [K]
    Coulombic Real/kʙ       0.000000e+00 ( 0.000000e+00 +/- 0.000000e+00) [K]
    Coulombic Fourier/kʙ    0.000000e+00 ( 0.000000e+00 +/- 0.000000e+00) [K]
Molecule-molecule
    Van der Waals/kʙ       -2.610276e+05 (-2.731071e+05 +/- 0.000000e+00) [K]
    Van der Waals (Tail)/kʙ-8.251425e+03 (-8.684929e+03 +/- 0.000000e+00) [K]
    Coulombic Real/kʙ      -7.134061e+04 (-8.360331e+04 +/- 0.000000e+00) [K]
    Coulombic Fourier/kʙ   -1.208575e+04 (-1.276186e+04 +/- 0.000000e+00) [K]
    Molecule Intra/kʙ       0.000000e+00 ( 0.000000e+00 +/- 0.000000e+00) [K]

Current cycle: 2100 out of 5000
===============================================================================

Box:      26.24412   0.00000   0.00000  Average:  25.90286   0.00000   0.00000
           0.00000  26.24412   0.00000             0.00000  25.90286   0.00000
           0.00000   0.00000  26.24412             0.00000   0.00000  25.90286
Lengths:  26.24412  26.24412  26.24412  Average:  25.90286  25.90286  25.90286
Angles:   90.00000  90.00000  90.00000  Average:  90.00000  90.00000  90.00000
Rectangular boundary conditions

net charge:   0.00000000

component 0 (CO2) lambda:  0 occupancy:  1 (1.000000)
    net charge:   0.00000000 [e]

Amount of molecules per component :
-------------------------------------------------------------------------------
Component 0 (CO2)
    molecules:      2.500000e+02 molecules  (2.500000e+02 +/- 0.000000e+00)
    number density: 1.383069e-02 molec./A^3 (1.438987e-02 +/- 0.000000e+00)
    density:        1.010494e+03 kg/m^3     (1.051349e+03 +/- 0.000000e+00)

Average pressure tensor: 
-------------------------------------------------------------------------------
-1.2734e+00  8.7140e+01  5.7321e+01 +/- 0.0000e+00 0.0000e+00 0.0000e+00 [bar]
 8.7140e+01  6.4162e+01 -3.7267e+01 +/- 0.0000e+00 0.0000e+00 0.0000e+00 [bar]
 5.7321e+01 -3.7267e+01  1.0464e+02 +/- 0.0000e+00 0.0000e+00 0.0000e+00 [bar]
Ideal-gas pressure:   4.966846e+02 +/ 0.000000e+00 [bar]
Excess pressure:     -4.408409e+02 +/ 0.000000e+00 [bar]
Pressure:             5.584370e+01 +/ 0.000000e+00 [bar]

Total potential energy/kʙ  -3.587648e+05 (-3.775161e+05 +/- 0.000000e+00) [K]
-------------------------------------------------------------------------------
ExternalField-molecule
    Van der Waals/kʙ        0.000000e+00 ( 0.000000e+00 +/- 0.000000e+00) [K]
Framework-molecule
    Van der Waals/kʙ        0.000000e+00 ( 0.000000e+00 +/- 0.000000e+00) [K]
    Van der Waals (Tail)/kʙ 0.000000e+00 ( 0.000000e+00 +/- 0.000000e+00) [K]
[...]
    Coulombic Fourier/kʙ    0.000000e+00 ( 0.000000e+00 +/- 0.000000e+00) [K]
Molecule-molecule
    Van der Waals/kʙ       -2.705148e+05 (-2.725485e+05 +/- 5.788371e+03) [K]
    Van der Waals (Tail)/kʙ-8.617249e+03 (-8.664264e+03 +/- 1.621268e+02) [K]
    Coulombic Real/kʙ      -7.865487e+04 (-8.350094e+04 +/- 1.878245e+03) [K]
    Coulombic Fourier/kʙ   -1.327927e+04 (-1.271998e+04 +/- 3.489572e+02) [K]
    Molecule Intra/kʙ       0.000000e+00 ( 0.000000e+00 +/- 0.000000e+00) [K]

Current cycle: 4700 out of 5000
===============================================================================

Box:      25.94097   0.00000   0.00000  Average:  25.91129   0.00000   0.00000
           0.00000  25.94097   0.00000             0.00000  25.91129   0.00000
           0.00000   0.00000  25.94097             0.00000   0.00000  25.91129
Lengths:  25.94097  25.94097  25.94097  Average:  25.91129  25.91129  25.91129
Angles:   90.00000  90.00000  90.00000  Average:  90.00000  90.00000  90.00000
Rectangular boundary conditions

net charge:   0.00000000

component 0 (CO2) lambda:  0 occupancy:  1 (1.000000)
    net charge:   0.00000000 [e]

Amount of molecules per component :
-------------------------------------------------------------------------------
Component 0 (CO2)
    molecules:      2.500000e+02 molecules  (2.500000e+02 +/- 3.944933e-14)
    number density: 1.432126e-02 molec./A^3 (1.437646e-02 +/- 2.570662e-04)
    density:        1.046336e+03 kg/m^3     (1.050369e+03 +/- 1.878169e+01)

Average pressure tensor: 
-------------------------------------------------------------------------------
 1.7370e+01  3.4569e+01  2.8017e+01 +/- 5.7725e+01 7.7288e+01 5.5051e+01 [bar]
 3.4569e+01  5.8935e+01 -1.3350e+01 +/- 7.7288e+01 6.6186e+01 7.0626e+01 [bar]
 2.8017e+01 -1.3350e+01  6.4321e+01 +/- 5.5051e+01 7.0626e+01 5.6705e+01 [bar]
Ideal-gas pressure:   4.962216e+02 +/ 8.872962e+00 [bar]
Excess pressure:     -4.493462e+02 +/ 2.514667e+01 [bar]
Pressure:             4.687542e+01 +/ 2.786832e+01 [bar]

Total potential energy/kʙ  -3.784438e+05 (-3.774030e+05 +/- 7.749807e+03) [K]
-------------------------------------------------------------------------------
ExternalField-molecule
    Van der Waals/kʙ        0.000000e+00 ( 0.000000e+00 +/- 0.000000e+00) [K]
Framework-molecule
    Van der Waals/kʙ        0.000000e+00 ( 0.000000e+00 +/- 0.000000e+00) [K]
    Van der Waals (Tail)/kʙ 0.000000e+00 ( 0.000000e+00 +/- 0.000000e+00) [K]
    Coulombic Real/kʙ       0.000000e+00 ( 0.000000e+00 +/- 0.000000e+00) [K]
    Coulombic Fourier/kʙ    0.000000e+00 ( 0.000000e+00 +/- 0.000000e+00) [K]
Molecule-molecule
    Van der Waals/kʙ       -2.756343e+05 (-2.725107e+05 +/- 5.629256e+03) [K]
    Van der Waals (Tail)/kʙ-8.631745e+03 (-8.662981e+03 +/- 1.583097e+02) [K]
    Coulombic Real/kʙ      -8.128639e+04 (-8.350380e+04 +/- 1.734549e+03) [K]
    Coulombic Fourier/kʙ   -1.289139e+04 (-1.272552e+04 +/- 3.161068e+02) [K]
    Molecule Intra/kʙ       0.000000e+00 ( 0.000000e+00 +/- 0.000000e+00) [K]

Current cycle: 4800 out of 5000
===============================================================================

Box:      25.68004   0.00000   0.00000  Average:  25.90690   0.00000   0.00000
           0.00000  25.68004   0.00000             0.00000  25.90690   0.00000
           0.00000   0.00000  25.68004             0.00000   0.00000  25.90690
Lengths:  25.68004  25.68004  25.68004  Average:  25.90690  25.90690  25.90690
Angles:   90.00000  90.00000  90.00000  Average:  90.00000  90.00000  90.00000
Rectangular boundary conditions

net charge:   0.00000000

component 0 (CO2) lambda:  0 occupancy:  1 (1.000000)
    net charge:   0.00000000 [e]

Amount of molecules per component :
-------------------------------------------------------------------------------
Component 0 (CO2)
    molecules:      2.500000e+02 molecules  (2.500000e+02 +/- 0.000000e+00)
    number density: 1.476226e-02 molec./A^3 (1.438378e-02 +/- 2.380623e-04)
    density:        1.078556e+03 kg/m^3     (1.050903e+03 +/- 1.739324e+01)

Average pressure tensor: 
-------------------------------------------------------------------------------
 2.1257e+01  3.2094e+01  2.6462e+01 +/- 6.4010e+01 7.8649e+01 5.6179e+01 [bar]
 3.2094e+01  5.6242e+01 -1.4070e+01 +/- 7.8649e+01 6.9049e+01 7.0813e+01 [bar]
 2.6462e+01 -1.4070e+01  6.7044e+01 +/- 5.6179e+01 7.0813e+01 5.5833e+01 [bar]
Ideal-gas pressure:   4.964742e+02 +/ 8.217020e+00 [bar]
Excess pressure:     -4.482935e+02 +/ 2.559892e+01 [bar]
Pressure:             4.818071e+01 +/ 2.776203e+01 [bar]

Total potential energy/kʙ  -3.889738e+05 (-3.775538e+05 +/- 7.210847e+03) [K]
-------------------------------------------------------------------------------
ExternalField-molecule
    Van der Waals/kʙ        0.000000e+00 ( 0.000000e+00 +/- 0.000000e+00) [K]
Framework-molecule
    Van der Waals/kʙ        0.000000e+00 ( 0.000000e+00 +/- 0.000000e+00) [K]
    Van der Waals (Tail)/kʙ 0.000000e+00 ( 0.000000e+00 +/- 0.000000e+00) [K]
    Coulombic Real/kʙ       0.000000e+00 ( 0.000000e+00 +/- 0.000000e+00) [K]
    Coulombic Fourier/kʙ    0.000000e+00 ( 0.000000e+00 +/- 0.000000e+00) [K]
Molecule-molecule
    Van der Waals/kʙ       -2.792860e+05 (-2.726260e+05 +/- 5.278806e+03) [K]
    Van der Waals (Tail)/kʙ-8.897544e+03 (-8.667588e+03 +/- 1.467214e+02) [K]
    Coulombic Real/kʙ      -8.789293e+04 (-8.352291e+04 +/- 1.598934e+03) [K]
    Coulombic Fourier/kʙ   -1.289736e+04 (-1.273731e+04 +/- 2.848084e+02) [K]
    Molecule Intra/kʙ       0.000000e+00 ( 0.000000e+00 +/- 0.000000e+00) [K]

Current cycle: 4900 out of 5000
===============================================================================

Box:      25.93941   0.00000   0.00000  Average:  25.90284   0.00000   0.00000
           0.00000  25.93941   0.00000             0.00000  25.90284   0.00000
           0.00000   0.00000  25.93941             0.00000   0.00000  25.90284
Lengths:  25.93941  25.93941  25.93941  Average:  25.90284  25.90284  25.90284
Angles:   90.00000  90.00000  90.00000  Average:  90.00000  90.00000  90.00000
Rectangular boundary conditions

net charge:   0.00000000

component 0 (CO2) lambda:  0 occupancy:  1 (1.000000)
    net charge:   0.00000000 [e]

Amount of molecules per component :
-------------------------------------------------------------------------------
Component 0 (CO2)
    molecules:      2.500000e+02 molecules  (2.500000e+02 +/- 0.000000e+00)
    number density: 1.432385e-02 molec./A^3 (1.439057e-02 +/- 2.273115e-04)
    density:        1.046525e+03 kg/m^3     (1.051399e+03 +/- 1.660777e+01)

Average pressure tensor: 
-------------------------------------------------------------------------------
 2.3880e+01  3.0163e+01  2.6452e+01 +/- 6.6542e+01 7.9713e+01 5.5472e+01 [bar]
 3.0163e+01  5.5377e+01 -1.2174e+01 +/- 7.9713e+01 6.8012e+01 6.9784e+01 [bar]
 2.6452e+01 -1.2174e+01  6.9510e+01 +/- 5.5472e+01 6.9784e+01 5.6362e+01 [bar]
Ideal-gas pressure:   4.967085e+02 +/ 7.845944e+00 [bar]
Excess pressure:     -4.471195e+02 +/ 2.638259e+01 [bar]
Pressure:             4.958904e+01 +/ 2.831106e+01 [bar]

Total potential energy/kʙ  -3.798792e+05 (-3.777857e+05 +/- 6.762690e+03) [K]
-------------------------------------------------------------------------------
ExternalField-molecule
    Van der Waals/kʙ        0.000000e+00 ( 0.000000e+00 +/- 0.000000e+00) [K]
Framework-molecule
    Van der Waals/kʙ        0.000000e+00 ( 0.000000e+00 +/- 0.000000e+00) [K]
    Van der Waals (Tail)/kʙ 0.000000e+00 ( 0.000000e+00 +/- 0.000000e+00) [K]
    Coulombic Real/kʙ       0.000000e+00 ( 0.000000e+00 +/- 0.000000e+00) [K]
    Coulombic Fourier/kʙ    0.000000e+00 ( 0.000000e+00 +/- 0.000000e+00) [K]
Molecule-molecule
    Van der Waals/kʙ       -2.748072e+05 (-2.727742e+05 +/- 5.021961e+03) [K]
    Van der Waals (Tail)/kʙ-8.633304e+03 (-8.671348e+03 +/- 1.406443e+02) [K]
    Coulombic Real/kʙ      -8.308849e+04 (-8.359640e+04 +/- 1.412558e+03) [K]
    Coulombic Fourier/kʙ   -1.335016e+04 (-1.274375e+04 +/- 2.721149e+02) [K]
    Molecule Intra/kʙ       0.000000e+00 ( 0.000000e+00 +/- 0.000000e+00) [K]


Energy statistics             |  Energy [K]   | Recomputed [K]|  Drift [K]    |
===============================================================================
Total potential energy/kʙ     | -3.748866e+05 | -3.748866e+05 |  1.610179e-09 |
    external field VDW/kʙ     |  0.000000e+00 |  0.000000e+00 |  0.000000e+00 |
    external field Real/kʙ    |  0.000000e+00 |  0.000000e+00 |  0.000000e+00 |
    framework-molecule VDW/kʙ |  0.000000e+00 |  0.000000e+00 |  0.000000e+00 |
    framework-molecule Real/kʙ|  0.000000e+00 |  0.000000e+00 |  0.000000e+00 |
    molecule-molecule VDW/kʙ  | -2.720901e+05 | -2.720901e+05 |  1.575175e-09 |
    molecule-molecule Real/kʙ | -8.259195e+04 | -8.259195e+04 |  5.250583e-11 |
    Van der Waals (Tail)/kʙ   | -8.471999e+03 | -8.471999e+03 |  0.000000e+00 |
    Ewald Fourier/kʙ          |  1.095888e+04 |  1.095888e+04 | -1.750194e-11 |
    Ewald self/kʙ             | -5.029674e+06 | -5.029674e+06 |  0.000000e+00 |
    Ewald exclusion/kʙ        |  5.006983e+06 |  5.006983e+06 |  0.000000e+00 |
    intra VDW/kʙ              |  0.000000e+00 |  0.000000e+00 |  0.000000e+00 |
    intra Coulombic/kʙ        |  0.000000e+00 |  0.000000e+00 |  0.000000e+00 |
    polarization/kʙ           |  0.000000e+00 |  0.000000e+00 |  0.000000e+00 |
    dU/dlambda VDW/kʙ         |  0.000000e+00 |  0.000000e+00 |  0.000000e+00 |
    dU/dlambda Real/kʙ        |  0.000000e+00 |  0.000000e+00 |  0.000000e+00 |
    dU/dlambda Ewald/kʙ       |  0.000000e+00 |  0.000000e+00 |  0.000000e+00 |
-------------------------------------------------------------------------------


Monte-Carlo moves statistics
===============================================================================

    Volume change        all:                8287
    Volume change        total:              8287
    Volume change        constructed:        8287
    Volume change        accepted:           2309
    Volume change        fraction:       0.278629
    Volume change        max-change:     0.050000

Component 0 [CO2]
    Reinsertion (CBMC)   all:              414850
    Reinsertion (CBMC)   total:            414850
    Reinsertion (CBMC)   constructed:      372801
    Reinsertion (CBMC)   accepted:           6495
    Reinsertion (CBMC)   fraction:       0.015656
    Reinsertion (CBMC)   max-change:     0.000000

    Translation          all:              412830
    Translation          total:            138082     137603     137145
    Translation          constructed:      138082     137603     137145
    Translation          accepted:          66211      70206      71008
    Translation          fraction:       0.479505   0.510207   0.517759
    Translation          max-change:     0.720000   0.653895   0.633484

    Rotation             all:              414033
    Rotation             total:            137905     138198     137930
    Rotation             constructed:      137859     138197     137875
    Rotation             accepted:          53862      63254      53450
    Rotation             fraction:       0.390573   0.457706   0.387515
    Rotation             max-change:     1.009615   0.803828   1.028571



Production run counting of the MC moves summed over systems and components
===============================================================================

Volume change                          8287 (0.6630 [%])
Reinsertion (CBMC)                   414850 (33.1880 [%])
Translation                          412830 (33.0264 [%])
Rotation                             414033 (33.1226 [%])

Production count MC-steps:          1250000 [-]
               All summed:          1250000 [-]
               difference:                0 [-]


Production run CPU timings of the MC moves
===============================================================================

Component 0 CO2

Rotation                             59.626310 [s]
    Ewald                            23.278052 [s]
    ExternalField-Molecule            0.014516 [s]
    Framework-Molecule                0.013440 [s]
    Molecule-Molecule                34.596169 [s]
    Overhead                          1.724133 [s]

Reinsertion (CBMC)                  256.993937 [s]
    Ewald                            21.081865 [s]
    NonEwald                        235.506068 [s]
    Overhead                          0.406004 [s]

Translation                          59.827267 [s]
    Ewald                            23.203231 [s]
    ExternalField-Molecule            0.012874 [s]
    Framework-Molecule                0.024159 [s]
    Molecule-Molecule                34.646233 [s]
    Overhead                          1.940770 [s]



Volume change                         70.948658 [s]
    Ewald                             23.995291 [s]
    NonEwald                          43.366230 [s]
    Tail                               3.202247 [s]

Property sampling                     0.308230 [s]
Energy/pressure sampling:             8.335061 [s]


Production run CPU timings of the MC moves summed over systems and components
===============================================================================


Translation                          59.827267 [s]
    Ewald                            23.203231 [s]
    ExternalField-Molecule            0.012874 [s]
    Framework-Molecule                0.024159 [s]
    Molecule-Molecule                34.646233 [s]
    Overhead                          1.940770 [s]

Rotation                             59.626310 [s]
    Ewald                            23.278052 [s]
    ExternalField-Molecule            0.014516 [s]
    Framework-Molecule                0.013440 [s]
    Molecule-Molecule                34.596169 [s]
    Overhead                          1.724133 [s]

Volume change                        70.948658 [s]
    Ewald                            23.995291 [s]
    NonEwald                         43.366230 [s]
    Tail                              3.202247 [s]
    Overhead                          0.384890 [s]

Reinsertion (CBMC)                  256.993937 [s]
    Ewald                            21.081865 [s]
    NonEwald                        235.506068 [s]
    Overhead                          0.406004 [s]

Property sampling:                    0.308230 [s]
Energy/pressure sampling:             8.335061 [s]

Production simulation time:         456.950919 [s]
                All summed:         456.039463 [s]
                  Overhead:           0.911456 [s]


Initalization simulation time:       89.345923 [s]
Equilibration simulation time:        0.000000 [s]
Production simulation time:         456.950919 [s]
Total simulation time:              546.296842 [s]


Energy averages and statistics:
===============================================================================

Framework-molecule energy:
-------------------------------------------------------------------------------



Framework-molecule energy contributions per energy type:
-------------------------------------------------------------------------------



Inter-molecular energy:
-------------------------------------------------------------------------------

    Inter-molecular energy/kʙ 0-0 [CO2-CO2]:
    ---------------------------------------------------------------------------
        Block[  0] -3.838825e+05
        Block[  1] -3.726864e+05
        Block[  2] -3.745641e+05
        Block[  3] -3.833866e+05
        Block[  4] -3.737856e+05
        -----------------------------------------------------------------------
        Average  -3.776611e+05 +/-  6.823724e+03 [K]



Inter-molecular energy contributions per energy type:
-------------------------------------------------------------------------------

    Van der Waals energy/kʙ 0-0 [CO2-CO2]:
    ---------------------------------------------------------------------------
        Block[  0] -2.771555e+05
        Block[  1] -2.691795e+05
        Block[  2] -2.698639e+05
        Block[  3] -2.771213e+05
        Block[  4] -2.701853e+05
        -----------------------------------------------------------------------
        Average  -2.727011e+05 +/-  5.048971e+03 [K]

    VDW Tail-Correction energy/kʙ 0-0 [CO2-CO2]:
    ---------------------------------------------------------------------------
        Block[  0] -8.798526e+03
        Block[  1] -8.575666e+03
        Block[  2] -8.580394e+03
        Block[  3] -8.788477e+03
        Block[  4] -8.601377e+03
        -----------------------------------------------------------------------
        Average  -8.668888e+03 +/-  1.418026e+02 [K]

    Coulomb Real energy/kʙ 0-0 [CO2-CO2]:
    ---------------------------------------------------------------------------
        Block[  0] -8.492007e+04
        Block[  1] -8.240917e+04
        Block[  2] -8.348912e+04
        Block[  3] -8.453345e+04
        Block[  4] -8.241628e+04
        -----------------------------------------------------------------------
        Average  -8.355362e+04 +/-  1.447082e+03 [K]

    Coulomb Fourier energy/kʙ 0-0 [CO2-CO2]:
    ---------------------------------------------------------------------------
        Block[  0] -1.300845e+04
        Block[  1] -1.252203e+04
        Block[  2] -1.263076e+04
        Block[  3] -1.294344e+04
        Block[  4] -1.258264e+04
        -----------------------------------------------------------------------
        Average  -1.273746e+04 +/-  2.759468e+02 [K]


Total energy/kʙ
-------------------------------------------------------------------------------
    Block[  0] -3.838825e+05
    Block[  1] -3.726864e+05
    Block[  2] -3.745641e+05
    Block[  3] -3.833866e+05
    Block[  4] -3.737856e+05
    ---------------------------------------------------------------------------
    Average  -3.776611e+05 +/-  6.823724e+03 [K]

Pressure averages and statistics:
===============================================================================

Average pressure tensor: 
-------------------------------------------------------------------------------
 2.7139e+01  2.7568e+01  2.5708e+01 +/- 7.0364e+01 8.1401e+01 5.5649e+01 [bar]
 2.7568e+01  5.5654e+01 -1.5230e+01 +/- 8.1401e+01 6.5390e+01 7.0993e+01 [bar]
 2.5708e+01 -1.5230e+01  6.9538e+01 +/- 5.5649e+01 7.0993e+01 5.6289e+01 [bar]

    Block[  0]  5.038781e+07
    Block[  1]  4.910848e+07
    Block[  2]  4.918810e+07
    Block[  3]  5.031325e+07
    Block[  4]  4.929347e+07
    ---------------------------------------------------------------------------
    Ideal gas pressure   4.965822e+07 +/-  4.754391e-02 [Pa]
                         4.965822e+02 +/-  7.894858e+00 [bar]


    Block[  0] -4.499280e+07
    Block[  1] -4.284619e+07
    Block[  2] -4.822549e+07
    Block[  3] -4.386603e+07
    Block[  4] -4.297208e+07
    ---------------------------------------------------------------------------
    Excess pressure  -4.458052e+07 +/-  2.745380e+06 [Pa]
                     -4.458052e+02 +/-  2.745380e+01 [bar]


    Block[  0]  5.395012e+06
    Block[  1]  6.262294e+06
    Block[  2]  9.626130e+05
    Block[  3]  6.447221e+06
    Block[  4]  6.321389e+06
    ---------------------------------------------------------------------------
    Pressure average   5.077706e+06 +/-  2.902231e+06 [Pa]
                       5.077706e+01 +/-  2.902231e+01 [bar]


Enthalpy of adsorption
===============================================================================

No fluctuating components present.


Densities
===============================================================================

Component 0 (CO2)
    Block[  0] 250
    Block[  1] 250
    Block[  2] 250
    Block[  3] 250
    Block[  4] 250
    -----------------------------------------------------------------------
    Density average   2.500000e+02 +/-  0.000000e+00 [molecules]
    Density average   1.438691e-02 +/-  2.287287e-04 [molec/A^3]
    Density average   1.051132e+03 +/-  1.671131e+01 [kg.m⁻³]

