Compiler and run-time data
===============================================================================
RASPA 3.0.6

Random seed: 4087795829

Compiled as a 64-bits application
Compiler: gcc Clang 19.1.7 (https://github.com/conda-forge/clangdev-feedstock 966d7cbbe6cf2286c2ec30c49d8e957ba220cf18)
Compile Date = Jun 10 2025, Compile Time = 17:20:02

2025-06-11 07:55:18.588972297
Simulation started on Wed, Jun 11
The start time was 07:55:00

Hostname:    1NNMVV3
OS type:     Linux on x86_64
OS release:  5.15.167.4-microsoft-standard-WSL2
OS version:  #1 SMP Tue Nov 5 00:21:55 UTC 2024


Mutual consistent basic set of units:
===============================================================================

Unit of temperature: 1 [K]
Unit of length:      1e-10 [m]
Unit of time:        1e-12 [s]
Unit of mass:        1.6605402e-27 [kg]
Unit of charge:      1.60217733e-19 [C/particle]


Boltzmann constant (internal units):          0.8314464919307584 [-]
represents conversion from energy (internal units) to temperature (in Kelvin)

Derived units and their conversion factors:
===============================================================================

Unit of energy:                           1.6605402000000002e-23 [J]
Unit of energy:                           10.000008872307538 [J.mol⁻¹]
Unit of velocity:                         100 [m.s⁻¹]
Unit of force:                            1.6605402000000002e-13 [N]
Unit of diffusion:                        1e-08 [m².s⁻¹]
Unit of acceleration:                     1e-08 [m².s⁻¹]
Unit of torque:                           1.6605402000000002e-23 [N.m]
Unit of pressure:                         16605402 [Pa]
Unit of volume:                           1e-30 [m³]
Unit of density:                          1660.5402 [kg.m⁻³]
Unit of dynamic viscosity:                1.6605401999999997e-05 [N.s.m⁻²]
Unit of enthalpy:                         1.6605402000000002e-23 [J]
Unit of polarizability:                   1.5458657349975198e-35 [-]
Unit of Coulomb potential:                167101.08000665612 [K]
Unit of dielectric constant:              1.5458657349975193e-05 [s².C².kg⁻¹.m⁻³]
Unit of dipole moment:                    1.60217733e-29 [C.m]
Unit of Debye:                            4.803206799099162 [C.m]
Unit of electric potential:               0.00010364272224473431 [V]
Unit of electric field:                   1036427.222447343 [V.m⁻¹]
Unit of isothermal compressibility:       6.02213665167516e-08 [Pa⁻¹]
Unit of heat capacity:                    10.000008872307538 [J.mol⁻¹.K⁻¹]
Unit of volumetric expansion coefficient: 1 [K⁻¹]


Internal conversion factors:
===============================================================================

Energy (internal units) to Kelvin:      1.202724284692786 [-]
Kelvin to energy (internal units):      0.8314457542157567 [-]


System definitions
===============================================================================

Temperature:          250 [K]
Beta:                 0.0048108928702210625 [-]
Pressure:             2e+07 [Pa]
Helium void fraction: 1 [-]

Box:      30.00000   0.00000   0.00000
           0.00000  30.00000   0.00000
           0.00000   0.00000  30.00000
Lengths:  30.00000  30.00000  30.00000
Angles:   90.00000  90.00000  90.00000
Rectangular boundary conditions
Perpendicular widths:   30.00000  30.00000  30.00000




Property measurement settings
===============================================================================




Pseudo-atoms
===============================================================================

  0 - C_co2    framework-atom: false
  1 - O_co2    framework-atom: false

  0 - C_co2    mass: 12.00000, charge:  0.70000
  1 - O_co2    mass: 15.99940, charge: -0.35000

  0 - C_co2    polarizability:  0.00000
  1 - O_co2    polarizability:  0.00000

  0 - J. J. Potoff et al., AIChE J. 2001, 47, 1676–1682.
  1 - J. J. Potoff et al., AIChE J. 2001, 47, 1676–1682.

Force field status
===============================================================================

Cutoff Framework-Molecule VDW:  12.00000 [Å]
Cutoff Molecule-Molecule VDW:   12.00000 [Å]
Cutoff Coulomb:                 auto
Overlap-criteria VDW:           1.000000e+05 [K]

C_co2    - C_co2    Lennard-Jones p₀/kʙ:  27.00000 [K], p₁:  2.80000 [Å]
                                  shift:   0.00000 [K], tailcorrections: true
C_co2    - O_co2    Lennard-Jones p₀/kʙ:  46.18441 [K], p₁:  2.92500 [Å]
                                  shift:   0.00000 [K], tailcorrections: true
O_co2    - O_co2    Lennard-Jones p₀/kʙ:  79.00000 [K], p₁:  3.05000 [Å]
                                  shift:   0.00000 [K], tailcorrections: true

Ewald precision: 1e-06
Ewald alpha: 0.20980045401362232
Ewald k-vectors: 7 7 7


Component definitions
===============================================================================

Component 0 [CO2]

    Type: Adsorbate

    Critical temperature:  304.1282 [K]
    Critical pressure:     7377300 [Pa]
    Acentric factor:       0.22394 [-]

    Mol-fraction:                 1 [-]
    Swappable:                   false

    Mass:                         43.9988 [-]
    Bulk fluid density:           0 [-]
    Compressibility:              0 [-]
    Excess molecules:             0 [-]

    Number Of Atoms:    3
    CBMC starting bead: 0
      0: O_co2  position  0.00000 -0.00000  1.16000, charge -0.35000
      1: C_co2  position  0.00000 -0.00000  0.00000, charge  0.70000
      2: O_co2  position  0.00000 -0.00000 -1.16000, charge -0.35000
    Diagonalized inertia-vector:      43.05758528 43.05758528 0.00000000
    Translational degrees of freedom: 3
    Rotational degrees of freedom:    2
    Shape of the molecule is: 'Linear'
    Net-charge:        0.00000000 [e]

    Move probabilities:
    Translation:                   0.331126 [-]
    Random translation:            0.000000 [-]
    Rotation:                      0.331126 [-]
    Random rotation:               0.000000 [-]
    Volume change:                 0.006623 [-]
    Reinsertion (CBMC):            0.331126 [-]
    Identity change (CBMC):        0.000000 [-]
    Swap:                          0.000000 [-]
    Swap (CBMC):                   0.000000 [-]
    Swap (CFCMC):                  0.000000 [-]
    Swap (CB/CFCMC):               0.000000 [-]
    Gibbs volume:                  0.000000 [-]
    Gibbs swap (CBMC):             0.000000 [-]
    Gibbs swap (CFCMC):            0.000000 [-]
    Widom:                         0.000000 [-]
    Widom (CFCMC):                 0.000000 [-]
    Widom (CB/CFCMC):              0.000000 [-]
    Parallel tempering:            0.000000 [-]
    Hybrid MC:                     0.000000 [-]

    number of blocking-pockets: 0

    number of bonds: 0





Number of pseudo-atoms
===============================================================================

Component   0 (CO2)
-------------------------------------------------------------------------------
    index   0 (C_co2): 250 atoms
    index   1 (O_co2): 500 atoms

Total number of pseudo-atoms:
-------------------------------------------------------------------------------
    index   0 (C_co2): 250 atoms
    index   1 (O_co2): 500 atoms




Energy status Recomputed from scratch
===============================================================================

Total potential energy/kʙ       -8.643653e+04 [K]
    external field VDW/kʙ        0.000000e+00 [K]
    external field Real/kʙ       0.000000e+00 [K]
    framework-molecule VDW/kʙ    0.000000e+00 [K]
    framework-molecule Real/kʙ   0.000000e+00 [K]
    molecule-molecule VDW/kʙ    -4.247224e+04 [K]
    molecule-molecule Real/kʙ   -3.884569e+04 [K]
    Van der Waals (Tail)/kʙ     -4.298852e+03 [K]
    Ewald Fourier/kʙ             3.937225e+03 [K]
    Ewald self/kʙ               -3.634445e+06 [K]
    Ewald exclusion/kʙ           3.629688e+06 [K]
    intra VDW/kʙ                 0.000000e+00 [K]
    intra Coulombic/kʙ           0.000000e+00 [K]
    polarization/kʙ              0.000000e+00 [K]
    dU/dlambda VDW/kʙ            0.000000e+00 [K]
    dU/dlambda Real/kʙ           0.000000e+00 [K]
    dU/dlambda Ewald/kʙ          0.000000e+00 [K]





Initialization: Current cycle: 0 out of 1000
===============================================================================

Box:      30.00000   0.00000   0.00000
           0.00000  30.00000   0.00000
           0.00000   0.00000  30.00000
Lengths:  30.00000  30.00000  30.00000
Angles:   90.00000  90.00000  90.00000
Rectangular boundary conditions
Perpendicular widths:   30.00000  30.00000  30.00000


Net charge:   0.00000000
Cutoff Coulomb:  15.00000 [Å]
Ewald alpha: 0.20980045401362232
Ewald k-vectors: 7 7 7


component   0 (CO2) lambda:  0 occupancy:  1 (1.000000)
    net charge:   0.00000000 [e]

Amount of molecules per component :
-------------------------------------------------------------------------------
Component 0 (CO2)
    molecules:         2.500000e+02 molecules
    number density:    9.259259e-03 molec/A^3
    density:           6.764973e+02 kg/m^3

Total potential energy/kʙ       -1.699052e+05 [K]
-------------------------------------------------------------------------------
    external field VDW/kʙ        0.000000e+00 [K]
    external field Real/kʙ       0.000000e+00 [K]
    framework-molecule VDW/kʙ    0.000000e+00 [K]
    framework-molecule Real/kʙ   0.000000e+00 [K]
    molecule-molecule VDW/kʙ    -1.274602e+05 [K]
    molecule-molecule Real/kʙ   -3.684915e+04 [K]
    Van der Waals (Tail)/kʙ     -4.298852e+03 [K]
    Ewald Fourier/kʙ             3.459958e+03 [K]
    Ewald self/kʙ               -3.634445e+06 [K]
    Ewald exclusion/kʙ           3.629688e+06 [K]
    intra VDW/kʙ                 0.000000e+00 [K]
    intra Coulombic/kʙ           0.000000e+00 [K]
    polarization/kʙ              0.000000e+00 [K]
    dU/dlambda VDW/kʙ            0.000000e+00 [K]
    dU/dlambda Real/kʙ           0.000000e+00 [K]
    dU/dlambda Ewald/kʙ          0.000000e+00 [K]


Initialization: Current cycle: 100 out of 1000
===============================================================================

Box:      27.35184   0.00000   0.00000
           0.00000  27.35184   0.00000
           0.00000   0.00000  27.35184
Lengths:  27.35184  27.35184  27.35184
Angles:   90.00000  90.00000  90.00000
Rectangular boundary conditions
Perpendicular widths:   27.35184  27.35184  27.35184


Net charge:   0.00000000
Cutoff Coulomb:  13.67592 [Å]
Ewald alpha: 0.23113616847954116
Ewald k-vectors: 7 7 7


component   0 (CO2) lambda:  0 occupancy:  1 (1.000000)
    net charge:   0.00000000 [e]

Amount of molecules per component :
-------------------------------------------------------------------------------
Component 0 (CO2)
    molecules:         2.500000e+02 molecules
    number density:    1.221744e-02 molec/A^3
    density:           8.926270e+02 kg/m^3

Total potential energy/kʙ       -3.245866e+05 [K]
-------------------------------------------------------------------------------
    external field VDW/kʙ        0.000000e+00 [K]
    external field Real/kʙ       0.000000e+00 [K]
    framework-molecule VDW/kʙ    0.000000e+00 [K]
    framework-molecule Real/kʙ   0.000000e+00 [K]
    molecule-molecule VDW/kʙ    -2.354369e+05 [K]
    molecule-molecule Real/kʙ   -7.971381e+04 [K]
    Van der Waals (Tail)/kʙ     -5.672263e+03 [K]
    Ewald Fourier/kʙ             3.844566e+03 [K]
    Ewald self/kʙ               -4.004051e+06 [K]
    Ewald exclusion/kʙ           3.996443e+06 [K]
    intra VDW/kʙ                 0.000000e+00 [K]
    intra Coulombic/kʙ           0.000000e+00 [K]
    polarization/kʙ              0.000000e+00 [K]
    dU/dlambda VDW/kʙ            0.000000e+00 [K]
    dU/dlambda Real/kʙ           0.000000e+00 [K]
    dU/dlambda Ewald/kʙ          0.000000e+00 [K]


Initialization: Current cycle: 200 out of 1000
===============================================================================

Box:      26.25207   0.00000   0.00000
           0.00000  26.25207   0.00000
           0.00000   0.00000  26.25207
Lengths:  26.25207  26.25207  26.25207
Angles:   90.00000  90.00000  90.00000
Rectangular boundary conditions
Perpendicular widths:   26.25207  26.25207  26.25207


Net charge:   0.00000000
Cutoff Coulomb:  13.12603 [Å]
Ewald alpha: 0.24129118473609545
Ewald k-vectors: 7 7 7


component   0 (CO2) lambda:  0 occupancy:  1 (1.000000)
    net charge:   0.00000000 [e]

Amount of molecules per component :
-------------------------------------------------------------------------------
Component 0 (CO2)
    molecules:         2.500000e+02 molecules
    number density:    1.381813e-02 molec/A^3
    density:           1.009577e+03 kg/m^3

Total potential energy/kʙ       -3.589124e+05 [K]
-------------------------------------------------------------------------------
    external field VDW/kʙ        0.000000e+00 [K]
    external field Real/kʙ       0.000000e+00 [K]
    framework-molecule VDW/kʙ    0.000000e+00 [K]
    framework-molecule Real/kʙ   0.000000e+00 [K]
    molecule-molecule VDW/kʙ    -2.620067e+05 [K]
    molecule-molecule Real/kʙ   -8.557652e+04 [K]
    Van der Waals (Tail)/kʙ     -6.415428e+03 [K]
    Ewald Fourier/kʙ             4.449359e+03 [K]
    Ewald self/kʙ               -4.179970e+06 [K]
    Ewald exclusion/kʙ           4.170607e+06 [K]
    intra VDW/kʙ                 0.000000e+00 [K]
    intra Coulombic/kʙ           0.000000e+00 [K]
    polarization/kʙ              0.000000e+00 [K]
    dU/dlambda VDW/kʙ            0.000000e+00 [K]
    dU/dlambda Real/kʙ           0.000000e+00 [K]
    dU/dlambda Ewald/kʙ          0.000000e+00 [K]


Initialization: Current cycle: 300 out of 1000
===============================================================================

Box:      25.72370   0.00000   0.00000
           0.00000  25.72370   0.00000
           0.00000   0.00000  25.72370
Lengths:  25.72370  25.72370  25.72370
Angles:   90.00000  90.00000  90.00000
Rectangular boundary conditions
Perpendicular widths:   25.72370  25.72370  25.72370


Net charge:   0.00000000
Cutoff Coulomb:  12.86185 [Å]
Ewald alpha: 0.24648570427114178
Ewald k-vectors: 7 7 7


component   0 (CO2) lambda:  0 occupancy:  1 (1.000000)
    net charge:   0.00000000 [e]

Amount of molecules per component :
-------------------------------------------------------------------------------
Component 0 (CO2)
    molecules:         2.500000e+02 molecules
    number density:    1.468722e-02 molec/A^3
    density:           1.073074e+03 kg/m^3

Total potential energy/kʙ       -3.835315e+05 [K]
-------------------------------------------------------------------------------
    external field VDW/kʙ        0.000000e+00 [K]
    external field Real/kʙ       0.000000e+00 [K]
    framework-molecule VDW/kʙ    0.000000e+00 [K]
    framework-molecule Real/kʙ   0.000000e+00 [K]
    molecule-molecule VDW/kʙ    -2.793801e+05 [K]
    molecule-molecule Real/kʙ   -9.131878e+04 [K]
    Van der Waals (Tail)/kʙ     -6.818926e+03 [K]
    Ewald Fourier/kʙ             4.360803e+03 [K]
    Ewald self/kʙ               -4.269956e+06 [K]
    Ewald exclusion/kʙ           4.259582e+06 [K]
    intra VDW/kʙ                 0.000000e+00 [K]
    intra Coulombic/kʙ           0.000000e+00 [K]
    polarization/kʙ              0.000000e+00 [K]
    dU/dlambda VDW/kʙ            0.000000e+00 [K]
    dU/dlambda Real/kʙ           0.000000e+00 [K]
    dU/dlambda Ewald/kʙ          0.000000e+00 [K]


Initialization: Current cycle: 400 out of 1000
===============================================================================

Box:      25.81146   0.00000   0.00000
           0.00000  25.81146   0.00000
           0.00000   0.00000  25.81146
Lengths:  25.81146  25.81146  25.81146
Angles:   90.00000  90.00000  90.00000
Rectangular boundary conditions
Perpendicular widths:   25.81146  25.81146  25.81146


Net charge:   0.00000000
Cutoff Coulomb:  12.90573 [Å]
Ewald alpha: 0.24560781848240862
Ewald k-vectors: 7 7 7


component   0 (CO2) lambda:  0 occupancy:  1 (1.000000)
    net charge:   0.00000000 [e]

Amount of molecules per component :
-------------------------------------------------------------------------------
Component 0 (CO2)
    molecules:         2.500000e+02 molecules
    number density:    1.453791e-02 molec/A^3
    density:           1.062165e+03 kg/m^3

Total potential energy/kʙ       -3.924381e+05 [K]
-------------------------------------------------------------------------------
    external field VDW/kʙ        0.000000e+00 [K]
    external field Real/kʙ       0.000000e+00 [K]
    framework-molecule VDW/kʙ    0.000000e+00 [K]
    framework-molecule Real/kʙ   0.000000e+00 [K]
    molecule-molecule VDW/kʙ    -2.812817e+05 [K]
    molecule-molecule Real/kʙ   -9.812971e+04 [K]
    Van der Waals (Tail)/kʙ     -6.749604e+03 [K]
    Ewald Fourier/kʙ             3.920845e+03 [K]
    Ewald self/kʙ               -4.254748e+06 [K]
    Ewald exclusion/kʙ           4.244550e+06 [K]
    intra VDW/kʙ                 0.000000e+00 [K]
    intra Coulombic/kʙ           0.000000e+00 [K]
    polarization/kʙ              0.000000e+00 [K]
    dU/dlambda VDW/kʙ            0.000000e+00 [K]
    dU/dlambda Real/kʙ           0.000000e+00 [K]
    dU/dlambda Ewald/kʙ          0.000000e+00 [K]


Initialization: Current cycle: 500 out of 1000
===============================================================================

Box:      25.63751   0.00000   0.00000
           0.00000  25.63751   0.00000
           0.00000   0.00000  25.63751
Lengths:  25.63751  25.63751  25.63751
Angles:   90.00000  90.00000  90.00000
Rectangular boundary conditions
Perpendicular widths:   25.63751  25.63751  25.63751


Net charge:   0.00000000
Cutoff Coulomb:  12.81875 [Å]
Ewald alpha: 0.24735381069754878
Ewald k-vectors: 7 7 7


component   0 (CO2) lambda:  0 occupancy:  1 (1.000000)
    net charge:   0.00000000 [e]

Amount of molecules per component :
-------------------------------------------------------------------------------
Component 0 (CO2)
    molecules:         2.500000e+02 molecules
    number density:    1.483585e-02 molec/A^3
    density:           1.083933e+03 kg/m^3

Total potential energy/kʙ       -3.910177e+05 [K]
-------------------------------------------------------------------------------
    external field VDW/kʙ        0.000000e+00 [K]
    external field Real/kʙ       0.000000e+00 [K]
    framework-molecule VDW/kʙ    0.000000e+00 [K]
    framework-molecule Real/kʙ   0.000000e+00 [K]
    molecule-molecule VDW/kʙ    -2.800177e+05 [K]
    molecule-molecule Real/kʙ   -9.833992e+04 [K]
    Van der Waals (Tail)/kʙ     -6.887930e+03 [K]
    Ewald Fourier/kʙ             4.779382e+03 [K]
    Ewald self/kʙ               -4.284995e+06 [K]
    Ewald exclusion/kʙ           4.274443e+06 [K]
    intra VDW/kʙ                 0.000000e+00 [K]
    intra Coulombic/kʙ           0.000000e+00 [K]
    polarization/kʙ              0.000000e+00 [K]
    dU/dlambda VDW/kʙ            0.000000e+00 [K]
    dU/dlambda Real/kʙ           0.000000e+00 [K]
    dU/dlambda Ewald/kʙ          0.000000e+00 [K]


Initialization: Current cycle: 600 out of 1000
===============================================================================

Box:      25.56677   0.00000   0.00000
           0.00000  25.56677   0.00000
           0.00000   0.00000  25.56677
Lengths:  25.56677  25.56677  25.56677
Angles:   90.00000  90.00000  90.00000
Rectangular boundary conditions
Perpendicular widths:   25.56677  25.56677  25.56677


Net charge:   0.00000000
Cutoff Coulomb:  12.78338 [Å]
Ewald alpha: 0.24807077596672272
Ewald k-vectors: 7 7 7


component   0 (CO2) lambda:  0 occupancy:  1 (1.000000)
    net charge:   0.00000000 [e]

Amount of molecules per component :
-------------------------------------------------------------------------------
Component 0 (CO2)
    molecules:         2.500000e+02 molecules
    number density:    1.495934e-02 molec/A^3
    density:           1.092955e+03 kg/m^3

Total potential energy/kʙ       -3.885170e+05 [K]
-------------------------------------------------------------------------------
    external field VDW/kʙ        0.000000e+00 [K]
    external field Real/kʙ       0.000000e+00 [K]
    framework-molecule VDW/kʙ    0.000000e+00 [K]
    framework-molecule Real/kʙ   0.000000e+00 [K]
    molecule-molecule VDW/kʙ    -2.856709e+05 [K]
    molecule-molecule Real/kʙ   -8.999177e+04 [K]
    Van der Waals (Tail)/kʙ     -6.945262e+03 [K]
    Ewald Fourier/kʙ             4.790409e+03 [K]
    Ewald self/kʙ               -4.297415e+06 [K]
    Ewald exclusion/kʙ           4.286715e+06 [K]
    intra VDW/kʙ                 0.000000e+00 [K]
    intra Coulombic/kʙ           0.000000e+00 [K]
    polarization/kʙ              0.000000e+00 [K]
    dU/dlambda VDW/kʙ            0.000000e+00 [K]
    dU/dlambda Real/kʙ           0.000000e+00 [K]
    dU/dlambda Ewald/kʙ          0.000000e+00 [K]


Initialization: Current cycle: 700 out of 1000
===============================================================================

Box:      25.40930   0.00000   0.00000
           0.00000  25.40930   0.00000
           0.00000   0.00000  25.40930
Lengths:  25.40930  25.40930  25.40930
Angles:   90.00000  90.00000  90.00000
Rectangular boundary conditions
Perpendicular widths:   25.40930  25.40930  25.40930


Net charge:   0.00000000
Cutoff Coulomb:  12.70465 [Å]
Ewald alpha: 0.24968141758480733
Ewald k-vectors: 7 7 7


component   0 (CO2) lambda:  0 occupancy:  1 (1.000000)
    net charge:   0.00000000 [e]

Amount of molecules per component :
-------------------------------------------------------------------------------
Component 0 (CO2)
    molecules:         2.500000e+02 molecules
    number density:    1.523919e-02 molec/A^3
    density:           1.113401e+03 kg/m^3

Total potential energy/kʙ       -4.014587e+05 [K]
-------------------------------------------------------------------------------
    external field VDW/kʙ        0.000000e+00 [K]
    external field Real/kʙ       0.000000e+00 [K]
    framework-molecule VDW/kʙ    0.000000e+00 [K]
    framework-molecule Real/kʙ   0.000000e+00 [K]
    molecule-molecule VDW/kʙ    -2.915581e+05 [K]
    molecule-molecule Real/kʙ   -9.644358e+04 [K]
    Van der Waals (Tail)/kʙ     -7.075191e+03 [K]
    Ewald Fourier/kʙ             4.655804e+03 [K]
    Ewald self/kʙ               -4.325316e+06 [K]
    Ewald exclusion/kʙ           4.314279e+06 [K]
    intra VDW/kʙ                 0.000000e+00 [K]
    intra Coulombic/kʙ           0.000000e+00 [K]
    polarization/kʙ              0.000000e+00 [K]
    dU/dlambda VDW/kʙ            0.000000e+00 [K]
    dU/dlambda Real/kʙ           0.000000e+00 [K]
    dU/dlambda Ewald/kʙ          0.000000e+00 [K]


Initialization: Current cycle: 800 out of 1000
===============================================================================

Box:      25.35622   0.00000   0.00000
           0.00000  25.35622   0.00000
           0.00000   0.00000  25.35622
Lengths:  25.35622  25.35622  25.35622
Angles:   90.00000  90.00000  90.00000
Rectangular boundary conditions
Perpendicular widths:   25.35622  25.35622  25.35622


Net charge:   0.00000000
Cutoff Coulomb:  12.67811 [Å]
Ewald alpha: 0.2502289105818069
Ewald k-vectors: 7 7 7


component   0 (CO2) lambda:  0 occupancy:  1 (1.000000)
    net charge:   0.00000000 [e]

Amount of molecules per component :
-------------------------------------------------------------------------------
Component 0 (CO2)
    molecules:         2.500000e+02 molecules
    number density:    1.533509e-02 molec/A^3
    density:           1.120408e+03 kg/m^3

Total potential energy/kʙ       -4.094717e+05 [K]
-------------------------------------------------------------------------------
    external field VDW/kʙ        0.000000e+00 [K]
    external field Real/kʙ       0.000000e+00 [K]
    framework-molecule VDW/kʙ    0.000000e+00 [K]
    framework-molecule Real/kʙ   0.000000e+00 [K]
    molecule-molecule VDW/kʙ    -2.963902e+05 [K]
    molecule-molecule Real/kʙ   -9.926318e+04 [K]
    Van der Waals (Tail)/kʙ     -7.119715e+03 [K]
    Ewald Fourier/kʙ             4.455957e+03 [K]
    Ewald self/kʙ               -4.334801e+06 [K]
    Ewald exclusion/kʙ           4.323646e+06 [K]
    intra VDW/kʙ                 0.000000e+00 [K]
    intra Coulombic/kʙ           0.000000e+00 [K]
    polarization/kʙ              0.000000e+00 [K]
    dU/dlambda VDW/kʙ            0.000000e+00 [K]
    dU/dlambda Real/kʙ           0.000000e+00 [K]
    dU/dlambda Ewald/kʙ          0.000000e+00 [K]


Initialization: Current cycle: 900 out of 1000
===============================================================================

Box:      25.60681   0.00000   0.00000
           0.00000  25.60681   0.00000
           0.00000   0.00000  25.60681
Lengths:  25.60681  25.60681  25.60681
Angles:   90.00000  90.00000  90.00000
Rectangular boundary conditions
Perpendicular widths:   25.60681  25.60681  25.60681


Net charge:   0.00000000
Cutoff Coulomb:  12.80341 [Å]
Ewald alpha: 0.24766445116810243
Ewald k-vectors: 7 7 7


component   0 (CO2) lambda:  0 occupancy:  1 (1.000000)
    net charge:   0.00000000 [e]

Amount of molecules per component :
-------------------------------------------------------------------------------
Component 0 (CO2)
    molecules:         2.500000e+02 molecules
    number density:    1.488927e-02 molec/A^3
    density:           1.087836e+03 kg/m^3

Total potential energy/kʙ       -3.875239e+05 [K]
-------------------------------------------------------------------------------
    external field VDW/kʙ        0.000000e+00 [K]
    external field Real/kʙ       0.000000e+00 [K]
    framework-molecule VDW/kʙ    0.000000e+00 [K]
    framework-molecule Real/kʙ   0.000000e+00 [K]
    molecule-molecule VDW/kʙ    -2.850704e+05 [K]
    molecule-molecule Real/kʙ   -8.953562e+04 [K]
    Van der Waals (Tail)/kʙ     -6.912732e+03 [K]
    Ewald Fourier/kʙ             4.610231e+03 [K]
    Ewald self/kʙ               -4.290376e+06 [K]
    Ewald exclusion/kʙ           4.279760e+06 [K]
    intra VDW/kʙ                 0.000000e+00 [K]
    intra Coulombic/kʙ           0.000000e+00 [K]
    polarization/kʙ              0.000000e+00 [K]
    dU/dlambda VDW/kʙ            0.000000e+00 [K]
    dU/dlambda Real/kʙ           0.000000e+00 [K]
    dU/dlambda Ewald/kʙ          0.000000e+00 [K]


Current cycle: 0 out of 5000
===============================================================================

Box:      25.50824   0.00000   0.00000  Average:  25.50824   0.00000   0.00000
           0.00000  25.50824   0.00000             0.00000  25.50824   0.00000
           0.00000   0.00000  25.50824             0.00000   0.00000  25.50824
Lengths:  25.50824  25.50824  25.50824  Average:  25.50824  25.50824  25.50824
Angles:   90.00000  90.00000  90.00000  Average:  90.00000  90.00000  90.00000
Rectangular boundary conditions

Net charge:   0.00000000
Cutoff Coulomb:  12.75412 [Å]
Ewald alpha: 0.24866702124084078
Ewald k-vectors: 7 7 7


component 0 (CO2) lambda:  0 occupancy:  1 (1.000000)
    net charge:   0.00000000 [e]

Amount of molecules per component :
-------------------------------------------------------------------------------
Component 0 (CO2)
    molecules:      2.500000e+02 molecules  (2.500000e+02 +/- 0.000000e+00)
    number density: 1.506254e-02 molec./A^3 (1.506254e-02 +/- 0.000000e+00)
    density:        1.100495e+03 kg/m^3     (1.100495e+03 +/- 0.000000e+00)

Average pressure tensor: 
-------------------------------------------------------------------------------
 5.1990e+02  0.0000e+00  0.0000e+00 +/- 0.0000e+00 0.0000e+00 0.0000e+00 [bar]
 0.0000e+00  5.1990e+02  0.0000e+00 +/- 0.0000e+00 0.0000e+00 0.0000e+00 [bar]
 0.0000e+00  0.0000e+00  5.1990e+02 +/- 0.0000e+00 0.0000e+00 0.0000e+00 [bar]
Ideal-gas pressure:   5.199027e+02 +/ 0.000000e+00 [bar]
Excess pressure:      0.000000e+00 +/ 0.000000e+00 [bar]
Pressure:             5.199027e+02 +/ 0.000000e+00 [bar]

Total potential energy/kʙ  -3.914887e+05 (-3.914887e+05 +/- 0.000000e+00) [K]
-------------------------------------------------------------------------------
ExternalField-molecule
    Van der Waals/kʙ        0.000000e+00 ( 0.000000e+00 +/- 0.000000e+00) [K]
Framework-molecule
    Van der Waals/kʙ        0.000000e+00 ( 0.000000e+00 +/- 0.000000e+00) [K]
    Van der Waals (Tail)/kʙ 0.000000e+00 ( 0.000000e+00 +/- 0.000000e+00) [K]
    Coulombic Real/kʙ       0.000000e+00 ( 0.000000e+00 +/- 0.000000e+00) [K]
    Coulombic Fourier/kʙ    0.000000e+00 ( 0.000000e+00 +/- 0.000000e+00) [K]
Molecule-molecule
    Van der Waals/kʙ       -2.831048e+05 (-2.831048e+05 +/- 0.000000e+00) [K]
    Van der Waals (Tail)/kʙ-6.993178e+03 (-6.993178e+03 +/- 0.000000e+00) [K]
    Coulombic Real/kʙ      -9.517165e+04 (-9.517165e+04 +/- 0.000000e+00) [K]
    Coulombic Fourier/kʙ   -6.219109e+03 (-6.219109e+03 +/- 0.000000e+00) [K]
    Molecule Intra/kʙ       0.000000e+00 ( 0.000000e+00 +/- 0.000000e+00) [K]

Current cycle: 100 out of 5000
===============================================================================

Box:      25.79551   0.00000   0.00000  Average:  25.70608   0.00000   0.00000
           0.00000  25.79551   0.00000             0.00000  25.70608   0.00000
           0.00000   0.00000  25.79551             0.00000   0.00000  25.70608
Lengths:  25.79551  25.79551  25.79551  Average:  25.70608  25.70608  25.70608
Angles:   90.00000  90.00000  90.00000  Average:  90.00000  90.00000  90.00000
Rectangular boundary conditions

Net charge:   0.00000000
Cutoff Coulomb:  12.89775 [Å]
Ewald alpha: 0.24576695911358484
Ewald k-vectors: 7 7 7


component 0 (CO2) lambda:  0 occupancy:  1 (1.000000)
    net charge:   0.00000000 [e]

Amount of molecules per component :
-------------------------------------------------------------------------------
Component 0 (CO2)
    molecules:      2.500000e+02 molecules  (2.500000e+02 +/- 0.000000e+00)
    number density: 1.456491e-02 molec./A^3 (1.471828e-02 +/- 0.000000e+00)
    density:        1.064137e+03 kg/m^3     (1.075343e+03 +/- 0.000000e+00)

Average pressure tensor: 
-------------------------------------------------------------------------------
 4.5003e+02 -8.7743e+01 -5.9926e+01 +/- 0.0000e+00 0.0000e+00 0.0000e+00 [bar]
-8.7743e+01  2.7375e+02 -1.0400e+02 +/- 0.0000e+00 0.0000e+00 0.0000e+00 [bar]
-5.9926e+01 -1.0400e+02  2.3134e+02 +/- 0.0000e+00 0.0000e+00 0.0000e+00 [bar]
Ideal-gas pressure:   5.080199e+02 +/ 0.000000e+00 [bar]
Excess pressure:     -1.896450e+02 +/ 0.000000e+00 [bar]
Pressure:             3.183749e+02 +/ 0.000000e+00 [bar]

Total potential energy/kʙ  -3.840938e+05 (-3.833583e+05 +/- 0.000000e+00) [K]
-------------------------------------------------------------------------------
ExternalField-molecule
    Van der Waals/kʙ        0.000000e+00 ( 0.000000e+00 +/- 0.000000e+00) [K]
Framework-molecule
    Van der Waals/kʙ        0.000000e+00 ( 0.000000e+00 +/- 0.000000e+00) [K]
    Van der Waals (Tail)/kʙ 0.000000e+00 ( 0.000000e+00 +/- 0.000000e+00) [K]
    Coulombic Real/kʙ       0.000000e+00 ( 0.000000e+00 +/- 0.000000e+00) [K]
    Coulombic Fourier/kʙ    0.000000e+00 ( 0.000000e+00 +/- 0.000000e+00) [K]
Molecule-molecule
    Van der Waals/kʙ       -2.825077e+05 (-2.796729e+05 +/- 0.000000e+00) [K]
    Van der Waals (Tail)/kʙ-6.762137e+03 (-6.858054e+03 +/- 0.000000e+00) [K]
    Coulombic Real/kʙ      -8.926774e+04 (-9.059660e+04 +/- 0.000000e+00) [K]
    Coulombic Fourier/kʙ   -5.556205e+03 (-6.230744e+03 +/- 0.000000e+00) [K]
    Molecule Intra/kʙ       0.000000e+00 ( 0.000000e+00 +/- 0.000000e+00) [K]

Current cycle: 200 out of 5000
===============================================================================

Box:      25.81701   0.00000   0.00000  Average:  25.72681   0.00000   0.00000
           0.00000  25.81701   0.00000             0.00000  25.72681   0.00000
           0.00000   0.00000  25.81701             0.00000   0.00000  25.72681
Lengths:  25.81701  25.81701  25.81701  Average:  25.72681  25.72681  25.72681
Angles:   90.00000  90.00000  90.00000  Average:  90.00000  90.00000  90.00000
Rectangular boundary conditions

Net charge:   0.00000000
Cutoff Coulomb:  12.90850 [Å]
Ewald alpha: 0.24555259488596293
Ewald k-vectors: 7 7 7


component 0 (CO2) lambda:  0 occupancy:  1 (1.000000)
    net charge:   0.00000000 [e]

Amount of molecules per component :
-------------------------------------------------------------------------------
Component 0 (CO2)
    molecules:      2.500000e+02 molecules  (2.500000e+02 +/- 0.000000e+00)
    number density: 1.452855e-02 molec./A^3 (1.468295e-02 +/- 0.000000e+00)
    density:        1.061481e+03 kg/m^3     (1.072762e+03 +/- 0.000000e+00)

Average pressure tensor: 
-------------------------------------------------------------------------------
 1.9659e+02 -3.0497e+01 -9.7766e+01 +/- 0.0000e+00 0.0000e+00 0.0000e+00 [bar]
-3.0497e+01  2.3245e+02 -1.0527e+02 +/- 0.0000e+00 0.0000e+00 0.0000e+00 [bar]
-9.7766e+01 -1.0527e+02  1.2037e+02 +/- 0.0000e+00 0.0000e+00 0.0000e+00 [bar]
Ideal-gas pressure:   5.068005e+02 +/ 0.000000e+00 [bar]
Excess pressure:     -3.236661e+02 +/ 0.000000e+00 [bar]
Pressure:             1.831344e+02 +/ 0.000000e+00 [bar]

Total potential energy/kʙ  -3.770242e+05 (-3.831455e+05 +/- 0.000000e+00) [K]
-------------------------------------------------------------------------------
ExternalField-molecule
    Van der Waals/kʙ        0.000000e+00 ( 0.000000e+00 +/- 0.000000e+00) [K]
Framework-molecule
    Van der Waals/kʙ        0.000000e+00 ( 0.000000e+00 +/- 0.000000e+00) [K]
    Van der Waals (Tail)/kʙ 0.000000e+00 ( 0.000000e+00 +/- 0.000000e+00) [K]
    Coulombic Real/kʙ       0.000000e+00 ( 0.000000e+00 +/- 0.000000e+00) [K]
    Coulombic Fourier/kʙ    0.000000e+00 ( 0.000000e+00 +/- 0.000000e+00) [K]
Molecule-molecule
    Van der Waals/kʙ       -2.705821e+05 (-2.787779e+05 +/- 0.000000e+00) [K]
    Van der Waals (Tail)/kʙ-6.745259e+03 (-6.818236e+03 +/- 0.000000e+00) [K]
    Coulombic Real/kʙ      -9.314730e+04 (-9.129689e+04 +/- 0.000000e+00) [K]
    Coulombic Fourier/kʙ   -6.549523e+03 (-6.252513e+03 +/- 0.000000e+00) [K]
    Molecule Intra/kʙ       0.000000e+00 ( 0.000000e+00 +/- 0.000000e+00) [K]

Current cycle: 300 out of 5000
===============================================================================

Box:      25.67662   0.00000   0.00000  Average:  25.72009   0.00000   0.00000
           0.00000  25.67662   0.00000             0.00000  25.72009   0.00000
           0.00000   0.00000  25.67662             0.00000   0.00000  25.72009
Lengths:  25.67662  25.67662  25.67662  Average:  25.72009  25.72009  25.72009
Angles:   90.00000  90.00000  90.00000  Average:  90.00000  90.00000  90.00000
Rectangular boundary conditions

Net charge:   0.00000000
Cutoff Coulomb:  12.83831 [Å]
Ewald alpha: 0.24695913209402598
Ewald k-vectors: 7 7 7


component 0 (CO2) lambda:  0 occupancy:  1 (1.000000)
    net charge:   0.00000000 [e]

Amount of molecules per component :
-------------------------------------------------------------------------------
Component 0 (CO2)
    molecules:      2.500000e+02 molecules  (2.500000e+02 +/- 0.000000e+00)
    number density: 1.476816e-02 molec./A^3 (1.469458e-02 +/- 0.000000e+00)
    density:        1.078987e+03 kg/m^3     (1.073611e+03 +/- 0.000000e+00)

Average pressure tensor: 
-------------------------------------------------------------------------------
 1.7454e+02 -4.8569e+01 -5.8229e+01 +/- 0.0000e+00 0.0000e+00 0.0000e+00 [bar]
-4.8569e+01  2.8076e+02 -1.2950e+02 +/- 0.0000e+00 0.0000e+00 0.0000e+00 [bar]
-5.8229e+01 -1.2950e+02  7.6635e+01 +/- 0.0000e+00 0.0000e+00 0.0000e+00 [bar]
Ideal-gas pressure:   5.072019e+02 +/ 0.000000e+00 [bar]
Excess pressure:     -3.298909e+02 +/ 0.000000e+00 [bar]
Pressure:             1.773111e+02 +/ 0.000000e+00 [bar]

Total potential energy/kʙ  -3.849635e+05 (-3.847408e+05 +/- 0.000000e+00) [K]
-------------------------------------------------------------------------------
ExternalField-molecule
    Van der Waals/kʙ        0.000000e+00 ( 0.000000e+00 +/- 0.000000e+00) [K]
Framework-molecule
    Van der Waals/kʙ        0.000000e+00 ( 0.000000e+00 +/- 0.000000e+00) [K]
    Van der Waals (Tail)/kʙ 0.000000e+00 ( 0.000000e+00 +/- 0.000000e+00) [K]
    Coulombic Real/kʙ       0.000000e+00 ( 0.000000e+00 +/- 0.000000e+00) [K]
    Coulombic Fourier/kʙ    0.000000e+00 ( 0.000000e+00 +/- 0.000000e+00) [K]
Molecule-molecule
    Van der Waals/kʙ       -2.813489e+05 (-2.795870e+05 +/- 0.000000e+00) [K]
    Van der Waals (Tail)/kʙ-6.856502e+03 (-6.828012e+03 +/- 0.000000e+00) [K]
    Coulombic Real/kʙ      -9.108908e+04 (-9.211469e+04 +/- 0.000000e+00) [K]
    Coulombic Fourier/kʙ   -5.669020e+03 (-6.211119e+03 +/- 0.000000e+00) [K]
    Molecule Intra/kʙ       0.000000e+00 ( 0.000000e+00 +/- 0.000000e+00) [K]

Current cycle: 400 out of 5000
===============================================================================

Box:      25.82148   0.00000   0.00000  Average:  25.76306   0.00000   0.00000
           0.00000  25.82148   0.00000             0.00000  25.76306   0.00000
           0.00000   0.00000  25.82148             0.00000   0.00000  25.76306
Lengths:  25.82148  25.82148  25.82148  Average:  25.76306  25.76306  25.76306
Angles:   90.00000  90.00000  90.00000  Average:  90.00000  90.00000  90.00000
Rectangular boundary conditions

Net charge:   0.00000000
Cutoff Coulomb:  12.91074 [Å]
Ewald alpha: 0.24550800455548208
Ewald k-vectors: 7 7 7


component 0 (CO2) lambda:  0 occupancy:  1 (1.000000)
    net charge:   0.00000000 [e]

Amount of molecules per component :
-------------------------------------------------------------------------------
Component 0 (CO2)
    molecules:      2.500000e+02 molecules  (2.500000e+02 +/- 0.000000e+00)
    number density: 1.452100e-02 molec./A^3 (1.462231e-02 +/- 0.000000e+00)
    density:        1.060929e+03 kg/m^3     (1.068331e+03 +/- 0.000000e+00)

Average pressure tensor: 
-------------------------------------------------------------------------------
 1.7423e+02 -6.0618e+01 -5.0643e+01 +/- 0.0000e+00 0.0000e+00 0.0000e+00 [bar]
-6.0618e+01  2.0736e+02 -8.9434e+01 +/- 0.0000e+00 0.0000e+00 0.0000e+00 [bar]
-5.0643e+01 -8.9434e+01  1.0740e+02 +/- 0.0000e+00 0.0000e+00 0.0000e+00 [bar]
Ideal-gas pressure:   5.047073e+02 +/ 0.000000e+00 [bar]
Excess pressure:     -3.417105e+02 +/ 0.000000e+00 [bar]
Pressure:             1.629968e+02 +/ 0.000000e+00 [bar]

Total potential energy/kʙ  -3.723990e+05 (-3.818906e+05 +/- 0.000000e+00) [K]
-------------------------------------------------------------------------------
ExternalField-molecule
    Van der Waals/kʙ        0.000000e+00 ( 0.000000e+00 +/- 0.000000e+00) [K]
Framework-molecule
    Van der Waals/kʙ        0.000000e+00 ( 0.000000e+00 +/- 0.000000e+00) [K]
    Van der Waals (Tail)/kʙ 0.000000e+00 ( 0.000000e+00 +/- 0.000000e+00) [K]
    Coulombic Real/kʙ       0.000000e+00 ( 0.000000e+00 +/- 0.000000e+00) [K]
    Coulombic Fourier/kʙ    0.000000e+00 ( 0.000000e+00 +/- 0.000000e+00) [K]
Molecule-molecule
    Van der Waals/kʙ       -2.668022e+05 (-2.781121e+05 +/- 0.000000e+00) [K]
    Van der Waals (Tail)/kʙ-6.741752e+03 (-6.792924e+03 +/- 0.000000e+00) [K]
    Coulombic Real/kʙ      -9.284064e+04 (-9.092757e+04 +/- 0.000000e+00) [K]
    Coulombic Fourier/kʙ   -6.014406e+03 (-6.057961e+03 +/- 0.000000e+00) [K]
    Molecule Intra/kʙ       0.000000e+00 ( 0.000000e+00 +/- 0.000000e+00) [K]

Current cycle: 500 out of 5000
===============================================================================

Box:      25.74007   0.00000   0.00000  Average:  25.79281   0.00000   0.00000
           0.00000  25.74007   0.00000             0.00000  25.79281   0.00000
           0.00000   0.00000  25.74007             0.00000   0.00000  25.79281
Lengths:  25.74007  25.74007  25.74007  Average:  25.79281  25.79281  25.79281
Angles:   90.00000  90.00000  90.00000  Average:  90.00000  90.00000  90.00000
Rectangular boundary conditions

Net charge:   0.00000000
Cutoff Coulomb:  12.87003 [Å]
Ewald alpha: 0.2463215366225261
Ewald k-vectors: 7 7 7


component 0 (CO2) lambda:  0 occupancy:  1 (1.000000)
    net charge:   0.00000000 [e]

Amount of molecules per component :
-------------------------------------------------------------------------------
Component 0 (CO2)
    molecules:      2.500000e+02 molecules  (2.500000e+02 +/- 0.000000e+00)
    number density: 1.465923e-02 molec./A^3 (1.457198e-02 +/- 0.000000e+00)
    density:        1.071028e+03 kg/m^3     (1.064653e+03 +/- 0.000000e+00)

Average pressure tensor: 
-------------------------------------------------------------------------------
 2.0238e+02 -6.5902e+01 -3.4198e+01 +/- 0.0000e+00 0.0000e+00 0.0000e+00 [bar]
-6.5902e+01  2.3728e+02 -4.9105e+01 +/- 0.0000e+00 0.0000e+00 0.0000e+00 [bar]
-3.4198e+01 -4.9105e+01  1.2777e+02 +/- 0.0000e+00 0.0000e+00 0.0000e+00 [bar]
Ideal-gas pressure:   5.029701e+02 +/ 0.000000e+00 [bar]
Excess pressure:     -3.138272e+02 +/ 0.000000e+00 [bar]
Pressure:             1.891429e+02 +/ 0.000000e+00 [bar]

Total potential energy/kʙ  -3.824171e+05 (-3.805989e+05 +/- 0.000000e+00) [K]
-------------------------------------------------------------------------------
ExternalField-molecule
    Van der Waals/kʙ        0.000000e+00 ( 0.000000e+00 +/- 0.000000e+00) [K]
Framework-molecule
    Van der Waals/kʙ        0.000000e+00 ( 0.000000e+00 +/- 0.000000e+00) [K]
    Van der Waals (Tail)/kʙ 0.000000e+00 ( 0.000000e+00 +/- 0.000000e+00) [K]
    Coulombic Real/kʙ       0.000000e+00 ( 0.000000e+00 +/- 0.000000e+00) [K]
    Coulombic Fourier/kʙ    0.000000e+00 ( 0.000000e+00 +/- 0.000000e+00) [K]
Molecule-molecule
    Van der Waals/kʙ       -2.767562e+05 (-2.768548e+05 +/- 0.000000e+00) [K]
    Van der Waals (Tail)/kʙ-6.805927e+03 (-6.770774e+03 +/- 0.000000e+00) [K]
    Coulombic Real/kʙ      -9.356824e+04 (-9.099285e+04 +/- 0.000000e+00) [K]
    Coulombic Fourier/kʙ   -5.286726e+03 (-5.980466e+03 +/- 0.000000e+00) [K]
    Molecule Intra/kʙ       0.000000e+00 ( 0.000000e+00 +/- 0.000000e+00) [K]

Current cycle: 600 out of 5000
===============================================================================

Box:      25.57034   0.00000   0.00000  Average:  25.76483   0.00000   0.00000
           0.00000  25.57034   0.00000             0.00000  25.76483   0.00000
           0.00000   0.00000  25.57034             0.00000   0.00000  25.76483
Lengths:  25.57034  25.57034  25.57034  Average:  25.76483  25.76483  25.76483
Angles:   90.00000  90.00000  90.00000  Average:  90.00000  90.00000  90.00000
Rectangular boundary conditions

Net charge:   0.00000000
Cutoff Coulomb:  12.78517 [Å]
Ewald alpha: 0.24803450861422188
Ewald k-vectors: 7 7 7


component 0 (CO2) lambda:  0 occupancy:  1 (1.000000)
    net charge:   0.00000000 [e]

Amount of molecules per component :
-------------------------------------------------------------------------------
Component 0 (CO2)
    molecules:      2.500000e+02 molecules  (2.500000e+02 +/- 0.000000e+00)
    number density: 1.495308e-02 molec./A^3 (1.461996e-02 +/- 0.000000e+00)
    density:        1.092497e+03 kg/m^3     (1.068159e+03 +/- 0.000000e+00)

Average pressure tensor: 
-------------------------------------------------------------------------------
 2.0963e+02 -3.4483e+01 -3.6024e+01 +/- 0.0000e+00 0.0000e+00 0.0000e+00 [bar]
-3.4483e+01  2.2598e+02 -5.3888e+01 +/- 0.0000e+00 0.0000e+00 0.0000e+00 [bar]
-3.6024e+01 -5.3888e+01  1.4005e+02 +/- 0.0000e+00 0.0000e+00 0.0000e+00 [bar]
Ideal-gas pressure:   5.046263e+02 +/ 0.000000e+00 [bar]
Excess pressure:     -3.127406e+02 +/ 0.000000e+00 [bar]
Pressure:             1.918857e+02 +/ 0.000000e+00 [bar]

Total potential energy/kʙ  -3.965349e+05 (-3.828009e+05 +/- 0.000000e+00) [K]
-------------------------------------------------------------------------------
ExternalField-molecule
    Van der Waals/kʙ        0.000000e+00 ( 0.000000e+00 +/- 0.000000e+00) [K]
Framework-molecule
    Van der Waals/kʙ        0.000000e+00 ( 0.000000e+00 +/- 0.000000e+00) [K]
    Van der Waals (Tail)/kʙ 0.000000e+00 ( 0.000000e+00 +/- 0.000000e+00) [K]
    Coulombic Real/kʙ       0.000000e+00 ( 0.000000e+00 +/- 0.000000e+00) [K]
    Coulombic Fourier/kʙ    0.000000e+00 ( 0.000000e+00 +/- 0.000000e+00) [K]
Molecule-molecule
    Van der Waals/kʙ       -2.856000e+05 (-2.781348e+05 +/- 0.000000e+00) [K]
    Van der Waals (Tail)/kʙ-6.942355e+03 (-6.793209e+03 +/- 0.000000e+00) [K]
    Coulombic Real/kʙ      -9.764267e+04 (-9.184428e+04 +/- 0.000000e+00) [K]
    Coulombic Fourier/kʙ   -6.349836e+03 (-6.028576e+03 +/- 0.000000e+00) [K]
    Molecule Intra/kʙ       0.000000e+00 ( 0.000000e+00 +/- 0.000000e+00) [K]

Current cycle: 700 out of 5000
===============================================================================

Box:      25.60327   0.00000   0.00000  Average:  25.72945   0.00000   0.00000
           0.00000  25.60327   0.00000             0.00000  25.72945   0.00000
           0.00000   0.00000  25.60327             0.00000   0.00000  25.72945
Lengths:  25.60327  25.60327  25.60327  Average:  25.72945  25.72945  25.72945
Angles:   90.00000  90.00000  90.00000  Average:  90.00000  90.00000  90.00000
Rectangular boundary conditions

Net charge:   0.00000000
Cutoff Coulomb:  12.80164 [Å]
Ewald alpha: 0.24770029917809802
Ewald k-vectors: 7 7 7


component 0 (CO2) lambda:  0 occupancy:  1 (1.000000)
    net charge:   0.00000000 [e]

Amount of molecules per component :
-------------------------------------------------------------------------------
Component 0 (CO2)
    molecules:      2.500000e+02 molecules  (2.500000e+02 +/- 0.000000e+00)
    number density: 1.489545e-02 molec./A^3 (1.468116e-02 +/- 0.000000e+00)
    density:        1.088287e+03 kg/m^3     (1.072631e+03 +/- 0.000000e+00)

Average pressure tensor: 
-------------------------------------------------------------------------------
 1.8338e+02 -2.7468e+01 -7.0100e+00 +/- 0.0000e+00 0.0000e+00 0.0000e+00 [bar]
-2.7468e+01  2.1174e+02 -5.9183e+01 +/- 0.0000e+00 0.0000e+00 0.0000e+00 [bar]
-7.0100e+00 -5.9183e+01  1.8270e+02 +/- 0.0000e+00 0.0000e+00 0.0000e+00 [bar]
Ideal-gas pressure:   5.067386e+02 +/ 0.000000e+00 [bar]
Excess pressure:     -3.141290e+02 +/ 0.000000e+00 [bar]
Pressure:             1.926096e+02 +/ 0.000000e+00 [bar]

Total potential energy/kʙ  -3.882526e+05 (-3.846529e+05 +/- 0.000000e+00) [K]
-------------------------------------------------------------------------------
ExternalField-molecule
    Van der Waals/kʙ        0.000000e+00 ( 0.000000e+00 +/- 0.000000e+00) [K]
Framework-molecule
    Van der Waals/kʙ        0.000000e+00 ( 0.000000e+00 +/- 0.000000e+00) [K]
    Van der Waals (Tail)/kʙ 0.000000e+00 ( 0.000000e+00 +/- 0.000000e+00) [K]
    Coulombic Real/kʙ       0.000000e+00 ( 0.000000e+00 +/- 0.000000e+00) [K]
    Coulombic Fourier/kʙ    0.000000e+00 ( 0.000000e+00 +/- 0.000000e+00) [K]
Molecule-molecule
    Van der Waals/kʙ       -2.883755e+05 (-2.796413e+05 +/- 0.000000e+00) [K]
    Van der Waals (Tail)/kʙ-6.915598e+03 (-6.820210e+03 +/- 0.000000e+00) [K]
    Coulombic Real/kʙ      -8.722008e+04 (-9.218184e+04 +/- 0.000000e+00) [K]
    Coulombic Fourier/kʙ   -5.741365e+03 (-6.009591e+03 +/- 0.000000e+00) [K]
    Molecule Intra/kʙ       0.000000e+00 ( 0.000000e+00 +/- 0.000000e+00) [K]

Current cycle: 800 out of 5000
===============================================================================

Box:      25.19372   0.00000   0.00000  Average:  25.68917   0.00000   0.00000
           0.00000  25.19372   0.00000             0.00000  25.68917   0.00000
           0.00000   0.00000  25.19372             0.00000   0.00000  25.68917
Lengths:  25.19372  25.19372  25.19372  Average:  25.68917  25.68917  25.68917
Angles:   90.00000  90.00000  90.00000  Average:  90.00000  90.00000  90.00000
Rectangular boundary conditions

Net charge:   0.00000000
Cutoff Coulomb:  12.59686 [Å]
Ewald alpha: 0.251919797097954
Ewald k-vectors: 7 7 7


component 0 (CO2) lambda:  0 occupancy:  1 (1.000000)
    net charge:   0.00000000 [e]

Amount of molecules per component :
-------------------------------------------------------------------------------
Component 0 (CO2)
    molecules:      2.500000e+02 molecules  (2.500000e+02 +/- 0.000000e+00)
    number density: 1.563375e-02 molec./A^3 (1.475152e-02 +/- 0.000000e+00)
    density:        1.142229e+03 kg/m^3     (1.077771e+03 +/- 0.000000e+00)

Average pressure tensor: 
-------------------------------------------------------------------------------
 1.5824e+02 -3.3429e+01 -2.2386e+01 +/- 0.0000e+00 0.0000e+00 0.0000e+00 [bar]
-3.3429e+01  1.9185e+02 -6.6601e+01 +/- 0.0000e+00 0.0000e+00 0.0000e+00 [bar]
-2.2386e+01 -6.6601e+01  1.8450e+02 +/- 0.0000e+00 0.0000e+00 0.0000e+00 [bar]
Ideal-gas pressure:   5.091672e+02 +/ 0.000000e+00 [bar]
Excess pressure:     -3.309707e+02 +/ 0.000000e+00 [bar]
Pressure:             1.781965e+02 +/ 0.000000e+00 [bar]

Total potential energy/kʙ  -4.077700e+05 (-3.870037e+05 +/- 0.000000e+00) [K]
-------------------------------------------------------------------------------
ExternalField-molecule
    Van der Waals/kʙ        0.000000e+00 ( 0.000000e+00 +/- 0.000000e+00) [K]
Framework-molecule
    Van der Waals/kʙ        0.000000e+00 ( 0.000000e+00 +/- 0.000000e+00) [K]
    Van der Waals (Tail)/kʙ 0.000000e+00 ( 0.000000e+00 +/- 0.000000e+00) [K]
    Coulombic Real/kʙ       0.000000e+00 ( 0.000000e+00 +/- 0.000000e+00) [K]
    Coulombic Fourier/kʙ    0.000000e+00 ( 0.000000e+00 +/- 0.000000e+00) [K]
Molecule-molecule
    Van der Waals/kʙ       -2.920540e+05 (-2.814750e+05 +/- 0.000000e+00) [K]
    Van der Waals (Tail)/kʙ-7.258376e+03 (-6.852889e+03 +/- 0.000000e+00) [K]
    Coulombic Real/kʙ      -1.018360e+05 (-9.264027e+04 +/- 0.000000e+00) [K]
    Coulombic Fourier/kʙ   -6.621656e+03 (-6.035590e+03 +/- 0.000000e+00) [K]
    Molecule Intra/kʙ       0.000000e+00 ( 0.000000e+00 +/- 0.000000e+00) [K]

Current cycle: 900 out of 5000
===============================================================================

Box:      25.51501   0.00000   0.00000  Average:  25.66623   0.00000   0.00000
           0.00000  25.51501   0.00000             0.00000  25.66623   0.00000
           0.00000   0.00000  25.51501             0.00000   0.00000  25.66623
Lengths:  25.51501  25.51501  25.51501  Average:  25.66623  25.66623  25.66623
Angles:   90.00000  90.00000  90.00000  Average:  90.00000  90.00000  90.00000
Rectangular boundary conditions

Net charge:   0.00000000
Cutoff Coulomb:  12.75750 [Å]
Ewald alpha: 0.24859794887581801
Ewald k-vectors: 7 7 7


component 0 (CO2) lambda:  0 occupancy:  1 (1.000000)
    net charge:   0.00000000 [e]

Amount of molecules per component :
-------------------------------------------------------------------------------
Component 0 (CO2)
    molecules:      2.500000e+02 molecules  (2.500000e+02 +/- 0.000000e+00)
    number density: 1.505057e-02 molec./A^3 (1.479123e-02 +/- 0.000000e+00)
    density:        1.099620e+03 kg/m^3     (1.080673e+03 +/- 0.000000e+00)

Average pressure tensor: 
-------------------------------------------------------------------------------
 1.6356e+02 -8.9382e+00 -1.2115e+01 +/- 0.0000e+00 0.0000e+00 0.0000e+00 [bar]
-8.9382e+00  2.1671e+02 -5.6113e+01 +/- 0.0000e+00 0.0000e+00 0.0000e+00 [bar]
-1.2115e+01 -5.6113e+01  1.7624e+02 +/- 0.0000e+00 0.0000e+00 0.0000e+00 [bar]
Ideal-gas pressure:   5.105380e+02 +/ 0.000000e+00 [bar]
Excess pressure:     -3.250322e+02 +/ 0.000000e+00 [bar]
Pressure:             1.855058e+02 +/ 0.000000e+00 [bar]

Total potential energy/kʙ  -3.954199e+05 (-3.886115e+05 +/- 0.000000e+00) [K]
-------------------------------------------------------------------------------
ExternalField-molecule
    Van der Waals/kʙ        0.000000e+00 ( 0.000000e+00 +/- 0.000000e+00) [K]
Framework-molecule
    Van der Waals/kʙ        0.000000e+00 ( 0.000000e+00 +/- 0.000000e+00) [K]
    Van der Waals (Tail)/kʙ 0.000000e+00 ( 0.000000e+00 +/- 0.000000e+00) [K]
    Coulombic Real/kʙ       0.000000e+00 ( 0.000000e+00 +/- 0.000000e+00) [K]
    Coulombic Fourier/kʙ    0.000000e+00 ( 0.000000e+00 +/- 0.000000e+00) [K]
Molecule-molecule
    Van der Waals/kʙ       -2.839562e+05 (-2.821189e+05 +/- 0.000000e+00) [K]
    Van der Waals (Tail)/kʙ-6.987616e+03 (-6.869599e+03 +/- 0.000000e+00) [K]
    Coulombic Real/kʙ      -9.763931e+04 (-9.351899e+04 +/- 0.000000e+00) [K]
    Coulombic Fourier/kʙ   -6.836799e+03 (-6.104028e+03 +/- 0.000000e+00) [K]
    Molecule Intra/kʙ       0.000000e+00 ( 0.000000e+00 +/- 0.000000e+00) [K]

Current cycle: 1000 out of 5000
===============================================================================

Box:      25.69678   0.00000   0.00000  Average:  25.64989   0.00000   0.00000
           0.00000  25.69678   0.00000             0.00000  25.64989   0.00000
           0.00000   0.00000  25.69678             0.00000   0.00000  25.64989
Lengths:  25.69678  25.69678  25.69678  Average:  25.64989  25.64989  25.64989
Angles:   90.00000  90.00000  90.00000  Average:  90.00000  90.00000  90.00000
Rectangular boundary conditions

Net charge:   0.00000000
Cutoff Coulomb:  12.84839 [Å]
Ewald alpha: 0.24675621425470026
Ewald k-vectors: 7 7 7


component 0 (CO2) lambda:  0 occupancy:  1 (1.000000)
    net charge:   0.00000000 [e]

Amount of molecules per component :
-------------------------------------------------------------------------------
Component 0 (CO2)
    molecules:      2.500000e+02 molecules  (2.500000e+02 +/- 0.000000e+00)
    number density: 1.473343e-02 molec./A^3 (1.481946e-02 +/- 0.000000e+00)
    density:        1.076450e+03 kg/m^3     (1.082735e+03 +/- 0.000000e+00)

Average pressure tensor: 
-------------------------------------------------------------------------------
 1.5637e+02 -4.1053e+00 -2.1379e+01 +/- 0.0000e+00 0.0000e+00 0.0000e+00 [bar]
-4.1053e+00  2.1576e+02 -5.3742e+01 +/- 0.0000e+00 0.0000e+00 0.0000e+00 [bar]
-2.1379e+01 -5.3742e+01  1.9413e+02 +/- 0.0000e+00 0.0000e+00 0.0000e+00 [bar]
Ideal-gas pressure:   5.115122e+02 +/ 0.000000e+00 [bar]
Excess pressure:     -3.227558e+02 +/ 0.000000e+00 [bar]
Pressure:             1.887565e+02 +/ 0.000000e+00 [bar]

Total potential energy/kʙ  -3.960110e+05 (-3.898764e+05 +/- 0.000000e+00) [K]
-------------------------------------------------------------------------------
ExternalField-molecule
    Van der Waals/kʙ        0.000000e+00 ( 0.000000e+00 +/- 0.000000e+00) [K]
Framework-molecule
    Van der Waals/kʙ        0.000000e+00 ( 0.000000e+00 +/- 0.000000e+00) [K]
    Van der Waals (Tail)/kʙ 0.000000e+00 ( 0.000000e+00 +/- 0.000000e+00) [K]
    Coulombic Real/kʙ       0.000000e+00 ( 0.000000e+00 +/- 0.000000e+00) [K]
    Coulombic Fourier/kʙ    0.000000e+00 ( 0.000000e+00 +/- 0.000000e+00) [K]
Molecule-molecule
    Van der Waals/kʙ       -2.859687e+05 (-2.824462e+05 +/- 0.000000e+00) [K]
    Van der Waals (Tail)/kʙ-6.840380e+03 (-6.880722e+03 +/- 0.000000e+00) [K]
    Coulombic Real/kʙ      -9.664488e+04 (-9.439997e+04 +/- 0.000000e+00) [K]
    Coulombic Fourier/kʙ   -6.557048e+03 (-6.149506e+03 +/- 0.000000e+00) [K]
    Molecule Intra/kʙ       0.000000e+00 ( 0.000000e+00 +/- 0.000000e+00) [K]

Current cycle: 1100 out of 5000
===============================================================================

Box:      25.47036   0.00000   0.00000  Average:  25.63939   0.00000   0.00000
           0.00000  25.47036   0.00000             0.00000  25.63939   0.00000
           0.00000   0.00000  25.47036             0.00000   0.00000  25.63939
Lengths:  25.47036  25.47036  25.47036  Average:  25.63939  25.63939  25.63939
Angles:   90.00000  90.00000  90.00000  Average:  90.00000  90.00000  90.00000
Rectangular boundary conditions

Net charge:   0.00000000
Cutoff Coulomb:  12.73518 [Å]
Ewald alpha: 0.24905445387518896
Ewald k-vectors: 7 7 7


component 0 (CO2) lambda:  0 occupancy:  1 (1.000000)
    net charge:   0.00000000 [e]

Amount of molecules per component :
-------------------------------------------------------------------------------
Component 0 (CO2)
    molecules:      2.500000e+02 molecules  (2.500000e+02 +/- 0.000000e+00)
    number density: 1.512985e-02 molec./A^3 (1.483747e-02 +/- 0.000000e+00)
    density:        1.105413e+03 kg/m^3     (1.084051e+03 +/- 0.000000e+00)

Average pressure tensor: 
-------------------------------------------------------------------------------
 1.4290e+02  9.2442e+00 -2.9086e+01 +/- 0.0000e+00 0.0000e+00 0.0000e+00 [bar]
 9.2442e+00  2.2358e+02 -7.1557e+01 +/- 0.0000e+00 0.0000e+00 0.0000e+00 [bar]
-2.9086e+01 -7.1557e+01  1.8534e+02 +/- 0.0000e+00 0.0000e+00 0.0000e+00 [bar]
Ideal-gas pressure:   5.121338e+02 +/ 0.000000e+00 [bar]
Excess pressure:     -3.281940e+02 +/ 0.000000e+00 [bar]
Pressure:             1.839398e+02 +/ 0.000000e+00 [bar]

Total potential energy/kʙ  -4.002120e+05 (-3.906772e+05 +/- 0.000000e+00) [K]
-------------------------------------------------------------------------------
ExternalField-molecule
    Van der Waals/kʙ        0.000000e+00 ( 0.000000e+00 +/- 0.000000e+00) [K]
Framework-molecule
    Van der Waals/kʙ        0.000000e+00 ( 0.000000e+00 +/- 0.000000e+00) [K]
    Van der Waals (Tail)/kʙ 0.000000e+00 ( 0.000000e+00 +/- 0.000000e+00) [K]
    Coulombic Real/kʙ       0.000000e+00 ( 0.000000e+00 +/- 0.000000e+00) [K]
    Coulombic Fourier/kʙ    0.000000e+00 ( 0.000000e+00 +/- 0.000000e+00) [K]
Molecule-molecule
    Van der Waals/kʙ       -2.874984e+05 (-2.828456e+05 +/- 0.000000e+00) [K]
    Van der Waals (Tail)/kʙ-7.024428e+03 (-6.888904e+03 +/- 0.000000e+00) [K]
    Coulombic Real/kʙ      -9.858972e+04 (-9.476481e+04 +/- 0.000000e+00) [K]
    Coulombic Fourier/kʙ   -7.099470e+03 (-6.177918e+03 +/- 0.000000e+00) [K]
    Molecule Intra/kʙ       0.000000e+00 ( 0.000000e+00 +/- 0.000000e+00) [K]

Current cycle: 1200 out of 5000
===============================================================================

Box:      25.28643   0.00000   0.00000  Average:  25.61725   0.00000   0.00000
           0.00000  25.28643   0.00000             0.00000  25.61725   0.00000
           0.00000   0.00000  25.28643             0.00000   0.00000  25.61725
Lengths:  25.28643  25.28643  25.28643  Average:  25.61725  25.61725  25.61725
Angles:   90.00000  90.00000  90.00000  Average:  90.00000  90.00000  90.00000
Rectangular boundary conditions

Net charge:   0.00000000
Cutoff Coulomb:  12.64322 [Å]
Ewald alpha: 0.2509523867277363
Ewald k-vectors: 7 7 7


component 0 (CO2) lambda:  0 occupancy:  1 (1.000000)
    net charge:   0.00000000 [e]

Amount of molecules per component :
-------------------------------------------------------------------------------
Component 0 (CO2)
    molecules:      2.500000e+02 molecules  (2.500000e+02 +/- 0.000000e+00)
    number density: 1.546242e-02 molec./A^3 (1.487639e-02 +/- 0.000000e+00)
    density:        1.129711e+03 kg/m^3     (1.086895e+03 +/- 0.000000e+00)

Average pressure tensor: 
-------------------------------------------------------------------------------
 1.5234e+02  2.4284e+01 -1.3963e+01 +/- 0.0000e+00 0.0000e+00 0.0000e+00 [bar]
 2.4284e+01  2.3058e+02 -6.6202e+01 +/- 0.0000e+00 0.0000e+00 0.0000e+00 [bar]
-1.3963e+01 -6.6202e+01  1.8992e+02 +/- 0.0000e+00 0.0000e+00 0.0000e+00 [bar]
Ideal-gas pressure:   5.134774e+02 +/ 0.000000e+00 [bar]
Excess pressure:     -3.225317e+02 +/ 0.000000e+00 [bar]
Pressure:             1.909457e+02 +/ 0.000000e+00 [bar]

Total potential energy/kʙ  -4.079672e+05 (-3.918584e+05 +/- 0.000000e+00) [K]
-------------------------------------------------------------------------------
ExternalField-molecule
    Van der Waals/kʙ        0.000000e+00 ( 0.000000e+00 +/- 0.000000e+00) [K]
Framework-molecule
    Van der Waals/kʙ        0.000000e+00 ( 0.000000e+00 +/- 0.000000e+00) [K]
    Van der Waals (Tail)/kʙ 0.000000e+00 ( 0.000000e+00 +/- 0.000000e+00) [K]
    Coulombic Real/kʙ       0.000000e+00 ( 0.000000e+00 +/- 0.000000e+00) [K]
    Coulombic Fourier/kʙ    0.000000e+00 ( 0.000000e+00 +/- 0.000000e+00) [K]
Molecule-molecule
    Van der Waals/kʙ       -2.948830e+05 (-2.835570e+05 +/- 0.000000e+00) [K]
    Van der Waals (Tail)/kʙ-7.178830e+03 (-6.906673e+03 +/- 0.000000e+00) [K]
    Coulombic Real/kʙ      -9.901309e+04 (-9.516781e+04 +/- 0.000000e+00) [K]
    Coulombic Fourier/kʙ   -6.892239e+03 (-6.226891e+03 +/- 0.000000e+00) [K]
    Molecule Intra/kʙ       0.000000e+00 ( 0.000000e+00 +/- 0.000000e+00) [K]

Current cycle: 1300 out of 5000
===============================================================================

Box:      25.68203   0.00000   0.00000  Average:  25.60524   0.00000   0.00000
           0.00000  25.68203   0.00000             0.00000  25.60524   0.00000
           0.00000   0.00000  25.68203             0.00000   0.00000  25.60524
Lengths:  25.68203  25.68203  25.68203  Average:  25.60524  25.60524  25.60524
Angles:   90.00000  90.00000  90.00000  Average:  90.00000  90.00000  90.00000
Rectangular boundary conditions

Net charge:   0.00000000
Cutoff Coulomb:  12.84101 [Å]
Ewald alpha: 0.2469046834461547
Ewald k-vectors: 7 7 7


component 0 (CO2) lambda:  0 occupancy:  1 (1.000000)
    net charge:   0.00000000 [e]

Amount of molecules per component :
-------------------------------------------------------------------------------
Component 0 (CO2)
    molecules:      2.500000e+02 molecules  (2.500000e+02 +/- 0.000000e+00)
    number density: 1.475884e-02 molec./A^3 (1.489727e-02 +/- 0.000000e+00)
    density:        1.078306e+03 kg/m^3     (1.088420e+03 +/- 0.000000e+00)

Average pressure tensor: 
-------------------------------------------------------------------------------
 1.7229e+02  3.1856e+01 -1.5567e+01 +/- 0.0000e+00 0.0000e+00 0.0000e+00 [bar]
 3.1856e+01  2.2014e+02 -5.3387e+01 +/- 0.0000e+00 0.0000e+00 0.0000e+00 [bar]
-1.5567e+01 -5.3387e+01  2.0802e+02 +/- 0.0000e+00 0.0000e+00 0.0000e+00 [bar]
Ideal-gas pressure:   5.141978e+02 +/ 0.000000e+00 [bar]
Excess pressure:     -3.140485e+02 +/ 0.000000e+00 [bar]
Pressure:             2.001493e+02 +/ 0.000000e+00 [bar]

Total potential energy/kʙ  -3.858063e+05 (-3.924626e+05 +/- 0.000000e+00) [K]
-------------------------------------------------------------------------------
ExternalField-molecule
    Van der Waals/kʙ        0.000000e+00 ( 0.000000e+00 +/- 0.000000e+00) [K]
Framework-molecule
    Van der Waals/kʙ        0.000000e+00 ( 0.000000e+00 +/- 0.000000e+00) [K]
    Van der Waals (Tail)/kʙ 0.000000e+00 ( 0.000000e+00 +/- 0.000000e+00) [K]
    Coulombic Real/kʙ       0.000000e+00 ( 0.000000e+00 +/- 0.000000e+00) [K]
    Coulombic Fourier/kʙ    0.000000e+00 ( 0.000000e+00 +/- 0.000000e+00) [K]
Molecule-molecule
    Van der Waals/kʙ       -2.817579e+05 (-2.839697e+05 +/- 0.000000e+00) [K]
    Van der Waals (Tail)/kʙ-6.852173e+03 (-6.917434e+03 +/- 0.000000e+00) [K]
    Coulombic Real/kʙ      -9.111182e+04 (-9.528995e+04 +/- 0.000000e+00) [K]
    Coulombic Fourier/kʙ   -6.084407e+03 (-6.285470e+03 +/- 0.000000e+00) [K]
    Molecule Intra/kʙ       0.000000e+00 ( 0.000000e+00 +/- 0.000000e+00) [K]

Current cycle: 1400 out of 5000
===============================================================================

Box:      25.54172   0.00000   0.00000  Average:  25.60134   0.00000   0.00000
           0.00000  25.54172   0.00000             0.00000  25.60134   0.00000
           0.00000   0.00000  25.54172             0.00000   0.00000  25.60134
Lengths:  25.54172  25.54172  25.54172  Average:  25.60134  25.60134  25.60134
Angles:   90.00000  90.00000  90.00000  Average:  90.00000  90.00000  90.00000
Rectangular boundary conditions

Net charge:   0.00000000
Cutoff Coulomb:  12.77086 [Å]
Ewald alpha: 0.24832561058017003
Ewald k-vectors: 7 7 7


component 0 (CO2) lambda:  0 occupancy:  1 (1.000000)
    net charge:   0.00000000 [e]

Amount of molecules per component :
-------------------------------------------------------------------------------
Component 0 (CO2)
    molecules:      2.500000e+02 molecules  (2.500000e+02 +/- 0.000000e+00)
    number density: 1.500339e-02 molec./A^3 (1.490379e-02 +/- 0.000000e+00)
    density:        1.096174e+03 kg/m^3     (1.088896e+03 +/- 0.000000e+00)

Average pressure tensor: 
-------------------------------------------------------------------------------
 1.7744e+02  3.2974e+01 -1.6067e+01 +/- 0.0000e+00 0.0000e+00 0.0000e+00 [bar]
 3.2974e+01  2.2148e+02 -3.5675e+01 +/- 0.0000e+00 0.0000e+00 0.0000e+00 [bar]
-1.6067e+01 -3.5675e+01  2.0699e+02 +/- 0.0000e+00 0.0000e+00 0.0000e+00 [bar]
Ideal-gas pressure:   5.144231e+02 +/ 0.000000e+00 [bar]
Excess pressure:     -3.124516e+02 +/ 0.000000e+00 [bar]
Pressure:             2.019715e+02 +/ 0.000000e+00 [bar]

Total potential energy/kʙ  -3.975755e+05 (-3.924162e+05 +/- 0.000000e+00) [K]
-------------------------------------------------------------------------------
ExternalField-molecule
    Van der Waals/kʙ        0.000000e+00 ( 0.000000e+00 +/- 0.000000e+00) [K]
Framework-molecule
    Van der Waals/kʙ        0.000000e+00 ( 0.000000e+00 +/- 0.000000e+00) [K]
    Van der Waals (Tail)/kʙ 0.000000e+00 ( 0.000000e+00 +/- 0.000000e+00) [K]
    Coulombic Real/kʙ       0.000000e+00 ( 0.000000e+00 +/- 0.000000e+00) [K]
    Coulombic Fourier/kʙ    0.000000e+00 ( 0.000000e+00 +/- 0.000000e+00) [K]
Molecule-molecule
    Van der Waals/kʙ       -2.927997e+05 (-2.841652e+05 +/- 0.000000e+00) [K]
    Van der Waals (Tail)/kʙ-6.965715e+03 (-6.921014e+03 +/- 0.000000e+00) [K]
    Coulombic Real/kʙ      -9.207072e+04 (-9.506740e+04 +/- 0.000000e+00) [K]
    Coulombic Fourier/kʙ   -5.739391e+03 (-6.262628e+03 +/- 0.000000e+00) [K]
    Molecule Intra/kʙ       0.000000e+00 ( 0.000000e+00 +/- 0.000000e+00) [K]

Current cycle: 1500 out of 5000
===============================================================================

Box:      25.56235   0.00000   0.00000  Average:  25.59899   0.00000   0.00000
           0.00000  25.56235   0.00000             0.00000  25.59899   0.00000
           0.00000   0.00000  25.56235             0.00000   0.00000  25.59899
Lengths:  25.56235  25.56235  25.56235  Average:  25.59899  25.59899  25.59899
Angles:   90.00000  90.00000  90.00000  Average:  90.00000  90.00000  90.00000
Rectangular boundary conditions

Net charge:   0.00000000
Cutoff Coulomb:  12.78118 [Å]
Ewald alpha: 0.2481156992230799
Ewald k-vectors: 7 7 7


component 0 (CO2) lambda:  0 occupancy:  1 (1.000000)
    net charge:   0.00000000 [e]

Amount of molecules per component :
-------------------------------------------------------------------------------
Component 0 (CO2)
    molecules:      2.500000e+02 molecules  (2.500000e+02 +/- 0.000000e+00)
    number density: 1.496710e-02 molec./A^3 (1.490765e-02 +/- 0.000000e+00)
    density:        1.093522e+03 kg/m^3     (1.089178e+03 +/- 0.000000e+00)

Average pressure tensor: 
-------------------------------------------------------------------------------
 1.9166e+02  4.4500e+01 -1.7395e+01 +/- 0.0000e+00 0.0000e+00 0.0000e+00 [bar]
 4.4500e+01  2.2742e+02 -2.6723e+01 +/- 0.0000e+00 0.0000e+00 0.0000e+00 [bar]
-1.7395e+01 -2.6723e+01  1.9472e+02 +/- 0.0000e+00 0.0000e+00 0.0000e+00 [bar]
Ideal-gas pressure:   5.145562e+02 +/ 0.000000e+00 [bar]
Excess pressure:     -3.099565e+02 +/ 0.000000e+00 [bar]
Pressure:             2.045997e+02 +/ 0.000000e+00 [bar]

Total potential energy/kʙ  -3.970271e+05 (-3.925098e+05 +/- 0.000000e+00) [K]
-------------------------------------------------------------------------------
ExternalField-molecule
    Van der Waals/kʙ        0.000000e+00 ( 0.000000e+00 +/- 0.000000e+00) [K]
Framework-molecule
    Van der Waals/kʙ        0.000000e+00 ( 0.000000e+00 +/- 0.000000e+00) [K]
    Van der Waals (Tail)/kʙ 0.000000e+00 ( 0.000000e+00 +/- 0.000000e+00) [K]
    Coulombic Real/kʙ       0.000000e+00 ( 0.000000e+00 +/- 0.000000e+00) [K]
    Coulombic Fourier/kʙ    0.000000e+00 ( 0.000000e+00 +/- 0.000000e+00) [K]
Molecule-molecule
    Van der Waals/kʙ       -2.867108e+05 (-2.842156e+05 +/- 0.000000e+00) [K]
    Van der Waals (Tail)/kʙ-6.948865e+03 (-6.923826e+03 +/- 0.000000e+00) [K]
    Coulombic Real/kʙ      -9.764893e+04 (-9.513303e+04 +/- 0.000000e+00) [K]
    Coulombic Fourier/kʙ   -5.718442e+03 (-6.237411e+03 +/- 0.000000e+00) [K]
    Molecule Intra/kʙ       0.000000e+00 ( 0.000000e+00 +/- 0.000000e+00) [K]

Current cycle: 1600 out of 5000
===============================================================================

Box:      25.78959   0.00000   0.00000  Average:  25.60388   0.00000   0.00000
           0.00000  25.78959   0.00000             0.00000  25.60388   0.00000
           0.00000   0.00000  25.78959             0.00000   0.00000  25.60388
Lengths:  25.78959  25.78959  25.78959  Average:  25.60388  25.60388  25.60388
Angles:   90.00000  90.00000  90.00000  Average:  90.00000  90.00000  90.00000
Rectangular boundary conditions

Net charge:   0.00000000
Cutoff Coulomb:  12.89480 [Å]
Ewald alpha: 0.24582603173016673
Ewald k-vectors: 7 7 7


component 0 (CO2) lambda:  0 occupancy:  1 (1.000000)
    net charge:   0.00000000 [e]

Amount of molecules per component :
-------------------------------------------------------------------------------
Component 0 (CO2)
    molecules:      2.500000e+02 molecules  (2.500000e+02 +/- 0.000000e+00)
    number density: 1.457493e-02 molec./A^3 (1.489893e-02 +/- 0.000000e+00)
    density:        1.064870e+03 kg/m^3     (1.088541e+03 +/- 0.000000e+00)

Average pressure tensor: 
-------------------------------------------------------------------------------
 1.8494e+02  4.4266e+01 -1.5043e+01 +/- 0.0000e+00 0.0000e+00 0.0000e+00 [bar]
 4.4266e+01  2.2682e+02 -1.0722e+01 +/- 0.0000e+00 0.0000e+00 0.0000e+00 [bar]
-1.5043e+01 -1.0722e+01  1.9059e+02 +/- 0.0000e+00 0.0000e+00 0.0000e+00 [bar]
Ideal-gas pressure:   5.142552e+02 +/ 0.000000e+00 [bar]
Excess pressure:     -3.134720e+02 +/ 0.000000e+00 [bar]
Pressure:             2.007832e+02 +/ 0.000000e+00 [bar]

Total potential energy/kʙ  -3.918587e+05 (-3.923975e+05 +/- 0.000000e+00) [K]
-------------------------------------------------------------------------------
ExternalField-molecule
    Van der Waals/kʙ        0.000000e+00 ( 0.000000e+00 +/- 0.000000e+00) [K]
Framework-molecule
    Van der Waals/kʙ        0.000000e+00 ( 0.000000e+00 +/- 0.000000e+00) [K]
    Van der Waals (Tail)/kʙ 0.000000e+00 ( 0.000000e+00 +/- 0.000000e+00) [K]
    Coulombic Real/kʙ       0.000000e+00 ( 0.000000e+00 +/- 0.000000e+00) [K]
    Coulombic Fourier/kʙ    0.000000e+00 ( 0.000000e+00 +/- 0.000000e+00) [K]
Molecule-molecule
    Van der Waals/kʙ       -2.817420e+05 (-2.840596e+05 +/- 0.000000e+00) [K]
    Van der Waals (Tail)/kʙ-6.766792e+03 (-6.919004e+03 +/- 0.000000e+00) [K]
    Coulombic Real/kʙ      -9.719666e+04 (-9.518366e+04 +/- 0.000000e+00) [K]
    Coulombic Fourier/kʙ   -6.153183e+03 (-6.235166e+03 +/- 0.000000e+00) [K]
    Molecule Intra/kʙ       0.000000e+00 ( 0.000000e+00 +/- 0.000000e+00) [K]

Current cycle: 1700 out of 5000
===============================================================================

Box:      25.52450   0.00000   0.00000  Average:  25.61042   0.00000   0.00000
           0.00000  25.52450   0.00000             0.00000  25.61042   0.00000
           0.00000   0.00000  25.52450             0.00000   0.00000  25.61042
Lengths:  25.52450  25.52450  25.52450  Average:  25.61042  25.61042  25.61042
Angles:   90.00000  90.00000  90.00000  Average:  90.00000  90.00000  90.00000
Rectangular boundary conditions

Net charge:   0.00000000
Cutoff Coulomb:  12.76225 [Å]
Ewald alpha: 0.24850116171008452
Ewald k-vectors: 7 7 7


component 0 (CO2) lambda:  0 occupancy:  1 (1.000000)
    net charge:   0.00000000 [e]

Amount of molecules per component :
-------------------------------------------------------------------------------
Component 0 (CO2)
    molecules:      2.500000e+02 molecules  (2.500000e+02 +/- 0.000000e+00)
    number density: 1.503379e-02 molec./A^3 (1.488752e-02 +/- 0.000000e+00)
    density:        1.098394e+03 kg/m^3     (1.087708e+03 +/- 0.000000e+00)

Average pressure tensor: 
-------------------------------------------------------------------------------
 1.7163e+02  4.4252e+01 -7.6793e+00 +/- 0.0000e+00 0.0000e+00 0.0000e+00 [bar]
 4.4252e+01  2.2660e+02 -3.1325e+00 +/- 0.0000e+00 0.0000e+00 0.0000e+00 [bar]
-7.6793e+00 -3.1325e+00  1.8709e+02 +/- 0.0000e+00 0.0000e+00 0.0000e+00 [bar]
Ideal-gas pressure:   5.138616e+02 +/ 0.000000e+00 [bar]
Excess pressure:     -3.187539e+02 +/ 0.000000e+00 [bar]
Pressure:             1.951078e+02 +/ 0.000000e+00 [bar]

Total potential energy/kʙ  -3.943735e+05 (-3.923099e+05 +/- 0.000000e+00) [K]
-------------------------------------------------------------------------------
ExternalField-molecule
    Van der Waals/kʙ        0.000000e+00 ( 0.000000e+00 +/- 0.000000e+00) [K]
Framework-molecule
    Van der Waals/kʙ        0.000000e+00 ( 0.000000e+00 +/- 0.000000e+00) [K]
    Van der Waals (Tail)/kʙ 0.000000e+00 ( 0.000000e+00 +/- 0.000000e+00) [K]
    Coulombic Real/kʙ       0.000000e+00 ( 0.000000e+00 +/- 0.000000e+00) [K]
    Coulombic Fourier/kʙ    0.000000e+00 ( 0.000000e+00 +/- 0.000000e+00) [K]
Molecule-molecule
    Van der Waals/kʙ       -2.917800e+05 (-2.839420e+05 +/- 0.000000e+00) [K]
    Van der Waals (Tail)/kʙ-6.979827e+03 (-6.914390e+03 +/- 0.000000e+00) [K]
    Coulombic Real/kʙ      -8.921987e+04 (-9.521492e+04 +/- 0.000000e+00) [K]
    Coulombic Fourier/kʙ   -6.393839e+03 (-6.238624e+03 +/- 0.000000e+00) [K]
    Molecule Intra/kʙ       0.000000e+00 ( 0.000000e+00 +/- 0.000000e+00) [K]

Current cycle: 1800 out of 5000
===============================================================================

Box:      25.47952   0.00000   0.00000  Average:  25.60342   0.00000   0.00000
           0.00000  25.47952   0.00000             0.00000  25.60342   0.00000
           0.00000   0.00000  25.47952             0.00000   0.00000  25.60342
Lengths:  25.47952  25.47952  25.47952  Average:  25.60342  25.60342  25.60342
Angles:   90.00000  90.00000  90.00000  Average:  90.00000  90.00000  90.00000
Rectangular boundary conditions

Net charge:   0.00000000
Cutoff Coulomb:  12.73976 [Å]
Ewald alpha: 0.24896071145665827
Ewald k-vectors: 7 7 7


component 0 (CO2) lambda:  0 occupancy:  1 (1.000000)
    net charge:   0.00000000 [e]

Amount of molecules per component :
-------------------------------------------------------------------------------
Component 0 (CO2)
    molecules:      2.500000e+02 molecules  (2.500000e+02 +/- 0.000000e+00)
    number density: 1.511355e-02 molec./A^3 (1.489964e-02 +/- 0.000000e+00)
    density:        1.104222e+03 kg/m^3     (1.088593e+03 +/- 0.000000e+00)

Average pressure tensor: 
-------------------------------------------------------------------------------
 1.7569e+02  4.8525e+01  2.3746e-01 +/- 0.0000e+00 0.0000e+00 0.0000e+00 [bar]
 4.8525e+01  2.1458e+02 -5.3425e+00 +/- 0.0000e+00 0.0000e+00 0.0000e+00 [bar]
 2.3746e-01 -5.3425e+00  1.8940e+02 +/- 0.0000e+00 0.0000e+00 0.0000e+00 [bar]
Ideal-gas pressure:   5.142798e+02 +/ 0.000000e+00 [bar]
Excess pressure:     -3.210591e+02 +/ 0.000000e+00 [bar]
Pressure:             1.932207e+02 +/ 0.000000e+00 [bar]

Total potential energy/kʙ  -3.992700e+05 (-3.926188e+05 +/- 0.000000e+00) [K]
-------------------------------------------------------------------------------
ExternalField-molecule
    Van der Waals/kʙ        0.000000e+00 ( 0.000000e+00 +/- 0.000000e+00) [K]
Framework-molecule
    Van der Waals/kʙ        0.000000e+00 ( 0.000000e+00 +/- 0.000000e+00) [K]
    Van der Waals (Tail)/kʙ 0.000000e+00 ( 0.000000e+00 +/- 0.000000e+00) [K]
    Coulombic Real/kʙ       0.000000e+00 ( 0.000000e+00 +/- 0.000000e+00) [K]
    Coulombic Fourier/kʙ    0.000000e+00 ( 0.000000e+00 +/- 0.000000e+00) [K]
Molecule-molecule
    Van der Waals/kʙ       -2.898208e+05 (-2.841689e+05 +/- 0.000000e+00) [K]
    Van der Waals (Tail)/kʙ-7.016858e+03 (-6.919479e+03 +/- 0.000000e+00) [K]
    Coulombic Real/kʙ      -9.564621e+04 (-9.525132e+04 +/- 0.000000e+00) [K]
    Coulombic Fourier/kʙ   -6.786087e+03 (-6.279037e+03 +/- 0.000000e+00) [K]
    Molecule Intra/kʙ       0.000000e+00 ( 0.000000e+00 +/- 0.000000e+00) [K]

Current cycle: 1900 out of 5000
===============================================================================

Box:      25.48852   0.00000   0.00000  Average:  25.59405   0.00000   0.00000
           0.00000  25.48852   0.00000             0.00000  25.59405   0.00000
           0.00000   0.00000  25.48852             0.00000   0.00000  25.59405
Lengths:  25.48852  25.48852  25.48852  Average:  25.59405  25.59405  25.59405
Angles:   90.00000  90.00000  90.00000  Average:  90.00000  90.00000  90.00000
Rectangular boundary conditions

Net charge:   0.00000000
Cutoff Coulomb:  12.74426 [Å]
Ewald alpha: 0.2488685455817013
Ewald k-vectors: 7 7 7


component 0 (CO2) lambda:  0 occupancy:  1 (1.000000)
    net charge:   0.00000000 [e]

Amount of molecules per component :
-------------------------------------------------------------------------------
Component 0 (CO2)
    molecules:      2.500000e+02 molecules  (2.500000e+02 +/- 0.000000e+00)
    number density: 1.509753e-02 molec./A^3 (1.491604e-02 +/- 0.000000e+00)
    density:        1.103051e+03 kg/m^3     (1.089791e+03 +/- 0.000000e+00)

Average pressure tensor: 
-------------------------------------------------------------------------------
 1.7636e+02  4.6617e+01  5.0129e+00 +/- 0.0000e+00 0.0000e+00 0.0000e+00 [bar]
 4.6617e+01  2.0831e+02 -1.0087e+01 +/- 0.0000e+00 0.0000e+00 0.0000e+00 [bar]
 5.0129e+00 -1.0087e+01  1.9000e+02 +/- 0.0000e+00 0.0000e+00 0.0000e+00 [bar]
Ideal-gas pressure:   5.148458e+02 +/ 0.000000e+00 [bar]
Excess pressure:     -3.232879e+02 +/ 0.000000e+00 [bar]
Pressure:             1.915578e+02 +/ 0.000000e+00 [bar]

Total potential energy/kʙ  -3.971199e+05 (-3.931145e+05 +/- 0.000000e+00) [K]
-------------------------------------------------------------------------------
ExternalField-molecule
    Van der Waals/kʙ        0.000000e+00 ( 0.000000e+00 +/- 0.000000e+00) [K]
Framework-molecule
    Van der Waals/kʙ        0.000000e+00 ( 0.000000e+00 +/- 0.000000e+00) [K]
    Van der Waals (Tail)/kʙ 0.000000e+00 ( 0.000000e+00 +/- 0.000000e+00) [K]
    Coulombic Real/kʙ       0.000000e+00 ( 0.000000e+00 +/- 0.000000e+00) [K]
    Coulombic Fourier/kʙ    0.000000e+00 ( 0.000000e+00 +/- 0.000000e+00) [K]
Molecule-molecule
    Van der Waals/kʙ       -2.933059e+05 (-2.845618e+05 +/- 0.000000e+00) [K]
    Van der Waals (Tail)/kʙ-7.009421e+03 (-6.926883e+03 +/- 0.000000e+00) [K]
    Coulombic Real/kʙ      -9.027101e+04 (-9.532382e+04 +/- 0.000000e+00) [K]
    Coulombic Fourier/kʙ   -6.533583e+03 (-6.302061e+03 +/- 0.000000e+00) [K]
    Molecule Intra/kʙ       0.000000e+00 ( 0.000000e+00 +/- 0.000000e+00) [K]

Current cycle: 2000 out of 5000
===============================================================================

Box:      25.61386   0.00000   0.00000  Average:  25.58295   0.00000   0.00000
           0.00000  25.61386   0.00000             0.00000  25.58295   0.00000
           0.00000   0.00000  25.61386             0.00000   0.00000  25.58295
Lengths:  25.61386  25.61386  25.61386  Average:  25.58295  25.58295  25.58295
Angles:   90.00000  90.00000  90.00000  Average:  90.00000  90.00000  90.00000
Rectangular boundary conditions

Net charge:   0.00000000
Cutoff Coulomb:  12.80693 [Å]
Ewald alpha: 0.2475930649428867
Ewald k-vectors: 7 7 7


component 0 (CO2) lambda:  0 occupancy:  1 (1.000000)
    net charge:   0.00000000 [e]

Amount of molecules per component :
-------------------------------------------------------------------------------
Component 0 (CO2)
    molecules:      2.500000e+02 molecules  (2.500000e+02 +/- 0.000000e+00)
    number density: 1.487699e-02 molec./A^3 (1.493559e-02 +/- 0.000000e+00)
    density:        1.086938e+03 kg/m^3     (1.091220e+03 +/- 0.000000e+00)

Average pressure tensor: 
-------------------------------------------------------------------------------
 1.7474e+02  4.6820e+01  1.2656e+01 +/- 0.0000e+00 0.0000e+00 0.0000e+00 [bar]
[...]
    Coulombic Real/kʙ      -1.013194e+05 (-9.689411e+04 +/- 2.109901e+03) [K]
    Coulombic Fourier/kʙ   -6.738509e+03 (-6.496882e+03 +/- 2.908693e+02) [K]
    Molecule Intra/kʙ       0.000000e+00 ( 0.000000e+00 +/- 0.000000e+00) [K]

Current cycle: 4700 out of 5000
===============================================================================

Box:      25.68627   0.00000   0.00000  Average:  25.51635   0.00000   0.00000
           0.00000  25.68627   0.00000             0.00000  25.51635   0.00000
           0.00000   0.00000  25.68627             0.00000   0.00000  25.51635
Lengths:  25.68627  25.68627  25.68627  Average:  25.51635  25.51635  25.51635
Angles:   90.00000  90.00000  90.00000  Average:  90.00000  90.00000  90.00000
Rectangular boundary conditions

Net charge:   0.00000000
Cutoff Coulomb:  12.84314 [Å]
Ewald alpha: 0.2468619332693703
Ewald k-vectors: 7 7 7


component 0 (CO2) lambda:  0 occupancy:  1 (1.000000)
    net charge:   0.00000000 [e]

Amount of molecules per component :
-------------------------------------------------------------------------------
Component 0 (CO2)
    molecules:      2.500000e+02 molecules  (2.500000e+02 +/- 3.944933e-14)
    number density: 1.475152e-02 molec./A^3 (1.505233e-02 +/- 1.820027e-04)
    density:        1.077771e+03 kg/m^3     (1.099749e+03 +/- 1.329743e+01)

Average pressure tensor: 
-------------------------------------------------------------------------------
 1.9485e+02  5.6980e+01 -3.6324e+00 +/- 3.9375e+01 5.9178e+01 3.6004e+01 [bar]
 5.6980e+01  1.9518e+02 -1.2146e+01 +/- 5.9178e+01 4.4984e+01 3.8037e+01 [bar]
-3.6324e+00 -1.2146e+01  1.8950e+02 +/- 3.6004e+01 3.8037e+01 4.4012e+01 [bar]
Ideal-gas pressure:   5.195501e+02 +/ 6.282053e+00 [bar]
Excess pressure:     -3.263709e+02 +/ 2.820451e+01 [bar]
Pressure:             1.931792e+02 +/ 2.976325e+01 [bar]

Total potential energy/kʙ  -3.921767e+05 (-3.976265e+05 +/- 6.150663e+03) [K]
-------------------------------------------------------------------------------
ExternalField-molecule
    Van der Waals/kʙ        0.000000e+00 ( 0.000000e+00 +/- 0.000000e+00) [K]
Framework-molecule
    Van der Waals/kʙ        0.000000e+00 ( 0.000000e+00 +/- 0.000000e+00) [K]
    Van der Waals (Tail)/kʙ 0.000000e+00 ( 0.000000e+00 +/- 0.000000e+00) [K]
    Coulombic Real/kʙ       0.000000e+00 ( 0.000000e+00 +/- 0.000000e+00) [K]
    Coulombic Fourier/kʙ    0.000000e+00 ( 0.000000e+00 +/- 0.000000e+00) [K]
Molecule-molecule
    Van der Waals/kʙ       -2.836775e+05 (-2.871859e+05 +/- 3.783842e+03) [K]
    Van der Waals (Tail)/kʙ-6.848776e+03 (-6.987749e+03 +/- 8.562741e+01) [K]
    Coulombic Real/kʙ      -9.516902e+04 (-9.695704e+04 +/- 2.129577e+03) [K]
    Coulombic Fourier/kʙ   -6.481427e+03 (-6.495792e+03 +/- 2.865686e+02) [K]
    Molecule Intra/kʙ       0.000000e+00 ( 0.000000e+00 +/- 0.000000e+00) [K]

Current cycle: 4800 out of 5000
===============================================================================

Box:      25.49563   0.00000   0.00000  Average:  25.51676   0.00000   0.00000
           0.00000  25.49563   0.00000             0.00000  25.51676   0.00000
           0.00000   0.00000  25.49563             0.00000   0.00000  25.51676
Lengths:  25.49563  25.49563  25.49563  Average:  25.51676  25.51676  25.51676
Angles:   90.00000  90.00000  90.00000  Average:  90.00000  90.00000  90.00000
Rectangular boundary conditions

Net charge:   0.00000000
Cutoff Coulomb:  12.74782 [Å]
Ewald alpha: 0.2487958850893627
Ewald k-vectors: 7 7 7


component 0 (CO2) lambda:  0 occupancy:  1 (1.000000)
    net charge:   0.00000000 [e]

Amount of molecules per component :
-------------------------------------------------------------------------------
Component 0 (CO2)
    molecules:      2.500000e+02 molecules  (2.500000e+02 +/- 0.000000e+00)
    number density: 1.508491e-02 molec./A^3 (1.505157e-02 +/- 1.820629e-04)
    density:        1.102129e+03 kg/m^3     (1.099693e+03 +/- 1.330183e+01)

Average pressure tensor: 
-------------------------------------------------------------------------------
 1.9196e+02  5.9690e+01 -7.8397e-01 +/- 4.2670e+01 6.2409e+01 3.6831e+01 [bar]
 5.9690e+01  1.9470e+02 -1.4450e+01 +/- 6.2409e+01 4.3870e+01 3.9895e+01 [bar]
-7.8397e-01 -1.4450e+01  1.8961e+02 +/- 3.6831e+01 3.9895e+01 3.9690e+01 [bar]
Ideal-gas pressure:   5.195238e+02 +/ 6.284132e+00 [bar]
Excess pressure:     -3.274343e+02 +/ 2.872693e+01 [bar]
Pressure:             1.920895e+02 +/ 3.032763e+01 [bar]

Total potential energy/kʙ  -4.011063e+05 (-3.975914e+05 +/- 6.154412e+03) [K]
-------------------------------------------------------------------------------
ExternalField-molecule
    Van der Waals/kʙ        0.000000e+00 ( 0.000000e+00 +/- 0.000000e+00) [K]
Framework-molecule
    Van der Waals/kʙ        0.000000e+00 ( 0.000000e+00 +/- 0.000000e+00) [K]
    Van der Waals (Tail)/kʙ 0.000000e+00 ( 0.000000e+00 +/- 0.000000e+00) [K]
    Coulombic Real/kʙ       0.000000e+00 ( 0.000000e+00 +/- 0.000000e+00) [K]
    Coulombic Fourier/kʙ    0.000000e+00 ( 0.000000e+00 +/- 0.000000e+00) [K]
Molecule-molecule
    Van der Waals/kʙ       -2.911653e+05 (-2.871632e+05 +/- 3.785973e+03) [K]
    Van der Waals (Tail)/kʙ-7.003562e+03 (-6.987050e+03 +/- 8.577878e+01) [K]
    Coulombic Real/kʙ      -9.613922e+04 (-9.693936e+04 +/- 2.118763e+03) [K]
    Coulombic Fourier/kʙ   -6.798182e+03 (-6.501720e+03 +/- 2.897601e+02) [K]
    Molecule Intra/kʙ       0.000000e+00 ( 0.000000e+00 +/- 0.000000e+00) [K]

Current cycle: 4900 out of 5000
===============================================================================

Box:      25.55903   0.00000   0.00000  Average:  25.51657   0.00000   0.00000
           0.00000  25.55903   0.00000             0.00000  25.51657   0.00000
           0.00000   0.00000  25.55903             0.00000   0.00000  25.51657
Lengths:  25.55903  25.55903  25.55903  Average:  25.51657  25.51657  25.51657
Angles:   90.00000  90.00000  90.00000  Average:  90.00000  90.00000  90.00000
Rectangular boundary conditions

Net charge:   0.00000000
Cutoff Coulomb:  12.77951 [Å]
Ewald alpha: 0.2481495015011363
Ewald k-vectors: 7 7 7


component 0 (CO2) lambda:  0 occupancy:  1 (1.000000)
    net charge:   0.00000000 [e]

Amount of molecules per component :
-------------------------------------------------------------------------------
Component 0 (CO2)
    molecules:      2.500000e+02 molecules  (2.500000e+02 +/- 0.000000e+00)
    number density: 1.497294e-02 molec./A^3 (1.505184e-02 +/- 1.820195e-04)
    density:        1.093949e+03 kg/m^3     (1.099713e+03 +/- 1.329865e+01)

Average pressure tensor: 
-------------------------------------------------------------------------------
 1.9382e+02  5.8982e+01  2.4144e+00 +/- 3.9615e+01 5.8260e+01 3.9722e+01 [bar]
 5.8982e+01  1.9225e+02 -1.6647e+01 +/- 5.8260e+01 4.7047e+01 4.2048e+01 [bar]
 2.4144e+00 -1.6647e+01  1.8821e+02 +/- 3.9722e+01 4.2048e+01 4.0476e+01 [bar]
Ideal-gas pressure:   5.195330e+02 +/ 6.282631e+00 [bar]
Excess pressure:     -3.281065e+02 +/ 2.813820e+01 [bar]
Pressure:             1.914265e+02 +/ 2.972129e+01 [bar]

Total potential energy/kʙ  -3.972886e+05 (-3.976070e+05 +/- 6.151357e+03) [K]
-------------------------------------------------------------------------------
ExternalField-molecule
    Van der Waals/kʙ        0.000000e+00 ( 0.000000e+00 +/- 0.000000e+00) [K]
Framework-molecule
    Van der Waals/kʙ        0.000000e+00 ( 0.000000e+00 +/- 0.000000e+00) [K]
    Van der Waals (Tail)/kʙ 0.000000e+00 ( 0.000000e+00 +/- 0.000000e+00) [K]
    Coulombic Real/kʙ       0.000000e+00 ( 0.000000e+00 +/- 0.000000e+00) [K]
    Coulombic Fourier/kʙ    0.000000e+00 ( 0.000000e+00 +/- 0.000000e+00) [K]
Molecule-molecule
    Van der Waals/kʙ       -2.858358e+05 (-2.871328e+05 +/- 3.791876e+03) [K]
    Van der Waals (Tail)/kʙ-6.951577e+03 (-6.986914e+03 +/- 8.569427e+01) [K]
    Coulombic Real/kʙ      -9.821302e+04 (-9.697961e+04 +/- 2.131053e+03) [K]
    Coulombic Fourier/kʙ   -6.288179e+03 (-6.507711e+03 +/- 2.928498e+02) [K]
    Molecule Intra/kʙ       0.000000e+00 ( 0.000000e+00 +/- 0.000000e+00) [K]


Energy statistics             |  Energy [K]   | Recomputed [K]|  Drift [K]    |
===============================================================================
Total potential energy/kʙ     | -3.947967e+05 | -3.947967e+05 |  1.343821e-09 |
    external field VDW/kʙ     |  0.000000e+00 |  0.000000e+00 |  0.000000e+00 |
    external field Real/kʙ    |  0.000000e+00 |  0.000000e+00 |  0.000000e+00 |
    framework-molecule VDW/kʙ |  0.000000e+00 |  0.000000e+00 |  0.000000e+00 |
    framework-molecule Real/kʙ|  0.000000e+00 |  0.000000e+00 |  0.000000e+00 |
    molecule-molecule VDW/kʙ  | -2.807940e+05 | -2.807940e+05 |  1.470163e-09 |
    molecule-molecule Real/kʙ | -1.007328e+05 | -1.007328e+05 |  4.375485e-10 |
    Van der Waals (Tail)/kʙ   | -6.781394e+03 | -6.781394e+03 |  0.000000e+00 |
    Ewald Fourier/kʙ          |  3.790200e+03 |  3.790200e+03 | -3.828550e-12 |
    Ewald self/kʙ             | -4.261735e+06 | -4.261735e+06 |  0.000000e+00 |
    Ewald exclusion/kʙ        |  4.251456e+06 |  4.251456e+06 | -5.600621e-10 |
    intra VDW/kʙ              |  0.000000e+00 |  0.000000e+00 |  0.000000e+00 |
    intra Coulombic/kʙ        |  0.000000e+00 |  0.000000e+00 |  0.000000e+00 |
    polarization/kʙ           |  0.000000e+00 |  0.000000e+00 |  0.000000e+00 |
    dU/dlambda VDW/kʙ         |  0.000000e+00 |  0.000000e+00 |  0.000000e+00 |
    dU/dlambda Real/kʙ        |  0.000000e+00 |  0.000000e+00 |  0.000000e+00 |
    dU/dlambda Ewald/kʙ       |  0.000000e+00 |  0.000000e+00 |  0.000000e+00 |
-------------------------------------------------------------------------------


Monte-Carlo moves statistics
===============================================================================

    Volume change        all:                8382
    Volume change        total:              8382
    Volume change        constructed:        8382
    Volume change        accepted:           2180
    Volume change        fraction:       0.260081
    Volume change        max-change:     0.050000

Component 0 [CO2]
    Reinsertion (CBMC)   all:              414374
    Reinsertion (CBMC)   total:            414374
    Reinsertion (CBMC)   constructed:      352641
    Reinsertion (CBMC)   accepted:           3225
    Reinsertion (CBMC)   fraction:       0.007783
    Reinsertion (CBMC)   max-change:     0.000000

    Translation          all:              413373
    Translation          total:            137940     137704     137729
    Translation          constructed:      137940     137704     136648
    Translation          accepted:          87448      61054      39605
    Translation          fraction:       0.633957   0.443371   0.287557
    Translation          max-change:     0.416667   0.758621   1.276353

    Rotation             all:              413871
    Rotation             total:            137718     138321     137832
    Rotation             constructed:      137717     138321     137831
    Rotation             accepted:          63664      72416      60680
    Rotation             fraction:       0.462278   0.523536   0.440246
    Rotation             max-change:     0.746667   0.612245   0.818182



Production run counting of the MC moves summed over systems and components
===============================================================================

Volume change                          8382 (0.6706 [%])
Reinsertion (CBMC)                   414374 (33.1499 [%])
Translation                          413373 (33.0698 [%])
Rotation                             413871 (33.1097 [%])

Production count MC-steps:          1250000 [-]
               All summed:          1250000 [-]
               difference:                0 [-]


Production run CPU timings of the MC moves
===============================================================================

Component 0 CO2

Reinsertion (CBMC)                  215.035490 [s]
    Ewald                             4.726914 [s]
    NonEwald                        209.975218 [s]
    Overhead                          0.333358 [s]

Rotation                             37.417223 [s]
    Ewald                             5.385977 [s]
    ExternalField-Molecule            0.011915 [s]
    Framework-Molecule                0.016270 [s]
    Molecule-Molecule                31.271352 [s]
    Overhead                          0.731709 [s]

Translation                          37.475203 [s]
    Ewald                             5.346237 [s]
    ExternalField-Molecule            0.011926 [s]
    Framework-Molecule                0.019231 [s]
    Molecule-Molecule                31.384136 [s]
    Overhead                          0.713673 [s]



Volume change                         51.089119 [s]
    Ewald                              6.345368 [s]
    NonEwald                          42.895950 [s]
    Tail                               1.582144 [s]

Property sampling                     0.678869 [s]
Energy/pressure sampling:             4.540852 [s]
Pressure sampling: (fw)               0.000000 [s]
Pressure sampling: (im)               0.000000 [s]
Pressure sampling: (ew)               0.000000 [s]
Pressure sampling: (tc)               0.000000 [s]
Pressure sampling: (..)               0.000000 [s]


Production run CPU timings of the MC moves summed over systems and components
===============================================================================


Translation                          37.475203 [s]
    Ewald                             5.346237 [s]
    ExternalField-Molecule            0.011926 [s]
    Framework-Molecule                0.019231 [s]
    Molecule-Molecule                31.384136 [s]
    Overhead                          0.713673 [s]

Rotation                             37.417223 [s]
    Ewald                             5.385977 [s]
    ExternalField-Molecule            0.011915 [s]
    Framework-Molecule                0.016270 [s]
    Molecule-Molecule                31.271352 [s]
    Overhead                          0.731709 [s]

Volume change                        51.089119 [s]
    Ewald                             6.345368 [s]
    NonEwald                         42.895950 [s]
    Tail                              1.582144 [s]
    Overhead                          0.265658 [s]

Reinsertion (CBMC)                  215.035490 [s]
    Ewald                             4.726914 [s]
    NonEwald                        209.975218 [s]
    Overhead                          0.333358 [s]

Property sampling:                    0.678869 [s]
Energy/pressure sampling:             4.540852 [s]

Production simulation time:         346.946666 [s]
                All summed:         346.236756 [s]
                  Overhead:           0.709910 [s]


Initalization simulation time:       71.129770 [s]
Equilibration simulation time:        0.000000 [s]
Production simulation time:         346.946666 [s]
Total simulation time:              418.076436 [s]


Energy averages and statistics:
===============================================================================

Inter-molecular energy:
-------------------------------------------------------------------------------

    Inter-molecular energy/kʙ 0-0 [CO2-CO2]:
    ---------------------------------------------------------------------------
        Block[  0] -3.898151e+05
        Block[  1] -3.971061e+05
        Block[  2] -4.015039e+05
        Block[  3] -4.022924e+05
        Block[  4] -3.971129e+05
        -----------------------------------------------------------------------
        Average  -3.975660e+05 +/-  6.155573e+03 [K]



Inter-molecular energy contributions per energy type:
-------------------------------------------------------------------------------

    Van der Waals energy/kʙ 0-0 [CO2-CO2]:
    ---------------------------------------------------------------------------
        Block[  0] -2.824110e+05
        Block[  1] -2.873767e+05
        Block[  2] -2.894909e+05
        Block[  3] -2.900657e+05
        Block[  4] -2.859082e+05
        -----------------------------------------------------------------------
        Average  -2.870505e+05 +/-  3.825621e+03 [K]

    VDW Tail-Correction energy/kʙ 0-0 [CO2-CO2]:
    ---------------------------------------------------------------------------
        Block[  0] -6.881125e+03
        Block[  1] -6.990210e+03
        Block[  2] -7.025433e+03
        Block[  3] -7.065184e+03
        Block[  4] -6.965875e+03
        -----------------------------------------------------------------------
        Average  -6.985566e+03 +/-  8.611311e+01 [K]

    Coulomb Real energy/kʙ 0-0 [CO2-CO2]:
    ---------------------------------------------------------------------------
        Block[  0] -9.437752e+04
        Block[  1] -9.624786e+04
        Block[  2] -9.849496e+04
        Block[  3] -9.838639e+04
        Block[  4] -9.759765e+04
        -----------------------------------------------------------------------
        Average  -9.702088e+04 +/-  2.146255e+03 [K]

    Coulomb Fourier energy/kʙ 0-0 [CO2-CO2]:
    ---------------------------------------------------------------------------
        Block[  0] -6.145430e+03
        Block[  1] -6.491273e+03
        Block[  2] -6.492535e+03
        Block[  3] -6.775130e+03
        Block[  4] -6.641179e+03
        -----------------------------------------------------------------------
        Average  -6.509109e+03 +/-  2.918530e+02 [K]


Total energy/kʙ
-------------------------------------------------------------------------------
    Block[  0] -3.898151e+05
    Block[  1] -3.971061e+05
    Block[  2] -4.015039e+05
    Block[  3] -4.022924e+05
    Block[  4] -3.971129e+05
    ---------------------------------------------------------------------------
    Average  -3.975660e+05 +/-  6.155573e+03 [K]

Pressure averages and statistics:
===============================================================================

Average pressure tensor: 
-------------------------------------------------------------------------------
 1.9393e+02  5.6404e+01  4.3675e+00 +/- 3.9194e+01 5.2393e+01 4.1602e+01 [bar]
 5.6404e+01  1.9361e+02 -1.6605e+01 +/- 5.2393e+01 4.2753e+01 4.1304e+01 [bar]
 4.3675e+00 -1.6605e+01  1.8756e+02 +/- 4.1602e+01 4.1304e+01 3.9439e+01 [bar]

    Block[  0]  5.115152e+07
    Block[  1]  5.195284e+07
    Block[  2]  5.222265e+07
    Block[  3]  5.250863e+07
    Block[  4]  5.187636e+07
    ---------------------------------------------------------------------------
    Ideal gas pressure   5.194240e+07 +/-  3.792166e-02 [Pa]
                         5.194240e+02 +/-  6.297045e+00 [bar]


    Block[  0] -3.224631e+07
    Block[  1] -3.174235e+07
    Block[  2] -3.258495e+07
    Block[  3] -3.106575e+07
    Block[  4] -3.622215e+07
    ---------------------------------------------------------------------------
    Excess pressure  -3.277230e+07 +/-  2.497344e+06 [Pa]
                     -3.277230e+02 +/-  2.497344e+01 [bar]


    Block[  0]  1.890521e+07
    Block[  1]  2.021050e+07
    Block[  2]  1.963771e+07
    Block[  3]  2.144288e+07
    Block[  4]  1.565422e+07
    ---------------------------------------------------------------------------
    Pressure average   1.917010e+07 +/-  2.698453e+06 [Pa]
                       1.917010e+02 +/-  2.698453e+01 [bar]


Enthalpy of adsorption
===============================================================================

No fluctuating components present.


Densities
===============================================================================

Component 0 (CO2)
    Block[  0] 250
    Block[  1] 250
    Block[  2] 250
    Block[  3] 250
    Block[  4] 250
    -----------------------------------------------------------------------
    Density average   2.500000e+02 +/-  0.000000e+00 [molecules]
    Density average   1.504868e-02 +/-  1.824371e-04 [molec/A^3]
    Density average   1.099482e+03 +/-  1.332916e+01 [kg.m⁻³]

