Compiler and run-time data
===============================================================================
RASPA 3.0.4

Random seed: 1575747050

Compiled as a 64-bits application
Compiler: gcc Ubuntu Clang 18.1.3 (1ubuntu1)
Compile Date = Mar 15 2025, Compile Time = 19:39:45

2025-06-02 12:33:28.188427
Simulation started on Mon, Jun 02
The start time was 12:33:00

Hostname:    c062
OS type:     Linux on x86_64
OS release:  6.8.0-58-generic
OS version:  #60-Ubuntu SMP PREEMPT_DYNAMIC Fri Mar 14 18:29:48 UTC 2025


Mutual consistent basic set of units:
===============================================================================

Unit of temperature: 1 [K]
Unit of length:      1e-10 [m]
Unit of time:        1e-12 [s]
Unit of mass:        1.6605402e-27 [kg]
Unit of charge:      1.60217733e-19 [C/particle]


Boltzmann constant (internal units):          0.8314464919307584 [-]
represents conversion from energy (internal units) to temperature (in Kelvin)

Derived units and their conversion factors:
===============================================================================

Unit of energy:                           1.6605402000000002e-23 [J]
Unit of energy:                           10.000008872307538 [J.mol⁻¹]
Unit of velocity:                         100 [m.s⁻¹]
Unit of force:                            1.6605402000000002e-13 [N]
Unit of diffusion:                        1.0000000000000002e-08 [m².s⁻¹]
Unit of acceleration:                     1.0000000000000002e-08 [m².s⁻¹]
Unit of torque:                           1.6605402000000002e-23 [N.m]
Unit of pressure:                         16605402 [Pa]
Unit of volume:                           1e-30 [m³]
Unit of density:                          1660.5402 [kg.m⁻³]
Unit of dynamic viscosity:                1.6605401999999997e-05 [N.s.m⁻²]
Unit of enthalpy:                         1.6605402000000002e-23 [J]
Unit of polarizability:                   1.5458657349975198e-35 [-]
Unit of Coulomb potential:                167101.08000665612 [K]
Unit of dielectric constant:              1.5458657349975193e-05 [s².C².kg⁻¹.m⁻³]
Unit of dipole moment:                    1.60217733e-29 [C.m]
Unit of Debye:                            4.803206799099162 [C.m]
Unit of electric potential:               0.00010364272224473431 [V]
Unit of electric field:                   1036427.222447343 [V.m⁻¹]
Unit of isothermal compressibility:       6.02213665167516e-08 [Pa⁻¹]
Unit of heat capacity:                    10.000008872307538 [J.mol⁻¹.K⁻¹]
Unit of volumetric expansion coefficient: 1 [K⁻¹]


Internal conversion factors:
===============================================================================

Energy (internal units) to Kelvin:      1.202724284692786 [-]
Kelvin to energy (internal units):      0.8314457542157567 [-]


System definitions
===============================================================================

Temperature:          250 [K]
Beta:                 0.0048108928702210625 [-]
Pressure:             2e+07 [Pa]
Helium void fraction: 1 [-]

Box:      30.00000   0.00000   0.00000
           0.00000  30.00000   0.00000
           0.00000   0.00000  30.00000
Lengths:  30.00000  30.00000  30.00000
Angles:   90.00000  90.00000  90.00000
Rectangular boundary conditions



Property measurement settings
===============================================================================




Pseudo-atoms
===============================================================================

  0 - C_co2    framework-atom: false
  1 - O_co2    framework-atom: false

  0 - C_co2    mass: 12.00000, charge:  0.70000
  1 - O_co2    mass: 15.99940, charge: -0.35000

  0 - C_co2    polarizability:  0.00000
  1 - O_co2    polarizability:  0.00000

  0 - J. J. Potoff et al., AIChE J. 2001, 47, 1676–1682.
  1 - J. J. Potoff et al., AIChE J. 2001, 47, 1676–1682.

Force field status
===============================================================================

Cutoff Framework-Molecule VDW:  12.00000 [Å]
Cutoff Molecule-Molecule VDW:   12.00000 [Å]
Cutoff Coulomb:                 12.00000 [Å]

Overlap-criteria VDW:           1.000000e+05 [K]

C_co2    - C_co2    Lennard-Jones p₀/kʙ:  27.00000 [K], p₁:  2.80000 [Å]
                                  shift:   0.00000 [K], tailcorrections: true
C_co2    - O_co2    Lennard-Jones p₀/kʙ:  46.18441 [K], p₁:  2.92500 [Å]
                                  shift:   0.00000 [K], tailcorrections: true
O_co2    - O_co2    Lennard-Jones p₀/kʙ:  79.00000 [K], p₁:  3.05000 [Å]
                                  shift:   0.00000 [K], tailcorrections: true

Ewald precision: 1e-06
Ewald alpha: 0.26505830360350674
Ewald k-vectors: 8 8 8


Component definitions
===============================================================================

Component 0 [CO2]

    Type: Adsorbate

    Critical temperature:  304.1282 [K]
    Critical pressure:     7377300 [Pa]
    Acentric factor:       0.22394 [-]

    Mol-fraction:                 1 [-]
    Swappable:                   false

    Mass:                         43.9988 [-]
    Bulk fluid density:           0 [-]
    Compressibility:              0 [-]
    Excess molecules:             0 [-]

    Number Of Atoms:    3
    CBMC starting bead: 0
      0: O_co2  position  0.00000 -0.00000  1.16000, charge -0.35000
      1: C_co2  position  0.00000 -0.00000  0.00000, charge  0.70000
      2: O_co2  position  0.00000 -0.00000 -1.16000, charge -0.35000
    Diagonalized inertia-vector:      43.05758528 43.05758528 0.00000000
    Translational degrees of freedom: 3
    Rotational degrees of freedom:    2
    Shape of the molecule is: 'Linear'
    Net-charge:        0.00000000 [e]

    Move probabilities:
    Translation:                   0.331126 [-]
    Random translation:            0.000000 [-]
    Rotation:                      0.331126 [-]
    Random rotation:               0.000000 [-]
    Volume change:                 0.006623 [-]
    Reinsertion (CBMC):            0.331126 [-]
    Identity change (CBMC):        0.000000 [-]
    Swap:                          0.000000 [-]
    Swap (CBMC):                   0.000000 [-]
    Swap (CFCMC):                  0.000000 [-]
    Swap (CB/CFCMC):               0.000000 [-]
    Gibbs volume:                  0.000000 [-]
    Gibbs swap (CBMC):             0.000000 [-]
    Gibbs swap (CFCMC):            0.000000 [-]
    Widom:                         0.000000 [-]
    Widom (CFCMC):                 0.000000 [-]
    Widom (CB/CFCMC):              0.000000 [-]
    Parallel tempering:            0.000000 [-]
    Hybrid MC:                     0.000000 [-]

    number of blocking-pockets: 0

    number of bonds: 0





Number of pseudo-atoms
===============================================================================

Component   0 (CO2)
-------------------------------------------------------------------------------
    index   0 (C_co2): 250 atoms
    index   1 (O_co2): 500 atoms

Total number of pseudo-atoms:
-------------------------------------------------------------------------------
    index   0 (C_co2): 250 atoms
    index   1 (O_co2): 500 atoms




Energy status Recomputed from scratch
===============================================================================

Total potential energy/kʙ       -6.393731e+04 [K]
    external field VDW/kʙ        0.000000e+00 [K]
    external field Real/kʙ       0.000000e+00 [K]
    framework-molecule VDW/kʙ    0.000000e+00 [K]
    framework-molecule Real/kʙ   0.000000e+00 [K]
    molecule-molecule VDW/kʙ    -3.215269e+04 [K]
    molecule-molecule Real/kʙ   -2.621884e+04 [K]
    Van der Waals (Tail)/kʙ     -4.298852e+03 [K]
    Ewald Fourier/kʙ             1.343448e+04 [K]
    Ewald self/kʙ               -4.591696e+06 [K]
    Ewald exclusion/kʙ           4.576994e+06 [K]
    intra VDW/kʙ                 0.000000e+00 [K]
    intra Coulombic/kʙ           0.000000e+00 [K]
    polarization/kʙ              0.000000e+00 [K]
    dU/dlambda VDW/kʙ            0.000000e+00 [K]
    dU/dlambda Real/kʙ           0.000000e+00 [K]
    dU/dlambda Ewald/kʙ          0.000000e+00 [K]





Initialization: Current cycle: 0 out of 1000
===============================================================================

Box:      30.00000   0.00000   0.00000
           0.00000  30.00000   0.00000
           0.00000   0.00000  30.00000
Lengths:  30.00000  30.00000  30.00000
Angles:   90.00000  90.00000  90.00000
Rectangular boundary conditions

net charge:   0.00000000

component   0 (CO2) lambda:  0 occupancy:  1 (1.000000)
    net charge:   0.00000000 [e]

Amount of molecules per component :
-------------------------------------------------------------------------------
Component 0 (CO2)
    molecules:         2.500000e+02 molecules
    number density:    9.259259e-03 molec/A^3
    density:           6.764973e+02 kg/m^3

Total potential energy/kʙ       -9.373756e+04 [K]
-------------------------------------------------------------------------------
    external field VDW/kʙ        0.000000e+00 [K]
    external field Real/kʙ       0.000000e+00 [K]
    framework-molecule VDW/kʙ    0.000000e+00 [K]
    framework-molecule Real/kʙ   0.000000e+00 [K]
    molecule-molecule VDW/kʙ    -5.966668e+04 [K]
    molecule-molecule Real/kʙ   -2.808767e+04 [K]
    Van der Waals (Tail)/kʙ     -4.298852e+03 [K]
    Ewald Fourier/kʙ             1.301705e+04 [K]
    Ewald self/kʙ               -4.591696e+06 [K]
    Ewald exclusion/kʙ           4.576994e+06 [K]
    intra VDW/kʙ                 0.000000e+00 [K]
    intra Coulombic/kʙ           0.000000e+00 [K]
    polarization/kʙ              0.000000e+00 [K]
    dU/dlambda VDW/kʙ            0.000000e+00 [K]
    dU/dlambda Real/kʙ           0.000000e+00 [K]
    dU/dlambda Ewald/kʙ          0.000000e+00 [K]


Initialization: Current cycle: 100 out of 1000
===============================================================================

Box:      27.47277   0.00000   0.00000
           0.00000  27.47277   0.00000
           0.00000   0.00000  27.47277
Lengths:  27.47277  27.47277  27.47277
Angles:   90.00000  90.00000  90.00000
Rectangular boundary conditions

net charge:   0.00000000

component   0 (CO2) lambda:  0 occupancy:  1 (1.000000)
    net charge:   0.00000000 [e]

Amount of molecules per component :
-------------------------------------------------------------------------------
Component 0 (CO2)
    molecules:         2.500000e+02 molecules
    number density:    1.205682e-02 molec/A^3
    density:           8.808916e+02 kg/m^3

Total potential energy/kʙ       -3.085615e+05 [K]
-------------------------------------------------------------------------------
    external field VDW/kʙ        0.000000e+00 [K]
    external field Real/kʙ       0.000000e+00 [K]
    framework-molecule VDW/kʙ    0.000000e+00 [K]
    framework-molecule Real/kʙ   0.000000e+00 [K]
    molecule-molecule VDW/kʙ    -2.249817e+05 [K]
    molecule-molecule Real/kʙ   -7.149863e+04 [K]
    Van der Waals (Tail)/kʙ     -5.597690e+03 [K]
    Ewald Fourier/kʙ             8.217955e+03 [K]
    Ewald self/kʙ               -4.591696e+06 [K]
    Ewald exclusion/kʙ           4.576994e+06 [K]
    intra VDW/kʙ                 0.000000e+00 [K]
    intra Coulombic/kʙ           0.000000e+00 [K]
    polarization/kʙ              0.000000e+00 [K]
    dU/dlambda VDW/kʙ            0.000000e+00 [K]
    dU/dlambda Real/kʙ           0.000000e+00 [K]
    dU/dlambda Ewald/kʙ          0.000000e+00 [K]


Initialization: Current cycle: 200 out of 1000
===============================================================================

Box:      25.92080   0.00000   0.00000
           0.00000  25.92080   0.00000
           0.00000   0.00000  25.92080
Lengths:  25.92080  25.92080  25.92080
Angles:   90.00000  90.00000  90.00000
Rectangular boundary conditions

net charge:   0.00000000

component   0 (CO2) lambda:  0 occupancy:  1 (1.000000)
    net charge:   0.00000000 [e]

Amount of molecules per component :
-------------------------------------------------------------------------------
Component 0 (CO2)
    molecules:         2.500000e+02 molecules
    number density:    1.435472e-02 molec/A^3
    density:           1.048780e+03 kg/m^3

Total potential energy/kʙ       -3.655916e+05 [K]
-------------------------------------------------------------------------------
    external field VDW/kʙ        0.000000e+00 [K]
    external field Real/kʙ       0.000000e+00 [K]
    framework-molecule VDW/kʙ    0.000000e+00 [K]
    framework-molecule Real/kʙ   0.000000e+00 [K]
    molecule-molecule VDW/kʙ    -2.698270e+05 [K]
    molecule-molecule Real/kʙ   -8.126035e+04 [K]
    Van der Waals (Tail)/kʙ     -6.664551e+03 [K]
    Ewald Fourier/kʙ             6.861745e+03 [K]
    Ewald self/kʙ               -4.591696e+06 [K]
    Ewald exclusion/kʙ           4.576994e+06 [K]
    intra VDW/kʙ                 0.000000e+00 [K]
    intra Coulombic/kʙ           0.000000e+00 [K]
    polarization/kʙ              0.000000e+00 [K]
    dU/dlambda VDW/kʙ            0.000000e+00 [K]
    dU/dlambda Real/kʙ           0.000000e+00 [K]
    dU/dlambda Ewald/kʙ          0.000000e+00 [K]


Initialization: Current cycle: 300 out of 1000
===============================================================================

Box:      25.57611   0.00000   0.00000
           0.00000  25.57611   0.00000
           0.00000   0.00000  25.57611
Lengths:  25.57611  25.57611  25.57611
Angles:   90.00000  90.00000  90.00000
Rectangular boundary conditions

net charge:   0.00000000

component   0 (CO2) lambda:  0 occupancy:  1 (1.000000)
    net charge:   0.00000000 [e]

Amount of molecules per component :
-------------------------------------------------------------------------------
Component 0 (CO2)
    molecules:         2.500000e+02 molecules
    number density:    1.494296e-02 molec/A^3
    density:           1.091758e+03 kg/m^3

Total potential energy/kʙ       -3.892466e+05 [K]
-------------------------------------------------------------------------------
    external field VDW/kʙ        0.000000e+00 [K]
    external field Real/kʙ       0.000000e+00 [K]
    framework-molecule VDW/kʙ    0.000000e+00 [K]
    framework-molecule Real/kʙ   0.000000e+00 [K]
    molecule-molecule VDW/kʙ    -2.789416e+05 [K]
    molecule-molecule Real/kʙ   -9.457217e+04 [K]
    Van der Waals (Tail)/kʙ     -6.937657e+03 [K]
    Ewald Fourier/kʙ             5.906212e+03 [K]
    Ewald self/kʙ               -4.591696e+06 [K]
    Ewald exclusion/kʙ           4.576994e+06 [K]
    intra VDW/kʙ                 0.000000e+00 [K]
    intra Coulombic/kʙ           0.000000e+00 [K]
    polarization/kʙ              0.000000e+00 [K]
    dU/dlambda VDW/kʙ            0.000000e+00 [K]
    dU/dlambda Real/kʙ           0.000000e+00 [K]
    dU/dlambda Ewald/kʙ          0.000000e+00 [K]


Initialization: Current cycle: 400 out of 1000
===============================================================================

Box:      25.75834   0.00000   0.00000
           0.00000  25.75834   0.00000
           0.00000   0.00000  25.75834
Lengths:  25.75834  25.75834  25.75834
Angles:   90.00000  90.00000  90.00000
Rectangular boundary conditions

net charge:   0.00000000

component   0 (CO2) lambda:  0 occupancy:  1 (1.000000)
    net charge:   0.00000000 [e]

Amount of molecules per component :
-------------------------------------------------------------------------------
Component 0 (CO2)
    molecules:         2.500000e+02 molecules
    number density:    1.462805e-02 molec/A^3
    density:           1.068751e+03 kg/m^3

Total potential energy/kʙ       -3.779518e+05 [K]
-------------------------------------------------------------------------------
    external field VDW/kʙ        0.000000e+00 [K]
    external field Real/kʙ       0.000000e+00 [K]
    framework-molecule VDW/kʙ    0.000000e+00 [K]
    framework-molecule Real/kʙ   0.000000e+00 [K]
    molecule-molecule VDW/kʙ    -2.715660e+05 [K]
    molecule-molecule Real/kʙ   -9.084430e+04 [K]
    Van der Waals (Tail)/kʙ     -6.791454e+03 [K]
    Ewald Fourier/kʙ             5.951300e+03 [K]
    Ewald self/kʙ               -4.591696e+06 [K]
    Ewald exclusion/kʙ           4.576994e+06 [K]
    intra VDW/kʙ                 0.000000e+00 [K]
    intra Coulombic/kʙ           0.000000e+00 [K]
    polarization/kʙ              0.000000e+00 [K]
    dU/dlambda VDW/kʙ            0.000000e+00 [K]
    dU/dlambda Real/kʙ           0.000000e+00 [K]
    dU/dlambda Ewald/kʙ          0.000000e+00 [K]


Initialization: Current cycle: 500 out of 1000
===============================================================================

Box:      25.79499   0.00000   0.00000
           0.00000  25.79499   0.00000
           0.00000   0.00000  25.79499
Lengths:  25.79499  25.79499  25.79499
Angles:   90.00000  90.00000  90.00000
Rectangular boundary conditions

net charge:   0.00000000

component   0 (CO2) lambda:  0 occupancy:  1 (1.000000)
    net charge:   0.00000000 [e]

Amount of molecules per component :
-------------------------------------------------------------------------------
Component 0 (CO2)
    molecules:         2.500000e+02 molecules
    number density:    1.456578e-02 molec/A^3
    density:           1.064201e+03 kg/m^3

Total potential energy/kʙ       -3.858941e+05 [K]
-------------------------------------------------------------------------------
    external field VDW/kʙ        0.000000e+00 [K]
    external field Real/kʙ       0.000000e+00 [K]
    framework-molecule VDW/kʙ    0.000000e+00 [K]
    framework-molecule Real/kʙ   0.000000e+00 [K]
    molecule-molecule VDW/kʙ    -2.738127e+05 [K]
    molecule-molecule Real/kʙ   -9.634396e+04 [K]
    Van der Waals (Tail)/kʙ     -6.762544e+03 [K]
    Ewald Fourier/kʙ             5.726475e+03 [K]
    Ewald self/kʙ               -4.591696e+06 [K]
    Ewald exclusion/kʙ           4.576994e+06 [K]
    intra VDW/kʙ                 0.000000e+00 [K]
    intra Coulombic/kʙ           0.000000e+00 [K]
    polarization/kʙ              0.000000e+00 [K]
    dU/dlambda VDW/kʙ            0.000000e+00 [K]
    dU/dlambda Real/kʙ           0.000000e+00 [K]
    dU/dlambda Ewald/kʙ          0.000000e+00 [K]


Initialization: Current cycle: 600 out of 1000
===============================================================================

Box:      25.74711   0.00000   0.00000
           0.00000  25.74711   0.00000
           0.00000   0.00000  25.74711
Lengths:  25.74711  25.74711  25.74711
Angles:   90.00000  90.00000  90.00000
Rectangular boundary conditions

net charge:   0.00000000

component   0 (CO2) lambda:  0 occupancy:  1 (1.000000)
    net charge:   0.00000000 [e]

Amount of molecules per component :
-------------------------------------------------------------------------------
Component 0 (CO2)
    molecules:         2.500000e+02 molecules
    number density:    1.464720e-02 molec/A^3
    density:           1.070150e+03 kg/m^3

Total potential energy/kʙ       -3.848219e+05 [K]
-------------------------------------------------------------------------------
    external field VDW/kʙ        0.000000e+00 [K]
    external field Real/kʙ       0.000000e+00 [K]
    framework-molecule VDW/kʙ    0.000000e+00 [K]
    framework-molecule Real/kʙ   0.000000e+00 [K]
    molecule-molecule VDW/kʙ    -2.791602e+05 [K]
    molecule-molecule Real/kʙ   -9.010933e+04 [K]
    Van der Waals (Tail)/kʙ     -6.800345e+03 [K]
    Ewald Fourier/kʙ             5.949398e+03 [K]
    Ewald self/kʙ               -4.591696e+06 [K]
    Ewald exclusion/kʙ           4.576994e+06 [K]
    intra VDW/kʙ                 0.000000e+00 [K]
    intra Coulombic/kʙ           0.000000e+00 [K]
    polarization/kʙ              0.000000e+00 [K]
    dU/dlambda VDW/kʙ            0.000000e+00 [K]
    dU/dlambda Real/kʙ           0.000000e+00 [K]
    dU/dlambda Ewald/kʙ          0.000000e+00 [K]


Initialization: Current cycle: 700 out of 1000
===============================================================================

Box:      25.59604   0.00000   0.00000
           0.00000  25.59604   0.00000
           0.00000   0.00000  25.59604
Lengths:  25.59604  25.59604  25.59604
Angles:   90.00000  90.00000  90.00000
Rectangular boundary conditions

net charge:   0.00000000

component   0 (CO2) lambda:  0 occupancy:  1 (1.000000)
    net charge:   0.00000000 [e]

Amount of molecules per component :
-------------------------------------------------------------------------------
Component 0 (CO2)
    molecules:         2.500000e+02 molecules
    number density:    1.490808e-02 molec/A^3
    density:           1.089210e+03 kg/m^3

Total potential energy/kʙ       -3.961104e+05 [K]
-------------------------------------------------------------------------------
    external field VDW/kʙ        0.000000e+00 [K]
    external field Real/kʙ       0.000000e+00 [K]
    framework-molecule VDW/kʙ    0.000000e+00 [K]
    framework-molecule Real/kʙ   0.000000e+00 [K]
    molecule-molecule VDW/kʙ    -2.836875e+05 [K]
    molecule-molecule Real/kʙ   -9.709919e+04 [K]
    Van der Waals (Tail)/kʙ     -6.921461e+03 [K]
    Ewald Fourier/kʙ             6.299165e+03 [K]
    Ewald self/kʙ               -4.591696e+06 [K]
    Ewald exclusion/kʙ           4.576994e+06 [K]
    intra VDW/kʙ                 0.000000e+00 [K]
    intra Coulombic/kʙ           0.000000e+00 [K]
    polarization/kʙ              0.000000e+00 [K]
    dU/dlambda VDW/kʙ            0.000000e+00 [K]
    dU/dlambda Real/kʙ           0.000000e+00 [K]
    dU/dlambda Ewald/kʙ          0.000000e+00 [K]


Initialization: Current cycle: 800 out of 1000
===============================================================================

Box:      25.57507   0.00000   0.00000
           0.00000  25.57507   0.00000
           0.00000   0.00000  25.57507
Lengths:  25.57507  25.57507  25.57507
Angles:   90.00000  90.00000  90.00000
Rectangular boundary conditions

net charge:   0.00000000

component   0 (CO2) lambda:  0 occupancy:  1 (1.000000)
    net charge:   0.00000000 [e]

Amount of molecules per component :
-------------------------------------------------------------------------------
Component 0 (CO2)
    molecules:         2.500000e+02 molecules
    number density:    1.494478e-02 molec/A^3
    density:           1.091891e+03 kg/m^3

Total potential energy/kʙ       -3.998023e+05 [K]
-------------------------------------------------------------------------------
    external field VDW/kʙ        0.000000e+00 [K]
    external field Real/kʙ       0.000000e+00 [K]
    framework-molecule VDW/kʙ    0.000000e+00 [K]
    framework-molecule Real/kʙ   0.000000e+00 [K]
    molecule-molecule VDW/kʙ    -2.882790e+05 [K]
    molecule-molecule Real/kʙ   -9.695668e+04 [K]
    Van der Waals (Tail)/kʙ     -6.938503e+03 [K]
    Ewald Fourier/kʙ             7.073343e+03 [K]
    Ewald self/kʙ               -4.591696e+06 [K]
    Ewald exclusion/kʙ           4.576994e+06 [K]
    intra VDW/kʙ                 0.000000e+00 [K]
    intra Coulombic/kʙ           0.000000e+00 [K]
    polarization/kʙ              0.000000e+00 [K]
    dU/dlambda VDW/kʙ            0.000000e+00 [K]
    dU/dlambda Real/kʙ           0.000000e+00 [K]
    dU/dlambda Ewald/kʙ          0.000000e+00 [K]


Initialization: Current cycle: 900 out of 1000
===============================================================================

Box:      25.38076   0.00000   0.00000
           0.00000  25.38076   0.00000
           0.00000   0.00000  25.38076
Lengths:  25.38076  25.38076  25.38076
Angles:   90.00000  90.00000  90.00000
Rectangular boundary conditions

net charge:   0.00000000

component   0 (CO2) lambda:  0 occupancy:  1 (1.000000)
    net charge:   0.00000000 [e]

Amount of molecules per component :
-------------------------------------------------------------------------------
Component 0 (CO2)
    molecules:         2.500000e+02 molecules
    number density:    1.529066e-02 molec/A^3
    density:           1.117162e+03 kg/m^3

Total potential energy/kʙ       -3.923423e+05 [K]
-------------------------------------------------------------------------------
    external field VDW/kʙ        0.000000e+00 [K]
    external field Real/kʙ       0.000000e+00 [K]
    framework-molecule VDW/kʙ    0.000000e+00 [K]
    framework-molecule Real/kʙ   0.000000e+00 [K]
    molecule-molecule VDW/kʙ    -2.863262e+05 [K]
    molecule-molecule Real/kʙ   -8.999405e+04 [K]
    Van der Waals (Tail)/kʙ     -7.099086e+03 [K]
    Ewald Fourier/kʙ             5.778465e+03 [K]
    Ewald self/kʙ               -4.591696e+06 [K]
    Ewald exclusion/kʙ           4.576994e+06 [K]
    intra VDW/kʙ                 0.000000e+00 [K]
    intra Coulombic/kʙ           0.000000e+00 [K]
    polarization/kʙ              0.000000e+00 [K]
    dU/dlambda VDW/kʙ            0.000000e+00 [K]
    dU/dlambda Real/kʙ           0.000000e+00 [K]
    dU/dlambda Ewald/kʙ          0.000000e+00 [K]


Current cycle: 0 out of 5000
===============================================================================

Box:      25.65950   0.00000   0.00000  Average:  25.65950   0.00000   0.00000
           0.00000  25.65950   0.00000             0.00000  25.65950   0.00000
           0.00000   0.00000  25.65950             0.00000   0.00000  25.65950
Lengths:  25.65950  25.65950  25.65950  Average:  25.65950  25.65950  25.65950
Angles:   90.00000  90.00000  90.00000  Average:  90.00000  90.00000  90.00000
Rectangular boundary conditions

net charge:   0.00000000

component 0 (CO2) lambda:  0 occupancy:  1 (1.000000)
    net charge:   0.00000000 [e]

Amount of molecules per component :
-------------------------------------------------------------------------------
Component 0 (CO2)
    molecules:      2.500000e+02 molecules  (2.500000e+02 +/- 0.000000e+00)
    number density: 1.479774e-02 molec./A^3 (1.479774e-02 +/- 0.000000e+00)
    density:        1.081148e+03 kg/m^3     (1.081148e+03 +/- 0.000000e+00)

Average pressure tensor: 
-------------------------------------------------------------------------------
 5.1076e+02  0.0000e+00  0.0000e+00 +/- 0.0000e+00 0.0000e+00 0.0000e+00 [bar]
 0.0000e+00  5.1076e+02  0.0000e+00 +/- 0.0000e+00 0.0000e+00 0.0000e+00 [bar]
 0.0000e+00  0.0000e+00  5.1076e+02 +/- 0.0000e+00 0.0000e+00 0.0000e+00 [bar]
Ideal-gas pressure:   5.107627e+02 +/ 0.000000e+00 [bar]
Excess pressure:      0.000000e+00 +/ 0.000000e+00 [bar]
Pressure:             5.107627e+02 +/ 0.000000e+00 [bar]

Total potential energy/kʙ  -3.798324e+05 (-3.798324e+05 +/- 0.000000e+00) [K]
-------------------------------------------------------------------------------
ExternalField-molecule
    Van der Waals/kʙ        0.000000e+00 ( 0.000000e+00 +/- 0.000000e+00) [K]
Framework-molecule
    Van der Waals/kʙ        0.000000e+00 ( 0.000000e+00 +/- 0.000000e+00) [K]
    Van der Waals (Tail)/kʙ 0.000000e+00 ( 0.000000e+00 +/- 0.000000e+00) [K]
    Coulombic Real/kʙ       0.000000e+00 ( 0.000000e+00 +/- 0.000000e+00) [K]
    Coulombic Fourier/kʙ    0.000000e+00 ( 0.000000e+00 +/- 0.000000e+00) [K]
Molecule-molecule
    Van der Waals/kʙ       -2.833499e+05 (-2.833499e+05 +/- 0.000000e+00) [K]
    Van der Waals (Tail)/kʙ-6.870237e+03 (-6.870237e+03 +/- 0.000000e+00) [K]
    Coulombic Real/kʙ      -8.141345e+04 (-8.141345e+04 +/- 0.000000e+00) [K]
    Coulombic Fourier/kʙ   -8.198798e+03 (-8.198798e+03 +/- 0.000000e+00) [K]
    Molecule Intra/kʙ       0.000000e+00 ( 0.000000e+00 +/- 0.000000e+00) [K]

Current cycle: 100 out of 5000
===============================================================================

Box:      25.58838   0.00000   0.00000  Average:  25.69751   0.00000   0.00000
           0.00000  25.58838   0.00000             0.00000  25.69751   0.00000
           0.00000   0.00000  25.58838             0.00000   0.00000  25.69751
Lengths:  25.58838  25.58838  25.58838  Average:  25.69751  25.69751  25.69751
Angles:   90.00000  90.00000  90.00000  Average:  90.00000  90.00000  90.00000
Rectangular boundary conditions

net charge:   0.00000000

component 0 (CO2) lambda:  0 occupancy:  1 (1.000000)
    net charge:   0.00000000 [e]

Amount of molecules per component :
-------------------------------------------------------------------------------
Component 0 (CO2)
    molecules:      2.500000e+02 molecules  (2.500000e+02 +/- 0.000000e+00)
    number density: 1.492148e-02 molec./A^3 (1.473395e-02 +/- 0.000000e+00)
    density:        1.090189e+03 kg/m^3     (1.076488e+03 +/- 0.000000e+00)

Average pressure tensor: 
-------------------------------------------------------------------------------
 2.3436e+02 -6.2168e+00 -8.3967e+01 +/- 0.0000e+00 0.0000e+00 0.0000e+00 [bar]
-6.2168e+00  1.5822e+02  6.3563e+01 +/- 0.0000e+00 0.0000e+00 0.0000e+00 [bar]
-8.3967e+01  6.3563e+01  2.8427e+02 +/- 0.0000e+00 0.0000e+00 0.0000e+00 [bar]
Ideal-gas pressure:   5.085609e+02 +/ 0.000000e+00 [bar]
Excess pressure:     -2.829458e+02 +/ 0.000000e+00 [bar]
Pressure:             2.256151e+02 +/ 0.000000e+00 [bar]

Total potential energy/kʙ  -3.889264e+05 (-3.858570e+05 +/- 0.000000e+00) [K]
-------------------------------------------------------------------------------
ExternalField-molecule
    Van der Waals/kʙ        0.000000e+00 ( 0.000000e+00 +/- 0.000000e+00) [K]
Framework-molecule
    Van der Waals/kʙ        0.000000e+00 ( 0.000000e+00 +/- 0.000000e+00) [K]
    Van der Waals (Tail)/kʙ 0.000000e+00 ( 0.000000e+00 +/- 0.000000e+00) [K]
    Coulombic Real/kʙ       0.000000e+00 ( 0.000000e+00 +/- 0.000000e+00) [K]
    Coulombic Fourier/kʙ    0.000000e+00 ( 0.000000e+00 +/- 0.000000e+00) [K]
Molecule-molecule
    Van der Waals/kʙ       -2.822536e+05 (-2.810648e+05 +/- 0.000000e+00) [K]
    Van der Waals (Tail)/kʙ-6.927684e+03 (-6.848160e+03 +/- 0.000000e+00) [K]
    Coulombic Real/kʙ      -9.198425e+04 (-8.966732e+04 +/- 0.000000e+00) [K]
    Coulombic Fourier/kʙ   -7.760825e+03 (-8.276692e+03 +/- 0.000000e+00) [K]
    Molecule Intra/kʙ       0.000000e+00 ( 0.000000e+00 +/- 0.000000e+00) [K]

Current cycle: 200 out of 5000
===============================================================================

Box:      25.74368   0.00000   0.00000  Average:  25.68904   0.00000   0.00000
           0.00000  25.74368   0.00000             0.00000  25.68904   0.00000
           0.00000   0.00000  25.74368             0.00000   0.00000  25.68904
Lengths:  25.74368  25.74368  25.74368  Average:  25.68904  25.68904  25.68904
Angles:   90.00000  90.00000  90.00000  Average:  90.00000  90.00000  90.00000
Rectangular boundary conditions

net charge:   0.00000000

component 0 (CO2) lambda:  0 occupancy:  1 (1.000000)
    net charge:   0.00000000 [e]

Amount of molecules per component :
-------------------------------------------------------------------------------
Component 0 (CO2)
    molecules:      2.500000e+02 molecules  (2.500000e+02 +/- 0.000000e+00)
    number density: 1.465305e-02 molec./A^3 (1.474798e-02 +/- 0.000000e+00)
    density:        1.070577e+03 kg/m^3     (1.077513e+03 +/- 0.000000e+00)

Average pressure tensor: 
-------------------------------------------------------------------------------
 2.3651e+02  1.3904e+01 -2.7641e+01 +/- 0.0000e+00 0.0000e+00 0.0000e+00 [bar]
 1.3904e+01  1.4844e+02  1.9982e+01 +/- 0.0000e+00 0.0000e+00 0.0000e+00 [bar]
-2.7641e+01  1.9982e+01  1.5488e+02 +/- 0.0000e+00 0.0000e+00 0.0000e+00 [bar]
Ideal-gas pressure:   5.090450e+02 +/ 0.000000e+00 [bar]
Excess pressure:     -3.291019e+02 +/ 0.000000e+00 [bar]
Pressure:             1.799431e+02 +/ 0.000000e+00 [bar]

Total potential energy/kʙ  -3.895472e+05 (-3.881269e+05 +/- 0.000000e+00) [K]
-------------------------------------------------------------------------------
ExternalField-molecule
    Van der Waals/kʙ        0.000000e+00 ( 0.000000e+00 +/- 0.000000e+00) [K]
Framework-molecule
    Van der Waals/kʙ        0.000000e+00 ( 0.000000e+00 +/- 0.000000e+00) [K]
    Van der Waals (Tail)/kʙ 0.000000e+00 ( 0.000000e+00 +/- 0.000000e+00) [K]
    Coulombic Real/kʙ       0.000000e+00 ( 0.000000e+00 +/- 0.000000e+00) [K]
    Coulombic Fourier/kʙ    0.000000e+00 ( 0.000000e+00 +/- 0.000000e+00) [K]
Molecule-molecule
    Van der Waals/kʙ       -2.865614e+05 (-2.824547e+05 +/- 0.000000e+00) [K]
    Van der Waals (Tail)/kʙ-6.803057e+03 (-6.848123e+03 +/- 0.000000e+00) [K]
    Coulombic Real/kʙ      -8.761001e+04 (-9.048604e+04 +/- 0.000000e+00) [K]
    Coulombic Fourier/kʙ   -8.572727e+03 (-8.337957e+03 +/- 0.000000e+00) [K]
    Molecule Intra/kʙ       0.000000e+00 ( 0.000000e+00 +/- 0.000000e+00) [K]

Current cycle: 300 out of 5000
===============================================================================

Box:      25.72291   0.00000   0.00000  Average:  25.67158   0.00000   0.00000
           0.00000  25.72291   0.00000             0.00000  25.67158   0.00000
           0.00000   0.00000  25.72291             0.00000   0.00000  25.67158
Lengths:  25.72291  25.72291  25.72291  Average:  25.67158  25.67158  25.67158
Angles:   90.00000  90.00000  90.00000  Average:  90.00000  90.00000  90.00000
Rectangular boundary conditions

net charge:   0.00000000

component 0 (CO2) lambda:  0 occupancy:  1 (1.000000)
    net charge:   0.00000000 [e]

Amount of molecules per component :
-------------------------------------------------------------------------------
Component 0 (CO2)
    molecules:      2.500000e+02 molecules  (2.500000e+02 +/- 0.000000e+00)
    number density: 1.468857e-02 molec./A^3 (1.477816e-02 +/- 0.000000e+00)
    density:        1.073172e+03 kg/m^3     (1.079718e+03 +/- 0.000000e+00)

Average pressure tensor: 
-------------------------------------------------------------------------------
 2.0988e+02  6.1788e+01 -4.3235e+01 +/- 0.0000e+00 0.0000e+00 0.0000e+00 [bar]
 6.1788e+01  1.4983e+02  3.1878e+01 +/- 0.0000e+00 0.0000e+00 0.0000e+00 [bar]
-4.3235e+01  3.1878e+01  1.2693e+02 +/- 0.0000e+00 0.0000e+00 0.0000e+00 [bar]
Ideal-gas pressure:   5.100869e+02 +/ 0.000000e+00 [bar]
Excess pressure:     -3.478749e+02 +/ 0.000000e+00 [bar]
Pressure:             1.622120e+02 +/ 0.000000e+00 [bar]

Total potential energy/kʙ  -3.766276e+05 (-3.882703e+05 +/- 0.000000e+00) [K]
-------------------------------------------------------------------------------
ExternalField-molecule
    Van der Waals/kʙ        0.000000e+00 ( 0.000000e+00 +/- 0.000000e+00) [K]
Framework-molecule
    Van der Waals/kʙ        0.000000e+00 ( 0.000000e+00 +/- 0.000000e+00) [K]
    Van der Waals (Tail)/kʙ 0.000000e+00 ( 0.000000e+00 +/- 0.000000e+00) [K]
    Coulombic Real/kʙ       0.000000e+00 ( 0.000000e+00 +/- 0.000000e+00) [K]
    Coulombic Fourier/kʙ    0.000000e+00 ( 0.000000e+00 +/- 0.000000e+00) [K]
Molecule-molecule
    Van der Waals/kʙ       -2.772015e+05 (-2.826245e+05 +/- 0.000000e+00) [K]
    Van der Waals (Tail)/kʙ-6.819551e+03 (-6.856813e+03 +/- 0.000000e+00) [K]
    Coulombic Real/kʙ      -8.405330e+04 (-9.028661e+04 +/- 0.000000e+00) [K]
    Coulombic Fourier/kʙ   -8.553232e+03 (-8.502354e+03 +/- 0.000000e+00) [K]
    Molecule Intra/kʙ       0.000000e+00 ( 0.000000e+00 +/- 0.000000e+00) [K]

Current cycle: 400 out of 5000
===============================================================================

Box:      25.81406   0.00000   0.00000  Average:  25.70467   0.00000   0.00000
           0.00000  25.81406   0.00000             0.00000  25.70467   0.00000
           0.00000   0.00000  25.81406             0.00000   0.00000  25.70467
Lengths:  25.81406  25.81406  25.81406  Average:  25.70467  25.70467  25.70467
Angles:   90.00000  90.00000  90.00000  Average:  90.00000  90.00000  90.00000
Rectangular boundary conditions

net charge:   0.00000000

component 0 (CO2) lambda:  0 occupancy:  1 (1.000000)
    net charge:   0.00000000 [e]

Amount of molecules per component :
-------------------------------------------------------------------------------
Component 0 (CO2)
    molecules:      2.500000e+02 molecules  (2.500000e+02 +/- 0.000000e+00)
    number density: 1.453353e-02 molec./A^3 (1.472151e-02 +/- 0.000000e+00)
    density:        1.061845e+03 kg/m^3     (1.075578e+03 +/- 0.000000e+00)

Average pressure tensor: 
-------------------------------------------------------------------------------
 1.6627e+02  8.5796e+01 -4.8364e+01 +/- 0.0000e+00 0.0000e+00 0.0000e+00 [bar]
 8.5796e+01  1.8434e+02  3.0869e+01 +/- 0.0000e+00 0.0000e+00 0.0000e+00 [bar]
-4.8364e+01  3.0869e+01  8.5913e+01 +/- 0.0000e+00 0.0000e+00 0.0000e+00 [bar]
Ideal-gas pressure:   5.081313e+02 +/ 0.000000e+00 [bar]
Excess pressure:     -3.626219e+02 +/ 0.000000e+00 [bar]
Pressure:             1.455094e+02 +/ 0.000000e+00 [bar]

Total potential energy/kʙ  -3.790861e+05 (-3.842980e+05 +/- 0.000000e+00) [K]
-------------------------------------------------------------------------------
ExternalField-molecule
    Van der Waals/kʙ        0.000000e+00 ( 0.000000e+00 +/- 0.000000e+00) [K]
Framework-molecule
    Van der Waals/kʙ        0.000000e+00 ( 0.000000e+00 +/- 0.000000e+00) [K]
    Van der Waals (Tail)/kʙ 0.000000e+00 ( 0.000000e+00 +/- 0.000000e+00) [K]
    Coulombic Real/kʙ       0.000000e+00 ( 0.000000e+00 +/- 0.000000e+00) [K]
    Coulombic Fourier/kʙ    0.000000e+00 ( 0.000000e+00 +/- 0.000000e+00) [K]
Molecule-molecule
    Van der Waals/kʙ       -2.737826e+05 (-2.806785e+05 +/- 0.000000e+00) [K]
    Van der Waals (Tail)/kʙ-6.747569e+03 (-6.820616e+03 +/- 0.000000e+00) [K]
    Coulombic Real/kʙ      -9.126981e+04 (-8.848881e+04 +/- 0.000000e+00) [K]
    Coulombic Fourier/kʙ   -7.286156e+03 (-8.310082e+03 +/- 0.000000e+00) [K]
    Molecule Intra/kʙ       0.000000e+00 ( 0.000000e+00 +/- 0.000000e+00) [K]

Current cycle: 500 out of 5000
===============================================================================

Box:      26.03910   0.00000   0.00000  Average:  25.76339   0.00000   0.00000
           0.00000  26.03910   0.00000             0.00000  25.76339   0.00000
           0.00000   0.00000  26.03910             0.00000   0.00000  25.76339
Lengths:  26.03910  26.03910  26.03910  Average:  25.76339  25.76339  25.76339
Angles:   90.00000  90.00000  90.00000  Average:  90.00000  90.00000  90.00000
Rectangular boundary conditions

net charge:   0.00000000

component 0 (CO2) lambda:  0 occupancy:  1 (1.000000)
    net charge:   0.00000000 [e]

Amount of molecules per component :
-------------------------------------------------------------------------------
Component 0 (CO2)
    molecules:      2.500000e+02 molecules  (2.500000e+02 +/- 0.000000e+00)
    number density: 1.415996e-02 molec./A^3 (1.462275e-02 +/- 0.000000e+00)
    density:        1.034551e+03 kg/m^3     (1.068363e+03 +/- 0.000000e+00)

Average pressure tensor: 
-------------------------------------------------------------------------------
 1.5343e+02  4.6359e+01 -2.6517e+01 +/- 0.0000e+00 0.0000e+00 0.0000e+00 [bar]
 4.6359e+01  1.5474e+02  2.0037e+01 +/- 0.0000e+00 0.0000e+00 0.0000e+00 [bar]
-2.6517e+01  2.0037e+01  1.5882e+02 +/- 0.0000e+00 0.0000e+00 0.0000e+00 [bar]
Ideal-gas pressure:   5.047226e+02 +/ 0.000000e+00 [bar]
Excess pressure:     -3.490567e+02 +/ 0.000000e+00 [bar]
Pressure:             1.556658e+02 +/ 0.000000e+00 [bar]

Total potential energy/kʙ  -3.722529e+05 (-3.813075e+05 +/- 0.000000e+00) [K]
-------------------------------------------------------------------------------
ExternalField-molecule
    Van der Waals/kʙ        0.000000e+00 ( 0.000000e+00 +/- 0.000000e+00) [K]
Framework-molecule
    Van der Waals/kʙ        0.000000e+00 ( 0.000000e+00 +/- 0.000000e+00) [K]
    Van der Waals (Tail)/kʙ 0.000000e+00 ( 0.000000e+00 +/- 0.000000e+00) [K]
    Coulombic Real/kʙ       0.000000e+00 ( 0.000000e+00 +/- 0.000000e+00) [K]
    Coulombic Fourier/kʙ    0.000000e+00 ( 0.000000e+00 +/- 0.000000e+00) [K]
Molecule-molecule
    Van der Waals/kʙ       -2.733393e+05 (-2.781614e+05 +/- 0.000000e+00) [K]
    Van der Waals (Tail)/kʙ-6.574130e+03 (-6.777241e+03 +/- 0.000000e+00) [K]
    Coulombic Real/kʙ      -8.425713e+04 (-8.805459e+04 +/- 0.000000e+00) [K]
    Coulombic Fourier/kʙ   -8.082372e+03 (-8.314284e+03 +/- 0.000000e+00) [K]
    Molecule Intra/kʙ       0.000000e+00 ( 0.000000e+00 +/- 0.000000e+00) [K]

Current cycle: 600 out of 5000
===============================================================================

Box:      25.93144   0.00000   0.00000  Average:  25.79675   0.00000   0.00000
           0.00000  25.93144   0.00000             0.00000  25.79675   0.00000
           0.00000   0.00000  25.93144             0.00000   0.00000  25.79675
Lengths:  25.93144  25.93144  25.93144  Average:  25.79675  25.79675  25.79675
Angles:   90.00000  90.00000  90.00000  Average:  90.00000  90.00000  90.00000
Rectangular boundary conditions

net charge:   0.00000000

component 0 (CO2) lambda:  0 occupancy:  1 (1.000000)
    net charge:   0.00000000 [e]

Amount of molecules per component :
-------------------------------------------------------------------------------
Component 0 (CO2)
    molecules:      2.500000e+02 molecules  (2.500000e+02 +/- 0.000000e+00)
    number density: 1.433706e-02 molec./A^3 (1.456645e-02 +/- 0.000000e+00)
    density:        1.047490e+03 kg/m^3     (1.064250e+03 +/- 0.000000e+00)

Average pressure tensor: 
-------------------------------------------------------------------------------
 1.8994e+02  7.5444e+01 -5.0647e+01 +/- 0.0000e+00 0.0000e+00 0.0000e+00 [bar]
 7.5444e+01  1.3044e+02  2.8151e+01 +/- 0.0000e+00 0.0000e+00 0.0000e+00 [bar]
-5.0647e+01  2.8151e+01  2.0093e+02 +/- 0.0000e+00 0.0000e+00 0.0000e+00 [bar]
Ideal-gas pressure:   5.027794e+02 +/ 0.000000e+00 [bar]
Excess pressure:     -3.290065e+02 +/ 0.000000e+00 [bar]
Pressure:             1.737729e+02 +/ 0.000000e+00 [bar]

Total potential energy/kʙ  -3.775473e+05 (-3.804396e+05 +/- 0.000000e+00) [K]
-------------------------------------------------------------------------------
ExternalField-molecule
    Van der Waals/kʙ        0.000000e+00 ( 0.000000e+00 +/- 0.000000e+00) [K]
Framework-molecule
    Van der Waals/kʙ        0.000000e+00 ( 0.000000e+00 +/- 0.000000e+00) [K]
    Van der Waals (Tail)/kʙ 0.000000e+00 ( 0.000000e+00 +/- 0.000000e+00) [K]
    Coulombic Real/kʙ       0.000000e+00 ( 0.000000e+00 +/- 0.000000e+00) [K]
    Coulombic Fourier/kʙ    0.000000e+00 ( 0.000000e+00 +/- 0.000000e+00) [K]
Molecule-molecule
    Van der Waals/kʙ       -2.674039e+05 (-2.767461e+05 +/- 0.000000e+00) [K]
    Van der Waals (Tail)/kʙ-6.656355e+03 (-6.756816e+03 +/- 0.000000e+00) [K]
    Coulombic Real/kʙ      -9.517668e+04 (-8.863165e+04 +/- 0.000000e+00) [K]
    Coulombic Fourier/kʙ   -8.310389e+03 (-8.305073e+03 +/- 0.000000e+00) [K]
    Molecule Intra/kʙ       0.000000e+00 ( 0.000000e+00 +/- 0.000000e+00) [K]

Current cycle: 700 out of 5000
===============================================================================

Box:      25.54542   0.00000   0.00000  Average:  25.79764   0.00000   0.00000
           0.00000  25.54542   0.00000             0.00000  25.79764   0.00000
           0.00000   0.00000  25.54542             0.00000   0.00000  25.79764
Lengths:  25.54542  25.54542  25.54542  Average:  25.79764  25.79764  25.79764
Angles:   90.00000  90.00000  90.00000  Average:  90.00000  90.00000  90.00000
Rectangular boundary conditions

net charge:   0.00000000

component 0 (CO2) lambda:  0 occupancy:  1 (1.000000)
    net charge:   0.00000000 [e]

Amount of molecules per component :
-------------------------------------------------------------------------------
Component 0 (CO2)
    molecules:      2.500000e+02 molecules  (2.500000e+02 +/- 0.000000e+00)
    number density: 1.499689e-02 molec./A^3 (1.456483e-02 +/- 0.000000e+00)
    density:        1.095698e+03 kg/m^3     (1.064131e+03 +/- 0.000000e+00)

Average pressure tensor: 
-------------------------------------------------------------------------------
 1.8506e+02  9.1346e+01 -5.1943e+01 +/- 0.0000e+00 0.0000e+00 0.0000e+00 [bar]
 9.1346e+01  1.1572e+02  2.0440e+01 +/- 0.0000e+00 0.0000e+00 0.0000e+00 [bar]
-5.1943e+01  2.0440e+01  2.1832e+02 +/- 0.0000e+00 0.0000e+00 0.0000e+00 [bar]
Ideal-gas pressure:   5.027233e+02 +/ 0.000000e+00 [bar]
Excess pressure:     -3.296908e+02 +/ 0.000000e+00 [bar]
Pressure:             1.730325e+02 +/ 0.000000e+00 [bar]

Total potential energy/kʙ  -3.935787e+05 (-3.806268e+05 +/- 0.000000e+00) [K]
-------------------------------------------------------------------------------
ExternalField-molecule
    Van der Waals/kʙ        0.000000e+00 ( 0.000000e+00 +/- 0.000000e+00) [K]
Framework-molecule
    Van der Waals/kʙ        0.000000e+00 ( 0.000000e+00 +/- 0.000000e+00) [K]
    Van der Waals (Tail)/kʙ 0.000000e+00 ( 0.000000e+00 +/- 0.000000e+00) [K]
    Coulombic Real/kʙ       0.000000e+00 ( 0.000000e+00 +/- 0.000000e+00) [K]
    Coulombic Fourier/kʙ    0.000000e+00 ( 0.000000e+00 +/- 0.000000e+00) [K]
Molecule-molecule
    Van der Waals/kʙ       -2.867514e+05 (-2.766263e+05 +/- 0.000000e+00) [K]
    Van der Waals (Tail)/kʙ-6.962694e+03 (-6.758192e+03 +/- 0.000000e+00) [K]
    Coulombic Real/kʙ      -9.169667e+04 (-8.890923e+04 +/- 0.000000e+00) [K]
    Coulombic Fourier/kʙ   -8.167943e+03 (-8.333112e+03 +/- 0.000000e+00) [K]
    Molecule Intra/kʙ       0.000000e+00 ( 0.000000e+00 +/- 0.000000e+00) [K]

Current cycle: 800 out of 5000
===============================================================================

Box:      25.80766   0.00000   0.00000  Average:  25.79630   0.00000   0.00000
           0.00000  25.80766   0.00000             0.00000  25.79630   0.00000
           0.00000   0.00000  25.80766             0.00000   0.00000  25.79630
Lengths:  25.80766  25.80766  25.80766  Average:  25.79630  25.79630  25.79630
Angles:   90.00000  90.00000  90.00000  Average:  90.00000  90.00000  90.00000
Rectangular boundary conditions

net charge:   0.00000000

component 0 (CO2) lambda:  0 occupancy:  1 (1.000000)
    net charge:   0.00000000 [e]

Amount of molecules per component :
-------------------------------------------------------------------------------
Component 0 (CO2)
    molecules:      2.500000e+02 molecules  (2.500000e+02 +/- 0.000000e+00)
    number density: 1.454435e-02 molec./A^3 (1.456681e-02 +/- 0.000000e+00)
    density:        1.062635e+03 kg/m^3     (1.064276e+03 +/- 0.000000e+00)

Average pressure tensor: 
-------------------------------------------------------------------------------
 2.0561e+02  9.4609e+01 -4.0539e+01 +/- 0.0000e+00 0.0000e+00 0.0000e+00 [bar]
 9.4609e+01  1.5155e+02  2.2078e+01 +/- 0.0000e+00 0.0000e+00 0.0000e+00 [bar]
-4.0539e+01  2.2078e+01  1.9874e+02 +/- 0.0000e+00 0.0000e+00 0.0000e+00 [bar]
Ideal-gas pressure:   5.027918e+02 +/ 0.000000e+00 [bar]
Excess pressure:     -3.174906e+02 +/ 0.000000e+00 [bar]
Pressure:             1.853012e+02 +/ 0.000000e+00 [bar]

Total potential energy/kʙ  -3.860619e+05 (-3.811289e+05 +/- 0.000000e+00) [K]
-------------------------------------------------------------------------------
ExternalField-molecule
    Van der Waals/kʙ        0.000000e+00 ( 0.000000e+00 +/- 0.000000e+00) [K]
Framework-molecule
    Van der Waals/kʙ        0.000000e+00 ( 0.000000e+00 +/- 0.000000e+00) [K]
    Van der Waals (Tail)/kʙ 0.000000e+00 ( 0.000000e+00 +/- 0.000000e+00) [K]
    Coulombic Real/kʙ       0.000000e+00 ( 0.000000e+00 +/- 0.000000e+00) [K]
    Coulombic Fourier/kʙ    0.000000e+00 ( 0.000000e+00 +/- 0.000000e+00) [K]
Molecule-molecule
    Van der Waals/kʙ       -2.788629e+05 (-2.765949e+05 +/- 0.000000e+00) [K]
    Van der Waals (Tail)/kʙ-6.752591e+03 (-6.761012e+03 +/- 0.000000e+00) [K]
    Coulombic Real/kʙ      -9.180459e+04 (-8.943081e+04 +/- 0.000000e+00) [K]
    Coulombic Fourier/kʙ   -8.641839e+03 (-8.342175e+03 +/- 0.000000e+00) [K]
    Molecule Intra/kʙ       0.000000e+00 ( 0.000000e+00 +/- 0.000000e+00) [K]

Current cycle: 900 out of 5000
===============================================================================

Box:      25.89930   0.00000   0.00000  Average:  25.79252   0.00000   0.00000
           0.00000  25.89930   0.00000             0.00000  25.79252   0.00000
           0.00000   0.00000  25.89930             0.00000   0.00000  25.79252
Lengths:  25.89930  25.89930  25.89930  Average:  25.79252  25.79252  25.79252
Angles:   90.00000  90.00000  90.00000  Average:  90.00000  90.00000  90.00000
Rectangular boundary conditions

net charge:   0.00000000

component 0 (CO2) lambda:  0 occupancy:  1 (1.000000)
    net charge:   0.00000000 [e]

Amount of molecules per component :
-------------------------------------------------------------------------------
Component 0 (CO2)
    molecules:      2.500000e+02 molecules  (2.500000e+02 +/- 0.000000e+00)
    number density: 1.439050e-02 molec./A^3 (1.457305e-02 +/- 0.000000e+00)
    density:        1.051395e+03 kg/m^3     (1.064732e+03 +/- 0.000000e+00)

Average pressure tensor: 
-------------------------------------------------------------------------------
 2.0561e+02  1.0617e+02 -5.8344e+01 +/- 0.0000e+00 0.0000e+00 0.0000e+00 [bar]
 1.0617e+02  1.3994e+02  1.5310e+01 +/- 0.0000e+00 0.0000e+00 0.0000e+00 [bar]
-5.8344e+01  1.5310e+01  1.8456e+02 +/- 0.0000e+00 0.0000e+00 0.0000e+00 [bar]
Ideal-gas pressure:   5.030071e+02 +/ 0.000000e+00 [bar]
Excess pressure:     -3.263045e+02 +/ 0.000000e+00 [bar]
Pressure:             1.767025e+02 +/ 0.000000e+00 [bar]

Total potential energy/kʙ  -3.777673e+05 (-3.818244e+05 +/- 0.000000e+00) [K]
-------------------------------------------------------------------------------
ExternalField-molecule
    Van der Waals/kʙ        0.000000e+00 ( 0.000000e+00 +/- 0.000000e+00) [K]
Framework-molecule
    Van der Waals/kʙ        0.000000e+00 ( 0.000000e+00 +/- 0.000000e+00) [K]
    Van der Waals (Tail)/kʙ 0.000000e+00 ( 0.000000e+00 +/- 0.000000e+00) [K]
    Coulombic Real/kʙ       0.000000e+00 ( 0.000000e+00 +/- 0.000000e+00) [K]
    Coulombic Fourier/kʙ    0.000000e+00 ( 0.000000e+00 +/- 0.000000e+00) [K]
Molecule-molecule
    Van der Waals/kʙ       -2.747383e+05 (-2.769032e+05 +/- 0.000000e+00) [K]
    Van der Waals (Tail)/kʙ-6.681163e+03 (-6.762448e+03 +/- 0.000000e+00) [K]
    Coulombic Real/kʙ      -8.793452e+04 (-8.984775e+04 +/- 0.000000e+00) [K]
    Coulombic Fourier/kʙ   -8.413319e+03 (-8.310989e+03 +/- 0.000000e+00) [K]
    Molecule Intra/kʙ       0.000000e+00 ( 0.000000e+00 +/- 0.000000e+00) [K]

Current cycle: 1000 out of 5000
===============================================================================

Box:      25.91708   0.00000   0.00000  Average:  25.80466   0.00000   0.00000
           0.00000  25.91708   0.00000             0.00000  25.80466   0.00000
           0.00000   0.00000  25.91708             0.00000   0.00000  25.80466
Lengths:  25.91708  25.91708  25.91708  Average:  25.80466  25.80466  25.80466
Angles:   90.00000  90.00000  90.00000  Average:  90.00000  90.00000  90.00000
Rectangular boundary conditions

net charge:   0.00000000

component 0 (CO2) lambda:  0 occupancy:  1 (1.000000)
    net charge:   0.00000000 [e]

Amount of molecules per component :
-------------------------------------------------------------------------------
Component 0 (CO2)
    molecules:      2.500000e+02 molecules  (2.500000e+02 +/- 0.000000e+00)
    number density: 1.436090e-02 molec./A^3 (1.455240e-02 +/- 0.000000e+00)
    density:        1.049232e+03 kg/m^3     (1.063224e+03 +/- 0.000000e+00)

Average pressure tensor: 
-------------------------------------------------------------------------------
 1.9634e+02  9.7497e+01 -5.0274e+01 +/- 0.0000e+00 0.0000e+00 0.0000e+00 [bar]
 9.7497e+01  1.3160e+02  1.3338e+01 +/- 0.0000e+00 0.0000e+00 0.0000e+00 [bar]
-5.0274e+01  1.3338e+01  1.8741e+02 +/- 0.0000e+00 0.0000e+00 0.0000e+00 [bar]
Ideal-gas pressure:   5.022945e+02 +/ 0.000000e+00 [bar]
Excess pressure:     -3.305080e+02 +/ 0.000000e+00 [bar]
Pressure:             1.717865e+02 +/ 0.000000e+00 [bar]

Total potential energy/kʙ  -3.693743e+05 (-3.807299e+05 +/- 0.000000e+00) [K]
-------------------------------------------------------------------------------
ExternalField-molecule
    Van der Waals/kʙ        0.000000e+00 ( 0.000000e+00 +/- 0.000000e+00) [K]
Framework-molecule
    Van der Waals/kʙ        0.000000e+00 ( 0.000000e+00 +/- 0.000000e+00) [K]
    Van der Waals (Tail)/kʙ 0.000000e+00 ( 0.000000e+00 +/- 0.000000e+00) [K]
    Coulombic Real/kʙ       0.000000e+00 ( 0.000000e+00 +/- 0.000000e+00) [K]
    Coulombic Fourier/kʙ    0.000000e+00 ( 0.000000e+00 +/- 0.000000e+00) [K]
Molecule-molecule
    Van der Waals/kʙ       -2.676898e+05 (-2.762943e+05 +/- 0.000000e+00) [K]
    Van der Waals (Tail)/kʙ-6.667423e+03 (-6.752749e+03 +/- 0.000000e+00) [K]
    Coulombic Real/kʙ      -8.617254e+04 (-8.932882e+04 +/- 0.000000e+00) [K]
    Coulombic Fourier/kʙ   -8.844536e+03 (-8.354058e+03 +/- 0.000000e+00) [K]
    Molecule Intra/kʙ       0.000000e+00 ( 0.000000e+00 +/- 0.000000e+00) [K]

Current cycle: 1100 out of 5000
===============================================================================

Box:      25.77072   0.00000   0.00000  Average:  25.80324   0.00000   0.00000
           0.00000  25.77072   0.00000             0.00000  25.80324   0.00000
           0.00000   0.00000  25.77072             0.00000   0.00000  25.80324
Lengths:  25.77072  25.77072  25.77072  Average:  25.80324  25.80324  25.80324
Angles:   90.00000  90.00000  90.00000  Average:  90.00000  90.00000  90.00000
Rectangular boundary conditions

net charge:   0.00000000

component 0 (CO2) lambda:  0 occupancy:  1 (1.000000)
    net charge:   0.00000000 [e]

Amount of molecules per component :
-------------------------------------------------------------------------------
Component 0 (CO2)
    molecules:      2.500000e+02 molecules  (2.500000e+02 +/- 0.000000e+00)
    number density: 1.460697e-02 molec./A^3 (1.455464e-02 +/- 0.000000e+00)
    density:        1.067210e+03 kg/m^3     (1.063387e+03 +/- 0.000000e+00)

Average pressure tensor: 
-------------------------------------------------------------------------------
 1.9150e+02  7.8760e+01 -3.8903e+01 +/- 0.0000e+00 0.0000e+00 0.0000e+00 [bar]
 7.8760e+01  1.4488e+02 -1.3634e+00 +/- 0.0000e+00 0.0000e+00 0.0000e+00 [bar]
-3.8903e+01 -1.3634e+00  2.1709e+02 +/- 0.0000e+00 0.0000e+00 0.0000e+00 [bar]
Ideal-gas pressure:   5.023717e+02 +/ 0.000000e+00 [bar]
Excess pressure:     -3.178808e+02 +/ 0.000000e+00 [bar]
Pressure:             1.844909e+02 +/ 0.000000e+00 [bar]

Total potential energy/kʙ  -3.871246e+05 (-3.808699e+05 +/- 0.000000e+00) [K]
-------------------------------------------------------------------------------
ExternalField-molecule
    Van der Waals/kʙ        0.000000e+00 ( 0.000000e+00 +/- 0.000000e+00) [K]
Framework-molecule
    Van der Waals/kʙ        0.000000e+00 ( 0.000000e+00 +/- 0.000000e+00) [K]
    Van der Waals (Tail)/kʙ 0.000000e+00 ( 0.000000e+00 +/- 0.000000e+00) [K]
    Coulombic Real/kʙ       0.000000e+00 ( 0.000000e+00 +/- 0.000000e+00) [K]
    Coulombic Fourier/kʙ    0.000000e+00 ( 0.000000e+00 +/- 0.000000e+00) [K]
Molecule-molecule
    Van der Waals/kʙ       -2.806410e+05 (-2.762479e+05 +/- 0.000000e+00) [K]
    Van der Waals (Tail)/kʙ-6.781665e+03 (-6.756141e+03 +/- 0.000000e+00) [K]
    Coulombic Real/kʙ      -9.043196e+04 (-8.945314e+04 +/- 0.000000e+00) [K]
    Coulombic Fourier/kʙ   -9.269988e+03 (-8.412758e+03 +/- 0.000000e+00) [K]
    Molecule Intra/kʙ       0.000000e+00 ( 0.000000e+00 +/- 0.000000e+00) [K]

Current cycle: 1200 out of 5000
===============================================================================

Box:      25.55233   0.00000   0.00000  Average:  25.79721   0.00000   0.00000
           0.00000  25.55233   0.00000             0.00000  25.79721   0.00000
           0.00000   0.00000  25.55233             0.00000   0.00000  25.79721
Lengths:  25.55233  25.55233  25.55233  Average:  25.79721  25.79721  25.79721
Angles:   90.00000  90.00000  90.00000  Average:  90.00000  90.00000  90.00000
Rectangular boundary conditions

net charge:   0.00000000

component 0 (CO2) lambda:  0 occupancy:  1 (1.000000)
    net charge:   0.00000000 [e]

Amount of molecules per component :
-------------------------------------------------------------------------------
Component 0 (CO2)
    molecules:      2.500000e+02 molecules  (2.500000e+02 +/- 0.000000e+00)
    number density: 1.498472e-02 molec./A^3 (1.456473e-02 +/- 0.000000e+00)
    density:        1.094809e+03 kg/m^3     (1.064124e+03 +/- 0.000000e+00)

Average pressure tensor: 
-------------------------------------------------------------------------------
 1.8079e+02  6.9579e+01 -3.1091e+01 +/- 0.0000e+00 0.0000e+00 0.0000e+00 [bar]
 6.9579e+01  1.4928e+02 -8.4218e+00 +/- 0.0000e+00 0.0000e+00 0.0000e+00 [bar]
-3.1091e+01 -8.4218e+00  1.9410e+02 +/- 0.0000e+00 0.0000e+00 0.0000e+00 [bar]
Ideal-gas pressure:   5.027200e+02 +/ 0.000000e+00 [bar]
Excess pressure:     -3.279965e+02 +/ 0.000000e+00 [bar]
Pressure:             1.747235e+02 +/ 0.000000e+00 [bar]

Total potential energy/kʙ  -3.984432e+05 (-3.812516e+05 +/- 0.000000e+00) [K]
-------------------------------------------------------------------------------
ExternalField-molecule
    Van der Waals/kʙ        0.000000e+00 ( 0.000000e+00 +/- 0.000000e+00) [K]
Framework-molecule
    Van der Waals/kʙ        0.000000e+00 ( 0.000000e+00 +/- 0.000000e+00) [K]
    Van der Waals (Tail)/kʙ 0.000000e+00 ( 0.000000e+00 +/- 0.000000e+00) [K]
    Coulombic Real/kʙ       0.000000e+00 ( 0.000000e+00 +/- 0.000000e+00) [K]
    Coulombic Fourier/kʙ    0.000000e+00 ( 0.000000e+00 +/- 0.000000e+00) [K]
Molecule-molecule
    Van der Waals/kʙ       -2.865470e+05 (-2.766065e+05 +/- 0.000000e+00) [K]
    Van der Waals (Tail)/kʙ-6.957045e+03 (-6.760536e+03 +/- 0.000000e+00) [K]
    Coulombic Real/kʙ      -9.615187e+04 (-8.943982e+04 +/- 0.000000e+00) [K]
    Coulombic Fourier/kʙ   -8.787248e+03 (-8.444679e+03 +/- 0.000000e+00) [K]
    Molecule Intra/kʙ       0.000000e+00 ( 0.000000e+00 +/- 0.000000e+00) [K]

Current cycle: 1300 out of 5000
===============================================================================

Box:      26.08488   0.00000   0.00000  Average:  25.78873   0.00000   0.00000
           0.00000  26.08488   0.00000             0.00000  25.78873   0.00000
           0.00000   0.00000  26.08488             0.00000   0.00000  25.78873
Lengths:  26.08488  26.08488  26.08488  Average:  25.78873  25.78873  25.78873
Angles:   90.00000  90.00000  90.00000  Average:  90.00000  90.00000  90.00000
Rectangular boundary conditions

net charge:   0.00000000

component 0 (CO2) lambda:  0 occupancy:  1 (1.000000)
    net charge:   0.00000000 [e]

Amount of molecules per component :
-------------------------------------------------------------------------------
Component 0 (CO2)
    molecules:      2.500000e+02 molecules  (2.500000e+02 +/- 0.000000e+00)
    number density: 1.408554e-02 molec./A^3 (1.457927e-02 +/- 0.000000e+00)
    density:        1.029114e+03 kg/m^3     (1.065186e+03 +/- 0.000000e+00)

Average pressure tensor: 
-------------------------------------------------------------------------------
 1.7813e+02  6.1568e+01 -3.4432e+01 +/- 0.0000e+00 0.0000e+00 0.0000e+00 [bar]
 6.1568e+01  1.4915e+02 -1.0913e+01 +/- 0.0000e+00 0.0000e+00 0.0000e+00 [bar]
-3.4432e+01 -1.0913e+01  2.0004e+02 +/- 0.0000e+00 0.0000e+00 0.0000e+00 [bar]
Ideal-gas pressure:   5.032218e+02 +/ 0.000000e+00 [bar]
Excess pressure:     -3.274501e+02 +/ 0.000000e+00 [bar]
Pressure:             1.757717e+02 +/ 0.000000e+00 [bar]

Total potential energy/kʙ  -3.744986e+05 (-3.817643e+05 +/- 0.000000e+00) [K]
-------------------------------------------------------------------------------
ExternalField-molecule
    Van der Waals/kʙ        0.000000e+00 ( 0.000000e+00 +/- 0.000000e+00) [K]
Framework-molecule
    Van der Waals/kʙ        0.000000e+00 ( 0.000000e+00 +/- 0.000000e+00) [K]
    Van der Waals (Tail)/kʙ 0.000000e+00 ( 0.000000e+00 +/- 0.000000e+00) [K]
    Coulombic Real/kʙ       0.000000e+00 ( 0.000000e+00 +/- 0.000000e+00) [K]
    Coulombic Fourier/kʙ    0.000000e+00 ( 0.000000e+00 +/- 0.000000e+00) [K]
Molecule-molecule
    Van der Waals/kʙ       -2.721307e+05 (-2.768559e+05 +/- 0.000000e+00) [K]
    Van der Waals (Tail)/kʙ-6.539580e+03 (-6.765548e+03 +/- 0.000000e+00) [K]
    Coulombic Real/kʙ      -8.710187e+04 (-8.967924e+04 +/- 0.000000e+00) [K]
    Coulombic Fourier/kʙ   -8.726393e+03 (-8.463660e+03 +/- 0.000000e+00) [K]
    Molecule Intra/kʙ       0.000000e+00 ( 0.000000e+00 +/- 0.000000e+00) [K]

Current cycle: 1400 out of 5000
===============================================================================

Box:      25.72532   0.00000   0.00000  Average:  25.80260   0.00000   0.00000
           0.00000  25.72532   0.00000             0.00000  25.80260   0.00000
           0.00000   0.00000  25.72532             0.00000   0.00000  25.80260
Lengths:  25.72532  25.72532  25.72532  Average:  25.80260  25.80260  25.80260
Angles:   90.00000  90.00000  90.00000  Average:  90.00000  90.00000  90.00000
Rectangular boundary conditions

net charge:   0.00000000

component 0 (CO2) lambda:  0 occupancy:  1 (1.000000)
    net charge:   0.00000000 [e]

Amount of molecules per component :
-------------------------------------------------------------------------------
Component 0 (CO2)
    molecules:      2.500000e+02 molecules  (2.500000e+02 +/- 0.000000e+00)
    number density: 1.468446e-02 molec./A^3 (1.455603e-02 +/- 0.000000e+00)
    density:        1.072872e+03 kg/m^3     (1.063489e+03 +/- 0.000000e+00)

Average pressure tensor: 
-------------------------------------------------------------------------------
 1.7730e+02  5.3279e+01 -4.1169e+01 +/- 0.0000e+00 0.0000e+00 0.0000e+00 [bar]
 5.3279e+01  1.5036e+02 -1.0653e+01 +/- 0.0000e+00 0.0000e+00 0.0000e+00 [bar]
-4.1169e+01 -1.0653e+01  1.9099e+02 +/- 0.0000e+00 0.0000e+00 0.0000e+00 [bar]
Ideal-gas pressure:   5.024198e+02 +/ 0.000000e+00 [bar]
Excess pressure:     -3.295359e+02 +/ 0.000000e+00 [bar]
Pressure:             1.728839e+02 +/ 0.000000e+00 [bar]

Total potential energy/kʙ  -3.812942e+05 (-3.811921e+05 +/- 0.000000e+00) [K]
-------------------------------------------------------------------------------
ExternalField-molecule
    Van der Waals/kʙ        0.000000e+00 ( 0.000000e+00 +/- 0.000000e+00) [K]
Framework-molecule
    Van der Waals/kʙ        0.000000e+00 ( 0.000000e+00 +/- 0.000000e+00) [K]
    Van der Waals (Tail)/kʙ 0.000000e+00 ( 0.000000e+00 +/- 0.000000e+00) [K]
    Coulombic Real/kʙ       0.000000e+00 ( 0.000000e+00 +/- 0.000000e+00) [K]
    Coulombic Fourier/kʙ    0.000000e+00 ( 0.000000e+00 +/- 0.000000e+00) [K]
Molecule-molecule
    Van der Waals/kʙ       -2.799092e+05 (-2.764084e+05 +/- 0.000000e+00) [K]
    Van der Waals (Tail)/kʙ-6.817640e+03 (-6.755937e+03 +/- 0.000000e+00) [K]
    Coulombic Real/kʙ      -8.626155e+04 (-8.958264e+04 +/- 0.000000e+00) [K]
    Coulombic Fourier/kʙ   -8.305848e+03 (-8.445126e+03 +/- 0.000000e+00) [K]
    Molecule Intra/kʙ       0.000000e+00 ( 0.000000e+00 +/- 0.000000e+00) [K]

Current cycle: 1500 out of 5000
===============================================================================

Box:      25.72498   0.00000   0.00000  Average:  25.80358   0.00000   0.00000
           0.00000  25.72498   0.00000             0.00000  25.80358   0.00000
           0.00000   0.00000  25.72498             0.00000   0.00000  25.80358
Lengths:  25.72498  25.72498  25.72498  Average:  25.80358  25.80358  25.80358
Angles:   90.00000  90.00000  90.00000  Average:  90.00000  90.00000  90.00000
Rectangular boundary conditions

net charge:   0.00000000

component 0 (CO2) lambda:  0 occupancy:  1 (1.000000)
    net charge:   0.00000000 [e]

Amount of molecules per component :
-------------------------------------------------------------------------------
Component 0 (CO2)
    molecules:      2.500000e+02 molecules  (2.500000e+02 +/- 0.000000e+00)
    number density: 1.468503e-02 molec./A^3 (1.455425e-02 +/- 0.000000e+00)
    density:        1.072913e+03 kg/m^3     (1.063358e+03 +/- 0.000000e+00)

Average pressure tensor: 
-------------------------------------------------------------------------------
 1.8211e+02  5.1334e+01 -4.4109e+01 +/- 0.0000e+00 0.0000e+00 0.0000e+00 [bar]
 5.1334e+01  1.6207e+02 -1.1375e+01 +/- 0.0000e+00 0.0000e+00 0.0000e+00 [bar]
-4.4109e+01 -1.1375e+01  1.7416e+02 +/- 0.0000e+00 0.0000e+00 0.0000e+00 [bar]
Ideal-gas pressure:   5.023581e+02 +/ 0.000000e+00 [bar]
Excess pressure:     -3.295780e+02 +/ 0.000000e+00 [bar]
Pressure:             1.727801e+02 +/ 0.000000e+00 [bar]

Total potential energy/kʙ  -3.875172e+05 (-3.810676e+05 +/- 0.000000e+00) [K]
-------------------------------------------------------------------------------
ExternalField-molecule
    Van der Waals/kʙ        0.000000e+00 ( 0.000000e+00 +/- 0.000000e+00) [K]
Framework-molecule
    Van der Waals/kʙ        0.000000e+00 ( 0.000000e+00 +/- 0.000000e+00) [K]
    Van der Waals (Tail)/kʙ 0.000000e+00 ( 0.000000e+00 +/- 0.000000e+00) [K]
    Coulombic Real/kʙ       0.000000e+00 ( 0.000000e+00 +/- 0.000000e+00) [K]
    Coulombic Fourier/kʙ    0.000000e+00 ( 0.000000e+00 +/- 0.000000e+00) [K]
Molecule-molecule
    Van der Waals/kʙ       -2.847010e+05 (-2.764987e+05 +/- 0.000000e+00) [K]
    Van der Waals (Tail)/kʙ-6.817905e+03 (-6.755943e+03 +/- 0.000000e+00) [K]
    Coulombic Real/kʙ      -8.788154e+04 (-8.939735e+04 +/- 0.000000e+00) [K]
    Coulombic Fourier/kʙ   -8.116724e+03 (-8.415611e+03 +/- 0.000000e+00) [K]
    Molecule Intra/kʙ       0.000000e+00 ( 0.000000e+00 +/- 0.000000e+00) [K]

Current cycle: 1600 out of 5000
===============================================================================

Box:      25.51963   0.00000   0.00000  Average:  25.78647   0.00000   0.00000
           0.00000  25.51963   0.00000             0.00000  25.78647   0.00000
           0.00000   0.00000  25.51963             0.00000   0.00000  25.78647
Lengths:  25.51963  25.51963  25.51963  Average:  25.78647  25.78647  25.78647
Angles:   90.00000  90.00000  90.00000  Average:  90.00000  90.00000  90.00000
Rectangular boundary conditions

net charge:   0.00000000

component 0 (CO2) lambda:  0 occupancy:  1 (1.000000)
    net charge:   0.00000000 [e]

Amount of molecules per component :
-------------------------------------------------------------------------------
Component 0 (CO2)
    molecules:      2.500000e+02 molecules  (2.500000e+02 +/- 0.000000e+00)
    number density: 1.504240e-02 molec./A^3 (1.458368e-02 +/- 0.000000e+00)
    density:        1.099023e+03 kg/m^3     (1.065509e+03 +/- 0.000000e+00)

Average pressure tensor: 
-------------------------------------------------------------------------------
 1.7721e+02  5.6097e+01 -4.1042e+01 +/- 0.0000e+00 0.0000e+00 0.0000e+00 [bar]
 5.6097e+01  1.7252e+02 -5.9974e+00 +/- 0.0000e+00 0.0000e+00 0.0000e+00 [bar]
-4.1042e+01 -5.9974e+00  1.5771e+02 +/- 0.0000e+00 0.0000e+00 0.0000e+00 [bar]
Ideal-gas pressure:   5.033742e+02 +/ 0.000000e+00 [bar]
Excess pressure:     -3.342292e+02 +/ 0.000000e+00 [bar]
Pressure:             1.691449e+02 +/ 0.000000e+00 [bar]

Total potential energy/kʙ  -4.055140e+05 (-3.821064e+05 +/- 0.000000e+00) [K]
-------------------------------------------------------------------------------
ExternalField-molecule
    Van der Waals/kʙ        0.000000e+00 ( 0.000000e+00 +/- 0.000000e+00) [K]
Framework-molecule
    Van der Waals/kʙ        0.000000e+00 ( 0.000000e+00 +/- 0.000000e+00) [K]
    Van der Waals (Tail)/kʙ 0.000000e+00 ( 0.000000e+00 +/- 0.000000e+00) [K]
    Coulombic Real/kʙ       0.000000e+00 ( 0.000000e+00 +/- 0.000000e+00) [K]
    Coulombic Fourier/kʙ    0.000000e+00 ( 0.000000e+00 +/- 0.000000e+00) [K]
Molecule-molecule
    Van der Waals/kʙ       -2.907373e+05 (-2.771900e+05 +/- 0.000000e+00) [K]
    Van der Waals (Tail)/kʙ-6.983824e+03 (-6.769301e+03 +/- 0.000000e+00) [K]
    Coulombic Real/kʙ      -9.882357e+04 (-8.970970e+04 +/- 0.000000e+00) [K]
    Coulombic Fourier/kʙ   -8.969336e+03 (-8.437447e+03 +/- 0.000000e+00) [K]
    Molecule Intra/kʙ       0.000000e+00 ( 0.000000e+00 +/- 0.000000e+00) [K]

Current cycle: 1700 out of 5000
===============================================================================

Box:      25.51276   0.00000   0.00000  Average:  25.77115   0.00000   0.00000
           0.00000  25.51276   0.00000             0.00000  25.77115   0.00000
           0.00000   0.00000  25.51276             0.00000   0.00000  25.77115
Lengths:  25.51276  25.51276  25.51276  Average:  25.77115  25.77115  25.77115
Angles:   90.00000  90.00000  90.00000  Average:  90.00000  90.00000  90.00000
Rectangular boundary conditions

net charge:   0.00000000

component 0 (CO2) lambda:  0 occupancy:  1 (1.000000)
    net charge:   0.00000000 [e]

Amount of molecules per component :
-------------------------------------------------------------------------------
Component 0 (CO2)
    molecules:      2.500000e+02 molecules  (2.500000e+02 +/- 0.000000e+00)
    number density: 1.505455e-02 molec./A^3 (1.461005e-02 +/- 0.000000e+00)
    density:        1.099911e+03 kg/m^3     (1.067435e+03 +/- 0.000000e+00)

Average pressure tensor: 
-------------------------------------------------------------------------------
 1.7047e+02  5.6725e+01 -3.5374e+01 +/- 0.0000e+00 0.0000e+00 0.0000e+00 [bar]
 5.6725e+01  1.7115e+02 -1.2549e+01 +/- 0.0000e+00 0.0000e+00 0.0000e+00 [bar]
-3.5374e+01 -1.2549e+01  1.6791e+02 +/- 0.0000e+00 0.0000e+00 0.0000e+00 [bar]
Ideal-gas pressure:   5.042841e+02 +/ 0.000000e+00 [bar]
Excess pressure:     -3.344439e+02 +/ 0.000000e+00 [bar]
Pressure:             1.698402e+02 +/ 0.000000e+00 [bar]

Total potential energy/kʙ  -3.973260e+05 (-3.829647e+05 +/- 0.000000e+00) [K]
-------------------------------------------------------------------------------
ExternalField-molecule
    Van der Waals/kʙ        0.000000e+00 ( 0.000000e+00 +/- 0.000000e+00) [K]
Framework-molecule
    Van der Waals/kʙ        0.000000e+00 ( 0.000000e+00 +/- 0.000000e+00) [K]
    Van der Waals (Tail)/kʙ 0.000000e+00 ( 0.000000e+00 +/- 0.000000e+00) [K]
    Coulombic Real/kʙ       0.000000e+00 ( 0.000000e+00 +/- 0.000000e+00) [K]
    Coulombic Fourier/kʙ    0.000000e+00 ( 0.000000e+00 +/- 0.000000e+00) [K]
Molecule-molecule
    Van der Waals/kʙ       -2.913301e+05 (-2.777233e+05 +/- 0.000000e+00) [K]
    Van der Waals (Tail)/kʙ-6.989464e+03 (-6.781261e+03 +/- 0.000000e+00) [K]
    Coulombic Real/kʙ      -9.117098e+04 (-9.001897e+04 +/- 0.000000e+00) [K]
    Coulombic Fourier/kʙ   -7.835476e+03 (-8.441138e+03 +/- 0.000000e+00) [K]
    Molecule Intra/kʙ       0.000000e+00 ( 0.000000e+00 +/- 0.000000e+00) [K]

Current cycle: 1800 out of 5000
===============================================================================

Box:      25.59539   0.00000   0.00000  Average:  25.75655   0.00000   0.00000
           0.00000  25.59539   0.00000             0.00000  25.75655   0.00000
           0.00000   0.00000  25.59539             0.00000   0.00000  25.75655
Lengths:  25.59539  25.59539  25.59539  Average:  25.75655  25.75655  25.75655
Angles:   90.00000  90.00000  90.00000  Average:  90.00000  90.00000  90.00000
Rectangular boundary conditions

net charge:   0.00000000

component 0 (CO2) lambda:  0 occupancy:  1 (1.000000)
    net charge:   0.00000000 [e]

Amount of molecules per component :
-------------------------------------------------------------------------------
Component 0 (CO2)
    molecules:      2.500000e+02 molecules  (2.500000e+02 +/- 0.000000e+00)
    number density: 1.490922e-02 molec./A^3 (1.463525e-02 +/- 0.000000e+00)
    density:        1.089293e+03 kg/m^3     (1.069277e+03 +/- 0.000000e+00)

Average pressure tensor: 
-------------------------------------------------------------------------------
 1.6074e+02  5.3064e+01 -3.5844e+01 +/- 0.0000e+00 0.0000e+00 0.0000e+00 [bar]
 5.3064e+01  1.6377e+02 -2.5282e+01 +/- 0.0000e+00 0.0000e+00 0.0000e+00 [bar]
-3.5844e+01 -2.5282e+01  1.7239e+02 +/- 0.0000e+00 0.0000e+00 0.0000e+00 [bar]
Ideal-gas pressure:   5.051542e+02 +/ 0.000000e+00 [bar]
Excess pressure:     -3.395212e+02 +/ 0.000000e+00 [bar]
Pressure:             1.656330e+02 +/ 0.000000e+00 [bar]

Total potential energy/kʙ  -3.999528e+05 (-3.836643e+05 +/- 0.000000e+00) [K]
-------------------------------------------------------------------------------
ExternalField-molecule
    Van der Waals/kʙ        0.000000e+00 ( 0.000000e+00 +/- 0.000000e+00) [K]
Framework-molecule
    Van der Waals/kʙ        0.000000e+00 ( 0.000000e+00 +/- 0.000000e+00) [K]
    Van der Waals (Tail)/kʙ 0.000000e+00 ( 0.000000e+00 +/- 0.000000e+00) [K]
    Coulombic Real/kʙ       0.000000e+00 ( 0.000000e+00 +/- 0.000000e+00) [K]
    Coulombic Fourier/kʙ    0.000000e+00 ( 0.000000e+00 +/- 0.000000e+00) [K]
Molecule-molecule
    Van der Waals/kʙ       -2.880412e+05 (-2.783756e+05 +/- 0.000000e+00) [K]
    Van der Waals (Tail)/kʙ-6.921991e+03 (-6.792383e+03 +/- 0.000000e+00) [K]
    Coulombic Real/kʙ      -9.637302e+04 (-9.007261e+04 +/- 0.000000e+00) [K]
    Coulombic Fourier/kʙ   -8.616597e+03 (-8.423684e+03 +/- 0.000000e+00) [K]
    Molecule Intra/kʙ       0.000000e+00 ( 0.000000e+00 +/- 0.000000e+00) [K]

Current cycle: 1900 out of 5000
===============================================================================

Box:      25.58427   0.00000   0.00000  Average:  25.75189   0.00000   0.00000
           0.00000  25.58427   0.00000             0.00000  25.75189   0.00000
           0.00000   0.00000  25.58427             0.00000   0.00000  25.75189
Lengths:  25.58427  25.58427  25.58427  Average:  25.75189  25.75189  25.75189
Angles:   90.00000  90.00000  90.00000  Average:  90.00000  90.00000  90.00000
Rectangular boundary conditions

net charge:   0.00000000

component 0 (CO2) lambda:  0 occupancy:  1 (1.000000)
    net charge:   0.00000000 [e]

Amount of molecules per component :
-------------------------------------------------------------------------------
Component 0 (CO2)
    molecules:      2.500000e+02 molecules  (2.500000e+02 +/- 0.000000e+00)
    number density: 1.492867e-02 molec./A^3 (1.464310e-02 +/- 0.000000e+00)
    density:        1.090714e+03 kg/m^3     (1.069850e+03 +/- 0.000000e+00)

Average pressure tensor: 
-------------------------------------------------------------------------------
 1.7318e+02  5.5635e+01 -2.7258e+01 +/- 0.0000e+00 0.0000e+00 0.0000e+00 [bar]
 5.5635e+01  1.6212e+02 -2.7628e+01 +/- 0.0000e+00 0.0000e+00 0.0000e+00 [bar]
-2.7258e+01 -2.7628e+01  1.7307e+02 +/- 0.0000e+00 0.0000e+00 0.0000e+00 [bar]
Ideal-gas pressure:   5.054251e+02 +/ 0.000000e+00 [bar]
Excess pressure:     -3.359696e+02 +/ 0.000000e+00 [bar]
Pressure:             1.694554e+02 +/ 0.000000e+00 [bar]

Total potential energy/kʙ  -3.911887e+05 (-3.841843e+05 +/- 0.000000e+00) [K]
-------------------------------------------------------------------------------
ExternalField-molecule
    Van der Waals/kʙ        0.000000e+00 ( 0.000000e+00 +/- 0.000000e+00) [K]
Framework-molecule
    Van der Waals/kʙ        0.000000e+00 ( 0.000000e+00 +/- 0.000000e+00) [K]
    Van der Waals (Tail)/kʙ 0.000000e+00 ( 0.000000e+00 +/- 0.000000e+00) [K]
    Coulombic Real/kʙ       0.000000e+00 ( 0.000000e+00 +/- 0.000000e+00) [K]
    Coulombic Fourier/kʙ    0.000000e+00 ( 0.000000e+00 +/- 0.000000e+00) [K]
Molecule-molecule
    Van der Waals/kʙ       -2.830066e+05 (-2.784991e+05 +/- 0.000000e+00) [K]
    Van der Waals (Tail)/kʙ-6.931022e+03 (-6.797213e+03 +/- 0.000000e+00) [K]
    Coulombic Real/kʙ      -9.231349e+04 (-9.046131e+04 +/- 0.000000e+00) [K]
    Coulombic Fourier/kʙ   -8.937519e+03 (-8.426665e+03 +/- 0.000000e+00) [K]
    Molecule Intra/kʙ       0.000000e+00 ( 0.000000e+00 +/- 0.000000e+00) [K]

Current cycle: 2000 out of 5000
===============================================================================

Box:      25.67115   0.00000   0.00000  Average:  25.74881   0.00000   0.00000
           0.00000  25.67115   0.00000             0.00000  25.74881   0.00000
           0.00000   0.00000  25.67115             0.00000   0.00000  25.74881
Lengths:  25.67115  25.67115  25.67115  Average:  25.74881  25.74881  25.74881
Angles:   90.00000  90.00000  90.00000  Average:  90.00000  90.00000  90.00000
Rectangular boundary conditions

net charge:   0.00000000

component 0 (CO2) lambda:  0 occupancy:  1 (1.000000)
    net charge:   0.00000000 [e]

Amount of molecules per component :
-------------------------------------------------------------------------------
Component 0 (CO2)
    molecules:      2.500000e+02 molecules  (2.500000e+02 +/- 0.000000e+00)
    number density: 1.477760e-02 molec./A^3 (1.464826e-02 +/- 0.000000e+00)
    density:        1.079677e+03 kg/m^3     (1.070227e+03 +/- 0.000000e+00)

Average pressure tensor: 
-------------------------------------------------------------------------------
 1.8043e+02  6.1112e+01 -2.9482e+01 +/- 0.0000e+00 0.0000e+00 0.0000e+00 [bar]
 6.1112e+01  1.5329e+02 -3.6410e+01 +/- 0.0000e+00 0.0000e+00 0.0000e+00 [bar]
-2.9482e+01 -3.6410e+01  1.5941e+02 +/- 0.0000e+00 0.0000e+00 0.0000e+00 [bar]
Ideal-gas pressure:   5.056030e+02 +/ 0.000000e+00 [bar]
Excess pressure:     -3.412276e+02 +/ 0.000000e+00 [bar]
Pressure:             1.643754e+02 +/ 0.000000e+00 [bar]

Total potential energy/kʙ  -3.828012e+05 (-3.842903e+05 +/- 0.000000e+00) [K]
-------------------------------------------------------------------------------
ExternalField-molecule
    Van der Waals/kʙ        0.000000e+00 ( 0.000000e+00 +/- 0.000000e+00) [K]
Framework-molecule
    Van der Waals/kʙ        0.000000e+00 ( 0.000000e+00 +/- 0.000000e+00) [K]
    Van der Waals (Tail)/kʙ 0.000000e+00 ( 0.000000e+00 +/- 0.000000e+00) [K]
    Coulombic Real/kʙ       0.000000e+00 ( 0.000000e+00 +/- 0.000000e+00) [K]
    Coulombic Fourier/kʙ    0.000000e+00 ( 0.000000e+00 +/- 0.000000e+00) [K]
Molecule-molecule
    Van der Waals/kʙ       -2.749687e+05 (-2.785969e+05 +/- 0.000000e+00) [K]
    Van der Waals (Tail)/kʙ-6.860885e+03 (-6.798788e+03 +/- 0.000000e+00) [K]
    Coulombic Real/kʙ      -9.175411e+04 (-9.046788e+04 +/- 0.000000e+00) [K]
    Coulombic Fourier/kʙ   -9.217484e+03 (-8.426676e+03 +/- 0.000000e+00) [K]
    Molecule Intra/kʙ       0.000000e+00 ( 0.000000e+00 +/- 0.000000e+00) [K]

Current cycle: 2100 out of 5000
===============================================================================

Box:      25.40080   0.00000   0.00000  Average:  25.74086   0.00000   0.00000
           0.00000  25.40080   0.00000             0.00000  25.74086   0.00000
           0.00000   0.00000  25.40080             0.00000   0.00000  25.74086
Lengths:  25.40080  25.40080  25.40080  Average:  25.74086  25.74086  25.74086
Angles:   90.00000  90.00000  90.00000  Average:  90.00000  90.00000  90.00000
Rectangular boundary conditions

net charge:   0.00000000

component 0 (CO2) lambda:  0 occupancy:  1 (1.000000)
    net charge:   0.00000000 [e]

Amount of molecules per component :
-------------------------------------------------------------------------------
Component 0 (CO2)
    molecules:      2.500000e+02 molecules  (2.500000e+02 +/- 0.000000e+00)
    number density: 1.525449e-02 molec./A^3 (1.466186e-02 +/- 0.000000e+00)
    density:        1.114519e+03 kg/m^3     (1.071221e+03 +/- 0.000000e+00)

Average pressure tensor: 
-------------------------------------------------------------------------------
 1.7417e+02  6.8677e+01 -2.7339e+01 +/- 0.0000e+00 0.0000e+00 0.0000e+00 [bar]
 6.8677e+01  1.5486e+02 -3.3627e+01 +/- 0.0000e+00 0.0000e+00 0.0000e+00 [bar]
-2.7339e+01 -3.3627e+01  1.5073e+02 +/- 0.0000e+00 0.0000e+00 0.0000e+00 [bar]
Ideal-gas pressure:   5.060725e+02 +/ 0.000000e+00 [bar]
Excess pressure:     -3.461534e+02 +/ 0.000000e+00 [bar]
Pressure:             1.599191e+02 +/ 0.000000e+00 [bar]

Total potential energy/kʙ  -3.941312e+05 (-3.847143e+05 +/- 0.000000e+00) [K]
-------------------------------------------------------------------------------
ExternalField-molecule
    Van der Waals/kʙ        0.000000e+00 ( 0.000000e+00 +/- 0.000000e+00) [K]
Framework-molecule
    Van der Waals/kʙ        0.000000e+00 ( 0.000000e+00 +/- 0.000000e+00) [K]
    Van der Waals (Tail)/kʙ 0.000000e+00 ( 0.000000e+00 +/- 0.000000e+00) [K]
[...]
    Coulombic Fourier/kʙ    0.000000e+00 ( 0.000000e+00 +/- 0.000000e+00) [K]
Molecule-molecule
    Van der Waals/kʙ       -2.914033e+05 (-2.821757e+05 +/- 6.866622e+03) [K]
    Van der Waals (Tail)/kʙ-7.000146e+03 (-6.865945e+03 +/- 1.434019e+02) [K]
    Coulombic Real/kʙ      -9.277641e+04 (-9.085481e+04 +/- 1.461643e+03) [K]
    Coulombic Fourier/kʙ   -8.307175e+03 (-8.485846e+03 +/- 1.030449e+02) [K]
    Molecule Intra/kʙ       0.000000e+00 ( 0.000000e+00 +/- 0.000000e+00) [K]

Current cycle: 4700 out of 5000
===============================================================================

Box:      25.34276   0.00000   0.00000  Average:  25.66315   0.00000   0.00000
           0.00000  25.34276   0.00000             0.00000  25.66315   0.00000
           0.00000   0.00000  25.34276             0.00000   0.00000  25.66315
Lengths:  25.34276  25.34276  25.34276  Average:  25.66315  25.66315  25.66315
Angles:   90.00000  90.00000  90.00000  Average:  90.00000  90.00000  90.00000
Rectangular boundary conditions

net charge:   0.00000000

component 0 (CO2) lambda:  0 occupancy:  1 (1.000000)
    net charge:   0.00000000 [e]

Amount of molecules per component :
-------------------------------------------------------------------------------
Component 0 (CO2)
    molecules:      2.500000e+02 molecules  (2.500000e+02 +/- 3.944933e-14)
    number density: 1.535954e-02 molec./A^3 (1.479633e-02 +/- 2.943164e-04)
    density:        1.122195e+03 kg/m^3     (1.081045e+03 +/- 2.150326e+01)

Average pressure tensor: 
-------------------------------------------------------------------------------
 1.7711e+02  1.5944e+01 -2.6648e+01 +/- 6.5961e+01 7.5037e+01 3.3738e+01 [bar]
 1.5944e+01  1.8002e+02 -2.0797e+01 +/- 7.5037e+01 6.8654e+01 5.0046e+01 [bar]
-2.6648e+01 -2.0797e+01  1.7122e+02 +/- 3.3738e+01 5.0046e+01 1.2045e+02 [bar]
Ideal-gas pressure:   5.107140e+02 +/ 1.015870e+01 [bar]
Excess pressure:     -3.345986e+02 +/ 4.494959e+01 [bar]
Pressure:             1.761154e+02 +/ 5.273553e+01 [bar]

Total potential energy/kʙ  -4.009022e+05 (-3.885307e+05 +/- 7.895462e+03) [K]
-------------------------------------------------------------------------------
ExternalField-molecule
    Van der Waals/kʙ        0.000000e+00 ( 0.000000e+00 +/- 0.000000e+00) [K]
Framework-molecule
    Van der Waals/kʙ        0.000000e+00 ( 0.000000e+00 +/- 0.000000e+00) [K]
    Van der Waals (Tail)/kʙ 0.000000e+00 ( 0.000000e+00 +/- 0.000000e+00) [K]
    Coulombic Real/kʙ       0.000000e+00 ( 0.000000e+00 +/- 0.000000e+00) [K]
    Coulombic Fourier/kʙ    0.000000e+00 ( 0.000000e+00 +/- 0.000000e+00) [K]
Molecule-molecule
    Van der Waals/kʙ       -2.922910e+05 (-2.823301e+05 +/- 6.713840e+03) [K]
    Van der Waals (Tail)/kʙ-7.131067e+03 (-6.868340e+03 +/- 1.365472e+02) [K]
    Coulombic Real/kʙ      -9.299725e+04 (-9.085134e+04 +/- 1.444164e+03) [K]
    Coulombic Fourier/kʙ   -8.482922e+03 (-8.480856e+03 +/- 9.412074e+01) [K]
    Molecule Intra/kʙ       0.000000e+00 ( 0.000000e+00 +/- 0.000000e+00) [K]

Current cycle: 4800 out of 5000
===============================================================================

Box:      25.62334   0.00000   0.00000  Average:  25.66169   0.00000   0.00000
           0.00000  25.62334   0.00000             0.00000  25.66169   0.00000
           0.00000   0.00000  25.62334             0.00000   0.00000  25.66169
Lengths:  25.62334  25.62334  25.62334  Average:  25.66169  25.66169  25.66169
Angles:   90.00000  90.00000  90.00000  Average:  90.00000  90.00000  90.00000
Rectangular boundary conditions

net charge:   0.00000000

component 0 (CO2) lambda:  0 occupancy:  1 (1.000000)
    net charge:   0.00000000 [e]

Amount of molecules per component :
-------------------------------------------------------------------------------
Component 0 (CO2)
    molecules:      2.500000e+02 molecules  (2.500000e+02 +/- 0.000000e+00)
    number density: 1.486047e-02 molec./A^3 (1.479880e-02 +/- 2.758676e-04)
    density:        1.085731e+03 kg/m^3     (1.081226e+03 +/- 2.015536e+01)

Average pressure tensor: 
-------------------------------------------------------------------------------
 1.7756e+02  1.6878e+01 -2.7158e+01 +/- 6.1718e+01 7.2536e+01 3.2905e+01 [bar]
 1.6878e+01  1.8351e+02 -2.0610e+01 +/- 7.2536e+01 6.6207e+01 5.0012e+01 [bar]
-2.7158e+01 -2.0610e+01  1.7468e+02 +/- 3.2905e+01 5.0012e+01 1.1931e+02 [bar]
Ideal-gas pressure:   5.107992e+02 +/ 9.521918e+00 [bar]
Excess pressure:     -3.322173e+02 +/ 4.804926e+01 [bar]
Pressure:             1.785819e+02 +/ 5.523259e+01 [bar]

Total potential energy/kʙ  -3.804721e+05 (-3.885099e+05 +/- 7.327220e+03) [K]
-------------------------------------------------------------------------------
ExternalField-molecule
    Van der Waals/kʙ        0.000000e+00 ( 0.000000e+00 +/- 0.000000e+00) [K]
Framework-molecule
    Van der Waals/kʙ        0.000000e+00 ( 0.000000e+00 +/- 0.000000e+00) [K]
    Van der Waals (Tail)/kʙ 0.000000e+00 ( 0.000000e+00 +/- 0.000000e+00) [K]
    Coulombic Real/kʙ       0.000000e+00 ( 0.000000e+00 +/- 0.000000e+00) [K]
    Coulombic Fourier/kʙ    0.000000e+00 ( 0.000000e+00 +/- 0.000000e+00) [K]
Molecule-molecule
    Van der Waals/kʙ       -2.815442e+05 (-2.823667e+05 +/- 6.295584e+03) [K]
    Van der Waals (Tail)/kʙ-6.899360e+03 (-6.869543e+03 +/- 1.283849e+02) [K]
    Coulombic Real/kʙ      -8.349933e+04 (-9.079049e+04 +/- 1.405401e+03) [K]
    Coulombic Fourier/kʙ   -8.529162e+03 (-8.483171e+03 +/- 9.551837e+01) [K]
    Molecule Intra/kʙ       0.000000e+00 ( 0.000000e+00 +/- 0.000000e+00) [K]

Current cycle: 4900 out of 5000
===============================================================================

Box:      25.60601   0.00000   0.00000  Average:  25.66103   0.00000   0.00000
           0.00000  25.60601   0.00000             0.00000  25.66103   0.00000
           0.00000   0.00000  25.60601             0.00000   0.00000  25.66103
Lengths:  25.60601  25.60601  25.60601  Average:  25.66103  25.66103  25.66103
Angles:   90.00000  90.00000  90.00000  Average:  90.00000  90.00000  90.00000
Rectangular boundary conditions

net charge:   0.00000000

component 0 (CO2) lambda:  0 occupancy:  1 (1.000000)
    net charge:   0.00000000 [e]

Amount of molecules per component :
-------------------------------------------------------------------------------
Component 0 (CO2)
    molecules:      2.500000e+02 molecules  (2.500000e+02 +/- 0.000000e+00)
    number density: 1.489067e-02 molec./A^3 (1.479986e-02 +/- 2.586595e-04)
    density:        1.087938e+03 kg/m^3     (1.081303e+03 +/- 1.889811e+01)

Average pressure tensor: 
-------------------------------------------------------------------------------
 1.7309e+02  1.9648e+01 -2.4533e+01 +/- 4.6792e+01 6.9609e+01 2.6212e+01 [bar]
 1.9648e+01  1.8774e+02 -2.2255e+01 +/- 6.9609e+01 6.6507e+01 5.0387e+01 [bar]
-2.4533e+01 -2.2255e+01  1.7097e+02 +/- 2.6212e+01 5.0387e+01 9.8376e+01 [bar]
Ideal-gas pressure:   5.108359e+02 +/ 8.927959e+00 [bar]
Excess pressure:     -3.335690e+02 +/ 4.013182e+01 [bar]
Pressure:             1.772670e+02 +/ 4.636556e+01 [bar]

Total potential energy/kʙ  -3.902776e+05 (-3.886041e+05 +/- 7.159456e+03) [K]
-------------------------------------------------------------------------------
ExternalField-molecule
    Van der Waals/kʙ        0.000000e+00 ( 0.000000e+00 +/- 0.000000e+00) [K]
Framework-molecule
    Van der Waals/kʙ        0.000000e+00 ( 0.000000e+00 +/- 0.000000e+00) [K]
    Van der Waals (Tail)/kʙ 0.000000e+00 ( 0.000000e+00 +/- 0.000000e+00) [K]
    Coulombic Real/kʙ       0.000000e+00 ( 0.000000e+00 +/- 0.000000e+00) [K]
    Coulombic Fourier/kʙ    0.000000e+00 ( 0.000000e+00 +/- 0.000000e+00) [K]
Molecule-molecule
    Van der Waals/kʙ       -2.794237e+05 (-2.824181e+05 +/- 6.023833e+03) [K]
    Van der Waals (Tail)/kʙ-6.913380e+03 (-6.870146e+03 +/- 1.208407e+02) [K]
    Coulombic Real/kʙ      -9.489473e+04 (-9.082183e+04 +/- 1.414459e+03) [K]
    Coulombic Fourier/kʙ   -9.045785e+03 (-8.494077e+03 +/- 1.083274e+02) [K]
    Molecule Intra/kʙ       0.000000e+00 ( 0.000000e+00 +/- 0.000000e+00) [K]


Energy statistics             |  Energy [K]   | Recomputed [K]|  Drift [K]    |
===============================================================================
Total potential energy/kʙ     | -3.900526e+05 | -3.900526e+05 |  5.396067e-09 |
    external field VDW/kʙ     |  0.000000e+00 |  0.000000e+00 |  0.000000e+00 |
    external field Real/kʙ    |  0.000000e+00 |  0.000000e+00 |  0.000000e+00 |
    framework-molecule VDW/kʙ |  0.000000e+00 |  0.000000e+00 |  0.000000e+00 |
    framework-molecule Real/kʙ|  0.000000e+00 |  0.000000e+00 |  0.000000e+00 |
    molecule-molecule VDW/kʙ  | -2.780499e+05 | -2.780499e+05 |  5.075563e-09 |
    molecule-molecule Real/kʙ | -9.599380e+04 | -9.599380e+04 |  3.325369e-10 |
    Van der Waals (Tail)/kʙ   | -6.894275e+03 | -6.894275e+03 |  0.000000e+00 |
    Ewald Fourier/kʙ          |  5.586756e+03 |  5.586756e+03 | -1.203259e-11 |
    Ewald self/kʙ             | -4.591696e+06 | -4.591696e+06 |  0.000000e+00 |
    Ewald exclusion/kʙ        |  4.576994e+06 |  4.576994e+06 |  0.000000e+00 |
    intra VDW/kʙ              |  0.000000e+00 |  0.000000e+00 |  0.000000e+00 |
    intra Coulombic/kʙ        |  0.000000e+00 |  0.000000e+00 |  0.000000e+00 |
    polarization/kʙ           |  0.000000e+00 |  0.000000e+00 |  0.000000e+00 |
    dU/dlambda VDW/kʙ         |  0.000000e+00 |  0.000000e+00 |  0.000000e+00 |
    dU/dlambda Real/kʙ        |  0.000000e+00 |  0.000000e+00 |  0.000000e+00 |
    dU/dlambda Ewald/kʙ       |  0.000000e+00 |  0.000000e+00 |  0.000000e+00 |
-------------------------------------------------------------------------------


Monte-Carlo moves statistics
===============================================================================

    Volume change        all:                8370
    Volume change        total:              8370
    Volume change        constructed:        8370
    Volume change        accepted:           1686
    Volume change        fraction:       0.201434
    Volume change        max-change:     0.066667

Component 0 [CO2]
    Reinsertion (CBMC)   all:              413852
    Reinsertion (CBMC)   total:            413852
    Reinsertion (CBMC)   constructed:      361032
    Reinsertion (CBMC)   accepted:           4439
    Reinsertion (CBMC)   fraction:       0.010726
    Reinsertion (CBMC)   max-change:     0.000000

    Translation          all:              413381
    Translation          total:            137900     137494     137987
    Translation          constructed:      137892     137466     137987
    Translation          accepted:          52618      50350      74156
    Translation          fraction:       0.381566   0.366198   0.537413
    Translation          max-change:     0.933036   0.976035   0.575758

    Rotation             all:              414397
    Rotation             total:            138015     138219     138163
    Rotation             constructed:      137987     138219     138147
    Rotation             accepted:          54481      78655      55486
    Rotation             fraction:       0.394747   0.569061   0.401598
    Rotation             max-change:     0.956522   0.541667   0.924949



Production run counting of the MC moves summed over systems and components
===============================================================================

Volume change                          8370 (0.6696 [%])
Reinsertion (CBMC)                   413852 (33.1082 [%])
Translation                          413381 (33.0705 [%])
Rotation                             414397 (33.1518 [%])

Production count MC-steps:          1250000 [-]
               All summed:          1250000 [-]
               difference:                0 [-]


Production run CPU timings of the MC moves
===============================================================================

Component 0 CO2

Rotation                             60.772762 [s]
    Ewald                            16.523672 [s]
    ExternalField-Molecule            0.013927 [s]
    Framework-Molecule                0.014562 [s]
    Molecule-Molecule                42.755325 [s]
    Overhead                          1.465276 [s]

Reinsertion (CBMC)                  293.007445 [s]
    Ewald                            14.556883 [s]
    NonEwald                        278.065056 [s]
    Overhead                          0.385506 [s]

Translation                          61.244476 [s]
    Ewald                            16.477918 [s]
    ExternalField-Molecule            0.013159 [s]
    Framework-Molecule                0.029109 [s]
    Molecule-Molecule                43.357677 [s]
    Overhead                          1.366613 [s]



Volume change                         72.570662 [s]
    Ewald                             15.385872 [s]
    NonEwald                          54.416476 [s]
    Tail                               2.488314 [s]

Property sampling                     0.311789 [s]
Energy/pressure sampling:             8.155200 [s]


Production run CPU timings of the MC moves summed over systems and components
===============================================================================


Translation                          61.244476 [s]
    Ewald                            16.477918 [s]
    ExternalField-Molecule            0.013159 [s]
    Framework-Molecule                0.029109 [s]
    Molecule-Molecule                43.357677 [s]
    Overhead                          1.366613 [s]

Rotation                             60.772762 [s]
    Ewald                            16.523672 [s]
    ExternalField-Molecule            0.013927 [s]
    Framework-Molecule                0.014562 [s]
    Molecule-Molecule                42.755325 [s]
    Overhead                          1.465276 [s]

Volume change                        72.570662 [s]
    Ewald                            15.385872 [s]
    NonEwald                         54.416476 [s]
    Tail                              2.488314 [s]
    Overhead                          0.280000 [s]

Reinsertion (CBMC)                  293.007445 [s]
    Ewald                            14.556883 [s]
    NonEwald                        278.065056 [s]
    Overhead                          0.385506 [s]

Property sampling:                    0.311789 [s]
Energy/pressure sampling:             8.155200 [s]

Production simulation time:         496.920167 [s]
                All summed:         496.062334 [s]
                  Overhead:           0.857833 [s]


Initalization simulation time:       98.205186 [s]
Equilibration simulation time:        0.000000 [s]
Production simulation time:         496.920167 [s]
Total simulation time:              595.125353 [s]


Energy averages and statistics:
===============================================================================

Framework-molecule energy:
-------------------------------------------------------------------------------



Framework-molecule energy contributions per energy type:
-------------------------------------------------------------------------------



Inter-molecular energy:
-------------------------------------------------------------------------------

    Inter-molecular energy/kʙ 0-0 [CO2-CO2]:
    ---------------------------------------------------------------------------
        Block[  0] -3.808435e+05
        Block[  1] -3.877520e+05
        Block[  2] -3.918794e+05
        Block[  3] -3.869708e+05
        Block[  4] -3.960633e+05
        -----------------------------------------------------------------------
        Average  -3.887018e+05 +/-  7.075813e+03 [K]



Inter-molecular energy contributions per energy type:
-------------------------------------------------------------------------------

    Van der Waals energy/kʙ 0-0 [CO2-CO2]:
    ---------------------------------------------------------------------------
        Block[  0] -2.763803e+05
        Block[  1] -2.808498e+05
        Block[  2] -2.843344e+05
        Block[  3] -2.816128e+05
        Block[  4] -2.889739e+05
        -----------------------------------------------------------------------
        Average  -2.824303e+05 +/-  5.763533e+03 [K]

    VDW Tail-Correction energy/kʙ 0-0 [CO2-CO2]:
    ---------------------------------------------------------------------------
        Block[  0] -6.753603e+03
        Block[  1] -6.843353e+03
        Block[  2] -6.888431e+03
        Block[  3] -6.856925e+03
        Block[  4] -7.012209e+03
        -----------------------------------------------------------------------
        Average  -6.870904e+03 +/-  1.161093e+02 [K]

    Coulomb Real energy/kʙ 0-0 [CO2-CO2]:
    ---------------------------------------------------------------------------
        Block[  0] -8.936039e+04
        Block[  1] -9.156251e+04
        Block[  2] -9.212948e+04
        Block[  3] -8.997528e+04
        Block[  4] -9.146331e+04
        -----------------------------------------------------------------------
        Average  -9.089819e+04 +/-  1.454866e+03 [K]

    Coulomb Fourier energy/kʙ 0-0 [CO2-CO2]:
    ---------------------------------------------------------------------------
        Block[  0] -8.349153e+03
        Block[  1] -8.496291e+03
        Block[  2] -8.527091e+03
        Block[  3] -8.525724e+03
        Block[  4] -8.613880e+03
        -----------------------------------------------------------------------
        Average  -8.502428e+03 +/-  1.195672e+02 [K]


Total energy/kʙ
-------------------------------------------------------------------------------
    Block[  0] -3.808435e+05
    Block[  1] -3.877520e+05
    Block[  2] -3.918794e+05
    Block[  3] -3.869708e+05
    Block[  4] -3.960633e+05
    ---------------------------------------------------------------------------
    Average  -3.887018e+05 +/-  7.075813e+03 [K]

Pressure averages and statistics:
===============================================================================

Average pressure tensor: 
-------------------------------------------------------------------------------
 1.7205e+02  1.9810e+01 -2.7338e+01 +/- 4.2773e+01 6.9305e+01 3.0315e+01 [bar]
 1.9810e+01  1.9067e+02 -2.1141e+01 +/- 6.9305e+01 6.7826e+01 5.0063e+01 [bar]
-2.7338e+01 -2.1141e+01  1.7396e+02 +/- 3.0315e+01 5.0063e+01 9.9109e+01 [bar]

    Block[  0]  5.023011e+07
    Block[  1]  5.089003e+07
    Block[  2]  5.121700e+07
    Block[  3]  5.098013e+07
    Block[  4]  5.212111e+07
    ---------------------------------------------------------------------------
    Ideal gas pressure   5.108768e+07 +/-  5.112836e-02 [Pa]
                         5.108768e+02 +/-  8.490070e+00 [bar]


    Block[  0] -3.307940e+07
    Block[  1] -3.515464e+07
    Block[  2] -3.622759e+07
    Block[  3] -3.389742e+07
    Block[  4] -2.763307e+07
    ---------------------------------------------------------------------------
    Excess pressure  -3.319842e+07 +/-  4.139805e+06 [Pa]
                     -3.319842e+02 +/-  4.139805e+01 [bar]


    Block[  0]  1.715071e+07
    Block[  1]  1.573540e+07
    Block[  2]  1.498940e+07
    Block[  3]  1.708271e+07
    Block[  4]  2.448804e+07
    ---------------------------------------------------------------------------
    Pressure average   1.788925e+07 +/-  4.718716e+06 [Pa]
                       1.788925e+02 +/-  4.718716e+01 [bar]


Enthalpy of adsorption
===============================================================================

No fluctuating components present.


Densities
===============================================================================

Component 0 (CO2)
    Block[  0] 250
    Block[  1] 250
    Block[  2] 250
    Block[  3] 250
    Block[  4] 250
    -----------------------------------------------------------------------
    Density average   2.500000e+02 +/-  0.000000e+00 [molecules]
    Density average   1.480105e-02 +/-  2.459731e-04 [molec/A^3]
    Density average   1.081390e+03 +/-  1.797121e+01 [kg.m⁻³]

