Compiler and run-time data
===============================================================================
RASPA 3.0.4

Random seed: 658704572

Compiled as a 64-bits application
Compiler: gcc Clang 18.1.8
Compile Date = Mar 15 2025, Compile Time = 19:38:51

2025-06-03 16:03:07.792269
Simulation started on Tue, Jun 03
The start time was 16:03:00

Hostname:    1NNMVV3
OS type:     Linux on x86_64
OS release:  5.15.167.4-microsoft-standard-WSL2
OS version:  #1 SMP Tue Nov 5 00:21:55 UTC 2024


Mutual consistent basic set of units:
===============================================================================

Unit of temperature: 1 [K]
Unit of length:      1e-10 [m]
Unit of time:        1e-12 [s]
Unit of mass:        1.6605402e-27 [kg]
Unit of charge:      1.60217733e-19 [C/particle]


Boltzmann constant (internal units):          0.8314464919307584 [-]
represents conversion from energy (internal units) to temperature (in Kelvin)

Derived units and their conversion factors:
===============================================================================

Unit of energy:                           1.6605402000000002e-23 [J]
Unit of energy:                           10.000008872307538 [J.mol⁻¹]
Unit of velocity:                         100 [m.s⁻¹]
Unit of force:                            1.6605402000000002e-13 [N]
Unit of diffusion:                        1.0000000000000002e-08 [m².s⁻¹]
Unit of acceleration:                     1.0000000000000002e-08 [m².s⁻¹]
Unit of torque:                           1.6605402000000002e-23 [N.m]
Unit of pressure:                         16605402 [Pa]
Unit of volume:                           1e-30 [m³]
Unit of density:                          1660.5402 [kg.m⁻³]
Unit of dynamic viscosity:                1.6605401999999997e-05 [N.s.m⁻²]
Unit of enthalpy:                         1.6605402000000002e-23 [J]
Unit of polarizability:                   1.5458657349975198e-35 [-]
Unit of Coulomb potential:                167101.08000665612 [K]
Unit of dielectric constant:              1.5458657349975193e-05 [s².C².kg⁻¹.m⁻³]
Unit of dipole moment:                    1.60217733e-29 [C.m]
Unit of Debye:                            4.803206799099162 [C.m]
Unit of electric potential:               0.00010364272224473431 [V]
Unit of electric field:                   1036427.222447343 [V.m⁻¹]
Unit of isothermal compressibility:       6.02213665167516e-08 [Pa⁻¹]
Unit of heat capacity:                    10.000008872307538 [J.mol⁻¹.K⁻¹]
Unit of volumetric expansion coefficient: 1 [K⁻¹]


Internal conversion factors:
===============================================================================

Energy (internal units) to Kelvin:      1.202724284692786 [-]
Kelvin to energy (internal units):      0.8314457542157567 [-]


System definitions
===============================================================================

Temperature:          280 [K]
Beta:                 0.004295440062697377 [-]
Pressure:             0 [Pa]
Helium void fraction: 1 [-]

Box:      30.00000   0.00000   0.00000
           0.00000  30.00000   0.00000
           0.00000   0.00000  30.00000
Lengths:  30.00000  30.00000  30.00000
Angles:   90.00000  90.00000  90.00000
Rectangular boundary conditions



Property measurement settings
===============================================================================




Pseudo-atoms
===============================================================================

  0 - C_co2    framework-atom: false
  1 - O_co2    framework-atom: false

  0 - C_co2    mass: 12.00000, charge:  0.70000
  1 - O_co2    mass: 15.99940, charge: -0.35000

  0 - C_co2    polarizability:  0.00000
  1 - O_co2    polarizability:  0.00000

  0 - J. J. Potoff et al., AIChE J. 2001, 47, 1676–1682.
  1 - J. J. Potoff et al., AIChE J. 2001, 47, 1676–1682.

Force field status
===============================================================================

Cutoff Framework-Molecule VDW:  12.00000 [Å]
Cutoff Molecule-Molecule VDW:   12.00000 [Å]
Cutoff Coulomb:                 12.00000 [Å]

Overlap-criteria VDW:           1.000000e+05 [K]

C_co2    - C_co2    Lennard-Jones p₀/kʙ:  27.00000 [K], p₁:  2.80000 [Å]
                                  shift:   0.00000 [K], tailcorrections: true
C_co2    - O_co2    Lennard-Jones p₀/kʙ:  46.18441 [K], p₁:  2.92500 [Å]
                                  shift:   0.00000 [K], tailcorrections: true
O_co2    - O_co2    Lennard-Jones p₀/kʙ:  79.00000 [K], p₁:  3.05000 [Å]
                                  shift:   0.00000 [K], tailcorrections: true

Ewald precision: 1e-06
Ewald alpha: 0.26505830360350674
Ewald k-vectors: 8 8 8


Component definitions
===============================================================================

Component 0 [CO2]

    Type: Adsorbate

    Critical temperature:  304.1282 [K]
    Critical pressure:     7377300 [Pa]
    Acentric factor:       0.22394 [-]

    Mol-fraction:                 1 [-]
    Swappable:                   true

    Mass:                         43.9988 [-]
    Fugacity coefficient:         -nan [-]
    Bulk fluid density:           0 [-]
    Compressibility:              1 [-]
    Excess molecules:             0 [-]

    Number Of Atoms:    3
    CBMC starting bead: 0
      0: O_co2  position  0.00000 -0.00000  1.16000, charge -0.35000
      1: C_co2  position  0.00000 -0.00000  0.00000, charge  0.70000
      2: O_co2  position  0.00000 -0.00000 -1.16000, charge -0.35000
    Diagonalized inertia-vector:      43.05758528 43.05758528 0.00000000
    Translational degrees of freedom: 3
    Rotational degrees of freedom:    2
    Shape of the molecule is: 'Linear'
    Net-charge:        0.00000000 [e]

    Move probabilities:
    Translation:                   0.199203 [-]
    Random translation:            0.000000 [-]
    Rotation:                      0.199203 [-]
    Random rotation:               0.000000 [-]
    Volume change:                 0.000000 [-]
    Reinsertion (CBMC):            0.199203 [-]
    Identity change (CBMC):        0.000000 [-]
    Swap:                          0.000000 [-]
    Swap (CBMC):                   0.000000 [-]
    Swap (CFCMC):                  0.000000 [-]
    Swap (CB/CFCMC):               0.000000 [-]
    Gibbs volume:                  0.003984 [-]
    Gibbs swap (CBMC):             0.398406 [-]
    Gibbs swap (CFCMC):            0.000000 [-]
    Widom:                         0.000000 [-]
    Widom (CFCMC):                 0.000000 [-]
    Widom (CB/CFCMC):              0.000000 [-]
    Parallel tempering:            0.000000 [-]
    Hybrid MC:                     0.000000 [-]

    number of blocking-pockets: 0

    number of bonds: 0





Number of pseudo-atoms
===============================================================================

Component   0 (CO2)
-------------------------------------------------------------------------------
    index   0 (C_co2): 40 atoms
    index   1 (O_co2): 80 atoms

Total number of pseudo-atoms:
-------------------------------------------------------------------------------
    index   0 (C_co2): 40 atoms
    index   1 (O_co2): 80 atoms




Energy status Recomputed from scratch
===============================================================================

Total potential energy/kʙ       -5.411899e+03 [K]
    external field VDW/kʙ        0.000000e+00 [K]
    external field Real/kʙ       0.000000e+00 [K]
    framework-molecule VDW/kʙ    0.000000e+00 [K]
    framework-molecule Real/kʙ   0.000000e+00 [K]
    molecule-molecule VDW/kʙ    -5.173937e+03 [K]
    molecule-molecule Real/kʙ   -1.653036e+02 [K]
    Van der Waals (Tail)/kʙ     -1.100506e+02 [K]
    Ewald Fourier/kʙ             2.389618e+03 [K]
    Ewald self/kʙ               -7.346713e+05 [K]
    Ewald exclusion/kʙ           7.323191e+05 [K]
    intra VDW/kʙ                 0.000000e+00 [K]
    intra Coulombic/kʙ           0.000000e+00 [K]
    polarization/kʙ              0.000000e+00 [K]
    dU/dlambda VDW/kʙ            0.000000e+00 [K]
    dU/dlambda Real/kʙ           0.000000e+00 [K]
    dU/dlambda Ewald/kʙ          0.000000e+00 [K]





Initialization: Current cycle: 0 out of 2000
===============================================================================

Box:      29.50029   0.00000   0.00000
           0.00000  29.50029   0.00000
           0.00000   0.00000  29.50029
Lengths:  29.50029  29.50029  29.50029
Angles:   90.00000  90.00000  90.00000
Rectangular boundary conditions

net charge:   0.00000000

component   0 (CO2) lambda:  0 occupancy:  1 (1.000000)
    net charge:   0.00000000 [e]

Amount of molecules per component :
-------------------------------------------------------------------------------
Component 0 (CO2)
    molecules:         4.900000e+01 molecules
    number density:    1.908610e-03 molec/A^3
    density:           1.394463e+02 kg/m^3

Total potential energy/kʙ       -1.087889e+04 [K]
-------------------------------------------------------------------------------
    external field VDW/kʙ        0.000000e+00 [K]
    external field Real/kʙ       0.000000e+00 [K]
    framework-molecule VDW/kʙ    0.000000e+00 [K]
    framework-molecule Real/kʙ   0.000000e+00 [K]
    molecule-molecule VDW/kʙ    -8.242887e+03 [K]
    molecule-molecule Real/kʙ   -2.410721e+03 [K]
    Van der Waals (Tail)/kʙ     -1.736798e+02 [K]
    Ewald Fourier/kʙ             2.829873e+03 [K]
    Ewald self/kʙ               -8.999723e+05 [K]
    Ewald exclusion/kʙ           8.970908e+05 [K]
    intra VDW/kʙ                 0.000000e+00 [K]
    intra Coulombic/kʙ           0.000000e+00 [K]
    polarization/kʙ              0.000000e+00 [K]
    dU/dlambda VDW/kʙ            0.000000e+00 [K]
    dU/dlambda Real/kʙ           0.000000e+00 [K]
    dU/dlambda Ewald/kʙ          0.000000e+00 [K]


Initialization: Current cycle: 100 out of 2000
===============================================================================

Box:      29.10649   0.00000   0.00000
           0.00000  29.10649   0.00000
           0.00000   0.00000  29.10649
Lengths:  29.10649  29.10649  29.10649
Angles:   90.00000  90.00000  90.00000
Rectangular boundary conditions

net charge:   0.00000000

component   0 (CO2) lambda:  0 occupancy:  1 (1.000000)
    net charge:   0.00000000 [e]

Amount of molecules per component :
-------------------------------------------------------------------------------
Component 0 (CO2)
    molecules:         3.300000e+01 molecules
    number density:    1.338273e-03 molec/A^3
    density:           9.777650e+01 kg/m^3

Total potential energy/kʙ       -5.636153e+03 [K]
-------------------------------------------------------------------------------
    external field VDW/kʙ        0.000000e+00 [K]
    external field Real/kʙ       0.000000e+00 [K]
    framework-molecule VDW/kʙ    0.000000e+00 [K]
    framework-molecule Real/kʙ   0.000000e+00 [K]
    molecule-molecule VDW/kʙ    -4.785654e+03 [K]
    molecule-molecule Real/kʙ   -5.900618e+02 [K]
    Van der Waals (Tail)/kʙ     -8.201528e+01 [K]
    Ewald Fourier/kʙ             1.762164e+03 [K]
    Ewald self/kʙ               -6.061038e+05 [K]
    Ewald exclusion/kʙ           6.041632e+05 [K]
    intra VDW/kʙ                 0.000000e+00 [K]
    intra Coulombic/kʙ           0.000000e+00 [K]
    polarization/kʙ              0.000000e+00 [K]
    dU/dlambda VDW/kʙ            0.000000e+00 [K]
    dU/dlambda Real/kʙ           0.000000e+00 [K]
    dU/dlambda Ewald/kʙ          0.000000e+00 [K]


Initialization: Current cycle: 200 out of 2000
===============================================================================

Box:      29.28747   0.00000   0.00000
           0.00000  29.28747   0.00000
           0.00000   0.00000  29.28747
Lengths:  29.28747  29.28747  29.28747
Angles:   90.00000  90.00000  90.00000
Rectangular boundary conditions

net charge:   0.00000000

component   0 (CO2) lambda:  0 occupancy:  1 (1.000000)
    net charge:   0.00000000 [e]

Amount of molecules per component :
-------------------------------------------------------------------------------
Component 0 (CO2)
    molecules:         2.600000e+01 molecules
    number density:    1.034970e-03 molec/A^3
    density:           7.561668e+01 kg/m^3

Total potential energy/kʙ       -3.691970e+03 [K]
-------------------------------------------------------------------------------
    external field VDW/kʙ        0.000000e+00 [K]
    external field Real/kʙ       0.000000e+00 [K]
    framework-molecule VDW/kʙ    0.000000e+00 [K]
    framework-molecule Real/kʙ   0.000000e+00 [K]
    molecule-molecule VDW/kʙ    -2.526598e+03 [K]
    molecule-molecule Real/kʙ   -9.972245e+02 [K]
    Van der Waals (Tail)/kʙ     -4.997322e+01 [K]
    Ewald Fourier/kʙ             1.410773e+03 [K]
    Ewald self/kʙ               -4.775363e+05 [K]
    Ewald exclusion/kʙ           4.760074e+05 [K]
    intra VDW/kʙ                 0.000000e+00 [K]
    intra Coulombic/kʙ           0.000000e+00 [K]
    polarization/kʙ              0.000000e+00 [K]
    dU/dlambda VDW/kʙ            0.000000e+00 [K]
    dU/dlambda Real/kʙ           0.000000e+00 [K]
    dU/dlambda Ewald/kʙ          0.000000e+00 [K]


Initialization: Current cycle: 300 out of 2000
===============================================================================

Box:      31.95695   0.00000   0.00000
           0.00000  31.95695   0.00000
           0.00000   0.00000  31.95695
Lengths:  31.95695  31.95695  31.95695
Angles:   90.00000  90.00000  90.00000
Rectangular boundary conditions

net charge:   0.00000000

component   0 (CO2) lambda:  0 occupancy:  1 (1.000000)
    net charge:   0.00000000 [e]

Amount of molecules per component :
-------------------------------------------------------------------------------
Component 0 (CO2)
    molecules:         3.000000e+01 molecules
    number density:    9.192320e-04 molec/A^3
    density:           6.716067e+01 kg/m^3

Total potential energy/kʙ       -3.241770e+03 [K]
-------------------------------------------------------------------------------
    external field VDW/kʙ        0.000000e+00 [K]
    external field Real/kʙ       0.000000e+00 [K]
    framework-molecule VDW/kʙ    0.000000e+00 [K]
    framework-molecule Real/kʙ   0.000000e+00 [K]
    molecule-molecule VDW/kʙ    -2.730830e+03 [K]
    molecule-molecule Real/kʙ   -4.228516e+02 [K]
    Van der Waals (Tail)/kʙ     -5.121328e+01 [K]
    Ewald Fourier/kʙ             1.727294e+03 [K]
    Ewald self/kʙ               -5.510035e+05 [K]
    Ewald exclusion/kʙ           5.492393e+05 [K]
    intra VDW/kʙ                 0.000000e+00 [K]
    intra Coulombic/kʙ           0.000000e+00 [K]
    polarization/kʙ              0.000000e+00 [K]
    dU/dlambda VDW/kʙ            0.000000e+00 [K]
    dU/dlambda Real/kʙ           0.000000e+00 [K]
    dU/dlambda Ewald/kʙ          0.000000e+00 [K]


Initialization: Current cycle: 400 out of 2000
===============================================================================

Box:      32.41739   0.00000   0.00000
           0.00000  32.41739   0.00000
           0.00000   0.00000  32.41739
Lengths:  32.41739  32.41739  32.41739
Angles:   90.00000  90.00000  90.00000
Rectangular boundary conditions

net charge:   0.00000000

component   0 (CO2) lambda:  0 occupancy:  1 (1.000000)
    net charge:   0.00000000 [e]

Amount of molecules per component :
-------------------------------------------------------------------------------
Component 0 (CO2)
    molecules:         3.900000e+01 molecules
    number density:    1.144802e-03 molec/A^3
    density:           8.364120e+01 kg/m^3

Total potential energy/kʙ       -4.551021e+03 [K]
-------------------------------------------------------------------------------
    external field VDW/kʙ        0.000000e+00 [K]
    external field Real/kʙ       0.000000e+00 [K]
    framework-molecule VDW/kʙ    0.000000e+00 [K]
    framework-molecule Real/kʙ   0.000000e+00 [K]
    molecule-molecule VDW/kʙ    -3.492760e+03 [K]
    molecule-molecule Real/kʙ   -9.085862e+02 [K]
    Van der Waals (Tail)/kʙ     -8.291465e+01 [K]
    Ewald Fourier/kʙ             2.226660e+03 [K]
    Ewald self/kʙ               -7.163045e+05 [K]
    Ewald exclusion/kʙ           7.140111e+05 [K]
    intra VDW/kʙ                 0.000000e+00 [K]
    intra Coulombic/kʙ           0.000000e+00 [K]
    polarization/kʙ              0.000000e+00 [K]
    dU/dlambda VDW/kʙ            0.000000e+00 [K]
    dU/dlambda Real/kʙ           0.000000e+00 [K]
    dU/dlambda Ewald/kʙ          0.000000e+00 [K]


Initialization: Current cycle: 500 out of 2000
===============================================================================

Box:      32.84017   0.00000   0.00000
           0.00000  32.84017   0.00000
           0.00000   0.00000  32.84017
Lengths:  32.84017  32.84017  32.84017
Angles:   90.00000  90.00000  90.00000
Rectangular boundary conditions

net charge:   0.00000000

component   0 (CO2) lambda:  0 occupancy:  1 (1.000000)
    net charge:   0.00000000 [e]

Amount of molecules per component :
-------------------------------------------------------------------------------
Component 0 (CO2)
    molecules:         3.100000e+01 molecules
    number density:    8.752769e-04 molec/A^3
    density:           6.394923e+01 kg/m^3

Total potential energy/kʙ       -4.263711e+03 [K]
-------------------------------------------------------------------------------
    external field VDW/kʙ        0.000000e+00 [K]
    external field Real/kʙ       0.000000e+00 [K]
    framework-molecule VDW/kʙ    0.000000e+00 [K]
    framework-molecule Real/kʙ   0.000000e+00 [K]
    molecule-molecule VDW/kʙ    -2.748096e+03 [K]
    molecule-molecule Real/kʙ   -1.325988e+03 [K]
    Van der Waals (Tail)/kʙ     -5.038989e+01 [K]
    Ewald Fourier/kʙ             1.683738e+03 [K]
    Ewald self/kʙ               -5.693702e+05 [K]
    Ewald exclusion/kʙ           5.675473e+05 [K]
    intra VDW/kʙ                 0.000000e+00 [K]
    intra Coulombic/kʙ           0.000000e+00 [K]
    polarization/kʙ              0.000000e+00 [K]
    dU/dlambda VDW/kʙ            0.000000e+00 [K]
    dU/dlambda Real/kʙ           0.000000e+00 [K]
    dU/dlambda Ewald/kʙ          0.000000e+00 [K]


Initialization: Current cycle: 600 out of 2000
===============================================================================

Box:      32.97050   0.00000   0.00000
           0.00000  32.97050   0.00000
           0.00000   0.00000  32.97050
Lengths:  32.97050  32.97050  32.97050
Angles:   90.00000  90.00000  90.00000
Rectangular boundary conditions

net charge:   0.00000000

component   0 (CO2) lambda:  0 occupancy:  1 (1.000000)
    net charge:   0.00000000 [e]

Amount of molecules per component :
-------------------------------------------------------------------------------
Component 0 (CO2)
    molecules:         4.600000e+01 molecules
    number density:    1.283457e-03 molec/A^3
    density:           9.377157e+01 kg/m^3

Total potential energy/kʙ       -5.324218e+03 [K]
-------------------------------------------------------------------------------
    external field VDW/kʙ        0.000000e+00 [K]
    external field Real/kʙ       0.000000e+00 [K]
    framework-molecule VDW/kʙ    0.000000e+00 [K]
    framework-molecule Real/kʙ   0.000000e+00 [K]
    molecule-molecule VDW/kʙ    -4.016286e+03 [K]
    molecule-molecule Real/kʙ   -9.360456e+02 [K]
    Van der Waals (Tail)/kʙ     -1.096416e+02 [K]
    Ewald Fourier/kʙ             2.442815e+03 [K]
    Ewald self/kʙ               -8.448720e+05 [K]
    Ewald exclusion/kʙ           8.421669e+05 [K]
    intra VDW/kʙ                 0.000000e+00 [K]
    intra Coulombic/kʙ           0.000000e+00 [K]
    polarization/kʙ              0.000000e+00 [K]
    dU/dlambda VDW/kʙ            0.000000e+00 [K]
    dU/dlambda Real/kʙ           0.000000e+00 [K]
    dU/dlambda Ewald/kʙ          0.000000e+00 [K]


Initialization: Current cycle: 700 out of 2000
===============================================================================

Box:      32.93562   0.00000   0.00000
           0.00000  32.93562   0.00000
           0.00000   0.00000  32.93562
Lengths:  32.93562  32.93562  32.93562
Angles:   90.00000  90.00000  90.00000
Rectangular boundary conditions

net charge:   0.00000000

component   0 (CO2) lambda:  0 occupancy:  1 (1.000000)
    net charge:   0.00000000 [e]

Amount of molecules per component :
-------------------------------------------------------------------------------
Component 0 (CO2)
    molecules:         3.700000e+01 molecules
    number density:    1.035629e-03 molec/A^3
    density:           7.566483e+01 kg/m^3

Total potential energy/kʙ       -2.392538e+03 [K]
-------------------------------------------------------------------------------
    external field VDW/kʙ        0.000000e+00 [K]
    external field Real/kʙ       0.000000e+00 [K]
    framework-molecule VDW/kʙ    0.000000e+00 [K]
    framework-molecule Real/kʙ   0.000000e+00 [K]
    molecule-molecule VDW/kʙ    -2.672668e+03 [K]
    molecule-molecule Real/kʙ    3.618220e+02 [K]
    Van der Waals (Tail)/kʙ     -7.116102e+01 [K]
    Ewald Fourier/kʙ             2.165278e+03 [K]
    Ewald self/kʙ               -6.795709e+05 [K]
    Ewald exclusion/kʙ           6.773951e+05 [K]
    intra VDW/kʙ                 0.000000e+00 [K]
    intra Coulombic/kʙ           0.000000e+00 [K]
    polarization/kʙ              0.000000e+00 [K]
    dU/dlambda VDW/kʙ            0.000000e+00 [K]
    dU/dlambda Real/kʙ           0.000000e+00 [K]
    dU/dlambda Ewald/kʙ          0.000000e+00 [K]


Initialization: Current cycle: 800 out of 2000
===============================================================================

Box:      33.63208   0.00000   0.00000
           0.00000  33.63208   0.00000
           0.00000   0.00000  33.63208
Lengths:  33.63208  33.63208  33.63208
Angles:   90.00000  90.00000  90.00000
Rectangular boundary conditions

net charge:   0.00000000

component   0 (CO2) lambda:  0 occupancy:  1 (1.000000)
    net charge:   0.00000000 [e]

Amount of molecules per component :
-------------------------------------------------------------------------------
Component 0 (CO2)
    molecules:         4.100000e+01 molecules
    number density:    1.077762e-03 molec/A^3
    density:           7.874311e+01 kg/m^3

Total potential energy/kʙ       -4.467192e+03 [K]
-------------------------------------------------------------------------------
    external field VDW/kʙ        0.000000e+00 [K]
    external field Real/kʙ       0.000000e+00 [K]
    framework-molecule VDW/kʙ    0.000000e+00 [K]
    framework-molecule Real/kʙ   0.000000e+00 [K]
    molecule-molecule VDW/kʙ    -3.132646e+03 [K]
    molecule-molecule Real/kʙ   -1.109044e+03 [K]
    Van der Waals (Tail)/kʙ     -8.206213e+01 [K]
    Ewald Fourier/kʙ             2.267592e+03 [K]
    Ewald self/kʙ               -7.530381e+05 [K]
    Ewald exclusion/kʙ           7.506270e+05 [K]
    intra VDW/kʙ                 0.000000e+00 [K]
    intra Coulombic/kʙ           0.000000e+00 [K]
    polarization/kʙ              0.000000e+00 [K]
    dU/dlambda VDW/kʙ            0.000000e+00 [K]
    dU/dlambda Real/kʙ           0.000000e+00 [K]
    dU/dlambda Ewald/kʙ          0.000000e+00 [K]


Initialization: Current cycle: 900 out of 2000
===============================================================================

Box:      33.41147   0.00000   0.00000
           0.00000  33.41147   0.00000
           0.00000   0.00000  33.41147
Lengths:  33.41147  33.41147  33.41147
Angles:   90.00000  90.00000  90.00000
Rectangular boundary conditions

net charge:   0.00000000

component   0 (CO2) lambda:  0 occupancy:  1 (1.000000)
    net charge:   0.00000000 [e]

Amount of molecules per component :
-------------------------------------------------------------------------------
Component 0 (CO2)
    molecules:         5.000000e+01 molecules
    number density:    1.340550e-03 molec/A^3
    density:           9.794291e+01 kg/m^3

Total potential energy/kʙ       -7.929782e+03 [K]
-------------------------------------------------------------------------------
    external field VDW/kʙ        0.000000e+00 [K]
    external field Real/kʙ       0.000000e+00 [K]
    framework-molecule VDW/kʙ    0.000000e+00 [K]
    framework-molecule Real/kʙ   0.000000e+00 [K]
    molecule-molecule VDW/kʙ    -5.638820e+03 [K]
    molecule-molecule Real/kʙ   -1.880854e+03 [K]
    Van der Waals (Tail)/kʙ     -1.244771e+02 [K]
    Ewald Fourier/kʙ             2.654651e+03 [K]
    Ewald self/kʙ               -9.183391e+05 [K]
    Ewald exclusion/kʙ           9.153988e+05 [K]
    intra VDW/kʙ                 0.000000e+00 [K]
    intra Coulombic/kʙ           0.000000e+00 [K]
    polarization/kʙ              0.000000e+00 [K]
    dU/dlambda VDW/kʙ            0.000000e+00 [K]
    dU/dlambda Real/kʙ           0.000000e+00 [K]
    dU/dlambda Ewald/kʙ          0.000000e+00 [K]


Initialization: Current cycle: 1000 out of 2000
===============================================================================

Box:      33.50051   0.00000   0.00000
           0.00000  33.50051   0.00000
           0.00000   0.00000  33.50051
Lengths:  33.50051  33.50051  33.50051
Angles:   90.00000  90.00000  90.00000
Rectangular boundary conditions

net charge:   0.00000000

component   0 (CO2) lambda:  0 occupancy:  1 (1.000000)
    net charge:   0.00000000 [e]

Amount of molecules per component :
-------------------------------------------------------------------------------
Component 0 (CO2)
    molecules:         5.000000e+01 molecules
    number density:    1.329890e-03 molec/A^3
    density:           9.716405e+01 kg/m^3

Total potential energy/kʙ       -1.096488e+04 [K]
-------------------------------------------------------------------------------
    external field VDW/kʙ        0.000000e+00 [K]
    external field Real/kʙ       0.000000e+00 [K]
    framework-molecule VDW/kʙ    0.000000e+00 [K]
    framework-molecule Real/kʙ   0.000000e+00 [K]
    molecule-molecule VDW/kʙ    -7.677815e+03 [K]
    molecule-molecule Real/kʙ   -2.807059e+03 [K]
    Van der Waals (Tail)/kʙ     -1.234872e+02 [K]
    Ewald Fourier/kʙ             2.583759e+03 [K]
    Ewald self/kʙ               -9.183391e+05 [K]
    Ewald exclusion/kʙ           9.153988e+05 [K]
    intra VDW/kʙ                 0.000000e+00 [K]
    intra Coulombic/kʙ           0.000000e+00 [K]
    polarization/kʙ              0.000000e+00 [K]
    dU/dlambda VDW/kʙ            0.000000e+00 [K]
    dU/dlambda Real/kʙ           0.000000e+00 [K]
    dU/dlambda Ewald/kʙ          0.000000e+00 [K]


Initialization: Current cycle: 1100 out of 2000
===============================================================================

Box:      32.98454   0.00000   0.00000
           0.00000  32.98454   0.00000
           0.00000   0.00000  32.98454
Lengths:  32.98454  32.98454  32.98454
Angles:   90.00000  90.00000  90.00000
Rectangular boundary conditions

net charge:   0.00000000

component   0 (CO2) lambda:  0 occupancy:  1 (1.000000)
    net charge:   0.00000000 [e]

Amount of molecules per component :
-------------------------------------------------------------------------------
Component 0 (CO2)
    molecules:         3.400000e+01 molecules
    number density:    9.474312e-04 molec/A^3
    density:           6.922095e+01 kg/m^3

Total potential energy/kʙ       -2.984174e+03 [K]
-------------------------------------------------------------------------------
    external field VDW/kʙ        0.000000e+00 [K]
    external field Real/kʙ       0.000000e+00 [K]
    framework-molecule VDW/kʙ    0.000000e+00 [K]
    framework-molecule Real/kʙ   0.000000e+00 [K]
    molecule-molecule VDW/kʙ    -2.069810e+03 [K]
    molecule-molecule Real/kʙ   -8.243669e+02 [K]
    Van der Waals (Tail)/kʙ     -5.982226e+01 [K]
    Ewald Fourier/kʙ             1.969217e+03 [K]
    Ewald self/kʙ               -6.244706e+05 [K]
    Ewald exclusion/kʙ           6.224712e+05 [K]
    intra VDW/kʙ                 0.000000e+00 [K]
    intra Coulombic/kʙ           0.000000e+00 [K]
    polarization/kʙ              0.000000e+00 [K]
    dU/dlambda VDW/kʙ            0.000000e+00 [K]
    dU/dlambda Real/kʙ           0.000000e+00 [K]
    dU/dlambda Ewald/kʙ          0.000000e+00 [K]


Initialization: Current cycle: 1200 out of 2000
===============================================================================

Box:      33.18589   0.00000   0.00000
           0.00000  33.18589   0.00000
           0.00000   0.00000  33.18589
Lengths:  33.18589  33.18589  33.18589
Angles:   90.00000  90.00000  90.00000
Rectangular boundary conditions

net charge:   0.00000000

component   0 (CO2) lambda:  0 occupancy:  1 (1.000000)
    net charge:   0.00000000 [e]

Amount of molecules per component :
-------------------------------------------------------------------------------
Component 0 (CO2)
    molecules:         4.800000e+01 molecules
    number density:    1.313352e-03 molec/A^3
    density:           9.595572e+01 kg/m^3

Total potential energy/kʙ       -7.941987e+03 [K]
-------------------------------------------------------------------------------
    external field VDW/kʙ        0.000000e+00 [K]
    external field Real/kʙ       0.000000e+00 [K]
    framework-molecule VDW/kʙ    0.000000e+00 [K]
    framework-molecule Real/kʙ   0.000000e+00 [K]
    molecule-molecule VDW/kʙ    -6.880064e+03 [K]
    molecule-molecule Real/kʙ   -1.035439e+03 [K]
    Van der Waals (Tail)/kʙ     -1.170735e+02 [K]
    Ewald Fourier/kʙ             2.913261e+03 [K]
    Ewald self/kʙ               -8.816055e+05 [K]
    Ewald exclusion/kʙ           8.787829e+05 [K]
    intra VDW/kʙ                 0.000000e+00 [K]
    intra Coulombic/kʙ           0.000000e+00 [K]
    polarization/kʙ              0.000000e+00 [K]
    dU/dlambda VDW/kʙ            0.000000e+00 [K]
    dU/dlambda Real/kʙ           0.000000e+00 [K]
    dU/dlambda Ewald/kʙ          0.000000e+00 [K]


Initialization: Current cycle: 1300 out of 2000
===============================================================================

Box:      33.26228   0.00000   0.00000
           0.00000  33.26228   0.00000
           0.00000   0.00000  33.26228
Lengths:  33.26228  33.26228  33.26228
Angles:   90.00000  90.00000  90.00000
Rectangular boundary conditions

net charge:   0.00000000

component   0 (CO2) lambda:  0 occupancy:  1 (1.000000)
    net charge:   0.00000000 [e]

Amount of molecules per component :
-------------------------------------------------------------------------------
Component 0 (CO2)
    molecules:         4.200000e+01 molecules
    number density:    1.141282e-03 molec/A^3
    density:           8.338404e+01 kg/m^3

Total potential energy/kʙ       -4.630120e+03 [K]
-------------------------------------------------------------------------------
    external field VDW/kʙ        0.000000e+00 [K]
    external field Real/kʙ       0.000000e+00 [K]
    framework-molecule VDW/kʙ    0.000000e+00 [K]
    framework-molecule Real/kʙ   0.000000e+00 [K]
    molecule-molecule VDW/kʙ    -3.332452e+03 [K]
    molecule-molecule Real/kʙ   -8.359821e+02 [K]
    Van der Waals (Tail)/kʙ     -8.901815e+01 [K]
    Ewald Fourier/kʙ             2.097170e+03 [K]
    Ewald self/kʙ               -7.714048e+05 [K]
    Ewald exclusion/kʙ           7.689350e+05 [K]
    intra VDW/kʙ                 0.000000e+00 [K]
    intra Coulombic/kʙ           0.000000e+00 [K]
    polarization/kʙ              0.000000e+00 [K]
    dU/dlambda VDW/kʙ            0.000000e+00 [K]
    dU/dlambda Real/kʙ           0.000000e+00 [K]
    dU/dlambda Ewald/kʙ          0.000000e+00 [K]


Initialization: Current cycle: 1400 out of 2000
===============================================================================

Box:      33.02298   0.00000   0.00000
           0.00000  33.02298   0.00000
           0.00000   0.00000  33.02298
Lengths:  33.02298  33.02298  33.02298
Angles:   90.00000  90.00000  90.00000
Rectangular boundary conditions

net charge:   0.00000000

component   0 (CO2) lambda:  0 occupancy:  1 (1.000000)
    net charge:   0.00000000 [e]

Amount of molecules per component :
-------------------------------------------------------------------------------
Component 0 (CO2)
    molecules:         3.400000e+01 molecules
    number density:    9.441262e-04 molec/A^3
    density:           6.897948e+01 kg/m^3

Total potential energy/kʙ       -6.785114e+03 [K]
-------------------------------------------------------------------------------
    external field VDW/kʙ        0.000000e+00 [K]
    external field Real/kʙ       0.000000e+00 [K]
    framework-molecule VDW/kʙ    0.000000e+00 [K]
    framework-molecule Real/kʙ   0.000000e+00 [K]
    molecule-molecule VDW/kʙ    -4.638239e+03 [K]
    molecule-molecule Real/kʙ   -1.876962e+03 [K]
    Van der Waals (Tail)/kʙ     -5.961358e+01 [K]
    Ewald Fourier/kʙ             1.789093e+03 [K]
    Ewald self/kʙ               -6.244706e+05 [K]
    Ewald exclusion/kʙ           6.224712e+05 [K]
    intra VDW/kʙ                 0.000000e+00 [K]
    intra Coulombic/kʙ           0.000000e+00 [K]
    polarization/kʙ              0.000000e+00 [K]
    dU/dlambda VDW/kʙ            0.000000e+00 [K]
    dU/dlambda Real/kʙ           0.000000e+00 [K]
    dU/dlambda Ewald/kʙ          0.000000e+00 [K]


Initialization: Current cycle: 1500 out of 2000
===============================================================================

Box:      32.93707   0.00000   0.00000
           0.00000  32.93707   0.00000
           0.00000   0.00000  32.93707
Lengths:  32.93707  32.93707  32.93707
Angles:   90.00000  90.00000  90.00000
Rectangular boundary conditions

net charge:   0.00000000

component   0 (CO2) lambda:  0 occupancy:  1 (1.000000)
    net charge:   0.00000000 [e]

Amount of molecules per component :
-------------------------------------------------------------------------------
Component 0 (CO2)
    molecules:         3.900000e+01 molecules
    number density:    1.091464e-03 molec/A^3
    density:           7.974426e+01 kg/m^3

Total potential energy/kʙ       -8.778038e+03 [K]
-------------------------------------------------------------------------------
    external field VDW/kʙ        0.000000e+00 [K]
    external field Real/kʙ       0.000000e+00 [K]
    framework-molecule VDW/kʙ    0.000000e+00 [K]
    framework-molecule Real/kʙ   0.000000e+00 [K]
    molecule-molecule VDW/kʙ    -5.892915e+03 [K]
    molecule-molecule Real/kʙ   -2.465132e+03 [K]
    Van der Waals (Tail)/kʙ     -7.905155e+01 [K]
    Ewald Fourier/kʙ             1.952480e+03 [K]
    Ewald self/kʙ               -7.163045e+05 [K]
    Ewald exclusion/kʙ           7.140111e+05 [K]
    intra VDW/kʙ                 0.000000e+00 [K]
    intra Coulombic/kʙ           0.000000e+00 [K]
    polarization/kʙ              0.000000e+00 [K]
    dU/dlambda VDW/kʙ            0.000000e+00 [K]
    dU/dlambda Real/kʙ           0.000000e+00 [K]
    dU/dlambda Ewald/kʙ          0.000000e+00 [K]


Initialization: Current cycle: 1600 out of 2000
===============================================================================

Box:      32.68180   0.00000   0.00000
           0.00000  32.68180   0.00000
           0.00000   0.00000  32.68180
Lengths:  32.68180  32.68180  32.68180
Angles:   90.00000  90.00000  90.00000
Rectangular boundary conditions

net charge:   0.00000000

component   0 (CO2) lambda:  0 occupancy:  1 (1.000000)
    net charge:   0.00000000 [e]

Amount of molecules per component :
-------------------------------------------------------------------------------
Component 0 (CO2)
    molecules:         3.500000e+01 molecules
    number density:    1.002652e-03 molec/A^3
    density:           7.325546e+01 kg/m^3

Total potential energy/kʙ       -2.688296e+03 [K]
-------------------------------------------------------------------------------
    external field VDW/kʙ        0.000000e+00 [K]
    external field Real/kʙ       0.000000e+00 [K]
    framework-molecule VDW/kʙ    0.000000e+00 [K]
    framework-molecule Real/kʙ   0.000000e+00 [K]
    molecule-molecule VDW/kʙ    -1.840529e+03 [K]
    molecule-molecule Real/kʙ   -6.761255e+02 [K]
    Van der Waals (Tail)/kʙ     -6.517100e+01 [K]
    Ewald Fourier/kʙ             1.951727e+03 [K]
    Ewald self/kʙ               -6.428374e+05 [K]
    Ewald exclusion/kʙ           6.407792e+05 [K]
    intra VDW/kʙ                 0.000000e+00 [K]
    intra Coulombic/kʙ           0.000000e+00 [K]
    polarization/kʙ              0.000000e+00 [K]
    dU/dlambda VDW/kʙ            0.000000e+00 [K]
    dU/dlambda Real/kʙ           0.000000e+00 [K]
    dU/dlambda Ewald/kʙ          0.000000e+00 [K]


Initialization: Current cycle: 1700 out of 2000
===============================================================================

Box:      33.32374   0.00000   0.00000
           0.00000  33.32374   0.00000
           0.00000   0.00000  33.32374
Lengths:  33.32374  33.32374  33.32374
Angles:   90.00000  90.00000  90.00000
Rectangular boundary conditions

net charge:   0.00000000

component   0 (CO2) lambda:  0 occupancy:  1 (1.000000)
    net charge:   0.00000000 [e]

Amount of molecules per component :
-------------------------------------------------------------------------------
Component 0 (CO2)
    molecules:         5.200000e+01 molecules
    number density:    1.405213e-03 molec/A^3
    density:           1.026673e+02 kg/m^3

Total potential energy/kʙ       -1.047765e+04 [K]
-------------------------------------------------------------------------------
    external field VDW/kʙ        0.000000e+00 [K]
    external field Real/kʙ       0.000000e+00 [K]
    framework-molecule VDW/kʙ    0.000000e+00 [K]
    framework-molecule Real/kʙ   0.000000e+00 [K]
    molecule-molecule VDW/kʙ    -7.104601e+03 [K]
    molecule-molecule Real/kʙ   -2.888890e+03 [K]
    Van der Waals (Tail)/kʙ     -1.357006e+02 [K]
    Ewald Fourier/kʙ             2.709430e+03 [K]
    Ewald self/kʙ               -9.550727e+05 [K]
    Ewald exclusion/kʙ           9.520148e+05 [K]
    intra VDW/kʙ                 0.000000e+00 [K]
    intra Coulombic/kʙ           0.000000e+00 [K]
    polarization/kʙ              0.000000e+00 [K]
    dU/dlambda VDW/kʙ            0.000000e+00 [K]
    dU/dlambda Real/kʙ           0.000000e+00 [K]
    dU/dlambda Ewald/kʙ          0.000000e+00 [K]


Initialization: Current cycle: 1800 out of 2000
===============================================================================

Box:      33.17418   0.00000   0.00000
           0.00000  33.17418   0.00000
           0.00000   0.00000  33.17418
Lengths:  33.17418  33.17418  33.17418
Angles:   90.00000  90.00000  90.00000
Rectangular boundary conditions

net charge:   0.00000000

component   0 (CO2) lambda:  0 occupancy:  1 (1.000000)
    net charge:   0.00000000 [e]

Amount of molecules per component :
-------------------------------------------------------------------------------
Component 0 (CO2)
    molecules:         4.900000e+01 molecules
    number density:    1.342133e-03 molec/A^3
    density:           9.805856e+01 kg/m^3

Total potential energy/kʙ       -8.035962e+03 [K]
-------------------------------------------------------------------------------
    external field VDW/kʙ        0.000000e+00 [K]
    external field Real/kʙ       0.000000e+00 [K]
    framework-molecule VDW/kʙ    0.000000e+00 [K]
    framework-molecule Real/kʙ   0.000000e+00 [K]
    molecule-molecule VDW/kʙ    -6.068287e+03 [K]
    molecule-molecule Real/kʙ   -1.834092e+03 [K]
    Van der Waals (Tail)/kʙ     -1.221316e+02 [K]
    Ewald Fourier/kʙ             2.870025e+03 [K]
    Ewald self/kʙ               -8.999723e+05 [K]
    Ewald exclusion/kʙ           8.970908e+05 [K]
    intra VDW/kʙ                 0.000000e+00 [K]
    intra Coulombic/kʙ           0.000000e+00 [K]
    polarization/kʙ              0.000000e+00 [K]
    dU/dlambda VDW/kʙ            0.000000e+00 [K]
    dU/dlambda Real/kʙ           0.000000e+00 [K]
    dU/dlambda Ewald/kʙ          0.000000e+00 [K]


Initialization: Current cycle: 1900 out of 2000
===============================================================================

Box:      33.10202   0.00000   0.00000
           0.00000  33.10202   0.00000
           0.00000   0.00000  33.10202
Lengths:  33.10202  33.10202  33.10202
Angles:   90.00000  90.00000  90.00000
Rectangular boundary conditions

net charge:   0.00000000

component   0 (CO2) lambda:  0 occupancy:  1 (1.000000)
    net charge:   0.00000000 [e]

Amount of molecules per component :
-------------------------------------------------------------------------------
Component 0 (CO2)
    molecules:         4.500000e+01 molecules
    number density:    1.240649e-03 molec/A^3
    density:           9.064397e+01 kg/m^3

Total potential energy/kʙ       -6.703427e+03 [K]
-------------------------------------------------------------------------------
    external field VDW/kʙ        0.000000e+00 [K]
    external field Real/kʙ       0.000000e+00 [K]
    framework-molecule VDW/kʙ    0.000000e+00 [K]
    framework-molecule Real/kʙ   0.000000e+00 [K]
    molecule-molecule VDW/kʙ    -4.874654e+03 [K]
    molecule-molecule Real/kʙ   -1.573479e+03 [K]
    Van der Waals (Tail)/kʙ     -1.036807e+02 [K]
    Ewald Fourier/kʙ             2.494641e+03 [K]
    Ewald self/kʙ               -8.265052e+05 [K]
    Ewald exclusion/kʙ           8.238589e+05 [K]
    intra VDW/kʙ                 0.000000e+00 [K]
    intra Coulombic/kʙ           0.000000e+00 [K]
    polarization/kʙ              0.000000e+00 [K]
    dU/dlambda VDW/kʙ            0.000000e+00 [K]
    dU/dlambda Real/kʙ           0.000000e+00 [K]
    dU/dlambda Ewald/kʙ          0.000000e+00 [K]


Current cycle: 0 out of 6000
===============================================================================

Box:      33.52846   0.00000   0.00000  Average:  33.52846   0.00000   0.00000
           0.00000  33.52846   0.00000             0.00000  33.52846   0.00000
           0.00000   0.00000  33.52846             0.00000   0.00000  33.52846
Lengths:  33.52846  33.52846  33.52846  Average:  33.52846  33.52846  33.52846
Angles:   90.00000  90.00000  90.00000  Average:  90.00000  90.00000  90.00000
Rectangular boundary conditions

net charge:   0.00000000

component 0 (CO2) lambda:  0 occupancy:  1 (1.000000)
    net charge:   0.00000000 [e]

Amount of molecules per component :
-------------------------------------------------------------------------------
Component 0 (CO2)
    molecules:      4.800000e+01 molecules  (4.800000e+01 +/- 0.000000e+00)
    number density: 1.273504e-03 molec./A^3 (1.273504e-03 +/- 0.000000e+00)
    density:        9.304440e+01 kg/m^3     (9.304440e+01 +/- 0.000000e+00)

Average pressure tensor: 
-------------------------------------------------------------------------------
 4.9231e+01  0.0000e+00  0.0000e+00 +/- 0.0000e+00 0.0000e+00 0.0000e+00 [bar]
 0.0000e+00  4.9231e+01  0.0000e+00 +/- 0.0000e+00 0.0000e+00 0.0000e+00 [bar]
 0.0000e+00  0.0000e+00  4.9231e+01 +/- 0.0000e+00 0.0000e+00 0.0000e+00 [bar]
Ideal-gas pressure:   4.923139e+01 +/ 0.000000e+00 [bar]
Excess pressure:      0.000000e+00 +/ 0.000000e+00 [bar]
Pressure:             4.923139e+01 +/ 0.000000e+00 [bar]

Total potential energy/kʙ  -8.569496e+03 (-8.569496e+03 +/- 0.000000e+00) [K]
-------------------------------------------------------------------------------
ExternalField-molecule
    Van der Waals/kʙ        0.000000e+00 ( 0.000000e+00 +/- 0.000000e+00) [K]
Framework-molecule
    Van der Waals/kʙ        0.000000e+00 ( 0.000000e+00 +/- 0.000000e+00) [K]
    Van der Waals (Tail)/kʙ 0.000000e+00 ( 0.000000e+00 +/- 0.000000e+00) [K]
    Coulombic Real/kʙ       0.000000e+00 ( 0.000000e+00 +/- 0.000000e+00) [K]
    Coulombic Fourier/kʙ    0.000000e+00 ( 0.000000e+00 +/- 0.000000e+00) [K]
Molecule-molecule
    Van der Waals/kʙ       -6.222249e+03 (-6.222249e+03 +/- 0.000000e+00) [K]
    Van der Waals (Tail)/kʙ-1.135214e+02 (-1.135214e+02 +/- 0.000000e+00) [K]
    Coulombic Real/kʙ      -2.048964e+03 (-2.048964e+03 +/- 0.000000e+00) [K]
    Coulombic Fourier/kʙ   -1.847615e+02 (-1.847615e+02 +/- 0.000000e+00) [K]
    Molecule Intra/kʙ       0.000000e+00 ( 0.000000e+00 +/- 0.000000e+00) [K]

Current cycle: 100 out of 6000
===============================================================================

Box:      33.66252   0.00000   0.00000  Average:  33.62346   0.00000   0.00000
           0.00000  33.66252   0.00000             0.00000  33.62346   0.00000
           0.00000   0.00000  33.66252             0.00000   0.00000  33.62346
Lengths:  33.66252  33.66252  33.66252  Average:  33.62346  33.62346  33.62346
Angles:   90.00000  90.00000  90.00000  Average:  90.00000  90.00000  90.00000
Rectangular boundary conditions

net charge:   0.00000000

component 0 (CO2) lambda:  0 occupancy:  1 (1.000000)
    net charge:   0.00000000 [e]

Amount of molecules per component :
-------------------------------------------------------------------------------
Component 0 (CO2)
    molecules:      6.300000e+01 molecules  (5.194059e+01 +/- 0.000000e+00)
    number density: 1.651585e-03 molec./A^3 (1.365313e-03 +/- 0.000000e+00)
    density:        1.206676e+02 kg/m^3     (9.975208e+01 +/- 0.000000e+00)

Average pressure tensor: 
-------------------------------------------------------------------------------
 3.9129e+01 -3.0182e+00 -7.4836e-01 +/- 0.0000e+00 0.0000e+00 0.0000e+00 [bar]
-3.0182e+00  5.3551e+01 -6.0272e-01 +/- 0.0000e+00 0.0000e+00 0.0000e+00 [bar]
-7.4836e-01 -6.0272e-01  4.2440e+01 +/- 0.0000e+00 0.0000e+00 0.0000e+00 [bar]
Ideal-gas pressure:   5.278054e+01 +/ 0.000000e+00 [bar]
Excess pressure:     -7.740613e+00 +/ 0.000000e+00 [bar]
Pressure:             4.503993e+01 +/ 0.000000e+00 [bar]

Total potential energy/kʙ  -9.794799e+03 (-8.651880e+03 +/- 0.000000e+00) [K]
-------------------------------------------------------------------------------
ExternalField-molecule
    Van der Waals/kʙ        0.000000e+00 ( 0.000000e+00 +/- 0.000000e+00) [K]
Framework-molecule
    Van der Waals/kʙ        0.000000e+00 ( 0.000000e+00 +/- 0.000000e+00) [K]
    Van der Waals (Tail)/kʙ 0.000000e+00 ( 0.000000e+00 +/- 0.000000e+00) [K]
    Coulombic Real/kʙ       0.000000e+00 ( 0.000000e+00 +/- 0.000000e+00) [K]
    Coulombic Fourier/kʙ    0.000000e+00 ( 0.000000e+00 +/- 0.000000e+00) [K]
Molecule-molecule
    Van der Waals/kʙ       -9.331430e+03 (-6.671558e+03 +/- 0.000000e+00) [K]
    Van der Waals (Tail)/kʙ-1.932313e+02 (-1.268966e+02 +/- 0.000000e+00) [K]
    Coulombic Real/kʙ      -3.045767e+02 (-1.761272e+03 +/- 0.000000e+00) [K]
    Coulombic Fourier/kʙ    3.443873e+01 (-9.215344e+01 +/- 0.000000e+00) [K]
    Molecule Intra/kʙ       0.000000e+00 ( 0.000000e+00 +/- 0.000000e+00) [K]

Current cycle: 200 out of 6000
===============================================================================

Box:      34.23868   0.00000   0.00000  Average:  33.74315   0.00000   0.00000
           0.00000  34.23868   0.00000             0.00000  33.74315   0.00000
           0.00000   0.00000  34.23868             0.00000   0.00000  33.74315
Lengths:  34.23868  34.23868  34.23868  Average:  33.74315  33.74315  33.74315
Angles:   90.00000  90.00000  90.00000  Average:  90.00000  90.00000  90.00000
Rectangular boundary conditions

net charge:   0.00000000

component 0 (CO2) lambda:  0 occupancy:  1 (1.000000)
    net charge:   0.00000000 [e]

Amount of molecules per component :
-------------------------------------------------------------------------------
Component 0 (CO2)
    molecules:      5.700000e+01 molecules  (5.281592e+01 +/- 0.000000e+00)
    number density: 1.420116e-03 molec./A^3 (1.373602e-03 +/- 0.000000e+00)
    density:        1.037561e+02 kg/m^3     (1.003577e+02 +/- 0.000000e+00)

Average pressure tensor: 
-------------------------------------------------------------------------------
 3.7518e+01 -2.9824e+00 -2.5371e+00 +/- 0.0000e+00 0.0000e+00 0.0000e+00 [bar]
-2.9824e+00  4.4432e+01 -4.9591e+00 +/- 0.0000e+00 0.0000e+00 0.0000e+00 [bar]
-2.5371e+00 -4.9591e+00  3.9951e+01 +/- 0.0000e+00 0.0000e+00 0.0000e+00 [bar]
Ideal-gas pressure:   5.310100e+01 +/ 0.000000e+00 [bar]
Excess pressure:     -1.246721e+01 +/ 0.000000e+00 [bar]
Pressure:             4.063379e+01 +/ 0.000000e+00 [bar]

Total potential energy/kʙ  -1.177436e+04 (-9.429431e+03 +/- 0.000000e+00) [K]
-------------------------------------------------------------------------------
ExternalField-molecule
    Van der Waals/kʙ        0.000000e+00 ( 0.000000e+00 +/- 0.000000e+00) [K]
Framework-molecule
    Van der Waals/kʙ        0.000000e+00 ( 0.000000e+00 +/- 0.000000e+00) [K]
    Van der Waals (Tail)/kʙ 0.000000e+00 ( 0.000000e+00 +/- 0.000000e+00) [K]
    Coulombic Real/kʙ       0.000000e+00 ( 0.000000e+00 +/- 0.000000e+00) [K]
    Coulombic Fourier/kʙ    0.000000e+00 ( 0.000000e+00 +/- 0.000000e+00) [K]
Molecule-molecule
    Van der Waals/kʙ       -8.609493e+03 (-7.184730e+03 +/- 0.000000e+00) [K]
    Van der Waals (Tail)/kʙ-1.503263e+02 (-1.310983e+02 +/- 0.000000e+00) [K]
    Coulombic Real/kʙ      -2.962570e+03 (-1.963877e+03 +/- 0.000000e+00) [K]
    Coulombic Fourier/kʙ   -5.197123e+01 (-1.497255e+02 +/- 0.000000e+00) [K]
    Molecule Intra/kʙ       0.000000e+00 ( 0.000000e+00 +/- 0.000000e+00) [K]

Current cycle: 300 out of 6000
===============================================================================

Box:      33.76843   0.00000   0.00000  Average:  33.84128   0.00000   0.00000
           0.00000  33.76843   0.00000             0.00000  33.84128   0.00000
           0.00000   0.00000  33.76843             0.00000   0.00000  33.84128
Lengths:  33.76843  33.76843  33.76843  Average:  33.84128  33.84128  33.84128
Angles:   90.00000  90.00000  90.00000  Average:  90.00000  90.00000  90.00000
Rectangular boundary conditions

net charge:   0.00000000

component 0 (CO2) lambda:  0 occupancy:  1 (1.000000)
    net charge:   0.00000000 [e]

Amount of molecules per component :
-------------------------------------------------------------------------------
Component 0 (CO2)
    molecules:      6.100000e+01 molecules  (5.526246e+01 +/- 0.000000e+00)
    number density: 1.584154e-03 molec./A^3 (1.424239e-03 +/- 0.000000e+00)
    density:        1.157410e+02 kg/m^3     (1.040574e+02 +/- 0.000000e+00)

Average pressure tensor: 
-------------------------------------------------------------------------------
 3.6663e+01  1.0948e-02 -2.1287e+00 +/- 0.0000e+00 0.0000e+00 0.0000e+00 [bar]
 1.0948e-02  4.5646e+01 -3.1242e+00 +/- 0.0000e+00 0.0000e+00 0.0000e+00 [bar]
-2.1287e+00 -3.1242e+00  3.7588e+01 +/- 0.0000e+00 0.0000e+00 0.0000e+00 [bar]
Ideal-gas pressure:   5.505854e+01 +/ 0.000000e+00 [bar]
Excess pressure:     -1.509261e+01 +/ 0.000000e+00 [bar]
Pressure:             3.996593e+01 +/ 0.000000e+00 [bar]

Total potential energy/kʙ  -1.325915e+04 (-1.037834e+04 +/- 0.000000e+00) [K]
-------------------------------------------------------------------------------
ExternalField-molecule
    Van der Waals/kʙ        0.000000e+00 ( 0.000000e+00 +/- 0.000000e+00) [K]
Framework-molecule
    Van der Waals/kʙ        0.000000e+00 ( 0.000000e+00 +/- 0.000000e+00) [K]
    Van der Waals (Tail)/kʙ 0.000000e+00 ( 0.000000e+00 +/- 0.000000e+00) [K]
    Coulombic Real/kʙ       0.000000e+00 ( 0.000000e+00 +/- 0.000000e+00) [K]
    Coulombic Fourier/kʙ    0.000000e+00 ( 0.000000e+00 +/- 0.000000e+00) [K]
Molecule-molecule
    Van der Waals/kʙ       -9.917271e+03 (-7.833024e+03 +/- 0.000000e+00) [K]
    Van der Waals (Tail)/kʙ-1.794583e+02 (-1.430219e+02 +/- 0.000000e+00) [K]
    Coulombic Real/kʙ      -2.837105e+03 (-2.219085e+03 +/- 0.000000e+00) [K]
    Coulombic Fourier/kʙ   -3.253124e+02 (-1.832075e+02 +/- 0.000000e+00) [K]
    Molecule Intra/kʙ       0.000000e+00 ( 0.000000e+00 +/- 0.000000e+00) [K]

Current cycle: 400 out of 6000
===============================================================================

Box:      33.70398   0.00000   0.00000  Average:  33.80691   0.00000   0.00000
           0.00000  33.70398   0.00000             0.00000  33.80691   0.00000
           0.00000   0.00000  33.70398             0.00000   0.00000  33.80691
Lengths:  33.70398  33.70398  33.70398  Average:  33.80691  33.80691  33.80691
Angles:   90.00000  90.00000  90.00000  Average:  90.00000  90.00000  90.00000
Rectangular boundary conditions

net charge:   0.00000000

component 0 (CO2) lambda:  0 occupancy:  1 (1.000000)
    net charge:   0.00000000 [e]

Amount of molecules per component :
-------------------------------------------------------------------------------
Component 0 (CO2)
    molecules:      5.100000e+01 molecules  (5.593766e+01 +/- 0.000000e+00)
    number density: 1.332069e-03 molec./A^3 (1.446518e-03 +/- 0.000000e+00)
    density:        9.732325e+01 kg/m^3     (1.056851e+02 +/- 0.000000e+00)

Average pressure tensor: 
-------------------------------------------------------------------------------
 3.7701e+01  8.7999e-01 -5.2588e+00 +/- 0.0000e+00 0.0000e+00 0.0000e+00 [bar]
 8.7999e-01  4.5359e+01 -2.0206e+00 +/- 0.0000e+00 0.0000e+00 0.0000e+00 [bar]
-5.2588e+00 -2.0206e+00  3.7912e+01 +/- 0.0000e+00 0.0000e+00 0.0000e+00 [bar]
Ideal-gas pressure:   5.591981e+01 +/ 0.000000e+00 [bar]
Excess pressure:     -1.559546e+01 +/ 0.000000e+00 [bar]
Pressure:             4.032435e+01 +/ 0.000000e+00 [bar]

Total potential energy/kʙ  -5.920539e+03 (-1.054469e+04 +/- 0.000000e+00) [K]
-------------------------------------------------------------------------------
ExternalField-molecule
    Van der Waals/kʙ        0.000000e+00 ( 0.000000e+00 +/- 0.000000e+00) [K]
Framework-molecule
    Van der Waals/kʙ        0.000000e+00 ( 0.000000e+00 +/- 0.000000e+00) [K]
    Van der Waals (Tail)/kʙ 0.000000e+00 ( 0.000000e+00 +/- 0.000000e+00) [K]
    Coulombic Real/kʙ       0.000000e+00 ( 0.000000e+00 +/- 0.000000e+00) [K]
    Coulombic Fourier/kʙ    0.000000e+00 ( 0.000000e+00 +/- 0.000000e+00) [K]
Molecule-molecule
    Van der Waals/kʙ       -4.932322e+03 (-8.014291e+03 +/- 0.000000e+00) [K]
    Van der Waals (Tail)/kʙ-1.261633e+02 (-1.484494e+02 +/- 0.000000e+00) [K]
    Coulombic Real/kʙ      -5.994818e+02 (-2.185615e+03 +/- 0.000000e+00) [K]
    Coulombic Fourier/kʙ   -2.625711e+02 (-1.963358e+02 +/- 0.000000e+00) [K]
    Molecule Intra/kʙ       0.000000e+00 ( 0.000000e+00 +/- 0.000000e+00) [K]

Current cycle: 500 out of 6000
===============================================================================

Box:      34.24465   0.00000   0.00000  Average:  33.84268   0.00000   0.00000
           0.00000  34.24465   0.00000             0.00000  33.84268   0.00000
           0.00000   0.00000  34.24465             0.00000   0.00000  33.84268
Lengths:  34.24465  34.24465  34.24465  Average:  33.84268  33.84268  33.84268
Angles:   90.00000  90.00000  90.00000  Average:  90.00000  90.00000  90.00000
Rectangular boundary conditions

net charge:   0.00000000

component 0 (CO2) lambda:  0 occupancy:  1 (1.000000)
    net charge:   0.00000000 [e]

Amount of molecules per component :
-------------------------------------------------------------------------------
Component 0 (CO2)
    molecules:      7.800000e+01 molecules  (5.763872e+01 +/- 0.000000e+00)
    number density: 1.942300e-03 molec./A^3 (1.485246e-03 +/- 0.000000e+00)
    density:        1.419077e+02 kg/m^3     (1.085146e+02 +/- 0.000000e+00)

Average pressure tensor: 
-------------------------------------------------------------------------------
 3.9360e+01  4.0939e-01 -4.0182e+00 +/- 0.0000e+00 0.0000e+00 0.0000e+00 [bar]
 4.0939e-01  4.5703e+01 -2.1351e+00 +/- 0.0000e+00 0.0000e+00 0.0000e+00 [bar]
-4.0182e+00 -2.1351e+00  4.0350e+01 +/- 0.0000e+00 0.0000e+00 0.0000e+00 [bar]
Ideal-gas pressure:   5.741697e+01 +/ 0.000000e+00 [bar]
Excess pressure:     -1.561246e+01 +/ 0.000000e+00 [bar]
Pressure:             4.180450e+01 +/ 0.000000e+00 [bar]

Total potential energy/kʙ  -1.565558e+04 (-1.141391e+04 +/- 0.000000e+00) [K]
-------------------------------------------------------------------------------
ExternalField-molecule
    Van der Waals/kʙ        0.000000e+00 ( 0.000000e+00 +/- 0.000000e+00) [K]
Framework-molecule
    Van der Waals/kʙ        0.000000e+00 ( 0.000000e+00 +/- 0.000000e+00) [K]
    Van der Waals (Tail)/kʙ 0.000000e+00 ( 0.000000e+00 +/- 0.000000e+00) [K]
    Coulombic Real/kʙ       0.000000e+00 ( 0.000000e+00 +/- 0.000000e+00) [K]
    Coulombic Fourier/kʙ    0.000000e+00 ( 0.000000e+00 +/- 0.000000e+00) [K]
Molecule-molecule
    Van der Waals/kʙ       -1.138313e+04 (-8.604768e+03 +/- 0.000000e+00) [K]
    Van der Waals (Tail)/kʙ-2.813501e+02 (-1.603018e+02 +/- 0.000000e+00) [K]
    Coulombic Real/kʙ      -3.634267e+03 (-2.423329e+03 +/- 0.000000e+00) [K]
    Coulombic Fourier/kʙ   -3.568284e+02 (-2.255078e+02 +/- 0.000000e+00) [K]
    Molecule Intra/kʙ       0.000000e+00 ( 0.000000e+00 +/- 0.000000e+00) [K]

Current cycle: 600 out of 6000
===============================================================================

Box:      34.35515   0.00000   0.00000  Average:  33.91214   0.00000   0.00000
           0.00000  34.35515   0.00000             0.00000  33.91214   0.00000
           0.00000   0.00000  34.35515             0.00000   0.00000  33.91214
Lengths:  34.35515  34.35515  34.35515  Average:  33.91214  33.91214  33.91214
Angles:   90.00000  90.00000  90.00000  Average:  90.00000  90.00000  90.00000
Rectangular boundary conditions

net charge:   0.00000000

component 0 (CO2) lambda:  0 occupancy:  1 (1.000000)
    net charge:   0.00000000 [e]

Amount of molecules per component :
-------------------------------------------------------------------------------
Component 0 (CO2)
    molecules:      7.900000e+01 molecules  (6.071714e+01 +/- 0.000000e+00)
    number density: 1.948281e-03 molec./A^3 (1.553154e-03 +/- 0.000000e+00)
    density:        1.423447e+02 kg/m^3     (1.134761e+02 +/- 0.000000e+00)

Average pressure tensor: 
-------------------------------------------------------------------------------
 4.1035e+01  3.0490e-02 -2.9361e+00 +/- 0.0000e+00 0.0000e+00 0.0000e+00 [bar]
 3.0490e-02  4.5632e+01 -6.0883e-01 +/- 0.0000e+00 0.0000e+00 0.0000e+00 [bar]
-2.9361e+00 -6.0883e-01  4.1903e+01 +/- 0.0000e+00 0.0000e+00 0.0000e+00 [bar]
Ideal-gas pressure:   6.004215e+01 +/ 0.000000e+00 [bar]
Excess pressure:     -1.718545e+01 +/ 0.000000e+00 [bar]
Pressure:             4.285670e+01 +/ 0.000000e+00 [bar]

Total potential energy/kʙ  -2.442626e+04 (-1.274653e+04 +/- 0.000000e+00) [K]
-------------------------------------------------------------------------------
ExternalField-molecule
    Van der Waals/kʙ        0.000000e+00 ( 0.000000e+00 +/- 0.000000e+00) [K]
Framework-molecule
    Van der Waals/kʙ        0.000000e+00 ( 0.000000e+00 +/- 0.000000e+00) [K]
    Van der Waals (Tail)/kʙ 0.000000e+00 ( 0.000000e+00 +/- 0.000000e+00) [K]
    Coulombic Real/kʙ       0.000000e+00 ( 0.000000e+00 +/- 0.000000e+00) [K]
    Coulombic Fourier/kʙ    0.000000e+00 ( 0.000000e+00 +/- 0.000000e+00) [K]
Molecule-molecule
    Van der Waals/kʙ       -1.759534e+04 (-9.481482e+03 +/- 0.000000e+00) [K]
    Van der Waals (Tail)/kʙ-2.858346e+02 (-1.766163e+02 +/- 0.000000e+00) [K]
    Coulombic Real/kʙ      -6.093421e+03 (-2.829163e+03 +/- 0.000000e+00) [K]
    Coulombic Fourier/kʙ   -4.516655e+02 (-2.592702e+02 +/- 0.000000e+00) [K]
    Molecule Intra/kʙ       0.000000e+00 ( 0.000000e+00 +/- 0.000000e+00) [K]

Current cycle: 700 out of 6000
===============================================================================

Box:      34.28832   0.00000   0.00000  Average:  33.98813   0.00000   0.00000
           0.00000  34.28832   0.00000             0.00000  33.98813   0.00000
           0.00000   0.00000  34.28832             0.00000   0.00000  33.98813
Lengths:  34.28832  34.28832  34.28832  Average:  33.98813  33.98813  33.98813
Angles:   90.00000  90.00000  90.00000  Average:  90.00000  90.00000  90.00000
Rectangular boundary conditions

net charge:   0.00000000

component 0 (CO2) lambda:  0 occupancy:  1 (1.000000)
    net charge:   0.00000000 [e]

Amount of molecules per component :
-------------------------------------------------------------------------------
Component 0 (CO2)
    molecules:      8.300000e+01 molecules  (6.409130e+01 +/- 0.000000e+00)
    number density: 2.058920e-03 molec./A^3 (1.626131e-03 +/- 0.000000e+00)
    density:        1.504282e+02 kg/m^3     (1.188079e+02 +/- 0.000000e+00)

Average pressure tensor: 
-------------------------------------------------------------------------------
 4.3190e+01 -1.8230e-01 -4.0438e+00 +/- 0.0000e+00 0.0000e+00 0.0000e+00 [bar]
-1.8230e-01  4.5303e+01 -1.4447e+00 +/- 0.0000e+00 0.0000e+00 0.0000e+00 [bar]
-4.0438e+00 -1.4447e+00  4.2853e+01 +/- 0.0000e+00 0.0000e+00 0.0000e+00 [bar]
Ideal-gas pressure:   6.286333e+01 +/ 0.000000e+00 [bar]
Excess pressure:     -1.908116e+01 +/ 0.000000e+00 [bar]
Pressure:             4.378216e+01 +/ 0.000000e+00 [bar]

Total potential energy/kʙ  -1.889164e+04 (-1.440474e+04 +/- 0.000000e+00) [K]
-------------------------------------------------------------------------------
ExternalField-molecule
    Van der Waals/kʙ        0.000000e+00 ( 0.000000e+00 +/- 0.000000e+00) [K]
Framework-molecule
    Van der Waals/kʙ        0.000000e+00 ( 0.000000e+00 +/- 0.000000e+00) [K]
    Van der Waals (Tail)/kʙ 0.000000e+00 ( 0.000000e+00 +/- 0.000000e+00) [K]
    Coulombic Real/kʙ       0.000000e+00 ( 0.000000e+00 +/- 0.000000e+00) [K]
    Coulombic Fourier/kʙ    0.000000e+00 ( 0.000000e+00 +/- 0.000000e+00) [K]
Molecule-molecule
    Van der Waals/kʙ       -1.462068e+04 (-1.067394e+04 +/- 0.000000e+00) [K]
    Van der Waals (Tail)/kʙ-3.173611e+02 (-1.976687e+02 +/- 0.000000e+00) [K]
    Coulombic Real/kʙ      -3.342375e+03 (-3.218781e+03 +/- 0.000000e+00) [K]
    Coulombic Fourier/kʙ   -6.112221e+02 (-3.143493e+02 +/- 0.000000e+00) [K]
    Molecule Intra/kʙ       0.000000e+00 ( 0.000000e+00 +/- 0.000000e+00) [K]

Current cycle: 800 out of 6000
===============================================================================

Box:      34.59760   0.00000   0.00000  Average:  34.05225   0.00000   0.00000
           0.00000  34.59760   0.00000             0.00000  34.05225   0.00000
           0.00000   0.00000  34.59760             0.00000   0.00000  34.05225
Lengths:  34.59760  34.59760  34.59760  Average:  34.05225  34.05225  34.05225
Angles:   90.00000  90.00000  90.00000  Average:  90.00000  90.00000  90.00000
Rectangular boundary conditions

net charge:   0.00000000

component 0 (CO2) lambda:  0 occupancy:  1 (1.000000)
    net charge:   0.00000000 [e]

Amount of molecules per component :
-------------------------------------------------------------------------------
Component 0 (CO2)
    molecules:      7.700000e+01 molecules  (6.626592e+01 +/- 0.000000e+00)
    number density: 1.859315e-03 molec./A^3 (1.670909e-03 +/- 0.000000e+00)
    density:        1.358447e+02 kg/m^3     (1.220795e+02 +/- 0.000000e+00)

Average pressure tensor: 
-------------------------------------------------------------------------------
 4.4851e+01 -6.0035e-01 -3.4561e+00 +/- 0.0000e+00 0.0000e+00 0.0000e+00 [bar]
-6.0035e-01  4.5783e+01 -1.3581e+00 +/- 0.0000e+00 0.0000e+00 0.0000e+00 [bar]
-3.4561e+00 -1.3581e+00  4.3100e+01 +/- 0.0000e+00 0.0000e+00 0.0000e+00 [bar]
Ideal-gas pressure:   6.459434e+01 +/ 0.000000e+00 [bar]
Excess pressure:     -2.001623e+01 +/ 0.000000e+00 [bar]
Pressure:             4.457811e+01 +/ 0.000000e+00 [bar]

Total potential energy/kʙ  -1.934089e+04 (-1.529534e+04 +/- 0.000000e+00) [K]
-------------------------------------------------------------------------------
ExternalField-molecule
    Van der Waals/kʙ        0.000000e+00 ( 0.000000e+00 +/- 0.000000e+00) [K]
Framework-molecule
    Van der Waals/kʙ        0.000000e+00 ( 0.000000e+00 +/- 0.000000e+00) [K]
    Van der Waals (Tail)/kʙ 0.000000e+00 ( 0.000000e+00 +/- 0.000000e+00) [K]
    Coulombic Real/kʙ       0.000000e+00 ( 0.000000e+00 +/- 0.000000e+00) [K]
    Coulombic Fourier/kʙ    0.000000e+00 ( 0.000000e+00 +/- 0.000000e+00) [K]
Molecule-molecule
    Van der Waals/kʙ       -1.217763e+04 (-1.125363e+04 +/- 0.000000e+00) [K]
    Van der Waals (Tail)/kʙ-2.658765e+02 (-2.097883e+02 +/- 0.000000e+00) [K]
    Coulombic Real/kʙ      -6.659591e+03 (-3.502756e+03 +/- 0.000000e+00) [K]
    Coulombic Fourier/kʙ   -2.377921e+02 (-3.291659e+02 +/- 0.000000e+00) [K]
    Molecule Intra/kʙ       0.000000e+00 ( 0.000000e+00 +/- 0.000000e+00) [K]

Current cycle: 900 out of 6000
===============================================================================

Box:      34.20835   0.00000   0.00000  Average:  34.09472   0.00000   0.00000
           0.00000  34.20835   0.00000             0.00000  34.09472   0.00000
           0.00000   0.00000  34.20835             0.00000   0.00000  34.09472
Lengths:  34.20835  34.20835  34.20835  Average:  34.09472  34.09472  34.09472
Angles:   90.00000  90.00000  90.00000  Average:  90.00000  90.00000  90.00000
Rectangular boundary conditions

net charge:   0.00000000

component 0 (CO2) lambda:  0 occupancy:  1 (1.000000)
    net charge:   0.00000000 [e]

Amount of molecules per component :
-------------------------------------------------------------------------------
Component 0 (CO2)
    molecules:      8.300000e+01 molecules  (6.761487e+01 +/- 0.000000e+00)
    number density: 2.073394e-03 molec./A^3 (1.698574e-03 +/- 0.000000e+00)
    density:        1.514857e+02 kg/m^3     (1.241007e+02 +/- 0.000000e+00)

Average pressure tensor: 
-------------------------------------------------------------------------------
 4.4880e+01 -3.4441e-01 -2.9564e+00 +/- 0.0000e+00 0.0000e+00 0.0000e+00 [bar]
-3.4441e-01  4.5313e+01 -1.4766e+00 +/- 0.0000e+00 0.0000e+00 0.0000e+00 [bar]
-2.9564e+00 -1.4766e+00  4.3521e+01 +/- 0.0000e+00 0.0000e+00 0.0000e+00 [bar]
Ideal-gas pressure:   6.566382e+01 +/ 0.000000e+00 [bar]
Excess pressure:     -2.109225e+01 +/ 0.000000e+00 [bar]
Pressure:             4.457157e+01 +/ 0.000000e+00 [bar]

Total potential energy/kʙ  -2.109197e+04 (-1.570191e+04 +/- 0.000000e+00) [K]
-------------------------------------------------------------------------------
ExternalField-molecule
    Van der Waals/kʙ        0.000000e+00 ( 0.000000e+00 +/- 0.000000e+00) [K]
Framework-molecule
    Van der Waals/kʙ        0.000000e+00 ( 0.000000e+00 +/- 0.000000e+00) [K]
    Van der Waals (Tail)/kʙ 0.000000e+00 ( 0.000000e+00 +/- 0.000000e+00) [K]
    Coulombic Real/kʙ       0.000000e+00 ( 0.000000e+00 +/- 0.000000e+00) [K]
    Coulombic Fourier/kʙ    0.000000e+00 ( 0.000000e+00 +/- 0.000000e+00) [K]
Molecule-molecule
    Van der Waals/kʙ       -1.691041e+04 (-1.161542e+04 +/- 0.000000e+00) [K]
    Van der Waals (Tail)/kʙ-3.195921e+02 (-2.169782e+02 +/- 0.000000e+00) [K]
    Coulombic Real/kʙ      -3.616811e+03 (-3.538782e+03 +/- 0.000000e+00) [K]
    Coulombic Fourier/kʙ   -2.451600e+02 (-3.307223e+02 +/- 0.000000e+00) [K]
    Molecule Intra/kʙ       0.000000e+00 ( 0.000000e+00 +/- 0.000000e+00) [K]

Current cycle: 1000 out of 6000
===============================================================================

Box:      34.33460   0.00000   0.00000  Average:  34.11770   0.00000   0.00000
           0.00000  34.33460   0.00000             0.00000  34.11770   0.00000
           0.00000   0.00000  34.33460             0.00000   0.00000  34.11770
Lengths:  34.33460  34.33460  34.33460  Average:  34.11770  34.11770  34.11770
Angles:   90.00000  90.00000  90.00000  Average:  90.00000  90.00000  90.00000
Rectangular boundary conditions

net charge:   0.00000000

component 0 (CO2) lambda:  0 occupancy:  1 (1.000000)
    net charge:   0.00000000 [e]

Amount of molecules per component :
-------------------------------------------------------------------------------
Component 0 (CO2)
    molecules:      6.900000e+01 molecules  (6.758641e+01 +/- 0.000000e+00)
    number density: 1.704720e-03 molec./A^3 (1.695196e-03 +/- 0.000000e+00)
    density:        1.245498e+02 kg/m^3     (1.238540e+02 +/- 0.000000e+00)

Average pressure tensor: 
-------------------------------------------------------------------------------
 4.4318e+01  4.0878e-01 -2.9455e+00 +/- 0.0000e+00 0.0000e+00 0.0000e+00 [bar]
 4.0878e-01  4.6161e+01 -9.9895e-01 +/- 0.0000e+00 0.0000e+00 0.0000e+00 [bar]
-2.9455e+00 -9.9895e-01  4.3491e+01 +/- 0.0000e+00 0.0000e+00 0.0000e+00 [bar]
Ideal-gas pressure:   6.553326e+01 +/ 0.000000e+00 [bar]
Excess pressure:     -2.087639e+01 +/ 0.000000e+00 [bar]
Pressure:             4.465687e+01 +/ 0.000000e+00 [bar]

Total potential energy/kʙ  -1.768624e+04 (-1.557456e+04 +/- 0.000000e+00) [K]
-------------------------------------------------------------------------------
ExternalField-molecule
    Van der Waals/kʙ        0.000000e+00 ( 0.000000e+00 +/- 0.000000e+00) [K]
Framework-molecule
    Van der Waals/kʙ        0.000000e+00 ( 0.000000e+00 +/- 0.000000e+00) [K]
    Van der Waals (Tail)/kʙ 0.000000e+00 ( 0.000000e+00 +/- 0.000000e+00) [K]
    Coulombic Real/kʙ       0.000000e+00 ( 0.000000e+00 +/- 0.000000e+00) [K]
    Coulombic Fourier/kʙ    0.000000e+00 ( 0.000000e+00 +/- 0.000000e+00) [K]
Molecule-molecule
    Van der Waals/kʙ       -1.195438e+04 (-1.153126e+04 +/- 0.000000e+00) [K]
    Van der Waals (Tail)/kʙ-2.184432e+02 (-2.162569e+02 +/- 0.000000e+00) [K]
    Coulombic Real/kʙ      -4.968223e+03 (-3.498205e+03 +/- 0.000000e+00) [K]
    Coulombic Fourier/kʙ   -5.452013e+02 (-3.288384e+02 +/- 0.000000e+00) [K]
    Molecule Intra/kʙ       0.000000e+00 ( 0.000000e+00 +/- 0.000000e+00) [K]

Current cycle: 1100 out of 6000
===============================================================================

Box:      34.25076   0.00000   0.00000  Average:  34.13840   0.00000   0.00000
           0.00000  34.25076   0.00000             0.00000  34.13840   0.00000
           0.00000   0.00000  34.25076             0.00000   0.00000  34.13840
Lengths:  34.25076  34.25076  34.25076  Average:  34.13840  34.13840  34.13840
Angles:   90.00000  90.00000  90.00000  Average:  90.00000  90.00000  90.00000
Rectangular boundary conditions

net charge:   0.00000000

component 0 (CO2) lambda:  0 occupancy:  1 (1.000000)
    net charge:   0.00000000 [e]

Amount of molecules per component :
-------------------------------------------------------------------------------
Component 0 (CO2)
    molecules:      6.800000e+01 molecules  (6.748774e+01 +/- 0.000000e+00)
    number density: 1.692382e-03 molec./A^3 (1.690263e-03 +/- 0.000000e+00)
    density:        1.236483e+02 kg/m^3     (1.234935e+02 +/- 0.000000e+00)

Average pressure tensor: 
-------------------------------------------------------------------------------
 4.5389e+01 -5.3093e-01 -2.5062e+00 +/- 0.0000e+00 0.0000e+00 0.0000e+00 [bar]
-5.3093e-01  4.7209e+01 -1.4423e+00 +/- 0.0000e+00 0.0000e+00 0.0000e+00 [bar]
-2.5062e+00 -1.4423e+00  4.5269e+01 +/- 0.0000e+00 0.0000e+00 0.0000e+00 [bar]
Ideal-gas pressure:   6.534252e+01 +/ 0.000000e+00 [bar]
Excess pressure:     -1.938669e+01 +/ 0.000000e+00 [bar]
Pressure:             4.595584e+01 +/ 0.000000e+00 [bar]

Total potential energy/kʙ  -1.773572e+04 (-1.549800e+04 +/- 0.000000e+00) [K]
-------------------------------------------------------------------------------
ExternalField-molecule
    Van der Waals/kʙ        0.000000e+00 ( 0.000000e+00 +/- 0.000000e+00) [K]
Framework-molecule
    Van der Waals/kʙ        0.000000e+00 ( 0.000000e+00 +/- 0.000000e+00) [K]
    Van der Waals (Tail)/kʙ 0.000000e+00 ( 0.000000e+00 +/- 0.000000e+00) [K]
    Coulombic Real/kʙ       0.000000e+00 ( 0.000000e+00 +/- 0.000000e+00) [K]
    Coulombic Fourier/kʙ    0.000000e+00 ( 0.000000e+00 +/- 0.000000e+00) [K]
Molecule-molecule
    Van der Waals/kʙ       -1.373451e+04 (-1.148504e+04 +/- 0.000000e+00) [K]
    Van der Waals (Tail)/kʙ-2.137192e+02 (-2.154667e+02 +/- 0.000000e+00) [K]
    Coulombic Real/kʙ      -3.511514e+03 (-3.466453e+03 +/- 0.000000e+00) [K]
    Coulombic Fourier/kʙ   -2.759722e+02 (-3.310397e+02 +/- 0.000000e+00) [K]
    Molecule Intra/kʙ       0.000000e+00 ( 0.000000e+00 +/- 0.000000e+00) [K]

Current cycle: 1200 out of 6000
===============================================================================

Box:      33.96630   0.00000   0.00000  Average:  34.13073   0.00000   0.00000
           0.00000  33.96630   0.00000             0.00000  34.13073   0.00000
           0.00000   0.00000  33.96630             0.00000   0.00000  34.13073
Lengths:  33.96630  33.96630  33.96630  Average:  34.13073  34.13073  34.13073
Angles:   90.00000  90.00000  90.00000  Average:  90.00000  90.00000  90.00000
Rectangular boundary conditions

net charge:   0.00000000

component 0 (CO2) lambda:  0 occupancy:  1 (1.000000)
    net charge:   0.00000000 [e]

Amount of molecules per component :
-------------------------------------------------------------------------------
Component 0 (CO2)
    molecules:      6.500000e+01 molecules  (6.749709e+01 +/- 0.000000e+00)
    number density: 1.658703e-03 molec./A^3 (1.692152e-03 +/- 0.000000e+00)
    density:        1.211877e+02 kg/m^3     (1.236315e+02 +/- 0.000000e+00)

Average pressure tensor: 
-------------------------------------------------------------------------------
 4.5593e+01  2.6804e-02 -1.2982e+00 +/- 0.0000e+00 0.0000e+00 0.0000e+00 [bar]
 2.6804e-02  4.7779e+01 -8.7042e-01 +/- 0.0000e+00 0.0000e+00 0.0000e+00 [bar]
-1.2982e+00 -8.7042e-01  4.4387e+01 +/- 0.0000e+00 0.0000e+00 0.0000e+00 [bar]
Ideal-gas pressure:   6.541556e+01 +/ 0.000000e+00 [bar]
Excess pressure:     -1.949607e+01 +/ 0.000000e+00 [bar]
Pressure:             4.591950e+01 +/ 0.000000e+00 [bar]

Total potential energy/kʙ  -1.577210e+04 (-1.550407e+04 +/- 0.000000e+00) [K]
-------------------------------------------------------------------------------
ExternalField-molecule
    Van der Waals/kʙ        0.000000e+00 ( 0.000000e+00 +/- 0.000000e+00) [K]
Framework-molecule
    Van der Waals/kʙ        0.000000e+00 ( 0.000000e+00 +/- 0.000000e+00) [K]
    Van der Waals (Tail)/kʙ 0.000000e+00 ( 0.000000e+00 +/- 0.000000e+00) [K]
    Coulombic Real/kʙ       0.000000e+00 ( 0.000000e+00 +/- 0.000000e+00) [K]
    Coulombic Fourier/kʙ    0.000000e+00 ( 0.000000e+00 +/- 0.000000e+00) [K]
Molecule-molecule
    Van der Waals/kʙ       -1.057114e+04 (-1.147495e+04 +/- 0.000000e+00) [K]
    Van der Waals (Tail)/kʙ-2.002249e+02 (-2.145828e+02 +/- 0.000000e+00) [K]
    Coulombic Real/kʙ      -4.533121e+03 (-3.488006e+03 +/- 0.000000e+00) [K]
    Coulombic Fourier/kʙ   -4.676072e+02 (-3.265298e+02 +/- 0.000000e+00) [K]
    Molecule Intra/kʙ       0.000000e+00 ( 0.000000e+00 +/- 0.000000e+00) [K]

Current cycle: 1300 out of 6000
===============================================================================

Box:      34.09453   0.00000   0.00000  Average:  34.12574   0.00000   0.00000
           0.00000  34.09453   0.00000             0.00000  34.12574   0.00000
           0.00000   0.00000  34.09453             0.00000   0.00000  34.12574
Lengths:  34.09453  34.09453  34.09453  Average:  34.12574  34.12574  34.12574
Angles:   90.00000  90.00000  90.00000  Average:  90.00000  90.00000  90.00000
Rectangular boundary conditions

net charge:   0.00000000

component 0 (CO2) lambda:  0 occupancy:  1 (1.000000)
    net charge:   0.00000000 [e]

Amount of molecules per component :
-------------------------------------------------------------------------------
Component 0 (CO2)
    molecules:      6.700000e+01 molecules  (6.719139e+01 +/- 0.000000e+00)
    number density: 1.690522e-03 molec./A^3 (1.685566e-03 +/- 0.000000e+00)
    density:        1.235124e+02 kg/m^3     (1.231504e+02 +/- 0.000000e+00)

Average pressure tensor: 
-------------------------------------------------------------------------------
 4.6966e+01 -7.6187e-01 -1.5225e+00 +/- 0.0000e+00 0.0000e+00 0.0000e+00 [bar]
-7.6187e-01  4.8076e+01 -8.9554e-01 +/- 0.0000e+00 0.0000e+00 0.0000e+00 [bar]
-1.5225e+00 -8.9554e-01  4.5097e+01 +/- 0.0000e+00 0.0000e+00 0.0000e+00 [bar]
Ideal-gas pressure:   6.516098e+01 +/ 0.000000e+00 [bar]
Excess pressure:     -1.844802e+01 +/ 0.000000e+00 [bar]
Pressure:             4.671296e+01 +/ 0.000000e+00 [bar]

Total potential energy/kʙ  -1.151668e+04 (-1.536913e+04 +/- 0.000000e+00) [K]
-------------------------------------------------------------------------------
ExternalField-molecule
    Van der Waals/kʙ        0.000000e+00 ( 0.000000e+00 +/- 0.000000e+00) [K]
Framework-molecule
    Van der Waals/kʙ        0.000000e+00 ( 0.000000e+00 +/- 0.000000e+00) [K]
    Van der Waals (Tail)/kʙ 0.000000e+00 ( 0.000000e+00 +/- 0.000000e+00) [K]
    Coulombic Real/kʙ       0.000000e+00 ( 0.000000e+00 +/- 0.000000e+00) [K]
    Coulombic Fourier/kʙ    0.000000e+00 ( 0.000000e+00 +/- 0.000000e+00) [K]
Molecule-molecule
    Van der Waals/kʙ       -9.605413e+03 (-1.138166e+04 +/- 0.000000e+00) [K]
    Van der Waals (Tail)/kʙ-2.103448e+02 (-2.127663e+02 +/- 0.000000e+00) [K]
    Coulombic Real/kʙ      -1.423636e+03 (-3.454650e+03 +/- 0.000000e+00) [K]
    Coulombic Fourier/kʙ   -2.772821e+02 (-3.200489e+02 +/- 0.000000e+00) [K]
    Molecule Intra/kʙ       0.000000e+00 ( 0.000000e+00 +/- 0.000000e+00) [K]

Current cycle: 1400 out of 6000
===============================================================================

Box:      33.87724   0.00000   0.00000  Average:  34.11527   0.00000   0.00000
           0.00000  33.87724   0.00000             0.00000  34.11527   0.00000
           0.00000   0.00000  33.87724             0.00000   0.00000  34.11527
Lengths:  33.87724  33.87724  33.87724  Average:  34.11527  34.11527  34.11527
Angles:   90.00000  90.00000  90.00000  Average:  90.00000  90.00000  90.00000
Rectangular boundary conditions

net charge:   0.00000000

component 0 (CO2) lambda:  0 occupancy:  1 (1.000000)
    net charge:   0.00000000 [e]

Amount of molecules per component :
-------------------------------------------------------------------------------
Component 0 (CO2)
    molecules:      5.600000e+01 molecules  (6.668522e+01 +/- 0.000000e+00)
    number density: 1.440336e-03 molec./A^3 (1.674558e-03 +/- 0.000000e+00)
    density:        1.052334e+02 kg/m^3     (1.223461e+02 +/- 0.000000e+00)

Average pressure tensor: 
-------------------------------------------------------------------------------
 4.6705e+01 -9.6888e-01 -1.8398e+00 +/- 0.0000e+00 0.0000e+00 0.0000e+00 [bar]
-9.6888e-01  4.7343e+01 -9.6004e-01 +/- 0.0000e+00 0.0000e+00 0.0000e+00 [bar]
-1.8398e+00 -9.6004e-01  4.5333e+01 +/- 0.0000e+00 0.0000e+00 0.0000e+00 [bar]
Ideal-gas pressure:   6.473542e+01 +/ 0.000000e+00 [bar]
Excess pressure:     -1.827530e+01 +/ 0.000000e+00 [bar]
Pressure:             4.646012e+01 +/ 0.000000e+00 [bar]

Total potential energy/kʙ  -8.788309e+03 (-1.509983e+04 +/- 0.000000e+00) [K]
-------------------------------------------------------------------------------
ExternalField-molecule
    Van der Waals/kʙ        0.000000e+00 ( 0.000000e+00 +/- 0.000000e+00) [K]
Framework-molecule
    Van der Waals/kʙ        0.000000e+00 ( 0.000000e+00 +/- 0.000000e+00) [K]
    Van der Waals (Tail)/kʙ 0.000000e+00 ( 0.000000e+00 +/- 0.000000e+00) [K]
    Coulombic Real/kʙ       0.000000e+00 ( 0.000000e+00 +/- 0.000000e+00) [K]
    Coulombic Fourier/kʙ    0.000000e+00 ( 0.000000e+00 +/- 0.000000e+00) [K]
Molecule-molecule
    Van der Waals/kʙ       -7.569069e+03 (-1.120129e+04 +/- 0.000000e+00) [K]
    Van der Waals (Tail)/kʙ-1.497918e+02 (-2.096100e+02 +/- 0.000000e+00) [K]
    Coulombic Real/kʙ      -9.786882e+02 (-3.382439e+03 +/- 0.000000e+00) [K]
    Coulombic Fourier/kʙ   -9.076049e+01 (-3.064865e+02 +/- 0.000000e+00) [K]
    Molecule Intra/kʙ       0.000000e+00 ( 0.000000e+00 +/- 0.000000e+00) [K]

Current cycle: 1500 out of 6000
===============================================================================

Box:      34.04143   0.00000   0.00000  Average:  34.10438   0.00000   0.00000
           0.00000  34.04143   0.00000             0.00000  34.10438   0.00000
           0.00000   0.00000  34.04143             0.00000   0.00000  34.10438
Lengths:  34.04143  34.04143  34.04143  Average:  34.10438  34.10438  34.10438
[...]
    number density: 1.266621e-03 molec./A^3 (1.408627e-03 +/- 2.651067e-04)
    density:        9.254149e+01 kg/m^3     (1.029167e+02 +/- 1.936915e+01)

Average pressure tensor: 
-------------------------------------------------------------------------------
 3.9793e+01 -5.1772e-01 -2.2570e-01 +/- 7.3694e+00 2.3033e+00 1.7720e+00 [bar]
-5.1772e-01  3.8872e+01 -2.1557e-01 +/- 2.3033e+00 6.6638e+00 1.0055e+00 [bar]
-2.2570e-01 -2.1557e-01  3.8714e+01 +/- 1.7720e+00 1.0055e+00 5.6104e+00 [bar]
Ideal-gas pressure:   5.445499e+01 +/ 1.024855e+01 [bar]
Excess pressure:     -1.532878e+01 +/ 5.161043e+00 [bar]
Pressure:             3.912621e+01 +/ 6.173601e+00 [bar]

Total potential energy/kʙ  -1.253209e+04 (-1.059861e+04 +/- 4.396395e+03) [K]
-------------------------------------------------------------------------------
ExternalField-molecule
    Van der Waals/kʙ        0.000000e+00 ( 0.000000e+00 +/- 0.000000e+00) [K]
Framework-molecule
    Van der Waals/kʙ        0.000000e+00 ( 0.000000e+00 +/- 0.000000e+00) [K]
    Van der Waals (Tail)/kʙ 0.000000e+00 ( 0.000000e+00 +/- 0.000000e+00) [K]
    Coulombic Real/kʙ       0.000000e+00 ( 0.000000e+00 +/- 0.000000e+00) [K]
    Coulombic Fourier/kʙ    0.000000e+00 ( 0.000000e+00 +/- 0.000000e+00) [K]
Molecule-molecule
    Van der Waals/kʙ       -8.872542e+03 (-7.888881e+03 +/- 3.239320e+03) [K]
    Van der Waals (Tail)/kʙ-1.129078e+02 (-1.477923e+02 +/- 6.035847e+01) [K]
    Coulombic Real/kʙ      -3.239843e+03 (-2.332155e+03 +/- 1.016308e+03) [K]
    Coulombic Fourier/kʙ   -3.067951e+02 (-2.297783e+02 +/- 8.390635e+01) [K]
    Molecule Intra/kʙ       0.000000e+00 ( 0.000000e+00 +/- 0.000000e+00) [K]

Current cycle: 5800 out of 6000
===============================================================================

Box:      33.56731   0.00000   0.00000  Average:  33.59574   0.00000   0.00000
           0.00000  33.56731   0.00000             0.00000  33.59574   0.00000
           0.00000   0.00000  33.56731             0.00000   0.00000  33.59574
Lengths:  33.56731  33.56731  33.56731  Average:  33.59574  33.59574  33.59574
Angles:   90.00000  90.00000  90.00000  Average:  90.00000  90.00000  90.00000
Rectangular boundary conditions

net charge:   0.00000000

component 0 (CO2) lambda:  0 occupancy:  1 (1.000000)
    net charge:   0.00000000 [e]

Amount of molecules per component :
-------------------------------------------------------------------------------
Component 0 (CO2)
    molecules:      4.700000e+01 molecules  (5.383055e+01 +/- 1.282018e+01)
    number density: 1.242648e-03 molec./A^3 (1.407547e-03 +/- 2.554163e-04)
    density:        9.078998e+01 kg/m^3     (1.028378e+02 +/- 1.866115e+01)

Average pressure tensor: 
-------------------------------------------------------------------------------
 3.9760e+01 -5.0195e-01 -1.3928e-01 +/- 7.1742e+00 2.2638e+00 1.8740e+00 [bar]
-5.0195e-01  3.8756e+01 -1.4168e-01 +/- 2.2638e+00 6.7202e+00 1.0157e+00 [bar]
-1.3928e-01 -1.4168e-01  3.8741e+01 +/- 1.8740e+00 1.0157e+00 5.5330e+00 [bar]
Ideal-gas pressure:   5.441325e+01 +/ 9.873937e+00 [bar]
Excess pressure:     -1.532734e+01 +/ 4.841356e+00 [bar]
Pressure:             3.908591e+01 +/ 6.104108e+00 [bar]

Total potential energy/kʙ  -8.881721e+03 (-1.057462e+04 +/- 4.258672e+03) [K]
-------------------------------------------------------------------------------
ExternalField-molecule
    Van der Waals/kʙ        0.000000e+00 ( 0.000000e+00 +/- 0.000000e+00) [K]
Framework-molecule
    Van der Waals/kʙ        0.000000e+00 ( 0.000000e+00 +/- 0.000000e+00) [K]
    Van der Waals (Tail)/kʙ 0.000000e+00 ( 0.000000e+00 +/- 0.000000e+00) [K]
    Coulombic Real/kʙ       0.000000e+00 ( 0.000000e+00 +/- 0.000000e+00) [K]
    Coulombic Fourier/kʙ    0.000000e+00 ( 0.000000e+00 +/- 0.000000e+00) [K]
Molecule-molecule
    Van der Waals/kʙ       -5.889786e+03 (-7.868458e+03 +/- 3.140509e+03) [K]
    Van der Waals (Tail)/kʙ-1.084631e+02 (-1.474204e+02 +/- 5.858636e+01) [K]
    Coulombic Real/kʙ      -2.837809e+03 (-2.329375e+03 +/- 9.824119e+02) [K]
    Coulombic Fourier/kʙ   -4.566240e+01 (-2.293628e+02 +/- 8.106606e+01) [K]
    Molecule Intra/kʙ       0.000000e+00 ( 0.000000e+00 +/- 0.000000e+00) [K]

Current cycle: 5900 out of 6000
===============================================================================

Box:      33.76958   0.00000   0.00000  Average:  33.59703   0.00000   0.00000
           0.00000  33.76958   0.00000             0.00000  33.59703   0.00000
           0.00000   0.00000  33.76958             0.00000   0.00000  33.59703
Lengths:  33.76958  33.76958  33.76958  Average:  33.59703  33.59703  33.59703
Angles:   90.00000  90.00000  90.00000  Average:  90.00000  90.00000  90.00000
Rectangular boundary conditions

net charge:   0.00000000

component 0 (CO2) lambda:  0 occupancy:  1 (1.000000)
    net charge:   0.00000000 [e]

Amount of molecules per component :
-------------------------------------------------------------------------------
Component 0 (CO2)
    molecules:      5.300000e+01 molecules  (5.386917e+01 +/- 1.218395e+01)
    number density: 1.376255e-03 molec./A^3 (1.408600e-03 +/- 2.436341e-04)
    density:        1.005515e+02 kg/m^3     (1.029147e+02 +/- 1.780032e+01)

Average pressure tensor: 
-------------------------------------------------------------------------------
 3.9880e+01 -5.4623e-01 -2.2150e-02 +/- 6.7643e+00 2.2890e+00 2.0309e+00 [bar]
-5.4623e-01  3.8742e+01 -8.6593e-02 +/- 2.2890e+00 6.6474e+00 1.0509e+00 [bar]
-2.2150e-02 -8.6593e-02  3.8885e+01 +/- 2.0309e+00 1.0509e+00 5.3977e+00 [bar]
Ideal-gas pressure:   5.445395e+01 +/ 9.418457e+00 [bar]
Excess pressure:     -1.528487e+01 +/ 4.689983e+00 [bar]
Pressure:             3.916909e+01 +/ 5.887514e+00 [bar]

Total potential energy/kʙ  -9.018798e+03 (-1.058348e+04 +/- 4.087762e+03) [K]
-------------------------------------------------------------------------------
ExternalField-molecule
    Van der Waals/kʙ        0.000000e+00 ( 0.000000e+00 +/- 0.000000e+00) [K]
Framework-molecule
    Van der Waals/kʙ        0.000000e+00 ( 0.000000e+00 +/- 0.000000e+00) [K]
    Van der Waals (Tail)/kʙ 0.000000e+00 ( 0.000000e+00 +/- 0.000000e+00) [K]
    Coulombic Real/kʙ       0.000000e+00 ( 0.000000e+00 +/- 0.000000e+00) [K]
    Coulombic Fourier/kʙ    0.000000e+00 ( 0.000000e+00 +/- 0.000000e+00) [K]
Molecule-molecule
    Van der Waals/kʙ       -7.667768e+03 (-7.880458e+03 +/- 2.999355e+03) [K]
    Van der Waals (Tail)/kʙ-1.354600e+02 (-1.474264e+02 +/- 5.648008e+01) [K]
    Coulombic Real/kʙ      -1.202405e+03 (-2.327212e+03 +/- 9.552002e+02) [K]
    Coulombic Fourier/kʙ   -1.316587e+01 (-2.283846e+02 +/- 8.003279e+01) [K]
    Molecule Intra/kʙ       0.000000e+00 ( 0.000000e+00 +/- 0.000000e+00) [K]


Energy statistics             |  Energy [K]   | Recomputed [K]|  Drift [K]    |
===============================================================================
Total potential energy/kʙ     | -1.098970e+04 | -1.098404e+04 | -5.658684e+00 |
    external field VDW/kʙ     |  0.000000e+00 |  0.000000e+00 |  0.000000e+00 |
    external field Real/kʙ    |  0.000000e+00 |  0.000000e+00 |  0.000000e+00 |
    framework-molecule VDW/kʙ |  0.000000e+00 |  0.000000e+00 |  0.000000e+00 |
    framework-molecule Real/kʙ|  0.000000e+00 |  0.000000e+00 |  0.000000e+00 |
    molecule-molecule VDW/kʙ  | -8.117946e+03 | -8.110354e+03 | -7.591702e+00 |
    molecule-molecule Real/kʙ | -2.372683e+03 | -2.374616e+03 |  1.933018e+00 |
    Van der Waals (Tail)/kʙ   | -1.608293e+02 | -1.608293e+02 |  1.025504e-12 |
    Ewald Fourier/kʙ          |  3.072485e+03 |  3.072485e+03 |  2.187743e-12 |
    Ewald self/kʙ             | -1.065273e+06 | -1.065273e+06 | -1.400155e-10 |
    Ewald exclusion/kʙ        |  1.061863e+06 |  1.061863e+06 | -2.800311e-10 |
    intra VDW/kʙ              |  0.000000e+00 |  0.000000e+00 |  0.000000e+00 |
    intra Coulombic/kʙ        |  0.000000e+00 |  0.000000e+00 |  0.000000e+00 |
    polarization/kʙ           |  0.000000e+00 |  0.000000e+00 |  0.000000e+00 |
    dU/dlambda VDW/kʙ         |  0.000000e+00 |  0.000000e+00 |  0.000000e+00 |
    dU/dlambda Real/kʙ        |  0.000000e+00 |  0.000000e+00 |  0.000000e+00 |
    dU/dlambda Ewald/kʙ       |  0.000000e+00 |  0.000000e+00 |  0.000000e+00 |
-------------------------------------------------------------------------------


Monte-Carlo moves statistics
===============================================================================

    Gibbs volume         all:                3112
    Gibbs volume         total:              6138
    Gibbs volume         constructed:        6138
    Gibbs volume         accepted:           3322
    Gibbs volume         fraction:       0.541219
    Gibbs volume         max-change:     0.070832

Component 0 [CO2]
    Reinsertion (CBMC)   all:              149400
    Reinsertion (CBMC)   total:            149400
    Reinsertion (CBMC)   constructed:      149400
    Reinsertion (CBMC)   accepted:          90302
    Reinsertion (CBMC)   fraction:       0.604431
    Reinsertion (CBMC)   max-change:     0.000000

    Gibbs swap (CBMC)    all:              299318
    Gibbs swap (CBMC)    total:            597066
    Gibbs swap (CBMC)    constructed:      589237
    Gibbs swap (CBMC)    accepted:         102833
    Gibbs swap (CBMC)    fraction:       0.172231
    Gibbs swap (CBMC)    max-change:     0.000000

    Translation          all:              149777
    Translation          total:             49863      49851      50063
    Translation          constructed:       49733      49710      49915
    Translation          accepted:          39053      39129      39241
    Translation          fraction:       0.783206   0.784919   0.783832
    Translation          max-change:     1.500000   1.500000   1.500000

    Rotation             all:              149709
    Rotation             total:             49675      50191      49843
    Rotation             constructed:       49634      50154      49810
    Rotation             accepted:          38785      39235      38959
    Rotation             fraction:       0.780775   0.781714   0.781634
    Rotation             max-change:     1.500000   1.500000   1.500000



Production run counting of the MC moves summed over systems and components
===============================================================================

Reinsertion (CBMC)                   298813 (19.9209 [%])
Gibbs volume                           6138 (0.4092 [%])
Gibbs swap (CBMC)                    597066 (39.8044 [%])
Translation                          299298 (19.9532 [%])
Rotation                             298685 (19.9123 [%])

Production count MC-steps:          1500000 [-]
               All summed:          1500000 [-]
               difference:                0 [-]


Production run CPU timings of the MC moves
===============================================================================

Component 0 CO2

Rotation                              5.799656 [s]
    Ewald                             3.678850 [s]
    ExternalField-Molecule            0.006058 [s]
    Framework-Molecule                0.007836 [s]
    Molecule-Molecule                 1.587593 [s]
    Overhead                          0.519319 [s]

Reinsertion (CBMC)                   19.622540 [s]
    Ewald                             3.718666 [s]
    NonEwald                         15.515784 [s]
    Overhead                          0.388090 [s]

Translation                           5.795666 [s]
    Ewald                             3.680167 [s]
    ExternalField-Molecule            0.006233 [s]
    Framework-Molecule                0.010641 [s]
    Molecule-Molecule                 1.596051 [s]
    Overhead                          0.502574 [s]



Gibbs swap (CBMC)                   132.556894 [s]
    Ewald                            16.277149 [s]
    NonEwald                        114.256548 [s]
    Tail                              0.952163 [s]

Gibbs volume                         15.025352 [s]
    Ewald                             6.683989 [s]
    NonEwald                          7.745073 [s]
    Tail                              0.429694 [s]

Property sampling                     0.706627 [s]
Energy/pressure sampling:             0.662335 [s]


Production run CPU timings of the MC moves summed over systems and components
===============================================================================


Translation                          20.110195 [s]
    Ewald                            10.602375 [s]
    ExternalField-Molecule            0.012474 [s]
    Framework-Molecule                0.021275 [s]
    Molecule-Molecule                 8.345694 [s]
    Overhead                          1.128377 [s]

Rotation                             20.067714 [s]
    Ewald                            10.576344 [s]
    ExternalField-Molecule            0.012498 [s]
    Framework-Molecule                0.015928 [s]
    Molecule-Molecule                 8.279631 [s]
    Overhead                          1.183313 [s]

Reinsertion (CBMC)                   80.220054 [s]
    Ewald                            10.580365 [s]
    NonEwald                         69.018335 [s]
    Overhead                          0.621354 [s]

Gibbs volume                         29.651260 [s]
    Ewald                            13.164656 [s]
    NonEwald                         15.287652 [s]
    Tail                              0.864565 [s]
    Overhead                          0.334387 [s]

Gibbs swap (CBMC)                   224.855800 [s]
    Ewald                            31.998667 [s]
    NonEwald                        188.955263 [s]
    Tail                              1.841598 [s]
    Overhead                          2.060272 [s]

Property sampling:                    1.495310 [s]
Energy/pressure sampling:             6.523706 [s]

Production simulation time:         384.905386 [s]
                All summed:         382.924039 [s]
                  Overhead:           1.981347 [s]


Initalization simulation time:      117.796507 [s]
Equilibration simulation time:        0.000000 [s]
Production simulation time:         384.905386 [s]
Total simulation time:              502.701893 [s]


Energy averages and statistics:
===============================================================================

Framework-molecule energy:
-------------------------------------------------------------------------------



Framework-molecule energy contributions per energy type:
-------------------------------------------------------------------------------



Inter-molecular energy:
-------------------------------------------------------------------------------

    Inter-molecular energy/kʙ 0-0 [CO2-CO2]:
    ---------------------------------------------------------------------------
        Block[  0] -1.550184e+04
        Block[  1] -1.128973e+04
        Block[  2] -1.032622e+04
        Block[  3] -8.884129e+03
        Block[  4] -7.067229e+03
        -----------------------------------------------------------------------
        Average  -1.061383e+04 +/-  3.925975e+03 [K]



Inter-molecular energy contributions per energy type:
-------------------------------------------------------------------------------

    Van der Waals energy/kʙ 0-0 [CO2-CO2]:
    ---------------------------------------------------------------------------
        Block[  0] -1.148248e+04
        Block[  1] -8.351253e+03
        Block[  2] -7.728788e+03
        Block[  3] -6.689128e+03
        Block[  4] -5.256459e+03
        -----------------------------------------------------------------------
        Average  -7.901622e+03 +/-  2.879666e+03 [K]

    VDW Tail-Correction energy/kʙ 0-0 [CO2-CO2]:
    ---------------------------------------------------------------------------
        Block[  0] -2.147025e+02
        Block[  1] -1.589129e+02
        Block[  2] -1.439163e+02
        Block[  3] -1.228987e+02
        Block[  4] -9.890514e+01
        -----------------------------------------------------------------------
        Average  -1.478671e+02 +/-  5.420413e+01 [K]

    Coulomb Real energy/kʙ 0-0 [CO2-CO2]:
    ---------------------------------------------------------------------------
        Block[  0] -3.479296e+03
        Block[  1] -2.543680e+03
        Block[  2] -2.234105e+03
        Block[  3] -1.863545e+03
        Block[  4] -1.557762e+03
        -----------------------------------------------------------------------
        Average  -2.335678e+03 +/-  9.184969e+02 [K]

    Coulomb Fourier energy/kʙ 0-0 [CO2-CO2]:
    ---------------------------------------------------------------------------
        Block[  0] -3.253542e+02
        Block[  1] -2.358819e+02
        Block[  2] -2.194072e+02
        Block[  3] -2.085567e+02
        Block[  4] -1.541035e+02
        -----------------------------------------------------------------------
        Average  -2.286607e+02 +/-  7.715670e+01 [K]


Total energy/kʙ
-------------------------------------------------------------------------------
    Block[  0] -1.550184e+04
    Block[  1] -1.128973e+04
    Block[  2] -1.032622e+04
    Block[  3] -8.884129e+03
    Block[  4] -7.067229e+03
    ---------------------------------------------------------------------------
    Average  -1.061383e+04 +/-  3.925975e+03 [K]

Pressure averages and statistics:
===============================================================================

Average pressure tensor: 
-------------------------------------------------------------------------------
 4.0011e+01 -4.6252e-01  7.3520e-02 +/- 6.4438e+00 2.2105e+00 2.1473e+00 [bar]
-4.6252e-01  3.8814e+01  1.1963e-02 +/- 2.2105e+00 6.5040e+00 1.1521e+00 [bar]
 7.3520e-02  1.1963e-02  3.8892e+01 +/- 2.1473e+00 1.1521e+00 5.3807e+00 [bar]

    Block[  0]  6.541664e+06
    Block[  1]  5.657567e+06
    Block[  2]  5.428309e+06
    Block[  3]  5.005849e+06
    Block[  4]  4.653349e+06
    ---------------------------------------------------------------------------
    Ideal gas pressure   5.457347e+06 +/-  5.374263e-02 [Pa]
                         5.457347e+01 +/-  8.924180e+00 [bar]


    Block[  0] -1.948263e+06
    Block[  1] -1.434779e+06
    Block[  2] -1.782399e+06
    Block[  3] -1.465430e+06
    Block[  4] -1.036485e+06
    ---------------------------------------------------------------------------
    Excess pressure  -1.533471e+06 +/-  4.368924e+05 [Pa]
                     -1.533471e+01 +/-  4.368924e+00 [bar]


    Block[  0]  4.593401e+06
    Block[  1]  4.222788e+06
    Block[  2]  3.645909e+06
    Block[  3]  3.540418e+06
    Block[  4]  3.616863e+06
    ---------------------------------------------------------------------------
    Pressure average   3.923876e+06 +/-  5.743620e+05 [Pa]
                       3.923876e+01 +/-  5.743620e+00 [bar]


Enthalpy of adsorption
===============================================================================

Component 0 [CO2]
-------------------------------------------------------------------------------
    Block[  0] -7.081106e+02
    Block[  1] -6.465966e+02
    Block[  2] -6.284094e+02
    Block[  3] -6.137685e+02
    Block[  4] -5.864484e+02
    ---------------------------------------------------------------------------
    Enthalpy of adsorption: -6.366667e+02 +/-  5.661006e+01 [K]
                            -5.293543e+00 +/-  4.706823e-01 [kJ/mol]
    Warning: need to subtract the ideal-gas energy.


Densities
===============================================================================

Component 0 (CO2)
    Block[  0] 67.49916666666667
    Block[  1] 57.13
    Block[  2] 53.48500000000001
    Block[  3] 49.22416666666667
    Block[  4] 42.63
    -----------------------------------------------------------------------
    Density average   5.399367e+01 +/-  1.151914e+01 [molecules]
    Density average   1.411692e-03 +/-  2.308482e-04 [molec/A^3]
    Density average   1.031406e+02 +/-  1.686617e+01 [kg.m⁻³]

