Compiler and run-time data
===============================================================================
RASPA 3.0.4

Random seed: 1502493595

Compiled as a 64-bits application
Compiler: gcc Ubuntu Clang 18.1.3 (1ubuntu1)
Compile Date = Mar 15 2025, Compile Time = 19:39:45

2025-06-02 13:11:29.172275
Simulation started on Mon, Jun 02
The start time was 13:11:00

Hostname:    c062
OS type:     Linux on x86_64
OS release:  6.8.0-58-generic
OS version:  #60-Ubuntu SMP PREEMPT_DYNAMIC Fri Mar 14 18:29:48 UTC 2025


Mutual consistent basic set of units:
===============================================================================

Unit of temperature: 1 [K]
Unit of length:      1e-10 [m]
Unit of time:        1e-12 [s]
Unit of mass:        1.6605402e-27 [kg]
Unit of charge:      1.60217733e-19 [C/particle]


Boltzmann constant (internal units):          0.8314464919307584 [-]
represents conversion from energy (internal units) to temperature (in Kelvin)

Derived units and their conversion factors:
===============================================================================

Unit of energy:                           1.6605402000000002e-23 [J]
Unit of energy:                           10.000008872307538 [J.mol⁻¹]
Unit of velocity:                         100 [m.s⁻¹]
Unit of force:                            1.6605402000000002e-13 [N]
Unit of diffusion:                        1.0000000000000002e-08 [m².s⁻¹]
Unit of acceleration:                     1.0000000000000002e-08 [m².s⁻¹]
Unit of torque:                           1.6605402000000002e-23 [N.m]
Unit of pressure:                         16605402 [Pa]
Unit of volume:                           1e-30 [m³]
Unit of density:                          1660.5402 [kg.m⁻³]
Unit of dynamic viscosity:                1.6605401999999997e-05 [N.s.m⁻²]
Unit of enthalpy:                         1.6605402000000002e-23 [J]
Unit of polarizability:                   1.5458657349975198e-35 [-]
Unit of Coulomb potential:                167101.08000665612 [K]
Unit of dielectric constant:              1.5458657349975193e-05 [s².C².kg⁻¹.m⁻³]
Unit of dipole moment:                    1.60217733e-29 [C.m]
Unit of Debye:                            4.803206799099162 [C.m]
Unit of electric potential:               0.00010364272224473431 [V]
Unit of electric field:                   1036427.222447343 [V.m⁻¹]
Unit of isothermal compressibility:       6.02213665167516e-08 [Pa⁻¹]
Unit of heat capacity:                    10.000008872307538 [J.mol⁻¹.K⁻¹]
Unit of volumetric expansion coefficient: 1 [K⁻¹]


Internal conversion factors:
===============================================================================

Energy (internal units) to Kelvin:      1.202724284692786 [-]
Kelvin to energy (internal units):      0.8314457542157567 [-]


System definitions
===============================================================================

Temperature:          250 [K]
Beta:                 0.0048108928702210625 [-]
Pressure:             1.8e+07 [Pa]
Helium void fraction: 1 [-]

Box:      30.00000   0.00000   0.00000
           0.00000  30.00000   0.00000
           0.00000   0.00000  30.00000
Lengths:  30.00000  30.00000  30.00000
Angles:   90.00000  90.00000  90.00000
Rectangular boundary conditions



Property measurement settings
===============================================================================




Pseudo-atoms
===============================================================================

  0 - C_co2    framework-atom: false
  1 - O_co2    framework-atom: false

  0 - C_co2    mass: 12.00000, charge:  0.70000
  1 - O_co2    mass: 15.99940, charge: -0.35000

  0 - C_co2    polarizability:  0.00000
  1 - O_co2    polarizability:  0.00000

  0 - J. J. Potoff et al., AIChE J. 2001, 47, 1676–1682.
  1 - J. J. Potoff et al., AIChE J. 2001, 47, 1676–1682.

Force field status
===============================================================================

Cutoff Framework-Molecule VDW:  11.00000 [Å]
Cutoff Molecule-Molecule VDW:   11.00000 [Å]
Cutoff Coulomb:                 11.00000 [Å]

Overlap-criteria VDW:           1.000000e+05 [K]

C_co2    - C_co2    Lennard-Jones p₀/kʙ:  27.00000 [K], p₁:  2.80000 [Å]
                                  shift:   0.00000 [K], tailcorrections: true
C_co2    - O_co2    Lennard-Jones p₀/kʙ:  46.18441 [K], p₁:  2.92500 [Å]
                                  shift:   0.00000 [K], tailcorrections: true
O_co2    - O_co2    Lennard-Jones p₀/kʙ:  79.00000 [K], p₁:  3.05000 [Å]
                                  shift:   0.00000 [K], tailcorrections: true

Ewald precision: 1e-06
Ewald alpha: 0.2903408740940883
Ewald k-vectors: 9 9 9


Component definitions
===============================================================================

Component 0 [CO2]

    Type: Adsorbate

    Critical temperature:  304.1282 [K]
    Critical pressure:     7377300 [Pa]
    Acentric factor:       0.22394 [-]

    Mol-fraction:                 1 [-]
    Swappable:                   false

    Mass:                         43.9988 [-]
    Bulk fluid density:           0 [-]
    Compressibility:              0 [-]
    Excess molecules:             0 [-]

    Number Of Atoms:    3
    CBMC starting bead: 0
      0: O_co2  position  0.00000 -0.00000  1.16000, charge -0.35000
      1: C_co2  position  0.00000 -0.00000  0.00000, charge  0.70000
      2: O_co2  position  0.00000 -0.00000 -1.16000, charge -0.35000
    Diagonalized inertia-vector:      43.05758528 43.05758528 0.00000000
    Translational degrees of freedom: 3
    Rotational degrees of freedom:    2
    Shape of the molecule is: 'Linear'
    Net-charge:        0.00000000 [e]

    Move probabilities:
    Translation:                   0.331126 [-]
    Random translation:            0.000000 [-]
    Rotation:                      0.331126 [-]
    Random rotation:               0.000000 [-]
    Volume change:                 0.006623 [-]
    Reinsertion (CBMC):            0.331126 [-]
    Identity change (CBMC):        0.000000 [-]
    Swap:                          0.000000 [-]
    Swap (CBMC):                   0.000000 [-]
    Swap (CFCMC):                  0.000000 [-]
    Swap (CB/CFCMC):               0.000000 [-]
    Gibbs volume:                  0.000000 [-]
    Gibbs swap (CBMC):             0.000000 [-]
    Gibbs swap (CFCMC):            0.000000 [-]
    Widom:                         0.000000 [-]
    Widom (CFCMC):                 0.000000 [-]
    Widom (CB/CFCMC):              0.000000 [-]
    Parallel tempering:            0.000000 [-]
    Hybrid MC:                     0.000000 [-]

    number of blocking-pockets: 0

    number of bonds: 0





Number of pseudo-atoms
===============================================================================

Component   0 (CO2)
-------------------------------------------------------------------------------
    index   0 (C_co2): 250 atoms
    index   1 (O_co2): 500 atoms

Total number of pseudo-atoms:
-------------------------------------------------------------------------------
    index   0 (C_co2): 250 atoms
    index   1 (O_co2): 500 atoms




Energy status Recomputed from scratch
===============================================================================

Total potential energy/kʙ       -1.401057e+05 [K]
    external field VDW/kʙ        0.000000e+00 [K]
    external field Real/kʙ       0.000000e+00 [K]
    framework-molecule VDW/kʙ    0.000000e+00 [K]
    framework-molecule Real/kʙ   0.000000e+00 [K]
    molecule-molecule VDW/kʙ    -1.080488e+05 [K]
    molecule-molecule Real/kʙ   -2.354709e+04 [K]
    Van der Waals (Tail)/kʙ     -5.580763e+03 [K]
    Ewald Fourier/kʙ             1.976235e+04 [K]
    Ewald self/kʙ               -5.029674e+06 [K]
    Ewald exclusion/kʙ           5.006983e+06 [K]
    intra VDW/kʙ                 0.000000e+00 [K]
    intra Coulombic/kʙ           0.000000e+00 [K]
    polarization/kʙ              0.000000e+00 [K]
    dU/dlambda VDW/kʙ            0.000000e+00 [K]
    dU/dlambda Real/kʙ           0.000000e+00 [K]
    dU/dlambda Ewald/kʙ          0.000000e+00 [K]





Initialization: Current cycle: 0 out of 1000
===============================================================================

Box:      30.45088   0.00000   0.00000
           0.00000  30.45088   0.00000
           0.00000   0.00000  30.45088
Lengths:  30.45088  30.45088  30.45088
Angles:   90.00000  90.00000  90.00000
Rectangular boundary conditions

net charge:   0.00000000

component   0 (CO2) lambda:  0 occupancy:  1 (1.000000)
    net charge:   0.00000000 [e]

Amount of molecules per component :
-------------------------------------------------------------------------------
Component 0 (CO2)
    molecules:         2.500000e+02 molecules
    number density:    8.854015e-03 molec/A^3
    density:           6.468895e+02 kg/m^3

Total potential energy/kʙ       -1.646714e+05 [K]
-------------------------------------------------------------------------------
    external field VDW/kʙ        0.000000e+00 [K]
    external field Real/kʙ       0.000000e+00 [K]
    framework-molecule VDW/kʙ    0.000000e+00 [K]
    framework-molecule Real/kʙ   0.000000e+00 [K]
    molecule-molecule VDW/kʙ    -1.282889e+05 [K]
    molecule-molecule Real/kʙ   -2.744393e+04 [K]
    Van der Waals (Tail)/kʙ     -5.336513e+03 [K]
    Ewald Fourier/kʙ             1.908935e+04 [K]
    Ewald self/kʙ               -5.029674e+06 [K]
    Ewald exclusion/kʙ           5.006983e+06 [K]
    intra VDW/kʙ                 0.000000e+00 [K]
    intra Coulombic/kʙ           0.000000e+00 [K]
    polarization/kʙ              0.000000e+00 [K]
    dU/dlambda VDW/kʙ            0.000000e+00 [K]
    dU/dlambda Real/kʙ           0.000000e+00 [K]
    dU/dlambda Ewald/kʙ          0.000000e+00 [K]


Initialization: Current cycle: 100 out of 1000
===============================================================================

Box:      27.40067   0.00000   0.00000
           0.00000  27.40067   0.00000
           0.00000   0.00000  27.40067
Lengths:  27.40067  27.40067  27.40067
Angles:   90.00000  90.00000  90.00000
Rectangular boundary conditions

net charge:   0.00000000

component   0 (CO2) lambda:  0 occupancy:  1 (1.000000)
    net charge:   0.00000000 [e]

Amount of molecules per component :
-------------------------------------------------------------------------------
Component 0 (CO2)
    molecules:         2.500000e+02 molecules
    number density:    1.215224e-02 molec/A^3
    density:           8.878633e+02 kg/m^3

Total potential energy/kʙ       -3.014651e+05 [K]
-------------------------------------------------------------------------------
    external field VDW/kʙ        0.000000e+00 [K]
    external field Real/kʙ       0.000000e+00 [K]
    framework-molecule VDW/kʙ    0.000000e+00 [K]
    framework-molecule Real/kʙ   0.000000e+00 [K]
    molecule-molecule VDW/kʙ    -2.258485e+05 [K]
    molecule-molecule Real/kʙ   -5.898095e+04 [K]
    Van der Waals (Tail)/kʙ     -7.324426e+03 [K]
    Ewald Fourier/kʙ             1.338018e+04 [K]
    Ewald self/kʙ               -5.029674e+06 [K]
    Ewald exclusion/kʙ           5.006983e+06 [K]
    intra VDW/kʙ                 0.000000e+00 [K]
    intra Coulombic/kʙ           0.000000e+00 [K]
    polarization/kʙ              0.000000e+00 [K]
    dU/dlambda VDW/kʙ            0.000000e+00 [K]
    dU/dlambda Real/kʙ           0.000000e+00 [K]
    dU/dlambda Ewald/kʙ          0.000000e+00 [K]


Initialization: Current cycle: 200 out of 1000
===============================================================================

Box:      26.26325   0.00000   0.00000
           0.00000  26.26325   0.00000
           0.00000   0.00000  26.26325
Lengths:  26.26325  26.26325  26.26325
Angles:   90.00000  90.00000  90.00000
Rectangular boundary conditions

net charge:   0.00000000

component   0 (CO2) lambda:  0 occupancy:  1 (1.000000)
    net charge:   0.00000000 [e]

Amount of molecules per component :
-------------------------------------------------------------------------------
Component 0 (CO2)
    molecules:         2.500000e+02 molecules
    number density:    1.380049e-02 molec/A^3
    density:           1.008287e+03 kg/m^3

Total potential energy/kʙ       -3.463645e+05 [K]
-------------------------------------------------------------------------------
    external field VDW/kʙ        0.000000e+00 [K]
    external field Real/kʙ       0.000000e+00 [K]
    framework-molecule VDW/kʙ    0.000000e+00 [K]
    framework-molecule Real/kʙ   0.000000e+00 [K]
    molecule-molecule VDW/kʙ    -2.508575e+05 [K]
    molecule-molecule Real/kʙ   -7.540156e+04 [K]
    Van der Waals (Tail)/kʙ     -8.317863e+03 [K]
    Ewald Fourier/kʙ             1.090378e+04 [K]
    Ewald self/kʙ               -5.029674e+06 [K]
    Ewald exclusion/kʙ           5.006983e+06 [K]
    intra VDW/kʙ                 0.000000e+00 [K]
    intra Coulombic/kʙ           0.000000e+00 [K]
    polarization/kʙ              0.000000e+00 [K]
    dU/dlambda VDW/kʙ            0.000000e+00 [K]
    dU/dlambda Real/kʙ           0.000000e+00 [K]
    dU/dlambda Ewald/kʙ          0.000000e+00 [K]


Initialization: Current cycle: 300 out of 1000
===============================================================================

Box:      25.79907   0.00000   0.00000
           0.00000  25.79907   0.00000
           0.00000   0.00000  25.79907
Lengths:  25.79907  25.79907  25.79907
Angles:   90.00000  90.00000  90.00000
Rectangular boundary conditions

net charge:   0.00000000

component   0 (CO2) lambda:  0 occupancy:  1 (1.000000)
    net charge:   0.00000000 [e]

Amount of molecules per component :
-------------------------------------------------------------------------------
Component 0 (CO2)
    molecules:         2.500000e+02 molecules
    number density:    1.455888e-02 molec/A^3
    density:           1.063697e+03 kg/m^3

Total potential energy/kʙ       -3.815847e+05 [K]
-------------------------------------------------------------------------------
    external field VDW/kʙ        0.000000e+00 [K]
    external field Real/kʙ       0.000000e+00 [K]
    framework-molecule VDW/kʙ    0.000000e+00 [K]
    framework-molecule Real/kʙ   0.000000e+00 [K]
    molecule-molecule VDW/kʙ    -2.754874e+05 [K]
    molecule-molecule Real/kʙ   -8.509316e+04 [K]
    Van der Waals (Tail)/kʙ     -8.774965e+03 [K]
    Ewald Fourier/kʙ             1.046215e+04 [K]
    Ewald self/kʙ               -5.029674e+06 [K]
    Ewald exclusion/kʙ           5.006983e+06 [K]
    intra VDW/kʙ                 0.000000e+00 [K]
    intra Coulombic/kʙ           0.000000e+00 [K]
    polarization/kʙ              0.000000e+00 [K]
    dU/dlambda VDW/kʙ            0.000000e+00 [K]
    dU/dlambda Real/kʙ           0.000000e+00 [K]
    dU/dlambda Ewald/kʙ          0.000000e+00 [K]


Initialization: Current cycle: 400 out of 1000
===============================================================================

Box:      25.90225   0.00000   0.00000
           0.00000  25.90225   0.00000
           0.00000   0.00000  25.90225
Lengths:  25.90225  25.90225  25.90225
Angles:   90.00000  90.00000  90.00000
Rectangular boundary conditions

net charge:   0.00000000

component   0 (CO2) lambda:  0 occupancy:  1 (1.000000)
    net charge:   0.00000000 [e]

Amount of molecules per component :
-------------------------------------------------------------------------------
Component 0 (CO2)
    molecules:         2.500000e+02 molecules
    number density:    1.438559e-02 molec/A^3
    density:           1.051036e+03 kg/m^3

Total potential energy/kʙ       -3.789578e+05 [K]
-------------------------------------------------------------------------------
    external field VDW/kʙ        0.000000e+00 [K]
    external field Real/kʙ       0.000000e+00 [K]
    framework-molecule VDW/kʙ    0.000000e+00 [K]
    framework-molecule Real/kʙ   0.000000e+00 [K]
    molecule-molecule VDW/kʙ    -2.689718e+05 [K]
    molecule-molecule Real/kʙ   -8.794896e+04 [K]
    Van der Waals (Tail)/kʙ     -8.670516e+03 [K]
    Ewald Fourier/kʙ             9.324792e+03 [K]
    Ewald self/kʙ               -5.029674e+06 [K]
    Ewald exclusion/kʙ           5.006983e+06 [K]
    intra VDW/kʙ                 0.000000e+00 [K]
    intra Coulombic/kʙ           0.000000e+00 [K]
    polarization/kʙ              0.000000e+00 [K]
    dU/dlambda VDW/kʙ            0.000000e+00 [K]
    dU/dlambda Real/kʙ           0.000000e+00 [K]
    dU/dlambda Ewald/kʙ          0.000000e+00 [K]


Initialization: Current cycle: 500 out of 1000
===============================================================================

Box:      25.90201   0.00000   0.00000
           0.00000  25.90201   0.00000
           0.00000   0.00000  25.90201
Lengths:  25.90201  25.90201  25.90201
Angles:   90.00000  90.00000  90.00000
Rectangular boundary conditions

net charge:   0.00000000

component   0 (CO2) lambda:  0 occupancy:  1 (1.000000)
    net charge:   0.00000000 [e]

Amount of molecules per component :
-------------------------------------------------------------------------------
Component 0 (CO2)
    molecules:         2.500000e+02 molecules
    number density:    1.438599e-02 molec/A^3
    density:           1.051065e+03 kg/m^3

Total potential energy/kʙ       -3.751427e+05 [K]
-------------------------------------------------------------------------------
    external field VDW/kʙ        0.000000e+00 [K]
    external field Real/kʙ       0.000000e+00 [K]
    framework-molecule VDW/kʙ    0.000000e+00 [K]
    framework-molecule Real/kʙ   0.000000e+00 [K]
    molecule-molecule VDW/kʙ    -2.734640e+05 [K]
    molecule-molecule Real/kʙ   -8.093139e+04 [K]
    Van der Waals (Tail)/kʙ     -8.670759e+03 [K]
    Ewald Fourier/kʙ             1.061480e+04 [K]
    Ewald self/kʙ               -5.029674e+06 [K]
    Ewald exclusion/kʙ           5.006983e+06 [K]
    intra VDW/kʙ                 0.000000e+00 [K]
    intra Coulombic/kʙ           0.000000e+00 [K]
    polarization/kʙ              0.000000e+00 [K]
    dU/dlambda VDW/kʙ            0.000000e+00 [K]
    dU/dlambda Real/kʙ           0.000000e+00 [K]
    dU/dlambda Ewald/kʙ          0.000000e+00 [K]


Initialization: Current cycle: 600 out of 1000
===============================================================================

Box:      25.74237   0.00000   0.00000
           0.00000  25.74237   0.00000
           0.00000   0.00000  25.74237
Lengths:  25.74237  25.74237  25.74237
Angles:   90.00000  90.00000  90.00000
Rectangular boundary conditions

net charge:   0.00000000

component   0 (CO2) lambda:  0 occupancy:  1 (1.000000)
    net charge:   0.00000000 [e]

Amount of molecules per component :
-------------------------------------------------------------------------------
Component 0 (CO2)
    molecules:         2.500000e+02 molecules
    number density:    1.465529e-02 molec/A^3
    density:           1.070741e+03 kg/m^3

Total potential energy/kʙ       -3.847847e+05 [K]
-------------------------------------------------------------------------------
    external field VDW/kʙ        0.000000e+00 [K]
    external field Real/kʙ       0.000000e+00 [K]
    framework-molecule VDW/kʙ    0.000000e+00 [K]
    framework-molecule Real/kʙ   0.000000e+00 [K]
    molecule-molecule VDW/kʙ    -2.742584e+05 [K]
    molecule-molecule Real/kʙ   -8.974271e+04 [K]
    Van der Waals (Tail)/kʙ     -8.833074e+03 [K]
    Ewald Fourier/kʙ             1.074092e+04 [K]
    Ewald self/kʙ               -5.029674e+06 [K]
    Ewald exclusion/kʙ           5.006983e+06 [K]
    intra VDW/kʙ                 0.000000e+00 [K]
    intra Coulombic/kʙ           0.000000e+00 [K]
    polarization/kʙ              0.000000e+00 [K]
    dU/dlambda VDW/kʙ            0.000000e+00 [K]
    dU/dlambda Real/kʙ           0.000000e+00 [K]
    dU/dlambda Ewald/kʙ          0.000000e+00 [K]


Initialization: Current cycle: 700 out of 1000
===============================================================================

Box:      25.91153   0.00000   0.00000
           0.00000  25.91153   0.00000
           0.00000   0.00000  25.91153
Lengths:  25.91153  25.91153  25.91153
Angles:   90.00000  90.00000  90.00000
Rectangular boundary conditions

net charge:   0.00000000

component   0 (CO2) lambda:  0 occupancy:  1 (1.000000)
    net charge:   0.00000000 [e]

Amount of molecules per component :
-------------------------------------------------------------------------------
Component 0 (CO2)
    molecules:         2.500000e+02 molecules
    number density:    1.437013e-02 molec/A^3
    density:           1.049906e+03 kg/m^3

Total potential energy/kʙ       -3.749473e+05 [K]
-------------------------------------------------------------------------------
    external field VDW/kʙ        0.000000e+00 [K]
    external field Real/kʙ       0.000000e+00 [K]
    framework-molecule VDW/kʙ    0.000000e+00 [K]
    framework-molecule Real/kʙ   0.000000e+00 [K]
    molecule-molecule VDW/kʙ    -2.682905e+05 [K]
    molecule-molecule Real/kʙ   -8.621024e+04 [K]
    Van der Waals (Tail)/kʙ     -8.661197e+03 [K]
    Ewald Fourier/kʙ             1.090601e+04 [K]
    Ewald self/kʙ               -5.029674e+06 [K]
    Ewald exclusion/kʙ           5.006983e+06 [K]
    intra VDW/kʙ                 0.000000e+00 [K]
    intra Coulombic/kʙ           0.000000e+00 [K]
    polarization/kʙ              0.000000e+00 [K]
    dU/dlambda VDW/kʙ            0.000000e+00 [K]
    dU/dlambda Real/kʙ           0.000000e+00 [K]
    dU/dlambda Ewald/kʙ          0.000000e+00 [K]


Initialization: Current cycle: 800 out of 1000
===============================================================================

Box:      25.83790   0.00000   0.00000
           0.00000  25.83790   0.00000
           0.00000   0.00000  25.83790
Lengths:  25.83790  25.83790  25.83790
Angles:   90.00000  90.00000  90.00000
Rectangular boundary conditions

net charge:   0.00000000

component   0 (CO2) lambda:  0 occupancy:  1 (1.000000)
    net charge:   0.00000000 [e]

Amount of molecules per component :
-------------------------------------------------------------------------------
Component 0 (CO2)
    molecules:         2.500000e+02 molecules
    number density:    1.449333e-02 molec/A^3
    density:           1.058908e+03 kg/m^3

Total potential energy/kʙ       -3.692222e+05 [K]
-------------------------------------------------------------------------------
    external field VDW/kʙ        0.000000e+00 [K]
    external field Real/kʙ       0.000000e+00 [K]
    framework-molecule VDW/kʙ    0.000000e+00 [K]
    framework-molecule Real/kʙ   0.000000e+00 [K]
    molecule-molecule VDW/kʙ    -2.707957e+05 [K]
    molecule-molecule Real/kʙ   -7.711403e+04 [K]
    Van der Waals (Tail)/kʙ     -8.735455e+03 [K]
    Ewald Fourier/kʙ             1.011431e+04 [K]
    Ewald self/kʙ               -5.029674e+06 [K]
    Ewald exclusion/kʙ           5.006983e+06 [K]
    intra VDW/kʙ                 0.000000e+00 [K]
    intra Coulombic/kʙ           0.000000e+00 [K]
    polarization/kʙ              0.000000e+00 [K]
    dU/dlambda VDW/kʙ            0.000000e+00 [K]
    dU/dlambda Real/kʙ           0.000000e+00 [K]
    dU/dlambda Ewald/kʙ          0.000000e+00 [K]


Initialization: Current cycle: 900 out of 1000
===============================================================================

Box:      25.78996   0.00000   0.00000
           0.00000  25.78996   0.00000
           0.00000   0.00000  25.78996
Lengths:  25.78996  25.78996  25.78996
Angles:   90.00000  90.00000  90.00000
Rectangular boundary conditions

net charge:   0.00000000

component   0 (CO2) lambda:  0 occupancy:  1 (1.000000)
    net charge:   0.00000000 [e]

Amount of molecules per component :
-------------------------------------------------------------------------------
Component 0 (CO2)
    molecules:         2.500000e+02 molecules
    number density:    1.457431e-02 molec/A^3
    density:           1.064824e+03 kg/m^3

Total potential energy/kʙ       -3.811837e+05 [K]
-------------------------------------------------------------------------------
    external field VDW/kʙ        0.000000e+00 [K]
    external field Real/kʙ       0.000000e+00 [K]
    framework-molecule VDW/kʙ    0.000000e+00 [K]
    framework-molecule Real/kʙ   0.000000e+00 [K]
    molecule-molecule VDW/kʙ    -2.783272e+05 [K]
    molecule-molecule Real/kʙ   -8.140783e+04 [K]
    Van der Waals (Tail)/kʙ     -8.784263e+03 [K]
    Ewald Fourier/kʙ             1.002701e+04 [K]
    Ewald self/kʙ               -5.029674e+06 [K]
    Ewald exclusion/kʙ           5.006983e+06 [K]
    intra VDW/kʙ                 0.000000e+00 [K]
    intra Coulombic/kʙ           0.000000e+00 [K]
    polarization/kʙ              0.000000e+00 [K]
    dU/dlambda VDW/kʙ            0.000000e+00 [K]
    dU/dlambda Real/kʙ           0.000000e+00 [K]
    dU/dlambda Ewald/kʙ          0.000000e+00 [K]


Current cycle: 0 out of 5000
===============================================================================

Box:      25.87813   0.00000   0.00000  Average:  25.87813   0.00000   0.00000
           0.00000  25.87813   0.00000             0.00000  25.87813   0.00000
           0.00000   0.00000  25.87813             0.00000   0.00000  25.87813
Lengths:  25.87813  25.87813  25.87813  Average:  25.87813  25.87813  25.87813
Angles:   90.00000  90.00000  90.00000  Average:  90.00000  90.00000  90.00000
Rectangular boundary conditions

net charge:   0.00000000

component 0 (CO2) lambda:  0 occupancy:  1 (1.000000)
    net charge:   0.00000000 [e]

Amount of molecules per component :
-------------------------------------------------------------------------------
Component 0 (CO2)
    molecules:      2.500000e+02 molecules  (2.500000e+02 +/- 0.000000e+00)
    number density: 1.442585e-02 molec./A^3 (1.442585e-02 +/- 0.000000e+00)
    density:        1.053977e+03 kg/m^3     (1.053977e+03 +/- 0.000000e+00)

Average pressure tensor: 
-------------------------------------------------------------------------------
 4.9793e+02  0.0000e+00  0.0000e+00 +/- 0.0000e+00 0.0000e+00 0.0000e+00 [bar]
 0.0000e+00  4.9793e+02  0.0000e+00 +/- 0.0000e+00 0.0000e+00 0.0000e+00 [bar]
 0.0000e+00  0.0000e+00  4.9793e+02 +/- 0.0000e+00 0.0000e+00 0.0000e+00 [bar]
Ideal-gas pressure:   4.979264e+02 +/ 0.000000e+00 [bar]
Excess pressure:      0.000000e+00 +/ 0.000000e+00 [bar]
Pressure:             4.979264e+02 +/ 0.000000e+00 [bar]

Total potential energy/kʙ  -3.726260e+05 (-3.726260e+05 +/- 0.000000e+00) [K]
-------------------------------------------------------------------------------
ExternalField-molecule
    Van der Waals/kʙ        0.000000e+00 ( 0.000000e+00 +/- 0.000000e+00) [K]
Framework-molecule
    Van der Waals/kʙ        0.000000e+00 ( 0.000000e+00 +/- 0.000000e+00) [K]
    Van der Waals (Tail)/kʙ 0.000000e+00 ( 0.000000e+00 +/- 0.000000e+00) [K]
    Coulombic Real/kʙ       0.000000e+00 ( 0.000000e+00 +/- 0.000000e+00) [K]
    Coulombic Fourier/kʙ    0.000000e+00 ( 0.000000e+00 +/- 0.000000e+00) [K]
Molecule-molecule
    Van der Waals/kʙ       -2.705148e+05 (-2.705148e+05 +/- 0.000000e+00) [K]
    Van der Waals (Tail)/kʙ-8.694782e+03 (-8.694782e+03 +/- 0.000000e+00) [K]
    Coulombic Real/kʙ      -8.112575e+04 (-8.112575e+04 +/- 0.000000e+00) [K]
    Coulombic Fourier/kʙ   -1.229062e+04 (-1.229062e+04 +/- 0.000000e+00) [K]
    Molecule Intra/kʙ       0.000000e+00 ( 0.000000e+00 +/- 0.000000e+00) [K]

Current cycle: 100 out of 5000
===============================================================================

Box:      25.74744   0.00000   0.00000  Average:  25.84560   0.00000   0.00000
           0.00000  25.74744   0.00000             0.00000  25.84560   0.00000
           0.00000   0.00000  25.74744             0.00000   0.00000  25.84560
Lengths:  25.74744  25.74744  25.74744  Average:  25.84560  25.84560  25.84560
Angles:   90.00000  90.00000  90.00000  Average:  90.00000  90.00000  90.00000
Rectangular boundary conditions

net charge:   0.00000000

component 0 (CO2) lambda:  0 occupancy:  1 (1.000000)
    net charge:   0.00000000 [e]

Amount of molecules per component :
-------------------------------------------------------------------------------
Component 0 (CO2)
    molecules:      2.500000e+02 molecules  (2.500000e+02 +/- 0.000000e+00)
    number density: 1.464663e-02 molec./A^3 (1.448145e-02 +/- 0.000000e+00)
    density:        1.070108e+03 kg/m^3     (1.058040e+03 +/- 0.000000e+00)

Average pressure tensor: 
-------------------------------------------------------------------------------
-4.3058e+01  1.2291e+01 -1.7260e+02 +/- 0.0000e+00 0.0000e+00 0.0000e+00 [bar]
 1.2291e+01  1.6641e+02  1.6050e+00 +/- 0.0000e+00 0.0000e+00 0.0000e+00 [bar]
-1.7260e+02  1.6050e+00  4.8579e+02 +/- 0.0000e+00 0.0000e+00 0.0000e+00 [bar]
Ideal-gas pressure:   4.998455e+02 +/ 0.000000e+00 [bar]
Excess pressure:     -2.967999e+02 +/ 0.000000e+00 [bar]
Pressure:             2.030456e+02 +/ 0.000000e+00 [bar]

Total potential energy/kʙ  -3.909308e+05 (-3.779576e+05 +/- 0.000000e+00) [K]
-------------------------------------------------------------------------------
ExternalField-molecule
    Van der Waals/kʙ        0.000000e+00 ( 0.000000e+00 +/- 0.000000e+00) [K]
Framework-molecule
    Van der Waals/kʙ        0.000000e+00 ( 0.000000e+00 +/- 0.000000e+00) [K]
    Van der Waals (Tail)/kʙ 0.000000e+00 ( 0.000000e+00 +/- 0.000000e+00) [K]
    Coulombic Real/kʙ       0.000000e+00 ( 0.000000e+00 +/- 0.000000e+00) [K]
    Coulombic Fourier/kʙ    0.000000e+00 ( 0.000000e+00 +/- 0.000000e+00) [K]
Molecule-molecule
    Van der Waals/kʙ       -2.809404e+05 (-2.724271e+05 +/- 0.000000e+00) [K]
    Van der Waals (Tail)/kʙ-8.827853e+03 (-8.749479e+03 +/- 0.000000e+00) [K]
    Coulombic Real/kʙ      -8.861382e+04 (-8.446235e+04 +/- 0.000000e+00) [K]
    Coulombic Fourier/kʙ   -1.254875e+04 (-1.231869e+04 +/- 0.000000e+00) [K]
    Molecule Intra/kʙ       0.000000e+00 ( 0.000000e+00 +/- 0.000000e+00) [K]

Current cycle: 200 out of 5000
===============================================================================

Box:      25.60361   0.00000   0.00000  Average:  25.73436   0.00000   0.00000
           0.00000  25.60361   0.00000             0.00000  25.73436   0.00000
           0.00000   0.00000  25.60361             0.00000   0.00000  25.73436
Lengths:  25.60361  25.60361  25.60361  Average:  25.73436  25.73436  25.73436
Angles:   90.00000  90.00000  90.00000  Average:  90.00000  90.00000  90.00000
Rectangular boundary conditions

net charge:   0.00000000

component 0 (CO2) lambda:  0 occupancy:  1 (1.000000)
    net charge:   0.00000000 [e]

Amount of molecules per component :
-------------------------------------------------------------------------------
Component 0 (CO2)
    molecules:      2.500000e+02 molecules  (2.500000e+02 +/- 0.000000e+00)
    number density: 1.489487e-02 molec./A^3 (1.467187e-02 +/- 0.000000e+00)
    density:        1.088244e+03 kg/m^3     (1.071952e+03 +/- 0.000000e+00)

Average pressure tensor: 
-------------------------------------------------------------------------------
 8.3542e+01  3.8112e+01 -1.3387e+02 +/- 0.0000e+00 0.0000e+00 0.0000e+00 [bar]
 3.8112e+01  2.0663e+02 -3.2461e-01 +/- 0.0000e+00 0.0000e+00 0.0000e+00 [bar]
-1.3387e+02 -3.2461e-01  3.5739e+02 +/- 0.0000e+00 0.0000e+00 0.0000e+00 [bar]
Ideal-gas pressure:   5.064181e+02 +/ 0.000000e+00 [bar]
Excess pressure:     -2.905613e+02 +/ 0.000000e+00 [bar]
Pressure:             2.158568e+02 +/ 0.000000e+00 [bar]

Total potential energy/kʙ  -3.901745e+05 (-3.829252e+05 +/- 0.000000e+00) [K]
-------------------------------------------------------------------------------
ExternalField-molecule
    Van der Waals/kʙ        0.000000e+00 ( 0.000000e+00 +/- 0.000000e+00) [K]
Framework-molecule
    Van der Waals/kʙ        0.000000e+00 ( 0.000000e+00 +/- 0.000000e+00) [K]
    Van der Waals (Tail)/kʙ 0.000000e+00 ( 0.000000e+00 +/- 0.000000e+00) [K]
    Coulombic Real/kʙ       0.000000e+00 ( 0.000000e+00 +/- 0.000000e+00) [K]
    Coulombic Fourier/kʙ    0.000000e+00 ( 0.000000e+00 +/- 0.000000e+00) [K]
Molecule-molecule
    Van der Waals/kʙ       -2.850045e+05 (-2.769771e+05 +/- 0.000000e+00) [K]
    Van der Waals (Tail)/kʙ-8.977469e+03 (-8.853851e+03 +/- 0.000000e+00) [K]
    Coulombic Real/kʙ      -8.394807e+04 (-8.472546e+04 +/- 0.000000e+00) [K]
    Coulombic Fourier/kʙ   -1.224449e+04 (-1.236880e+04 +/- 0.000000e+00) [K]
    Molecule Intra/kʙ       0.000000e+00 ( 0.000000e+00 +/- 0.000000e+00) [K]

Current cycle: 300 out of 5000
===============================================================================

Box:      25.80195   0.00000   0.00000  Average:  25.71206   0.00000   0.00000
           0.00000  25.80195   0.00000             0.00000  25.71206   0.00000
           0.00000   0.00000  25.80195             0.00000   0.00000  25.71206
Lengths:  25.80195  25.80195  25.80195  Average:  25.71206  25.71206  25.71206
Angles:   90.00000  90.00000  90.00000  Average:  90.00000  90.00000  90.00000
Rectangular boundary conditions

net charge:   0.00000000

component 0 (CO2) lambda:  0 occupancy:  1 (1.000000)
    net charge:   0.00000000 [e]

Amount of molecules per component :
-------------------------------------------------------------------------------
Component 0 (CO2)
    molecules:      2.500000e+02 molecules  (2.500000e+02 +/- 0.000000e+00)
    number density: 1.455399e-02 molec./A^3 (1.470972e-02 +/- 0.000000e+00)
    density:        1.063340e+03 kg/m^3     (1.074718e+03 +/- 0.000000e+00)

Average pressure tensor: 
-------------------------------------------------------------------------------
 1.1796e+02  3.2723e+00 -1.4734e+02 +/- 0.0000e+00 0.0000e+00 0.0000e+00 [bar]
 3.2723e+00  2.0212e+02  5.7268e+01 +/- 0.0000e+00 0.0000e+00 0.0000e+00 [bar]
-1.4734e+02  5.7268e+01  2.8237e+02 +/- 0.0000e+00 0.0000e+00 0.0000e+00 [bar]
Ideal-gas pressure:   5.077247e+02 +/ 0.000000e+00 [bar]
Excess pressure:     -3.069083e+02 +/ 0.000000e+00 [bar]
Pressure:             2.008163e+02 +/ 0.000000e+00 [bar]

Total potential energy/kʙ  -3.903783e+05 (-3.841984e+05 +/- 0.000000e+00) [K]
-------------------------------------------------------------------------------
ExternalField-molecule
    Van der Waals/kʙ        0.000000e+00 ( 0.000000e+00 +/- 0.000000e+00) [K]
Framework-molecule
    Van der Waals/kʙ        0.000000e+00 ( 0.000000e+00 +/- 0.000000e+00) [K]
    Van der Waals (Tail)/kʙ 0.000000e+00 ( 0.000000e+00 +/- 0.000000e+00) [K]
    Coulombic Real/kʙ       0.000000e+00 ( 0.000000e+00 +/- 0.000000e+00) [K]
    Coulombic Fourier/kʙ    0.000000e+00 ( 0.000000e+00 +/- 0.000000e+00) [K]
Molecule-molecule
    Van der Waals/kʙ       -2.801173e+05 (-2.786088e+05 +/- 0.000000e+00) [K]
    Van der Waals (Tail)/kʙ-8.772018e+03 (-8.862953e+03 +/- 0.000000e+00) [K]
    Coulombic Real/kʙ      -8.876826e+04 (-8.430964e+04 +/- 0.000000e+00) [K]
    Coulombic Fourier/kʙ   -1.272073e+04 (-1.241704e+04 +/- 0.000000e+00) [K]
    Molecule Intra/kʙ       0.000000e+00 ( 0.000000e+00 +/- 0.000000e+00) [K]

Current cycle: 400 out of 5000
===============================================================================

Box:      25.72708   0.00000   0.00000  Average:  25.73040   0.00000   0.00000
           0.00000  25.72708   0.00000             0.00000  25.73040   0.00000
           0.00000   0.00000  25.72708             0.00000   0.00000  25.73040
Lengths:  25.72708  25.72708  25.72708  Average:  25.73040  25.73040  25.73040
Angles:   90.00000  90.00000  90.00000  Average:  90.00000  90.00000  90.00000
Rectangular boundary conditions

net charge:   0.00000000

component 0 (CO2) lambda:  0 occupancy:  1 (1.000000)
    net charge:   0.00000000 [e]

Amount of molecules per component :
-------------------------------------------------------------------------------
Component 0 (CO2)
    molecules:      2.500000e+02 molecules  (2.500000e+02 +/- 0.000000e+00)
    number density: 1.468143e-02 molec./A^3 (1.467799e-02 +/- 0.000000e+00)
    density:        1.072650e+03 kg/m^3     (1.072399e+03 +/- 0.000000e+00)

Average pressure tensor: 
-------------------------------------------------------------------------------
 1.3633e+02 -1.9866e+01 -1.4531e+02 +/- 0.0000e+00 0.0000e+00 0.0000e+00 [bar]
-1.9866e+01  1.8144e+02  2.0919e+01 +/- 0.0000e+00 0.0000e+00 0.0000e+00 [bar]
-1.4531e+02  2.0919e+01  2.7209e+02 +/- 0.0000e+00 0.0000e+00 0.0000e+00 [bar]
Ideal-gas pressure:   5.066293e+02 +/ 0.000000e+00 [bar]
Excess pressure:     -3.100086e+02 +/ 0.000000e+00 [bar]
Pressure:             1.966206e+02 +/ 0.000000e+00 [bar]

Total potential energy/kʙ  -3.867862e+05 (-3.844557e+05 +/- 0.000000e+00) [K]
-------------------------------------------------------------------------------
ExternalField-molecule
    Van der Waals/kʙ        0.000000e+00 ( 0.000000e+00 +/- 0.000000e+00) [K]
Framework-molecule
    Van der Waals/kʙ        0.000000e+00 ( 0.000000e+00 +/- 0.000000e+00) [K]
    Van der Waals (Tail)/kʙ 0.000000e+00 ( 0.000000e+00 +/- 0.000000e+00) [K]
    Coulombic Real/kʙ       0.000000e+00 ( 0.000000e+00 +/- 0.000000e+00) [K]
    Coulombic Fourier/kʙ    0.000000e+00 ( 0.000000e+00 +/- 0.000000e+00) [K]
Molecule-molecule
    Van der Waals/kʙ       -2.803927e+05 (-2.781868e+05 +/- 0.000000e+00) [K]
    Van der Waals (Tail)/kʙ-8.848825e+03 (-8.849611e+03 +/- 0.000000e+00) [K]
    Coulombic Real/kʙ      -8.463569e+04 (-8.488775e+04 +/- 0.000000e+00) [K]
    Coulombic Fourier/kʙ   -1.290894e+04 (-1.253155e+04 +/- 0.000000e+00) [K]
    Molecule Intra/kʙ       0.000000e+00 ( 0.000000e+00 +/- 0.000000e+00) [K]

Current cycle: 500 out of 5000
===============================================================================

Box:      25.64214   0.00000   0.00000  Average:  25.71645   0.00000   0.00000
           0.00000  25.64214   0.00000             0.00000  25.71645   0.00000
           0.00000   0.00000  25.64214             0.00000   0.00000  25.71645
Lengths:  25.64214  25.64214  25.64214  Average:  25.71645  25.71645  25.71645
Angles:   90.00000  90.00000  90.00000  Average:  90.00000  90.00000  90.00000
Rectangular boundary conditions

net charge:   0.00000000

component 0 (CO2) lambda:  0 occupancy:  1 (1.000000)
    net charge:   0.00000000 [e]

Amount of molecules per component :
-------------------------------------------------------------------------------
Component 0 (CO2)
    molecules:      2.500000e+02 molecules  (2.500000e+02 +/- 0.000000e+00)
    number density: 1.482781e-02 molec./A^3 (1.470176e-02 +/- 0.000000e+00)
    density:        1.083345e+03 kg/m^3     (1.074136e+03 +/- 0.000000e+00)

Average pressure tensor: 
-------------------------------------------------------------------------------
 1.3702e+02 -2.8274e+01 -1.3139e+02 +/- 0.0000e+00 0.0000e+00 0.0000e+00 [bar]
-2.8274e+01  1.4665e+02  8.8330e+00 +/- 0.0000e+00 0.0000e+00 0.0000e+00 [bar]
-1.3139e+02  8.8330e+00  2.3472e+02 +/- 0.0000e+00 0.0000e+00 0.0000e+00 [bar]
Ideal-gas pressure:   5.074498e+02 +/ 0.000000e+00 [bar]
Excess pressure:     -3.346519e+02 +/ 0.000000e+00 [bar]
Pressure:             1.727978e+02 +/ 0.000000e+00 [bar]

Total potential energy/kʙ  -3.873604e+05 (-3.847614e+05 +/- 0.000000e+00) [K]
-------------------------------------------------------------------------------
ExternalField-molecule
    Van der Waals/kʙ        0.000000e+00 ( 0.000000e+00 +/- 0.000000e+00) [K]
Framework-molecule
    Van der Waals/kʙ        0.000000e+00 ( 0.000000e+00 +/- 0.000000e+00) [K]
    Van der Waals (Tail)/kʙ 0.000000e+00 ( 0.000000e+00 +/- 0.000000e+00) [K]
    Coulombic Real/kʙ       0.000000e+00 ( 0.000000e+00 +/- 0.000000e+00) [K]
    Coulombic Fourier/kʙ    0.000000e+00 ( 0.000000e+00 +/- 0.000000e+00) [K]
Molecule-molecule
    Van der Waals/kʙ       -2.828159e+05 (-2.787830e+05 +/- 0.000000e+00) [K]
    Van der Waals (Tail)/kʙ-8.937055e+03 (-8.859533e+03 +/- 0.000000e+00) [K]
    Coulombic Real/kʙ      -8.306277e+04 (-8.455916e+04 +/- 0.000000e+00) [K]
    Coulombic Fourier/kʙ   -1.254469e+04 (-1.255972e+04 +/- 0.000000e+00) [K]
    Molecule Intra/kʙ       0.000000e+00 ( 0.000000e+00 +/- 0.000000e+00) [K]

Current cycle: 600 out of 5000
===============================================================================

Box:      25.66351   0.00000   0.00000  Average:  25.69563   0.00000   0.00000
           0.00000  25.66351   0.00000             0.00000  25.69563   0.00000
           0.00000   0.00000  25.66351             0.00000   0.00000  25.69563
Lengths:  25.66351  25.66351  25.66351  Average:  25.69563  25.69563  25.69563
Angles:   90.00000  90.00000  90.00000  Average:  90.00000  90.00000  90.00000
Rectangular boundary conditions

net charge:   0.00000000

component 0 (CO2) lambda:  0 occupancy:  1 (1.000000)
    net charge:   0.00000000 [e]

Amount of molecules per component :
-------------------------------------------------------------------------------
Component 0 (CO2)
    molecules:      2.500000e+02 molecules  (2.500000e+02 +/- 0.000000e+00)
    number density: 1.479081e-02 molec./A^3 (1.473771e-02 +/- 0.000000e+00)
    density:        1.080642e+03 kg/m^3     (1.076762e+03 +/- 0.000000e+00)

Average pressure tensor: 
-------------------------------------------------------------------------------
 1.3778e+02 -3.3550e+01 -1.2658e+02 +/- 0.0000e+00 0.0000e+00 0.0000e+00 [bar]
-3.3550e+01  1.5768e+02  1.3233e+01 +/- 0.0000e+00 0.0000e+00 0.0000e+00 [bar]
-1.2658e+02  1.3233e+01  2.2558e+02 +/- 0.0000e+00 0.0000e+00 0.0000e+00 [bar]
Ideal-gas pressure:   5.086906e+02 +/ 0.000000e+00 [bar]
Excess pressure:     -3.350099e+02 +/ 0.000000e+00 [bar]
Pressure:             1.736807e+02 +/ 0.000000e+00 [bar]

Total potential energy/kʙ  -3.915195e+05 (-3.860895e+05 +/- 0.000000e+00) [K]
-------------------------------------------------------------------------------
ExternalField-molecule
    Van der Waals/kʙ        0.000000e+00 ( 0.000000e+00 +/- 0.000000e+00) [K]
Framework-molecule
    Van der Waals/kʙ        0.000000e+00 ( 0.000000e+00 +/- 0.000000e+00) [K]
    Van der Waals (Tail)/kʙ 0.000000e+00 ( 0.000000e+00 +/- 0.000000e+00) [K]
    Coulombic Real/kʙ       0.000000e+00 ( 0.000000e+00 +/- 0.000000e+00) [K]
    Coulombic Fourier/kʙ    0.000000e+00 ( 0.000000e+00 +/- 0.000000e+00) [K]
Molecule-molecule
    Van der Waals/kʙ       -2.811562e+05 (-2.793531e+05 +/- 0.000000e+00) [K]
    Van der Waals (Tail)/kʙ-8.914755e+03 (-8.884942e+03 +/- 0.000000e+00) [K]
    Coulombic Real/kʙ      -8.842763e+04 (-8.520270e+04 +/- 0.000000e+00) [K]
    Coulombic Fourier/kʙ   -1.302087e+04 (-1.264874e+04 +/- 0.000000e+00) [K]
    Molecule Intra/kʙ       0.000000e+00 ( 0.000000e+00 +/- 0.000000e+00) [K]

Current cycle: 700 out of 5000
===============================================================================

Box:      25.70106   0.00000   0.00000  Average:  25.69373   0.00000   0.00000
           0.00000  25.70106   0.00000             0.00000  25.69373   0.00000
           0.00000   0.00000  25.70106             0.00000   0.00000  25.69373
Lengths:  25.70106  25.70106  25.70106  Average:  25.69373  25.69373  25.69373
Angles:   90.00000  90.00000  90.00000  Average:  90.00000  90.00000  90.00000
Rectangular boundary conditions

net charge:   0.00000000

component 0 (CO2) lambda:  0 occupancy:  1 (1.000000)
    net charge:   0.00000000 [e]

Amount of molecules per component :
-------------------------------------------------------------------------------
Component 0 (CO2)
    molecules:      2.500000e+02 molecules  (2.500000e+02 +/- 0.000000e+00)
    number density: 1.472607e-02 molec./A^3 (1.474074e-02 +/- 0.000000e+00)
    density:        1.075912e+03 kg/m^3     (1.076984e+03 +/- 0.000000e+00)

Average pressure tensor: 
-------------------------------------------------------------------------------
 8.8023e+01 -4.5122e+01 -1.1033e+02 +/- 0.0000e+00 0.0000e+00 0.0000e+00 [bar]
-4.5122e+01  1.5143e+02  2.2064e+00 +/- 0.0000e+00 0.0000e+00 0.0000e+00 [bar]
-1.1033e+02  2.2064e+00  2.2992e+02 +/- 0.0000e+00 0.0000e+00 0.0000e+00 [bar]
Ideal-gas pressure:   5.087952e+02 +/ 0.000000e+00 [bar]
Excess pressure:     -3.523363e+02 +/ 0.000000e+00 [bar]
Pressure:             1.564589e+02 +/ 0.000000e+00 [bar]

Total potential energy/kʙ  -3.856035e+05 (-3.862811e+05 +/- 0.000000e+00) [K]
-------------------------------------------------------------------------------
ExternalField-molecule
    Van der Waals/kʙ        0.000000e+00 ( 0.000000e+00 +/- 0.000000e+00) [K]
Framework-molecule
    Van der Waals/kʙ        0.000000e+00 ( 0.000000e+00 +/- 0.000000e+00) [K]
    Van der Waals (Tail)/kʙ 0.000000e+00 ( 0.000000e+00 +/- 0.000000e+00) [K]
    Coulombic Real/kʙ       0.000000e+00 ( 0.000000e+00 +/- 0.000000e+00) [K]
    Coulombic Fourier/kʙ    0.000000e+00 ( 0.000000e+00 +/- 0.000000e+00) [K]
Molecule-molecule
    Van der Waals/kʙ       -2.775846e+05 (-2.795572e+05 +/- 0.000000e+00) [K]
    Van der Waals (Tail)/kʙ-8.875732e+03 (-8.883832e+03 +/- 0.000000e+00) [K]
    Coulombic Real/kʙ      -8.523276e+04 (-8.514127e+04 +/- 0.000000e+00) [K]
    Coulombic Fourier/kʙ   -1.391034e+04 (-1.269883e+04 +/- 0.000000e+00) [K]
    Molecule Intra/kʙ       0.000000e+00 ( 0.000000e+00 +/- 0.000000e+00) [K]

Current cycle: 800 out of 5000
===============================================================================

Box:      25.62000   0.00000   0.00000  Average:  25.68696   0.00000   0.00000
           0.00000  25.62000   0.00000             0.00000  25.68696   0.00000
           0.00000   0.00000  25.62000             0.00000   0.00000  25.68696
Lengths:  25.62000  25.62000  25.62000  Average:  25.68696  25.68696  25.68696
Angles:   90.00000  90.00000  90.00000  Average:  90.00000  90.00000  90.00000
Rectangular boundary conditions

net charge:   0.00000000

component 0 (CO2) lambda:  0 occupancy:  1 (1.000000)
    net charge:   0.00000000 [e]

Amount of molecules per component :
-------------------------------------------------------------------------------
Component 0 (CO2)
    molecules:      2.500000e+02 molecules  (2.500000e+02 +/- 0.000000e+00)
    number density: 1.486628e-02 molec./A^3 (1.475226e-02 +/- 0.000000e+00)
    density:        1.086156e+03 kg/m^3     (1.077826e+03 +/- 0.000000e+00)

Average pressure tensor: 
-------------------------------------------------------------------------------
 7.7108e+01 -4.2941e+01 -7.5583e+01 +/- 0.0000e+00 0.0000e+00 0.0000e+00 [bar]
-4.2941e+01  1.5132e+02 -7.6676e+00 +/- 0.0000e+00 0.0000e+00 0.0000e+00 [bar]
-7.5583e+01 -7.6676e+00  2.4343e+02 +/- 0.0000e+00 0.0000e+00 0.0000e+00 [bar]
Ideal-gas pressure:   5.091930e+02 +/ 0.000000e+00 [bar]
Excess pressure:     -3.519085e+02 +/ 0.000000e+00 [bar]
Pressure:             1.572844e+02 +/ 0.000000e+00 [bar]

Total potential energy/kʙ  -3.963538e+05 (-3.863907e+05 +/- 0.000000e+00) [K]
-------------------------------------------------------------------------------
ExternalField-molecule
    Van der Waals/kʙ        0.000000e+00 ( 0.000000e+00 +/- 0.000000e+00) [K]
Framework-molecule
    Van der Waals/kʙ        0.000000e+00 ( 0.000000e+00 +/- 0.000000e+00) [K]
    Van der Waals (Tail)/kʙ 0.000000e+00 ( 0.000000e+00 +/- 0.000000e+00) [K]
    Coulombic Real/kʙ       0.000000e+00 ( 0.000000e+00 +/- 0.000000e+00) [K]
    Coulombic Fourier/kʙ    0.000000e+00 ( 0.000000e+00 +/- 0.000000e+00) [K]
Molecule-molecule
    Van der Waals/kʙ       -2.831381e+05 (-2.796465e+05 +/- 0.000000e+00) [K]
    Van der Waals (Tail)/kʙ-8.960242e+03 (-8.889677e+03 +/- 0.000000e+00) [K]
    Coulombic Real/kʙ      -8.979610e+04 (-8.503740e+04 +/- 0.000000e+00) [K]
    Coulombic Fourier/kʙ   -1.445935e+04 (-1.281719e+04 +/- 0.000000e+00) [K]
    Molecule Intra/kʙ       0.000000e+00 ( 0.000000e+00 +/- 0.000000e+00) [K]

Current cycle: 900 out of 5000
===============================================================================

Box:      26.19216   0.00000   0.00000  Average:  25.69298   0.00000   0.00000
           0.00000  26.19216   0.00000             0.00000  25.69298   0.00000
           0.00000   0.00000  26.19216             0.00000   0.00000  25.69298
Lengths:  26.19216  26.19216  26.19216  Average:  25.69298  25.69298  25.69298
Angles:   90.00000  90.00000  90.00000  Average:  90.00000  90.00000  90.00000
Rectangular boundary conditions

net charge:   0.00000000

component 0 (CO2) lambda:  0 occupancy:  1 (1.000000)
    net charge:   0.00000000 [e]

Amount of molecules per component :
-------------------------------------------------------------------------------
Component 0 (CO2)
    molecules:      2.500000e+02 molecules  (2.500000e+02 +/- 0.000000e+00)
    number density: 1.391318e-02 molec./A^3 (1.474229e-02 +/- 0.000000e+00)
    density:        1.016520e+03 kg/m^3     (1.077097e+03 +/- 0.000000e+00)

Average pressure tensor: 
-------------------------------------------------------------------------------
 9.2727e+01 -4.2954e+01 -5.9822e+01 +/- 0.0000e+00 0.0000e+00 0.0000e+00 [bar]
-4.2954e+01  1.1091e+02  4.1321e+00 +/- 0.0000e+00 0.0000e+00 0.0000e+00 [bar]
-5.9822e+01  4.1321e+00  2.3050e+02 +/- 0.0000e+00 0.0000e+00 0.0000e+00 [bar]
Ideal-gas pressure:   5.088485e+02 +/ 0.000000e+00 [bar]
Excess pressure:     -3.641356e+02 +/ 0.000000e+00 [bar]
Pressure:             1.447130e+02 +/ 0.000000e+00 [bar]

Total potential energy/kʙ  -3.666684e+05 (-3.864131e+05 +/- 0.000000e+00) [K]
-------------------------------------------------------------------------------
ExternalField-molecule
    Van der Waals/kʙ        0.000000e+00 ( 0.000000e+00 +/- 0.000000e+00) [K]
Framework-molecule
    Van der Waals/kʙ        0.000000e+00 ( 0.000000e+00 +/- 0.000000e+00) [K]
    Van der Waals (Tail)/kʙ 0.000000e+00 ( 0.000000e+00 +/- 0.000000e+00) [K]
    Coulombic Real/kʙ       0.000000e+00 ( 0.000000e+00 +/- 0.000000e+00) [K]
    Coulombic Fourier/kʙ    0.000000e+00 ( 0.000000e+00 +/- 0.000000e+00) [K]
Molecule-molecule
    Van der Waals/kʙ       -2.651514e+05 (-2.794701e+05 +/- 0.000000e+00) [K]
    Van der Waals (Tail)/kʙ-8.385782e+03 (-8.877889e+03 +/- 0.000000e+00) [K]
    Coulombic Real/kʙ      -8.011485e+04 (-8.516964e+04 +/- 0.000000e+00) [K]
    Coulombic Fourier/kʙ   -1.301637e+04 (-1.289543e+04 +/- 0.000000e+00) [K]
    Molecule Intra/kʙ       0.000000e+00 ( 0.000000e+00 +/- 0.000000e+00) [K]

Current cycle: 1000 out of 5000
===============================================================================

Box:      25.66612   0.00000   0.00000  Average:  25.70300   0.00000   0.00000
           0.00000  25.66612   0.00000             0.00000  25.70300   0.00000
           0.00000   0.00000  25.66612             0.00000   0.00000  25.70300
Lengths:  25.66612  25.66612  25.66612  Average:  25.70300  25.70300  25.70300
Angles:   90.00000  90.00000  90.00000  Average:  90.00000  90.00000  90.00000
Rectangular boundary conditions

net charge:   0.00000000

component 0 (CO2) lambda:  0 occupancy:  1 (1.000000)
    net charge:   0.00000000 [e]

Amount of molecules per component :
-------------------------------------------------------------------------------
Component 0 (CO2)
    molecules:      2.500000e+02 molecules  (2.500000e+02 +/- 0.000000e+00)
    number density: 1.478629e-02 molec./A^3 (1.472532e-02 +/- 0.000000e+00)
    density:        1.080312e+03 kg/m^3     (1.075857e+03 +/- 0.000000e+00)

Average pressure tensor: 
-------------------------------------------------------------------------------
 9.9037e+01 -3.0757e+01 -4.0499e+01 +/- 0.0000e+00 0.0000e+00 0.0000e+00 [bar]
-3.0757e+01  1.0000e+02  1.4543e+01 +/- 0.0000e+00 0.0000e+00 0.0000e+00 [bar]
-4.0499e+01  1.4543e+01  2.3193e+02 +/- 0.0000e+00 0.0000e+00 0.0000e+00 [bar]
Ideal-gas pressure:   5.082631e+02 +/ 0.000000e+00 [bar]
Excess pressure:     -3.646085e+02 +/ 0.000000e+00 [bar]
Pressure:             1.436546e+02 +/ 0.000000e+00 [bar]

Total potential energy/kʙ  -3.863847e+05 (-3.860512e+05 +/- 0.000000e+00) [K]
-------------------------------------------------------------------------------
ExternalField-molecule
    Van der Waals/kʙ        0.000000e+00 ( 0.000000e+00 +/- 0.000000e+00) [K]
Framework-molecule
    Van der Waals/kʙ        0.000000e+00 ( 0.000000e+00 +/- 0.000000e+00) [K]
    Van der Waals (Tail)/kʙ 0.000000e+00 ( 0.000000e+00 +/- 0.000000e+00) [K]
    Coulombic Real/kʙ       0.000000e+00 ( 0.000000e+00 +/- 0.000000e+00) [K]
    Coulombic Fourier/kʙ    0.000000e+00 ( 0.000000e+00 +/- 0.000000e+00) [K]
Molecule-molecule
    Van der Waals/kʙ       -2.811415e+05 (-2.791280e+05 +/- 0.000000e+00) [K]
    Van der Waals (Tail)/kʙ-8.912029e+03 (-8.870070e+03 +/- 0.000000e+00) [K]
    Coulombic Real/kʙ      -8.295296e+04 (-8.521651e+04 +/- 0.000000e+00) [K]
    Coulombic Fourier/kʙ   -1.337822e+04 (-1.283659e+04 +/- 0.000000e+00) [K]
    Molecule Intra/kʙ       0.000000e+00 ( 0.000000e+00 +/- 0.000000e+00) [K]

Current cycle: 1100 out of 5000
===============================================================================

Box:      25.44748   0.00000   0.00000  Average:  25.68753   0.00000   0.00000
           0.00000  25.44748   0.00000             0.00000  25.68753   0.00000
           0.00000   0.00000  25.44748             0.00000   0.00000  25.68753
Lengths:  25.44748  25.44748  25.44748  Average:  25.68753  25.68753  25.68753
Angles:   90.00000  90.00000  90.00000  Average:  90.00000  90.00000  90.00000
Rectangular boundary conditions

net charge:   0.00000000

component 0 (CO2) lambda:  0 occupancy:  1 (1.000000)
    net charge:   0.00000000 [e]

Amount of molecules per component :
-------------------------------------------------------------------------------
Component 0 (CO2)
    molecules:      2.500000e+02 molecules  (2.500000e+02 +/- 0.000000e+00)
    number density: 1.517071e-02 molec./A^3 (1.475217e-02 +/- 0.000000e+00)
    density:        1.108398e+03 kg/m^3     (1.077819e+03 +/- 0.000000e+00)

Average pressure tensor: 
-------------------------------------------------------------------------------
 9.2233e+01 -2.5632e+01 -1.9288e+01 +/- 0.0000e+00 0.0000e+00 0.0000e+00 [bar]
-2.5632e+01  1.1723e+02  2.6290e+01 +/- 0.0000e+00 0.0000e+00 0.0000e+00 [bar]
-1.9288e+01  2.6290e+01  2.2035e+02 +/- 0.0000e+00 0.0000e+00 0.0000e+00 [bar]
Ideal-gas pressure:   5.091897e+02 +/ 0.000000e+00 [bar]
Excess pressure:     -3.659157e+02 +/ 0.000000e+00 [bar]
Pressure:             1.432740e+02 +/ 0.000000e+00 [bar]

Total potential energy/kʙ  -3.957954e+05 (-3.865165e+05 +/- 0.000000e+00) [K]
-------------------------------------------------------------------------------
ExternalField-molecule
    Van der Waals/kʙ        0.000000e+00 ( 0.000000e+00 +/- 0.000000e+00) [K]
Framework-molecule
    Van der Waals/kʙ        0.000000e+00 ( 0.000000e+00 +/- 0.000000e+00) [K]
    Van der Waals (Tail)/kʙ 0.000000e+00 ( 0.000000e+00 +/- 0.000000e+00) [K]
    Coulombic Real/kʙ       0.000000e+00 ( 0.000000e+00 +/- 0.000000e+00) [K]
    Coulombic Fourier/kʙ    0.000000e+00 ( 0.000000e+00 +/- 0.000000e+00) [K]
Molecule-molecule
    Van der Waals/kʙ       -2.871283e+05 (-2.797107e+05 +/- 0.000000e+00) [K]
    Van der Waals (Tail)/kʙ-9.143725e+03 (-8.886512e+03 +/- 0.000000e+00) [K]
    Coulombic Real/kʙ      -8.520928e+04 (-8.505572e+04 +/- 0.000000e+00) [K]
    Coulombic Fourier/kʙ   -1.431411e+04 (-1.286357e+04 +/- 0.000000e+00) [K]
    Molecule Intra/kʙ       0.000000e+00 ( 0.000000e+00 +/- 0.000000e+00) [K]

Current cycle: 1200 out of 5000
===============================================================================

Box:      25.28675   0.00000   0.00000  Average:  25.66411   0.00000   0.00000
           0.00000  25.28675   0.00000             0.00000  25.66411   0.00000
           0.00000   0.00000  25.28675             0.00000   0.00000  25.66411
Lengths:  25.28675  25.28675  25.28675  Average:  25.66411  25.66411  25.66411
Angles:   90.00000  90.00000  90.00000  Average:  90.00000  90.00000  90.00000
Rectangular boundary conditions

net charge:   0.00000000

component 0 (CO2) lambda:  0 occupancy:  1 (1.000000)
    net charge:   0.00000000 [e]

Amount of molecules per component :
-------------------------------------------------------------------------------
Component 0 (CO2)
    molecules:      2.500000e+02 molecules  (2.500000e+02 +/- 0.000000e+00)
    number density: 1.546184e-02 molec./A^3 (1.479327e-02 +/- 0.000000e+00)
    density:        1.129668e+03 kg/m^3     (1.080821e+03 +/- 0.000000e+00)

Average pressure tensor: 
-------------------------------------------------------------------------------
 7.7734e+01 -7.5156e+00 -1.0540e+01 +/- 0.0000e+00 0.0000e+00 0.0000e+00 [bar]
-7.5156e+00  1.0864e+02  3.2138e+01 +/- 0.0000e+00 0.0000e+00 0.0000e+00 [bar]
-1.0540e+01  3.2138e+01  2.1621e+02 +/- 0.0000e+00 0.0000e+00 0.0000e+00 [bar]
Ideal-gas pressure:   5.106082e+02 +/ 0.000000e+00 [bar]
Excess pressure:     -3.764162e+02 +/ 0.000000e+00 [bar]
Pressure:             1.341920e+02 +/ 0.000000e+00 [bar]

Total potential energy/kʙ  -4.079292e+05 (-3.876454e+05 +/- 0.000000e+00) [K]
-------------------------------------------------------------------------------
ExternalField-molecule
    Van der Waals/kʙ        0.000000e+00 ( 0.000000e+00 +/- 0.000000e+00) [K]
Framework-molecule
    Van der Waals/kʙ        0.000000e+00 ( 0.000000e+00 +/- 0.000000e+00) [K]
    Van der Waals (Tail)/kʙ 0.000000e+00 ( 0.000000e+00 +/- 0.000000e+00) [K]
    Coulombic Real/kʙ       0.000000e+00 ( 0.000000e+00 +/- 0.000000e+00) [K]
    Coulombic Fourier/kʙ    0.000000e+00 ( 0.000000e+00 +/- 0.000000e+00) [K]
Molecule-molecule
    Van der Waals/kʙ       -2.975221e+05 (-2.807736e+05 +/- 0.000000e+00) [K]
    Van der Waals (Tail)/kʙ-9.319196e+03 (-8.910215e+03 +/- 0.000000e+00) [K]
    Coulombic Real/kʙ      -8.806167e+04 (-8.504068e+04 +/- 0.000000e+00) [K]
    Coulombic Fourier/kʙ   -1.302622e+04 (-1.292089e+04 +/- 0.000000e+00) [K]
    Molecule Intra/kʙ       0.000000e+00 ( 0.000000e+00 +/- 0.000000e+00) [K]

Current cycle: 1300 out of 5000
===============================================================================

Box:      25.40133   0.00000   0.00000  Average:  25.64437   0.00000   0.00000
           0.00000  25.40133   0.00000             0.00000  25.64437   0.00000
           0.00000   0.00000  25.40133             0.00000   0.00000  25.64437
Lengths:  25.40133  25.40133  25.40133  Average:  25.64437  25.64437  25.64437
Angles:   90.00000  90.00000  90.00000  Average:  90.00000  90.00000  90.00000
Rectangular boundary conditions

net charge:   0.00000000

component 0 (CO2) lambda:  0 occupancy:  1 (1.000000)
    net charge:   0.00000000 [e]

Amount of molecules per component :
-------------------------------------------------------------------------------
Component 0 (CO2)
    molecules:      2.500000e+02 molecules  (2.500000e+02 +/- 0.000000e+00)
    number density: 1.525353e-02 molec./A^3 (1.482792e-02 +/- 0.000000e+00)
    density:        1.114449e+03 kg/m^3     (1.083353e+03 +/- 0.000000e+00)

Average pressure tensor: 
-------------------------------------------------------------------------------
 8.8649e+01  4.2538e+00  7.1363e+00 +/- 0.0000e+00 0.0000e+00 0.0000e+00 [bar]
 4.2538e+00  1.0139e+02  3.5867e+01 +/- 0.0000e+00 0.0000e+00 0.0000e+00 [bar]
 7.1363e+00  3.5867e+01  2.2396e+02 +/- 0.0000e+00 0.0000e+00 0.0000e+00 [bar]
Ideal-gas pressure:   5.118042e+02 +/ 0.000000e+00 [bar]
Excess pressure:     -3.738053e+02 +/ 0.000000e+00 [bar]
Pressure:             1.379989e+02 +/ 0.000000e+00 [bar]

Total potential energy/kʙ  -4.053898e+05 (-3.885922e+05 +/- 0.000000e+00) [K]
-------------------------------------------------------------------------------
ExternalField-molecule
    Van der Waals/kʙ        0.000000e+00 ( 0.000000e+00 +/- 0.000000e+00) [K]
Framework-molecule
    Van der Waals/kʙ        0.000000e+00 ( 0.000000e+00 +/- 0.000000e+00) [K]
    Van der Waals (Tail)/kʙ 0.000000e+00 ( 0.000000e+00 +/- 0.000000e+00) [K]
    Coulombic Real/kʙ       0.000000e+00 ( 0.000000e+00 +/- 0.000000e+00) [K]
    Coulombic Fourier/kʙ    0.000000e+00 ( 0.000000e+00 +/- 0.000000e+00) [K]
Molecule-molecule
    Van der Waals/kʙ       -2.983954e+05 (-2.816797e+05 +/- 0.000000e+00) [K]
    Van der Waals (Tail)/kʙ-9.193646e+03 (-8.931566e+03 +/- 0.000000e+00) [K]
    Coulombic Real/kʙ      -8.502264e+04 (-8.507785e+04 +/- 0.000000e+00) [K]
    Coulombic Fourier/kʙ   -1.277808e+04 (-1.290317e+04 +/- 0.000000e+00) [K]
    Molecule Intra/kʙ       0.000000e+00 ( 0.000000e+00 +/- 0.000000e+00) [K]

Current cycle: 1400 out of 5000
===============================================================================

Box:      25.13624   0.00000   0.00000  Average:  25.62095   0.00000   0.00000
           0.00000  25.13624   0.00000             0.00000  25.62095   0.00000
           0.00000   0.00000  25.13624             0.00000   0.00000  25.62095
Lengths:  25.13624  25.13624  25.13624  Average:  25.62095  25.62095  25.62095
Angles:   90.00000  90.00000  90.00000  Average:  90.00000  90.00000  90.00000
Rectangular boundary conditions

net charge:   0.00000000

component 0 (CO2) lambda:  0 occupancy:  1 (1.000000)
    net charge:   0.00000000 [e]

Amount of molecules per component :
-------------------------------------------------------------------------------
Component 0 (CO2)
    molecules:      2.500000e+02 molecules  (2.500000e+02 +/- 0.000000e+00)
    number density: 1.574124e-02 molec./A^3 (1.486939e-02 +/- 0.000000e+00)
    density:        1.150082e+03 kg/m^3     (1.086383e+03 +/- 0.000000e+00)

Average pressure tensor: 
-------------------------------------------------------------------------------
 7.8224e+01 -3.2765e+00 -1.2044e+00 +/- 0.0000e+00 0.0000e+00 0.0000e+00 [bar]
-3.2765e+00  9.7813e+01  4.2478e+01 +/- 0.0000e+00 0.0000e+00 0.0000e+00 [bar]
-1.2044e+00  4.2478e+01  2.4453e+02 +/- 0.0000e+00 0.0000e+00 0.0000e+00 [bar]
Ideal-gas pressure:   5.132357e+02 +/ 0.000000e+00 [bar]
Excess pressure:     -3.730460e+02 +/ 0.000000e+00 [bar]
Pressure:             1.401896e+02 +/ 0.000000e+00 [bar]

Total potential energy/kʙ  -4.120256e+05 (-3.897643e+05 +/- 0.000000e+00) [K]
-------------------------------------------------------------------------------
ExternalField-molecule
    Van der Waals/kʙ        0.000000e+00 ( 0.000000e+00 +/- 0.000000e+00) [K]
Framework-molecule
    Van der Waals/kʙ        0.000000e+00 ( 0.000000e+00 +/- 0.000000e+00) [K]
    Van der Waals (Tail)/kʙ 0.000000e+00 ( 0.000000e+00 +/- 0.000000e+00) [K]
    Coulombic Real/kʙ       0.000000e+00 ( 0.000000e+00 +/- 0.000000e+00) [K]
    Coulombic Fourier/kʙ    0.000000e+00 ( 0.000000e+00 +/- 0.000000e+00) [K]
Molecule-molecule
    Van der Waals/kʙ       -2.978275e+05 (-2.826419e+05 +/- 0.000000e+00) [K]
    Van der Waals (Tail)/kʙ-9.487599e+03 (-8.957967e+03 +/- 0.000000e+00) [K]
    Coulombic Real/kʙ      -9.215495e+04 (-8.527721e+04 +/- 0.000000e+00) [K]
    Coulombic Fourier/kʙ   -1.255556e+04 (-1.288729e+04 +/- 0.000000e+00) [K]
    Molecule Intra/kʙ       0.000000e+00 ( 0.000000e+00 +/- 0.000000e+00) [K]

Current cycle: 1500 out of 5000
===============================================================================

Box:      25.18309   0.00000   0.00000  Average:  25.60127   0.00000   0.00000
           0.00000  25.18309   0.00000             0.00000  25.60127   0.00000
           0.00000   0.00000  25.18309             0.00000   0.00000  25.60127
Lengths:  25.18309  25.18309  25.18309  Average:  25.60127  25.60127  25.60127
Angles:   90.00000  90.00000  90.00000  Average:  90.00000  90.00000  90.00000
Rectangular boundary conditions

net charge:   0.00000000

component 0 (CO2) lambda:  0 occupancy:  1 (1.000000)
    net charge:   0.00000000 [e]

Amount of molecules per component :
-------------------------------------------------------------------------------
Component 0 (CO2)
    molecules:      2.500000e+02 molecules  (2.500000e+02 +/- 0.000000e+00)
    number density: 1.565356e-02 molec./A^3 (1.490419e-02 +/- 0.000000e+00)
    density:        1.143676e+03 kg/m^3     (1.088925e+03 +/- 0.000000e+00)

Average pressure tensor: 
-------------------------------------------------------------------------------
 7.5417e+01 -5.2038e+00 -6.8750e+00 +/- 0.0000e+00 0.0000e+00 0.0000e+00 [bar]
-5.2038e+00  1.0863e+02  3.3176e+01 +/- 0.0000e+00 0.0000e+00 0.0000e+00 [bar]
-6.8750e+00  3.3176e+01  2.5697e+02 +/- 0.0000e+00 0.0000e+00 0.0000e+00 [bar]
Ideal-gas pressure:   5.144368e+02 +/ 0.000000e+00 [bar]
Excess pressure:     -3.674300e+02 +/ 0.000000e+00 [bar]
Pressure:             1.470067e+02 +/ 0.000000e+00 [bar]

Total potential energy/kʙ  -3.995275e+05 (-3.907044e+05 +/- 0.000000e+00) [K]
-------------------------------------------------------------------------------
ExternalField-molecule
    Van der Waals/kʙ        0.000000e+00 ( 0.000000e+00 +/- 0.000000e+00) [K]
Framework-molecule
    Van der Waals/kʙ        0.000000e+00 ( 0.000000e+00 +/- 0.000000e+00) [K]
    Van der Waals (Tail)/kʙ 0.000000e+00 ( 0.000000e+00 +/- 0.000000e+00) [K]
    Coulombic Real/kʙ       0.000000e+00 ( 0.000000e+00 +/- 0.000000e+00) [K]
    Coulombic Fourier/kʙ    0.000000e+00 ( 0.000000e+00 +/- 0.000000e+00) [K]
Molecule-molecule
    Van der Waals/kʙ       -2.894060e+05 (-2.833038e+05 +/- 0.000000e+00) [K]
    Van der Waals (Tail)/kʙ-9.434752e+03 (-8.979655e+03 +/- 0.000000e+00) [K]
    Coulombic Real/kʙ      -8.760032e+04 (-8.553696e+04 +/- 0.000000e+00) [K]
    Coulombic Fourier/kʙ   -1.308646e+04 (-1.288394e+04 +/- 0.000000e+00) [K]
    Molecule Intra/kʙ       0.000000e+00 ( 0.000000e+00 +/- 0.000000e+00) [K]

Current cycle: 1600 out of 5000
===============================================================================

Box:      25.47701   0.00000   0.00000  Average:  25.59317   0.00000   0.00000
           0.00000  25.47701   0.00000             0.00000  25.59317   0.00000
           0.00000   0.00000  25.47701             0.00000   0.00000  25.59317
Lengths:  25.47701  25.47701  25.47701  Average:  25.59317  25.59317  25.59317
Angles:   90.00000  90.00000  90.00000  Average:  90.00000  90.00000  90.00000
Rectangular boundary conditions

net charge:   0.00000000

component 0 (CO2) lambda:  0 occupancy:  1 (1.000000)
    net charge:   0.00000000 [e]

Amount of molecules per component :
-------------------------------------------------------------------------------
Component 0 (CO2)
    molecules:      2.500000e+02 molecules  (2.500000e+02 +/- 0.000000e+00)
    number density: 1.511801e-02 molec./A^3 (1.491823e-02 +/- 0.000000e+00)
    density:        1.104547e+03 kg/m^3     (1.089951e+03 +/- 0.000000e+00)

Average pressure tensor: 
-------------------------------------------------------------------------------
 8.1192e+01 -1.2624e+00 -1.7790e+01 +/- 0.0000e+00 0.0000e+00 0.0000e+00 [bar]
-1.2624e+00  1.1991e+02  3.6112e+01 +/- 0.0000e+00 0.0000e+00 0.0000e+00 [bar]
-1.7790e+01  3.6112e+01  2.5058e+02 +/- 0.0000e+00 0.0000e+00 0.0000e+00 [bar]
Ideal-gas pressure:   5.149214e+02 +/ 0.000000e+00 [bar]
Excess pressure:     -3.643637e+02 +/ 0.000000e+00 [bar]
Pressure:             1.505577e+02 +/ 0.000000e+00 [bar]

Total potential energy/kʙ  -3.905561e+05 (-3.910192e+05 +/- 0.000000e+00) [K]
-------------------------------------------------------------------------------
ExternalField-molecule
    Van der Waals/kʙ        0.000000e+00 ( 0.000000e+00 +/- 0.000000e+00) [K]
Framework-molecule
    Van der Waals/kʙ        0.000000e+00 ( 0.000000e+00 +/- 0.000000e+00) [K]
    Van der Waals (Tail)/kʙ 0.000000e+00 ( 0.000000e+00 +/- 0.000000e+00) [K]
    Coulombic Real/kʙ       0.000000e+00 ( 0.000000e+00 +/- 0.000000e+00) [K]
    Coulombic Fourier/kʙ    0.000000e+00 ( 0.000000e+00 +/- 0.000000e+00) [K]
Molecule-molecule
    Van der Waals/kʙ       -2.833433e+05 (-2.835103e+05 +/- 0.000000e+00) [K]
    Van der Waals (Tail)/kʙ-9.111960e+03 (-8.987905e+03 +/- 0.000000e+00) [K]
    Coulombic Real/kʙ      -8.559176e+04 (-8.563367e+04 +/- 0.000000e+00) [K]
    Coulombic Fourier/kʙ   -1.250903e+04 (-1.288738e+04 +/- 0.000000e+00) [K]
    Molecule Intra/kʙ       0.000000e+00 ( 0.000000e+00 +/- 0.000000e+00) [K]

Current cycle: 1700 out of 5000
===============================================================================

Box:      25.52137   0.00000   0.00000  Average:  25.58730   0.00000   0.00000
           0.00000  25.52137   0.00000             0.00000  25.58730   0.00000
           0.00000   0.00000  25.52137             0.00000   0.00000  25.58730
Lengths:  25.52137  25.52137  25.52137  Average:  25.58730  25.58730  25.58730
Angles:   90.00000  90.00000  90.00000  Average:  90.00000  90.00000  90.00000
Rectangular boundary conditions

net charge:   0.00000000

component 0 (CO2) lambda:  0 occupancy:  1 (1.000000)
    net charge:   0.00000000 [e]

Amount of molecules per component :
-------------------------------------------------------------------------------
Component 0 (CO2)
    molecules:      2.500000e+02 molecules  (2.500000e+02 +/- 0.000000e+00)
    number density: 1.503931e-02 molec./A^3 (1.492832e-02 +/- 0.000000e+00)
    density:        1.098798e+03 kg/m^3     (1.090688e+03 +/- 0.000000e+00)

Average pressure tensor: 
-------------------------------------------------------------------------------
 7.9808e+01 -5.8341e+00 -1.9673e+01 +/- 0.0000e+00 0.0000e+00 0.0000e+00 [bar]
-5.8341e+00  1.1934e+02  3.4485e+01 +/- 0.0000e+00 0.0000e+00 0.0000e+00 [bar]
-1.9673e+01  3.4485e+01  2.4981e+02 +/- 0.0000e+00 0.0000e+00 0.0000e+00 [bar]
Ideal-gas pressure:   5.152697e+02 +/ 0.000000e+00 [bar]
Excess pressure:     -3.656184e+02 +/ 0.000000e+00 [bar]
Pressure:             1.496513e+02 +/ 0.000000e+00 [bar]

Total potential energy/kʙ  -3.996594e+05 (-3.913328e+05 +/- 0.000000e+00) [K]
-------------------------------------------------------------------------------
ExternalField-molecule
    Van der Waals/kʙ        0.000000e+00 ( 0.000000e+00 +/- 0.000000e+00) [K]
Framework-molecule
    Van der Waals/kʙ        0.000000e+00 ( 0.000000e+00 +/- 0.000000e+00) [K]
    Van der Waals (Tail)/kʙ 0.000000e+00 ( 0.000000e+00 +/- 0.000000e+00) [K]
    Coulombic Real/kʙ       0.000000e+00 ( 0.000000e+00 +/- 0.000000e+00) [K]
    Coulombic Fourier/kʙ    0.000000e+00 ( 0.000000e+00 +/- 0.000000e+00) [K]
Molecule-molecule
    Van der Waals/kʙ       -2.888273e+05 (-2.837009e+05 +/- 0.000000e+00) [K]
    Van der Waals (Tail)/kʙ-9.064530e+03 (-8.992843e+03 +/- 0.000000e+00) [K]
    Coulombic Real/kʙ      -8.936373e+04 (-8.575888e+04 +/- 0.000000e+00) [K]
    Coulombic Fourier/kʙ   -1.240381e+04 (-1.288013e+04 +/- 0.000000e+00) [K]
    Molecule Intra/kʙ       0.000000e+00 ( 0.000000e+00 +/- 0.000000e+00) [K]

Current cycle: 1800 out of 5000
===============================================================================

Box:      25.68782   0.00000   0.00000  Average:  25.58705   0.00000   0.00000
           0.00000  25.68782   0.00000             0.00000  25.58705   0.00000
           0.00000   0.00000  25.68782             0.00000   0.00000  25.58705
Lengths:  25.68782  25.68782  25.68782  Average:  25.58705  25.58705  25.58705
Angles:   90.00000  90.00000  90.00000  Average:  90.00000  90.00000  90.00000
Rectangular boundary conditions

net charge:   0.00000000

component 0 (CO2) lambda:  0 occupancy:  1 (1.000000)
    net charge:   0.00000000 [e]

Amount of molecules per component :
-------------------------------------------------------------------------------
Component 0 (CO2)
    molecules:      2.500000e+02 molecules  (2.500000e+02 +/- 0.000000e+00)
    number density: 1.474886e-02 molec./A^3 (1.492854e-02 +/- 0.000000e+00)
    density:        1.077577e+03 kg/m^3     (1.090705e+03 +/- 0.000000e+00)

Average pressure tensor: 
-------------------------------------------------------------------------------
 8.9660e+01 -1.3787e+01 -1.7976e+01 +/- 0.0000e+00 0.0000e+00 0.0000e+00 [bar]
-1.3787e+01  1.2275e+02  3.8598e+01 +/- 0.0000e+00 0.0000e+00 0.0000e+00 [bar]
-1.7976e+01  3.8598e+01  2.3149e+02 +/- 0.0000e+00 0.0000e+00 0.0000e+00 [bar]
Ideal-gas pressure:   5.152775e+02 +/ 0.000000e+00 [bar]
Excess pressure:     -3.673093e+02 +/ 0.000000e+00 [bar]
Pressure:             1.479682e+02 +/ 0.000000e+00 [bar]

Total potential energy/kʙ  -3.911649e+05 (-3.913520e+05 +/- 0.000000e+00) [K]
-------------------------------------------------------------------------------
ExternalField-molecule
    Van der Waals/kʙ        0.000000e+00 ( 0.000000e+00 +/- 0.000000e+00) [K]
Framework-molecule
    Van der Waals/kʙ        0.000000e+00 ( 0.000000e+00 +/- 0.000000e+00) [K]
    Van der Waals (Tail)/kʙ 0.000000e+00 ( 0.000000e+00 +/- 0.000000e+00) [K]
    Coulombic Real/kʙ       0.000000e+00 ( 0.000000e+00 +/- 0.000000e+00) [K]
    Coulombic Fourier/kʙ    0.000000e+00 ( 0.000000e+00 +/- 0.000000e+00) [K]
Molecule-molecule
    Van der Waals/kʙ       -2.840246e+05 (-2.836957e+05 +/- 0.000000e+00) [K]
    Van der Waals (Tail)/kʙ-8.889468e+03 (-8.991542e+03 +/- 0.000000e+00) [K]
    Coulombic Real/kʙ      -8.501464e+04 (-8.577380e+04 +/- 0.000000e+00) [K]
    Coulombic Fourier/kʙ   -1.323615e+04 (-1.289101e+04 +/- 0.000000e+00) [K]
    Molecule Intra/kʙ       0.000000e+00 ( 0.000000e+00 +/- 0.000000e+00) [K]

Current cycle: 1900 out of 5000
===============================================================================

Box:      26.01422   0.00000   0.00000  Average:  25.59885   0.00000   0.00000
           0.00000  26.01422   0.00000             0.00000  25.59885   0.00000
           0.00000   0.00000  26.01422             0.00000   0.00000  25.59885
Lengths:  26.01422  26.01422  26.01422  Average:  25.59885  25.59885  25.59885
Angles:   90.00000  90.00000  90.00000  Average:  90.00000  90.00000  90.00000
Rectangular boundary conditions

net charge:   0.00000000

component 0 (CO2) lambda:  0 occupancy:  1 (1.000000)
    net charge:   0.00000000 [e]

Amount of molecules per component :
-------------------------------------------------------------------------------
Component 0 (CO2)
    molecules:      2.500000e+02 molecules  (2.500000e+02 +/- 0.000000e+00)
    number density: 1.420062e-02 molec./A^3 (1.490811e-02 +/- 0.000000e+00)
    density:        1.037522e+03 kg/m^3     (1.089212e+03 +/- 0.000000e+00)

Average pressure tensor: 
-------------------------------------------------------------------------------
 7.7231e+01 -1.4761e+01 -2.9214e+01 +/- 0.0000e+00 0.0000e+00 0.0000e+00 [bar]
-1.4761e+01  1.1737e+02  3.3931e+01 +/- 0.0000e+00 0.0000e+00 0.0000e+00 [bar]
-2.9214e+01  3.3931e+01  2.3710e+02 +/- 0.0000e+00 0.0000e+00 0.0000e+00 [bar]
Ideal-gas pressure:   5.145720e+02 +/ 0.000000e+00 [bar]
Excess pressure:     -3.706712e+02 +/ 0.000000e+00 [bar]
Pressure:             1.439008e+02 +/ 0.000000e+00 [bar]

Total potential energy/kʙ  -3.739128e+05 (-3.908433e+05 +/- 0.000000e+00) [K]
-------------------------------------------------------------------------------
ExternalField-molecule
    Van der Waals/kʙ        0.000000e+00 ( 0.000000e+00 +/- 0.000000e+00) [K]
Framework-molecule
    Van der Waals/kʙ        0.000000e+00 ( 0.000000e+00 +/- 0.000000e+00) [K]
    Van der Waals (Tail)/kʙ 0.000000e+00 ( 0.000000e+00 +/- 0.000000e+00) [K]
    Coulombic Real/kʙ       0.000000e+00 ( 0.000000e+00 +/- 0.000000e+00) [K]
    Coulombic Fourier/kʙ    0.000000e+00 ( 0.000000e+00 +/- 0.000000e+00) [K]
Molecule-molecule
    Van der Waals/kʙ       -2.703254e+05 (-2.832585e+05 +/- 0.000000e+00) [K]
    Van der Waals (Tail)/kʙ-8.559034e+03 (-8.978232e+03 +/- 0.000000e+00) [K]
    Coulombic Real/kʙ      -8.269336e+04 (-8.571339e+04 +/- 0.000000e+00) [K]
    Coulombic Fourier/kʙ   -1.233500e+04 (-1.289312e+04 +/- 0.000000e+00) [K]
    Molecule Intra/kʙ       0.000000e+00 ( 0.000000e+00 +/- 0.000000e+00) [K]

Current cycle: 2000 out of 5000
===============================================================================

Box:      25.71329   0.00000   0.00000  Average:  25.61311   0.00000   0.00000
           0.00000  25.71329   0.00000             0.00000  25.61311   0.00000
           0.00000   0.00000  25.71329             0.00000   0.00000  25.61311
Lengths:  25.71329  25.71329  25.71329  Average:  25.61311  25.61311  25.61311
Angles:   90.00000  90.00000  90.00000  Average:  90.00000  90.00000  90.00000
Rectangular boundary conditions

net charge:   0.00000000

component 0 (CO2) lambda:  0 occupancy:  1 (1.000000)
    net charge:   0.00000000 [e]

Amount of molecules per component :
-------------------------------------------------------------------------------
Component 0 (CO2)
    molecules:      2.500000e+02 molecules  (2.500000e+02 +/- 0.000000e+00)
    number density: 1.470507e-02 molec./A^3 (1.488376e-02 +/- 0.000000e+00)
    density:        1.074378e+03 kg/m^3     (1.087433e+03 +/- 0.000000e+00)

Average pressure tensor: 
-------------------------------------------------------------------------------
 7.7520e+01 -1.1541e+01 -2.7434e+01 +/- 0.0000e+00 0.0000e+00 0.0000e+00 [bar]
-1.1541e+01  1.2317e+02  3.2699e+01 +/- 0.0000e+00 0.0000e+00 0.0000e+00 [bar]
-2.7434e+01  3.2699e+01  2.3478e+02 +/- 0.0000e+00 0.0000e+00 0.0000e+00 [bar]
Ideal-gas pressure:   5.137316e+02 +/ 0.000000e+00 [bar]
Excess pressure:     -3.685729e+02 +/ 0.000000e+00 [bar]
Pressure:             1.451587e+02 +/ 0.000000e+00 [bar]

Total potential energy/kʙ  -3.991006e+05 (-3.904617e+05 +/- 0.000000e+00) [K]
-------------------------------------------------------------------------------
ExternalField-molecule
    Van der Waals/kʙ        0.000000e+00 ( 0.000000e+00 +/- 0.000000e+00) [K]
Framework-molecule
    Van der Waals/kʙ        0.000000e+00 ( 0.000000e+00 +/- 0.000000e+00) [K]
    Van der Waals (Tail)/kʙ 0.000000e+00 ( 0.000000e+00 +/- 0.000000e+00) [K]
    Coulombic Real/kʙ       0.000000e+00 ( 0.000000e+00 +/- 0.000000e+00) [K]
    Coulombic Fourier/kʙ    0.000000e+00 ( 0.000000e+00 +/- 0.000000e+00) [K]
Molecule-molecule
    Van der Waals/kʙ       -2.824941e+05 (-2.826895e+05 +/- 0.000000e+00) [K]
    Van der Waals (Tail)/kʙ-8.863077e+03 (-8.964616e+03 +/- 0.000000e+00) [K]
    Coulombic Real/kʙ      -9.407916e+04 (-8.592581e+04 +/- 0.000000e+00) [K]
    Coulombic Fourier/kʙ   -1.366418e+04 (-1.288174e+04 +/- 0.000000e+00) [K]
    Molecule Intra/kʙ       0.000000e+00 ( 0.000000e+00 +/- 0.000000e+00) [K]

Current cycle: 2100 out of 5000
===============================================================================

Box:      25.53319   0.00000   0.00000  Average:  25.61212   0.00000   0.00000
           0.00000  25.53319   0.00000             0.00000  25.61212   0.00000
           0.00000   0.00000  25.53319             0.00000   0.00000  25.61212
Lengths:  25.53319  25.53319  25.53319  Average:  25.61212  25.61212  25.61212
Angles:   90.00000  90.00000  90.00000  Average:  90.00000  90.00000  90.00000
Rectangular boundary conditions

net charge:   0.00000000

component 0 (CO2) lambda:  0 occupancy:  1 (1.000000)
    net charge:   0.00000000 [e]

Amount of molecules per component :
-------------------------------------------------------------------------------
Component 0 (CO2)
    molecules:      2.500000e+02 molecules  (2.500000e+02 +/- 0.000000e+00)
    number density: 1.501843e-02 molec./A^3 (1.488529e-02 +/- 0.000000e+00)
    density:        1.097273e+03 kg/m^3     (1.087545e+03 +/- 0.000000e+00)

Average pressure tensor: 
-------------------------------------------------------------------------------
 7.3490e+01 -8.6036e+00 -3.1767e+01 +/- 0.0000e+00 0.0000e+00 0.0000e+00 [bar]
-8.6036e+00  1.3330e+02  2.2055e+01 +/- 0.0000e+00 0.0000e+00 0.0000e+00 [bar]
-3.1767e+01  2.2055e+01  2.2434e+02 +/- 0.0000e+00 0.0000e+00 0.0000e+00 [bar]
Ideal-gas pressure:   5.137846e+02 +/ 0.000000e+00 [bar]
Excess pressure:     -3.700739e+02 +/ 0.000000e+00 [bar]
Pressure:             1.437106e+02 +/ 0.000000e+00 [bar]

Total potential energy/kʙ  -3.963473e+05 (-3.907150e+05 +/- 0.000000e+00) [K]
-------------------------------------------------------------------------------
ExternalField-molecule
    Van der Waals/kʙ        0.000000e+00 ( 0.000000e+00 +/- 0.000000e+00) [K]
Framework-molecule
    Van der Waals/kʙ        0.000000e+00 ( 0.000000e+00 +/- 0.000000e+00) [K]
    Van der Waals (Tail)/kʙ 0.000000e+00 ( 0.000000e+00 +/- 0.000000e+00) [K]
[...]
    Coulombic Fourier/kʙ    0.000000e+00 ( 0.000000e+00 +/- 0.000000e+00) [K]
Molecule-molecule
    Van der Waals/kʙ       -2.928220e+05 (-2.831377e+05 +/- 3.462813e+03) [K]
    Van der Waals (Tail)/kʙ-9.122075e+03 (-8.994197e+03 +/- 1.004865e+02) [K]
    Coulombic Real/kʙ      -9.499803e+04 (-8.860796e+04 +/- 3.327233e+03) [K]
    Coulombic Fourier/kʙ   -1.369000e+04 (-1.302425e+04 +/- 2.084056e+02) [K]
    Molecule Intra/kʙ       0.000000e+00 ( 0.000000e+00 +/- 0.000000e+00) [K]

Current cycle: 4700 out of 5000
===============================================================================

Box:      25.71926   0.00000   0.00000  Average:  25.58886   0.00000   0.00000
           0.00000  25.71926   0.00000             0.00000  25.58886   0.00000
           0.00000   0.00000  25.71926             0.00000   0.00000  25.58886
Lengths:  25.71926  25.71926  25.71926  Average:  25.58886  25.58886  25.58886
Angles:   90.00000  90.00000  90.00000  Average:  90.00000  90.00000  90.00000
Rectangular boundary conditions

net charge:   0.00000000

component 0 (CO2) lambda:  0 occupancy:  1 (1.000000)
    net charge:   0.00000000 [e]

Amount of molecules per component :
-------------------------------------------------------------------------------
Component 0 (CO2)
    molecules:      2.500000e+02 molecules  (2.500000e+02 +/- 3.944933e-14)
    number density: 1.469484e-02 molec./A^3 (1.492483e-02 +/- 1.604726e-04)
    density:        1.073630e+03 kg/m^3     (1.090433e+03 +/- 1.172441e+01)

Average pressure tensor: 
-------------------------------------------------------------------------------
 1.0471e+02  9.3273e+00 -3.9439e+01 +/- 4.8631e+01 4.2928e+01 8.4095e+01 [bar]
 9.3273e+00  1.7962e+02  2.0977e+01 +/- 4.2928e+01 9.2812e+01 4.0378e+01 [bar]
-3.9439e+01  2.0977e+01  2.1762e+02 +/- 8.4095e+01 4.0378e+01 6.0465e+01 [bar]
Ideal-gas pressure:   5.151491e+02 +/ 5.538915e+00 [bar]
Excess pressure:     -3.478316e+02 +/ 2.943229e+01 [bar]
Pressure:             1.673176e+02 +/ 3.177350e+01 [bar]

Total potential energy/kʙ  -3.874098e+05 (-3.937548e+05 +/- 5.566528e+03) [K]
-------------------------------------------------------------------------------
ExternalField-molecule
    Van der Waals/kʙ        0.000000e+00 ( 0.000000e+00 +/- 0.000000e+00) [K]
Framework-molecule
    Van der Waals/kʙ        0.000000e+00 ( 0.000000e+00 +/- 0.000000e+00) [K]
    Van der Waals (Tail)/kʙ 0.000000e+00 ( 0.000000e+00 +/- 0.000000e+00) [K]
    Coulombic Real/kʙ       0.000000e+00 ( 0.000000e+00 +/- 0.000000e+00) [K]
    Coulombic Fourier/kʙ    0.000000e+00 ( 0.000000e+00 +/- 0.000000e+00) [K]
Molecule-molecule
    Van der Waals/kʙ       -2.816413e+05 (-2.831529e+05 +/- 3.452136e+03) [K]
    Van der Waals (Tail)/kʙ-8.856906e+03 (-8.993210e+03 +/- 9.893180e+01) [K]
    Coulombic Real/kʙ      -8.450773e+04 (-8.859172e+04 +/- 3.277711e+03) [K]
    Coulombic Fourier/kʙ   -1.240384e+04 (-1.301699e+04 +/- 2.042780e+02) [K]
    Molecule Intra/kʙ       0.000000e+00 ( 0.000000e+00 +/- 0.000000e+00) [K]

Current cycle: 4800 out of 5000
===============================================================================

Box:      25.63578   0.00000   0.00000  Average:  25.58986   0.00000   0.00000
           0.00000  25.63578   0.00000             0.00000  25.58986   0.00000
           0.00000   0.00000  25.63578             0.00000   0.00000  25.58986
Lengths:  25.63578  25.63578  25.63578  Average:  25.58986  25.58986  25.58986
Angles:   90.00000  90.00000  90.00000  Average:  90.00000  90.00000  90.00000
Rectangular boundary conditions

net charge:   0.00000000

component 0 (CO2) lambda:  0 occupancy:  1 (1.000000)
    net charge:   0.00000000 [e]

Amount of molecules per component :
-------------------------------------------------------------------------------
Component 0 (CO2)
    molecules:      2.500000e+02 molecules  (2.500000e+02 +/- 0.000000e+00)
    number density: 1.483886e-02 molec./A^3 (1.492303e-02 +/- 1.588792e-04)
    density:        1.084153e+03 kg/m^3     (1.090302e+03 +/- 1.160798e+01)

Average pressure tensor: 
-------------------------------------------------------------------------------
 1.0777e+02  4.9911e+00 -3.6389e+01 +/- 5.3394e+01 3.4640e+01 8.0045e+01 [bar]
 4.9911e+00  1.7421e+02  2.1306e+01 +/- 3.4640e+01 9.8563e+01 3.9913e+01 [bar]
-3.6389e+01  2.1306e+01  2.1793e+02 +/- 8.0045e+01 3.9913e+01 5.7177e+01 [bar]
Ideal-gas pressure:   5.150870e+02 +/ 5.483915e+00 [bar]
Excess pressure:     -3.484509e+02 +/ 2.739593e+01 [bar]
Pressure:             1.666361e+02 +/ 2.960232e+01 [bar]

Total potential energy/kʙ  -3.867363e+05 (-3.936336e+05 +/- 5.431747e+03) [K]
-------------------------------------------------------------------------------
ExternalField-molecule
    Van der Waals/kʙ        0.000000e+00 ( 0.000000e+00 +/- 0.000000e+00) [K]
Framework-molecule
    Van der Waals/kʙ        0.000000e+00 ( 0.000000e+00 +/- 0.000000e+00) [K]
    Van der Waals (Tail)/kʙ 0.000000e+00 ( 0.000000e+00 +/- 0.000000e+00) [K]
    Coulombic Real/kʙ       0.000000e+00 ( 0.000000e+00 +/- 0.000000e+00) [K]
    Coulombic Fourier/kʙ    0.000000e+00 ( 0.000000e+00 +/- 0.000000e+00) [K]
Molecule-molecule
    Van der Waals/kʙ       -2.775181e+05 (-2.831488e+05 +/- 3.432195e+03) [K]
    Van der Waals (Tail)/kʙ-8.943713e+03 (-8.992526e+03 +/- 9.820442e+01) [K]
    Coulombic Real/kʙ      -8.641803e+04 (-8.848567e+04 +/- 3.200537e+03) [K]
    Coulombic Fourier/kʙ   -1.385645e+04 (-1.300664e+04 +/- 2.055789e+02) [K]
    Molecule Intra/kʙ       0.000000e+00 ( 0.000000e+00 +/- 0.000000e+00) [K]

Current cycle: 4900 out of 5000
===============================================================================

Box:      25.66993   0.00000   0.00000  Average:  25.58931   0.00000   0.00000
           0.00000  25.66993   0.00000             0.00000  25.58931   0.00000
           0.00000   0.00000  25.66993             0.00000   0.00000  25.58931
Lengths:  25.66993  25.66993  25.66993  Average:  25.58931  25.58931  25.58931
Angles:   90.00000  90.00000  90.00000  Average:  90.00000  90.00000  90.00000
Rectangular boundary conditions

net charge:   0.00000000

component 0 (CO2) lambda:  0 occupancy:  1 (1.000000)
    net charge:   0.00000000 [e]

Amount of molecules per component :
-------------------------------------------------------------------------------
Component 0 (CO2)
    molecules:      2.500000e+02 molecules  (2.500000e+02 +/- 0.000000e+00)
    number density: 1.477972e-02 molec./A^3 (1.492391e-02 +/- 1.589632e-04)
    density:        1.079831e+03 kg/m^3     (1.090367e+03 +/- 1.161412e+01)

Average pressure tensor: 
-------------------------------------------------------------------------------
 1.1190e+02  6.4551e+00 -3.7087e+01 +/- 6.0321e+01 3.5778e+01 8.0143e+01 [bar]
 6.4551e+00  1.7665e+02  2.1655e+01 +/- 3.5778e+01 9.3867e+01 3.9617e+01 [bar]
-3.7087e+01  2.1655e+01  2.1416e+02 +/- 8.0143e+01 3.9617e+01 4.6473e+01 [bar]
Ideal-gas pressure:   5.151177e+02 +/ 5.486815e+00 [bar]
Excess pressure:     -3.475470e+02 +/ 2.813737e+01 [bar]
Pressure:             1.675707e+02 +/ 3.033814e+01 [bar]

Total potential energy/kʙ  -3.940721e+05 (-3.936609e+05 +/- 5.429434e+03) [K]
-------------------------------------------------------------------------------
ExternalField-molecule
    Van der Waals/kʙ        0.000000e+00 ( 0.000000e+00 +/- 0.000000e+00) [K]
Framework-molecule
    Van der Waals/kʙ        0.000000e+00 ( 0.000000e+00 +/- 0.000000e+00) [K]
    Van der Waals (Tail)/kʙ 0.000000e+00 ( 0.000000e+00 +/- 0.000000e+00) [K]
    Coulombic Real/kʙ       0.000000e+00 ( 0.000000e+00 +/- 0.000000e+00) [K]
    Coulombic Fourier/kʙ    0.000000e+00 ( 0.000000e+00 +/- 0.000000e+00) [K]
Molecule-molecule
    Van der Waals/kʙ       -2.816015e+05 (-2.831831e+05 +/- 3.440283e+03) [K]
    Van der Waals (Tail)/kʙ-8.908065e+03 (-8.993374e+03 +/- 9.838632e+01) [K]
    Coulombic Real/kʙ      -8.997811e+04 (-8.846878e+04 +/- 3.192360e+03) [K]
    Coulombic Fourier/kʙ   -1.358441e+04 (-1.301568e+04 +/- 2.040712e+02) [K]
    Molecule Intra/kʙ       0.000000e+00 ( 0.000000e+00 +/- 0.000000e+00) [K]


Energy statistics             |  Energy [K]   | Recomputed [K]|  Drift [K]    |
===============================================================================
Total potential energy/kʙ     | -3.913929e+05 | -3.913929e+05 |  2.081637e-09 |
    external field VDW/kʙ     |  0.000000e+00 |  0.000000e+00 |  0.000000e+00 |
    external field Real/kʙ    |  0.000000e+00 |  0.000000e+00 |  0.000000e+00 |
    framework-molecule VDW/kʙ |  0.000000e+00 |  0.000000e+00 |  0.000000e+00 |
    framework-molecule Real/kʙ|  0.000000e+00 |  0.000000e+00 |  0.000000e+00 |
    molecule-molecule VDW/kʙ  | -2.760794e+05 | -2.760794e+05 |  2.030225e-09 |
    molecule-molecule Real/kʙ | -9.280913e+04 | -9.280913e+04 |  1.750194e-11 |
    Van der Waals (Tail)/kʙ   | -9.011831e+03 | -9.011831e+03 |  0.000000e+00 |
    Ewald Fourier/kʙ          |  9.198827e+03 |  9.198827e+03 |  3.391001e-11 |
    Ewald self/kʙ             | -5.029674e+06 | -5.029674e+06 |  0.000000e+00 |
    Ewald exclusion/kʙ        |  5.006983e+06 |  5.006983e+06 |  0.000000e+00 |
    intra VDW/kʙ              |  0.000000e+00 |  0.000000e+00 |  0.000000e+00 |
    intra Coulombic/kʙ        |  0.000000e+00 |  0.000000e+00 |  0.000000e+00 |
    polarization/kʙ           |  0.000000e+00 |  0.000000e+00 |  0.000000e+00 |
    dU/dlambda VDW/kʙ         |  0.000000e+00 |  0.000000e+00 |  0.000000e+00 |
    dU/dlambda Real/kʙ        |  0.000000e+00 |  0.000000e+00 |  0.000000e+00 |
    dU/dlambda Ewald/kʙ       |  0.000000e+00 |  0.000000e+00 |  0.000000e+00 |
-------------------------------------------------------------------------------


Monte-Carlo moves statistics
===============================================================================

    Volume change        all:                8342
    Volume change        total:              8342
    Volume change        constructed:        8342
    Volume change        accepted:           4149
    Volume change        fraction:       0.497363
    Volume change        max-change:     0.025000

Component 0 [CO2]
    Reinsertion (CBMC)   all:              413495
    Reinsertion (CBMC)   total:            413495
    Reinsertion (CBMC)   constructed:      356887
    Reinsertion (CBMC)   accepted:           3864
    Reinsertion (CBMC)   fraction:       0.009345
    Reinsertion (CBMC)   max-change:     0.000000

    Translation          all:              413568
    Translation          total:            138097     137842     137629
    Translation          constructed:      138097     136783     137444
    Translation          accepted:          62893      39451      45204
    Translation          fraction:       0.455426   0.286204   0.328448
    Translation          max-change:     0.740741   1.277311   1.100806

    Rotation             all:              414595
    Rotation             total:            137800     138582     138213
    Rotation             constructed:      137800     138466     138213
    Rotation             accepted:          62796      49216      62806
    Rotation             fraction:       0.455704   0.355140   0.454415
    Rotation             max-change:     0.776471   1.100737   0.777778



Production run counting of the MC moves summed over systems and components
===============================================================================

Volume change                          8342 (0.6674 [%])
Reinsertion (CBMC)                   413495 (33.0796 [%])
Translation                          413568 (33.0854 [%])
Rotation                             414595 (33.1676 [%])

Production count MC-steps:          1250000 [-]
               All summed:          1250000 [-]
               difference:                0 [-]


Production run CPU timings of the MC moves
===============================================================================

Component 0 CO2

Rotation                             60.629100 [s]
    Ewald                            23.294717 [s]
    ExternalField-Molecule            0.013964 [s]
    Framework-Molecule                0.014809 [s]
    Molecule-Molecule                35.593903 [s]
    Overhead                          1.711707 [s]

Reinsertion (CBMC)                  251.389555 [s]
    Ewald                            20.218572 [s]
    NonEwald                        230.782280 [s]
    Overhead                          0.388703 [s]

Translation                          60.342283 [s]
    Ewald                            23.190871 [s]
    ExternalField-Molecule            0.013741 [s]
    Framework-Molecule                0.025120 [s]
    Molecule-Molecule                35.616687 [s]
    Overhead                          1.495864 [s]



Volume change                         71.589905 [s]
    Ewald                             23.269247 [s]
    NonEwald                          44.824364 [s]
    Tail                               3.173590 [s]

Property sampling                     0.312105 [s]
Energy/pressure sampling:             8.358695 [s]


Production run CPU timings of the MC moves summed over systems and components
===============================================================================


Translation                          60.342283 [s]
    Ewald                            23.190871 [s]
    ExternalField-Molecule            0.013741 [s]
    Framework-Molecule                0.025120 [s]
    Molecule-Molecule                35.616687 [s]
    Overhead                          1.495864 [s]

Rotation                             60.629100 [s]
    Ewald                            23.294717 [s]
    ExternalField-Molecule            0.013964 [s]
    Framework-Molecule                0.014809 [s]
    Molecule-Molecule                35.593903 [s]
    Overhead                          1.711707 [s]

Volume change                        71.589905 [s]
    Ewald                            23.269247 [s]
    NonEwald                         44.824364 [s]
    Tail                              3.173590 [s]
    Overhead                          0.322704 [s]

Reinsertion (CBMC)                  251.389555 [s]
    Ewald                            20.218572 [s]
    NonEwald                        230.782280 [s]
    Overhead                          0.388703 [s]

Property sampling:                    0.312105 [s]
Energy/pressure sampling:             8.358695 [s]

Production simulation time:         453.550344 [s]
                All summed:         452.621643 [s]
                  Overhead:           0.928701 [s]


Initalization simulation time:       89.370267 [s]
Equilibration simulation time:        0.000000 [s]
Production simulation time:         453.550344 [s]
Total simulation time:              542.920611 [s]


Energy averages and statistics:
===============================================================================

Framework-molecule energy:
-------------------------------------------------------------------------------



Framework-molecule energy contributions per energy type:
-------------------------------------------------------------------------------



Inter-molecular energy:
-------------------------------------------------------------------------------

    Inter-molecular energy/kʙ 0-0 [CO2-CO2]:
    ---------------------------------------------------------------------------
        Block[  0] -3.860479e+05
        Block[  1] -3.947890e+05
        Block[  2] -3.952776e+05
        Block[  3] -3.972010e+05
        Block[  4] -3.945834e+05
        -----------------------------------------------------------------------
        Average  -3.935798e+05 +/-  5.382676e+03 [K]



Inter-molecular energy contributions per energy type:
-------------------------------------------------------------------------------

    Van der Waals energy/kʙ 0-0 [CO2-CO2]:
    ---------------------------------------------------------------------------
        Block[  0] -2.791079e+05
        Block[  1] -2.862730e+05
        Block[  2] -2.818838e+05
        Block[  3] -2.845266e+05
        Block[  4] -2.835600e+05
        -----------------------------------------------------------------------
        Average  -2.830703e+05 +/-  3.384344e+03 [K]

    VDW Tail-Correction energy/kʙ 0-0 [CO2-CO2]:
    ---------------------------------------------------------------------------
        Block[  0] -8.869651e+03
        Block[  1] -9.060597e+03
        Block[  2] -8.965698e+03
        Block[  3] -9.056633e+03
        Block[  4] -8.997728e+03
        -----------------------------------------------------------------------
        Average  -8.990061e+03 +/-  9.727531e+01 [K]

    Coulomb Real energy/kʙ 0-0 [CO2-CO2]:
    ---------------------------------------------------------------------------
        Block[  0] -8.523915e+04
        Block[  1] -8.653093e+04
        Block[  2] -9.139826e+04
        Block[  3] -9.034620e+04
        Block[  4] -8.893646e+04
        -----------------------------------------------------------------------
        Average  -8.849020e+04 +/-  3.195943e+03 [K]

    Coulomb Fourier energy/kʙ 0-0 [CO2-CO2]:
    ---------------------------------------------------------------------------
        Block[  0] -1.283118e+04
        Block[  1] -1.292447e+04
        Block[  2] -1.302984e+04
        Block[  3] -1.327158e+04
        Block[  4] -1.308919e+04
        -----------------------------------------------------------------------
        Average  -1.302925e+04 +/-  2.082247e+02 [K]


Total energy/kʙ
-------------------------------------------------------------------------------
    Block[  0] -3.860479e+05
    Block[  1] -3.947890e+05
    Block[  2] -3.952776e+05
    Block[  3] -3.972010e+05
    Block[  4] -3.945834e+05
    ---------------------------------------------------------------------------
    Average  -3.935798e+05 +/-  5.382676e+03 [K]

Pressure averages and statistics:
===============================================================================

Average pressure tensor: 
-------------------------------------------------------------------------------
 1.0720e+02  4.9471e+00 -3.9743e+01 +/- 4.6900e+01 3.4193e+01 8.1674e+01 [bar]
 4.9471e+00  1.7482e+02  2.3671e+01 +/- 3.4193e+01 9.4738e+01 3.9197e+01 [bar]
-3.9743e+01  2.3671e+01  2.0936e+02 +/- 8.1674e+01 3.9197e+01 3.9129e+01 [bar]

    Block[  0]  5.082610e+07
    Block[  1]  5.192084e+07
    Block[  2]  5.135784e+07
    Block[  3]  5.183882e+07
    Block[  4]  5.151758e+07
    ---------------------------------------------------------------------------
    Ideal gas pressure   5.149224e+07 +/-  3.272227e-02 [Pa]
                         5.149224e+02 +/-  5.433664e+00 [bar]


    Block[  0] -3.645668e+07
    Block[  1] -3.726811e+07
    Block[  2] -3.504697e+07
    Block[  3] -3.214468e+07
    Block[  4] -3.464799e+07
    ---------------------------------------------------------------------------
    Excess pressure  -3.511289e+07 +/-  2.442369e+06 [Pa]
                     -3.511289e+02 +/-  2.442369e+01 [bar]


    Block[  0]  1.436942e+07
    Block[  1]  1.465272e+07
    Block[  2]  1.631087e+07
    Block[  3]  1.969414e+07
    Block[  4]  1.686959e+07
    ---------------------------------------------------------------------------
    Pressure average   1.637935e+07 +/-  2.652055e+06 [Pa]
                       1.637935e+02 +/-  2.652055e+01 [bar]


Enthalpy of adsorption
===============================================================================

No fluctuating components present.


Densities
===============================================================================

Component 0 (CO2)
    Block[  0] 250
    Block[  1] 250
    Block[  2] 250
    Block[  3] 250
    Block[  4] 250
    -----------------------------------------------------------------------
    Density average   2.500000e+02 +/-  0.000000e+00 [molecules]
    Density average   1.491826e-02 +/-  1.574233e-04 [molec/A^3]
    Density average   1.089953e+03 +/-  1.150162e+01 [kg.m⁻³]

