Compiler and run-time data
===============================================================================
RASPA 3.0.4

Random seed: 315370573

Compiled as a 64-bits application
Compiler: gcc Ubuntu Clang 18.1.3 (1ubuntu1)
Compile Date = Mar 15 2025, Compile Time = 19:39:45

2025-06-02 13:11:29.159423
Simulation started on Mon, Jun 02
The start time was 13:11:00

Hostname:    c061
OS type:     Linux on x86_64
OS release:  6.8.0-58-generic
OS version:  #60-Ubuntu SMP PREEMPT_DYNAMIC Fri Mar 14 18:29:48 UTC 2025


Mutual consistent basic set of units:
===============================================================================

Unit of temperature: 1 [K]
Unit of length:      1e-10 [m]
Unit of time:        1e-12 [s]
Unit of mass:        1.6605402e-27 [kg]
Unit of charge:      1.60217733e-19 [C/particle]


Boltzmann constant (internal units):          0.8314464919307584 [-]
represents conversion from energy (internal units) to temperature (in Kelvin)

Derived units and their conversion factors:
===============================================================================

Unit of energy:                           1.6605402000000002e-23 [J]
Unit of energy:                           10.000008872307538 [J.mol⁻¹]
Unit of velocity:                         100 [m.s⁻¹]
Unit of force:                            1.6605402000000002e-13 [N]
Unit of diffusion:                        1.0000000000000002e-08 [m².s⁻¹]
Unit of acceleration:                     1.0000000000000002e-08 [m².s⁻¹]
Unit of torque:                           1.6605402000000002e-23 [N.m]
Unit of pressure:                         16605402 [Pa]
Unit of volume:                           1e-30 [m³]
Unit of density:                          1660.5402 [kg.m⁻³]
Unit of dynamic viscosity:                1.6605401999999997e-05 [N.s.m⁻²]
Unit of enthalpy:                         1.6605402000000002e-23 [J]
Unit of polarizability:                   1.5458657349975198e-35 [-]
Unit of Coulomb potential:                167101.08000665612 [K]
Unit of dielectric constant:              1.5458657349975193e-05 [s².C².kg⁻¹.m⁻³]
Unit of dipole moment:                    1.60217733e-29 [C.m]
Unit of Debye:                            4.803206799099162 [C.m]
Unit of electric potential:               0.00010364272224473431 [V]
Unit of electric field:                   1036427.222447343 [V.m⁻¹]
Unit of isothermal compressibility:       6.02213665167516e-08 [Pa⁻¹]
Unit of heat capacity:                    10.000008872307538 [J.mol⁻¹.K⁻¹]
Unit of volumetric expansion coefficient: 1 [K⁻¹]


Internal conversion factors:
===============================================================================

Energy (internal units) to Kelvin:      1.202724284692786 [-]
Kelvin to energy (internal units):      0.8314457542157567 [-]


System definitions
===============================================================================

Temperature:          250 [K]
Beta:                 0.0048108928702210625 [-]
Pressure:             1.4e+07 [Pa]
Helium void fraction: 1 [-]

Box:      30.00000   0.00000   0.00000
           0.00000  30.00000   0.00000
           0.00000   0.00000  30.00000
Lengths:  30.00000  30.00000  30.00000
Angles:   90.00000  90.00000  90.00000
Rectangular boundary conditions



Property measurement settings
===============================================================================




Pseudo-atoms
===============================================================================

  0 - C_co2    framework-atom: false
  1 - O_co2    framework-atom: false

  0 - C_co2    mass: 12.00000, charge:  0.70000
  1 - O_co2    mass: 15.99940, charge: -0.35000

  0 - C_co2    polarizability:  0.00000
  1 - O_co2    polarizability:  0.00000

  0 - J. J. Potoff et al., AIChE J. 2001, 47, 1676–1682.
  1 - J. J. Potoff et al., AIChE J. 2001, 47, 1676–1682.

Force field status
===============================================================================

Cutoff Framework-Molecule VDW:  11.00000 [Å]
Cutoff Molecule-Molecule VDW:   11.00000 [Å]
Cutoff Coulomb:                 11.00000 [Å]

Overlap-criteria VDW:           1.000000e+05 [K]

C_co2    - C_co2    Lennard-Jones p₀/kʙ:  27.00000 [K], p₁:  2.80000 [Å]
                                  shift:   0.00000 [K], tailcorrections: true
C_co2    - O_co2    Lennard-Jones p₀/kʙ:  46.18441 [K], p₁:  2.92500 [Å]
                                  shift:   0.00000 [K], tailcorrections: true
O_co2    - O_co2    Lennard-Jones p₀/kʙ:  79.00000 [K], p₁:  3.05000 [Å]
                                  shift:   0.00000 [K], tailcorrections: true

Ewald precision: 1e-06
Ewald alpha: 0.2903408740940883
Ewald k-vectors: 9 9 9


Component definitions
===============================================================================

Component 0 [CO2]

    Type: Adsorbate

    Critical temperature:  304.1282 [K]
    Critical pressure:     7377300 [Pa]
    Acentric factor:       0.22394 [-]

    Mol-fraction:                 1 [-]
    Swappable:                   false

    Mass:                         43.9988 [-]
    Bulk fluid density:           0 [-]
    Compressibility:              0 [-]
    Excess molecules:             0 [-]

    Number Of Atoms:    3
    CBMC starting bead: 0
      0: O_co2  position  0.00000 -0.00000  1.16000, charge -0.35000
      1: C_co2  position  0.00000 -0.00000  0.00000, charge  0.70000
      2: O_co2  position  0.00000 -0.00000 -1.16000, charge -0.35000
    Diagonalized inertia-vector:      43.05758528 43.05758528 0.00000000
    Translational degrees of freedom: 3
    Rotational degrees of freedom:    2
    Shape of the molecule is: 'Linear'
    Net-charge:        0.00000000 [e]

    Move probabilities:
    Translation:                   0.331126 [-]
    Random translation:            0.000000 [-]
    Rotation:                      0.331126 [-]
    Random rotation:               0.000000 [-]
    Volume change:                 0.006623 [-]
    Reinsertion (CBMC):            0.331126 [-]
    Identity change (CBMC):        0.000000 [-]
    Swap:                          0.000000 [-]
    Swap (CBMC):                   0.000000 [-]
    Swap (CFCMC):                  0.000000 [-]
    Swap (CB/CFCMC):               0.000000 [-]
    Gibbs volume:                  0.000000 [-]
    Gibbs swap (CBMC):             0.000000 [-]
    Gibbs swap (CFCMC):            0.000000 [-]
    Widom:                         0.000000 [-]
    Widom (CFCMC):                 0.000000 [-]
    Widom (CB/CFCMC):              0.000000 [-]
    Parallel tempering:            0.000000 [-]
    Hybrid MC:                     0.000000 [-]

    number of blocking-pockets: 0

    number of bonds: 0





Number of pseudo-atoms
===============================================================================

Component   0 (CO2)
-------------------------------------------------------------------------------
    index   0 (C_co2): 250 atoms
    index   1 (O_co2): 500 atoms

Total number of pseudo-atoms:
-------------------------------------------------------------------------------
    index   0 (C_co2): 250 atoms
    index   1 (O_co2): 500 atoms




Energy status Recomputed from scratch
===============================================================================

Total potential energy/kʙ       -1.401057e+05 [K]
    external field VDW/kʙ        0.000000e+00 [K]
    external field Real/kʙ       0.000000e+00 [K]
    framework-molecule VDW/kʙ    0.000000e+00 [K]
    framework-molecule Real/kʙ   0.000000e+00 [K]
    molecule-molecule VDW/kʙ    -1.080488e+05 [K]
    molecule-molecule Real/kʙ   -2.354709e+04 [K]
    Van der Waals (Tail)/kʙ     -5.580763e+03 [K]
    Ewald Fourier/kʙ             1.976235e+04 [K]
    Ewald self/kʙ               -5.029674e+06 [K]
    Ewald exclusion/kʙ           5.006983e+06 [K]
    intra VDW/kʙ                 0.000000e+00 [K]
    intra Coulombic/kʙ           0.000000e+00 [K]
    polarization/kʙ              0.000000e+00 [K]
    dU/dlambda VDW/kʙ            0.000000e+00 [K]
    dU/dlambda Real/kʙ           0.000000e+00 [K]
    dU/dlambda Ewald/kʙ          0.000000e+00 [K]





Initialization: Current cycle: 0 out of 1000
===============================================================================

Box:      30.00000   0.00000   0.00000
           0.00000  30.00000   0.00000
           0.00000   0.00000  30.00000
Lengths:  30.00000  30.00000  30.00000
Angles:   90.00000  90.00000  90.00000
Rectangular boundary conditions

net charge:   0.00000000

component   0 (CO2) lambda:  0 occupancy:  1 (1.000000)
    net charge:   0.00000000 [e]

Amount of molecules per component :
-------------------------------------------------------------------------------
Component 0 (CO2)
    molecules:         2.500000e+02 molecules
    number density:    9.259259e-03 molec/A^3
    density:           6.764973e+02 kg/m^3

Total potential energy/kʙ       -1.582348e+05 [K]
-------------------------------------------------------------------------------
    external field VDW/kʙ        0.000000e+00 [K]
    external field Real/kʙ       0.000000e+00 [K]
    framework-molecule VDW/kʙ    0.000000e+00 [K]
    framework-molecule Real/kʙ   0.000000e+00 [K]
    molecule-molecule VDW/kʙ    -1.191414e+05 [K]
    molecule-molecule Real/kʙ   -2.954829e+04 [K]
    Van der Waals (Tail)/kʙ     -5.580763e+03 [K]
    Ewald Fourier/kʙ             1.872702e+04 [K]
    Ewald self/kʙ               -5.029674e+06 [K]
    Ewald exclusion/kʙ           5.006983e+06 [K]
    intra VDW/kʙ                 0.000000e+00 [K]
    intra Coulombic/kʙ           0.000000e+00 [K]
    polarization/kʙ              0.000000e+00 [K]
    dU/dlambda VDW/kʙ            0.000000e+00 [K]
    dU/dlambda Real/kʙ           0.000000e+00 [K]
    dU/dlambda Ewald/kʙ          0.000000e+00 [K]


Initialization: Current cycle: 100 out of 1000
===============================================================================

Box:      27.41849   0.00000   0.00000
           0.00000  27.41849   0.00000
           0.00000   0.00000  27.41849
Lengths:  27.41849  27.41849  27.41849
Angles:   90.00000  90.00000  90.00000
Rectangular boundary conditions

net charge:   0.00000000

component   0 (CO2) lambda:  0 occupancy:  1 (1.000000)
    net charge:   0.00000000 [e]

Amount of molecules per component :
-------------------------------------------------------------------------------
Component 0 (CO2)
    molecules:         2.500000e+02 molecules
    number density:    1.212856e-02 molec/A^3
    density:           8.861335e+02 kg/m^3

Total potential energy/kʙ       -3.116428e+05 [K]
-------------------------------------------------------------------------------
    external field VDW/kʙ        0.000000e+00 [K]
    external field Real/kʙ       0.000000e+00 [K]
    framework-molecule VDW/kʙ    0.000000e+00 [K]
    framework-molecule Real/kʙ   0.000000e+00 [K]
    molecule-molecule VDW/kʙ    -2.256415e+05 [K]
    molecule-molecule Real/kʙ   -6.756994e+04 [K]
    Van der Waals (Tail)/kʙ     -7.310155e+03 [K]
    Ewald Fourier/kʙ             1.157021e+04 [K]
    Ewald self/kʙ               -5.029674e+06 [K]
    Ewald exclusion/kʙ           5.006983e+06 [K]
    intra VDW/kʙ                 0.000000e+00 [K]
    intra Coulombic/kʙ           0.000000e+00 [K]
    polarization/kʙ              0.000000e+00 [K]
    dU/dlambda VDW/kʙ            0.000000e+00 [K]
    dU/dlambda Real/kʙ           0.000000e+00 [K]
    dU/dlambda Ewald/kʙ          0.000000e+00 [K]


Initialization: Current cycle: 200 out of 1000
===============================================================================

Box:      26.05239   0.00000   0.00000
           0.00000  26.05239   0.00000
           0.00000   0.00000  26.05239
Lengths:  26.05239  26.05239  26.05239
Angles:   90.00000  90.00000  90.00000
Rectangular boundary conditions

net charge:   0.00000000

component   0 (CO2) lambda:  0 occupancy:  1 (1.000000)
    net charge:   0.00000000 [e]

Amount of molecules per component :
-------------------------------------------------------------------------------
Component 0 (CO2)
    molecules:         2.500000e+02 molecules
    number density:    1.413830e-02 molec/A^3
    density:           1.032969e+03 kg/m^3

Total potential energy/kʙ       -3.655824e+05 [K]
-------------------------------------------------------------------------------
    external field VDW/kʙ        0.000000e+00 [K]
    external field Real/kʙ       0.000000e+00 [K]
    framework-molecule VDW/kʙ    0.000000e+00 [K]
    framework-molecule Real/kʙ   0.000000e+00 [K]
    molecule-molecule VDW/kʙ    -2.648692e+05 [K]
    molecule-molecule Real/kʙ   -7.966921e+04 [K]
    Van der Waals (Tail)/kʙ     -8.521472e+03 [K]
    Ewald Fourier/kʙ             1.016879e+04 [K]
    Ewald self/kʙ               -5.029674e+06 [K]
    Ewald exclusion/kʙ           5.006983e+06 [K]
    intra VDW/kʙ                 0.000000e+00 [K]
    intra Coulombic/kʙ           0.000000e+00 [K]
    polarization/kʙ              0.000000e+00 [K]
    dU/dlambda VDW/kʙ            0.000000e+00 [K]
    dU/dlambda Real/kʙ           0.000000e+00 [K]
    dU/dlambda Ewald/kʙ          0.000000e+00 [K]


Initialization: Current cycle: 300 out of 1000
===============================================================================

Box:      25.88080   0.00000   0.00000
           0.00000  25.88080   0.00000
           0.00000   0.00000  25.88080
Lengths:  25.88080  25.88080  25.88080
Angles:   90.00000  90.00000  90.00000
Rectangular boundary conditions

net charge:   0.00000000

component   0 (CO2) lambda:  0 occupancy:  1 (1.000000)
    net charge:   0.00000000 [e]

Amount of molecules per component :
-------------------------------------------------------------------------------
Component 0 (CO2)
    molecules:         2.500000e+02 molecules
    number density:    1.442138e-02 molec/A^3
    density:           1.053651e+03 kg/m^3

Total potential energy/kʙ       -3.779268e+05 [K]
-------------------------------------------------------------------------------
    external field VDW/kʙ        0.000000e+00 [K]
    external field Real/kʙ       0.000000e+00 [K]
    framework-molecule VDW/kʙ    0.000000e+00 [K]
    framework-molecule Real/kʙ   0.000000e+00 [K]
    molecule-molecule VDW/kʙ    -2.745295e+05 [K]
    molecule-molecule Real/kʙ   -8.252568e+04 [K]
    Van der Waals (Tail)/kʙ     -8.692090e+03 [K]
    Ewald Fourier/kʙ             1.051189e+04 [K]
    Ewald self/kʙ               -5.029674e+06 [K]
    Ewald exclusion/kʙ           5.006983e+06 [K]
    intra VDW/kʙ                 0.000000e+00 [K]
    intra Coulombic/kʙ           0.000000e+00 [K]
    polarization/kʙ              0.000000e+00 [K]
    dU/dlambda VDW/kʙ            0.000000e+00 [K]
    dU/dlambda Real/kʙ           0.000000e+00 [K]
    dU/dlambda Ewald/kʙ          0.000000e+00 [K]


Initialization: Current cycle: 400 out of 1000
===============================================================================

Box:      25.53319   0.00000   0.00000
           0.00000  25.53319   0.00000
           0.00000   0.00000  25.53319
Lengths:  25.53319  25.53319  25.53319
Angles:   90.00000  90.00000  90.00000
Rectangular boundary conditions

net charge:   0.00000000

component   0 (CO2) lambda:  0 occupancy:  1 (1.000000)
    net charge:   0.00000000 [e]

Amount of molecules per component :
-------------------------------------------------------------------------------
Component 0 (CO2)
    molecules:         2.500000e+02 molecules
    number density:    1.501844e-02 molec/A^3
    density:           1.097273e+03 kg/m^3

Total potential energy/kʙ       -3.975141e+05 [K]
-------------------------------------------------------------------------------
    external field VDW/kʙ        0.000000e+00 [K]
    external field Real/kʙ       0.000000e+00 [K]
    framework-molecule VDW/kʙ    0.000000e+00 [K]
    framework-molecule Real/kʙ   0.000000e+00 [K]
    molecule-molecule VDW/kʙ    -2.846353e+05 [K]
    molecule-molecule Real/kʙ   -9.050763e+04 [K]
    Van der Waals (Tail)/kʙ     -9.051952e+03 [K]
    Ewald Fourier/kʙ             9.372130e+03 [K]
    Ewald self/kʙ               -5.029674e+06 [K]
    Ewald exclusion/kʙ           5.006983e+06 [K]
    intra VDW/kʙ                 0.000000e+00 [K]
    intra Coulombic/kʙ           0.000000e+00 [K]
    polarization/kʙ              0.000000e+00 [K]
    dU/dlambda VDW/kʙ            0.000000e+00 [K]
    dU/dlambda Real/kʙ           0.000000e+00 [K]
    dU/dlambda Ewald/kʙ          0.000000e+00 [K]


Initialization: Current cycle: 500 out of 1000
===============================================================================

Box:      25.78290   0.00000   0.00000
           0.00000  25.78290   0.00000
           0.00000   0.00000  25.78290
Lengths:  25.78290  25.78290  25.78290
Angles:   90.00000  90.00000  90.00000
Rectangular boundary conditions

net charge:   0.00000000

component   0 (CO2) lambda:  0 occupancy:  1 (1.000000)
    net charge:   0.00000000 [e]

Amount of molecules per component :
-------------------------------------------------------------------------------
Component 0 (CO2)
    molecules:         2.500000e+02 molecules
    number density:    1.458628e-02 molec/A^3
    density:           1.065699e+03 kg/m^3

Total potential energy/kʙ       -3.862061e+05 [K]
-------------------------------------------------------------------------------
    external field VDW/kʙ        0.000000e+00 [K]
    external field Real/kʙ       0.000000e+00 [K]
    framework-molecule VDW/kʙ    0.000000e+00 [K]
    framework-molecule Real/kʙ   0.000000e+00 [K]
    molecule-molecule VDW/kʙ    -2.809305e+05 [K]
    molecule-molecule Real/kʙ   -8.324318e+04 [K]
    Van der Waals (Tail)/kʙ     -8.791477e+03 [K]
    Ewald Fourier/kʙ             9.450459e+03 [K]
    Ewald self/kʙ               -5.029674e+06 [K]
    Ewald exclusion/kʙ           5.006983e+06 [K]
    intra VDW/kʙ                 0.000000e+00 [K]
    intra Coulombic/kʙ           0.000000e+00 [K]
    polarization/kʙ              0.000000e+00 [K]
    dU/dlambda VDW/kʙ            0.000000e+00 [K]
    dU/dlambda Real/kʙ           0.000000e+00 [K]
    dU/dlambda Ewald/kʙ          0.000000e+00 [K]


Initialization: Current cycle: 600 out of 1000
===============================================================================

Box:      25.67110   0.00000   0.00000
           0.00000  25.67110   0.00000
           0.00000   0.00000  25.67110
Lengths:  25.67110  25.67110  25.67110
Angles:   90.00000  90.00000  90.00000
Rectangular boundary conditions

net charge:   0.00000000

component   0 (CO2) lambda:  0 occupancy:  1 (1.000000)
    net charge:   0.00000000 [e]

Amount of molecules per component :
-------------------------------------------------------------------------------
Component 0 (CO2)
    molecules:         2.500000e+02 molecules
    number density:    1.477770e-02 molec/A^3
    density:           1.079684e+03 kg/m^3

Total potential energy/kʙ       -3.842368e+05 [K]
-------------------------------------------------------------------------------
    external field VDW/kʙ        0.000000e+00 [K]
    external field Real/kʙ       0.000000e+00 [K]
    framework-molecule VDW/kʙ    0.000000e+00 [K]
    framework-molecule Real/kʙ   0.000000e+00 [K]
    molecule-molecule VDW/kʙ    -2.794770e+05 [K]
    molecule-molecule Real/kʙ   -8.301008e+04 [K]
    Van der Waals (Tail)/kʙ     -8.906847e+03 [K]
    Ewald Fourier/kʙ             9.848447e+03 [K]
    Ewald self/kʙ               -5.029674e+06 [K]
    Ewald exclusion/kʙ           5.006983e+06 [K]
    intra VDW/kʙ                 0.000000e+00 [K]
    intra Coulombic/kʙ           0.000000e+00 [K]
    polarization/kʙ              0.000000e+00 [K]
    dU/dlambda VDW/kʙ            0.000000e+00 [K]
    dU/dlambda Real/kʙ           0.000000e+00 [K]
    dU/dlambda Ewald/kʙ          0.000000e+00 [K]


Initialization: Current cycle: 700 out of 1000
===============================================================================

Box:      25.45884   0.00000   0.00000
           0.00000  25.45884   0.00000
           0.00000   0.00000  25.45884
Lengths:  25.45884  25.45884  25.45884
Angles:   90.00000  90.00000  90.00000
Rectangular boundary conditions

net charge:   0.00000000

component   0 (CO2) lambda:  0 occupancy:  1 (1.000000)
    net charge:   0.00000000 [e]

Amount of molecules per component :
-------------------------------------------------------------------------------
Component 0 (CO2)
    molecules:         2.500000e+02 molecules
    number density:    1.515039e-02 molec/A^3
    density:           1.106914e+03 kg/m^3

Total potential energy/kʙ       -4.040060e+05 [K]
-------------------------------------------------------------------------------
    external field VDW/kʙ        0.000000e+00 [K]
    external field Real/kʙ       0.000000e+00 [K]
    framework-molecule VDW/kʙ    0.000000e+00 [K]
    framework-molecule Real/kʙ   0.000000e+00 [K]
    molecule-molecule VDW/kʙ    -2.905582e+05 [K]
    molecule-molecule Real/kʙ   -9.099753e+04 [K]
    Van der Waals (Tail)/kʙ     -9.131481e+03 [K]
    Ewald Fourier/kʙ             9.372577e+03 [K]
    Ewald self/kʙ               -5.029674e+06 [K]
    Ewald exclusion/kʙ           5.006983e+06 [K]
    intra VDW/kʙ                 0.000000e+00 [K]
    intra Coulombic/kʙ           0.000000e+00 [K]
    polarization/kʙ              0.000000e+00 [K]
    dU/dlambda VDW/kʙ            0.000000e+00 [K]
    dU/dlambda Real/kʙ           0.000000e+00 [K]
    dU/dlambda Ewald/kʙ          0.000000e+00 [K]


Initialization: Current cycle: 800 out of 1000
===============================================================================

Box:      25.49679   0.00000   0.00000
           0.00000  25.49679   0.00000
           0.00000   0.00000  25.49679
Lengths:  25.49679  25.49679  25.49679
Angles:   90.00000  90.00000  90.00000
Rectangular boundary conditions

net charge:   0.00000000

component   0 (CO2) lambda:  0 occupancy:  1 (1.000000)
    net charge:   0.00000000 [e]

Amount of molecules per component :
-------------------------------------------------------------------------------
Component 0 (CO2)
    molecules:         2.500000e+02 molecules
    number density:    1.508285e-02 molec/A^3
    density:           1.101979e+03 kg/m^3

Total potential energy/kʙ       -4.004285e+05 [K]
-------------------------------------------------------------------------------
    external field VDW/kʙ        0.000000e+00 [K]
    external field Real/kʙ       0.000000e+00 [K]
    framework-molecule VDW/kʙ    0.000000e+00 [K]
    framework-molecule Real/kʙ   0.000000e+00 [K]
    molecule-molecule VDW/kʙ    -2.828597e+05 [K]
    molecule-molecule Real/kʙ   -9.451818e+04 [K]
    Van der Waals (Tail)/kʙ     -9.090770e+03 [K]
    Ewald Fourier/kʙ             8.731536e+03 [K]
    Ewald self/kʙ               -5.029674e+06 [K]
    Ewald exclusion/kʙ           5.006983e+06 [K]
    intra VDW/kʙ                 0.000000e+00 [K]
    intra Coulombic/kʙ           0.000000e+00 [K]
    polarization/kʙ              0.000000e+00 [K]
    dU/dlambda VDW/kʙ            0.000000e+00 [K]
    dU/dlambda Real/kʙ           0.000000e+00 [K]
    dU/dlambda Ewald/kʙ          0.000000e+00 [K]


Initialization: Current cycle: 900 out of 1000
===============================================================================

Box:      25.62895   0.00000   0.00000
           0.00000  25.62895   0.00000
           0.00000   0.00000  25.62895
Lengths:  25.62895  25.62895  25.62895
Angles:   90.00000  90.00000  90.00000
Rectangular boundary conditions

net charge:   0.00000000

component   0 (CO2) lambda:  0 occupancy:  1 (1.000000)
    net charge:   0.00000000 [e]

Amount of molecules per component :
-------------------------------------------------------------------------------
Component 0 (CO2)
    molecules:         2.500000e+02 molecules
    number density:    1.485072e-02 molec/A^3
    density:           1.085019e+03 kg/m^3

Total potential energy/kʙ       -3.961426e+05 [K]
-------------------------------------------------------------------------------
    external field VDW/kʙ        0.000000e+00 [K]
    external field Real/kʙ       0.000000e+00 [K]
    framework-molecule VDW/kʙ    0.000000e+00 [K]
    framework-molecule Real/kʙ   0.000000e+00 [K]
    molecule-molecule VDW/kʙ    -2.872082e+05 [K]
    molecule-molecule Real/kʙ   -8.649135e+04 [K]
    Van der Waals (Tail)/kʙ     -8.950859e+03 [K]
    Ewald Fourier/kʙ             9.199171e+03 [K]
    Ewald self/kʙ               -5.029674e+06 [K]
    Ewald exclusion/kʙ           5.006983e+06 [K]
    intra VDW/kʙ                 0.000000e+00 [K]
    intra Coulombic/kʙ           0.000000e+00 [K]
    polarization/kʙ              0.000000e+00 [K]
    dU/dlambda VDW/kʙ            0.000000e+00 [K]
    dU/dlambda Real/kʙ           0.000000e+00 [K]
    dU/dlambda Ewald/kʙ          0.000000e+00 [K]


Current cycle: 0 out of 5000
===============================================================================

Box:      25.36747   0.00000   0.00000  Average:  25.36747   0.00000   0.00000
           0.00000  25.36747   0.00000             0.00000  25.36747   0.00000
           0.00000   0.00000  25.36747             0.00000   0.00000  25.36747
Lengths:  25.36747  25.36747  25.36747  Average:  25.36747  25.36747  25.36747
Angles:   90.00000  90.00000  90.00000  Average:  90.00000  90.00000  90.00000
Rectangular boundary conditions

net charge:   0.00000000

component 0 (CO2) lambda:  0 occupancy:  1 (1.000000)
    net charge:   0.00000000 [e]

Amount of molecules per component :
-------------------------------------------------------------------------------
Component 0 (CO2)
    molecules:      2.500000e+02 molecules  (2.500000e+02 +/- 0.000000e+00)
    number density: 1.531471e-02 molec./A^3 (1.531471e-02 +/- 0.000000e+00)
    density:        1.118919e+03 kg/m^3     (1.118919e+03 +/- 0.000000e+00)

Average pressure tensor: 
-------------------------------------------------------------------------------
 5.2861e+02  0.0000e+00  0.0000e+00 +/- 0.0000e+00 0.0000e+00 0.0000e+00 [bar]
 0.0000e+00  5.2861e+02  0.0000e+00 +/- 0.0000e+00 0.0000e+00 0.0000e+00 [bar]
 0.0000e+00  0.0000e+00  5.2861e+02 +/- 0.0000e+00 0.0000e+00 0.0000e+00 [bar]
Ideal-gas pressure:   5.286065e+02 +/ 0.000000e+00 [bar]
Excess pressure:      0.000000e+00 +/ 0.000000e+00 [bar]
Pressure:             5.286065e+02 +/ 0.000000e+00 [bar]

Total potential energy/kʙ  -3.954871e+05 (-3.954871e+05 +/- 0.000000e+00) [K]
-------------------------------------------------------------------------------
ExternalField-molecule
    Van der Waals/kʙ        0.000000e+00 ( 0.000000e+00 +/- 0.000000e+00) [K]
Framework-molecule
    Van der Waals/kʙ        0.000000e+00 ( 0.000000e+00 +/- 0.000000e+00) [K]
    Van der Waals (Tail)/kʙ 0.000000e+00 ( 0.000000e+00 +/- 0.000000e+00) [K]
    Coulombic Real/kʙ       0.000000e+00 ( 0.000000e+00 +/- 0.000000e+00) [K]
    Coulombic Fourier/kʙ    0.000000e+00 ( 0.000000e+00 +/- 0.000000e+00) [K]
Molecule-molecule
    Van der Waals/kʙ       -2.850929e+05 (-2.850929e+05 +/- 0.000000e+00) [K]
    Van der Waals (Tail)/kʙ-9.230518e+03 (-9.230518e+03 +/- 0.000000e+00) [K]
    Coulombic Real/kʙ      -8.788850e+04 (-8.788850e+04 +/- 0.000000e+00) [K]
    Coulombic Fourier/kʙ   -1.327514e+04 (-1.327514e+04 +/- 0.000000e+00) [K]
    Molecule Intra/kʙ       0.000000e+00 ( 0.000000e+00 +/- 0.000000e+00) [K]

Current cycle: 100 out of 5000
===============================================================================

Box:      25.69618   0.00000   0.00000  Average:  25.58598   0.00000   0.00000
           0.00000  25.69618   0.00000             0.00000  25.58598   0.00000
           0.00000   0.00000  25.69618             0.00000   0.00000  25.58598
Lengths:  25.69618  25.69618  25.69618  Average:  25.58598  25.58598  25.58598
Angles:   90.00000  90.00000  90.00000  Average:  90.00000  90.00000  90.00000
Rectangular boundary conditions

net charge:   0.00000000

component 0 (CO2) lambda:  0 occupancy:  1 (1.000000)
    net charge:   0.00000000 [e]

Amount of molecules per component :
-------------------------------------------------------------------------------
Component 0 (CO2)
    molecules:      2.500000e+02 molecules  (2.500000e+02 +/- 0.000000e+00)
    number density: 1.473446e-02 molec./A^3 (1.492761e-02 +/- 0.000000e+00)
    density:        1.076525e+03 kg/m^3     (1.090637e+03 +/- 0.000000e+00)

Average pressure tensor: 
-------------------------------------------------------------------------------
 9.6019e+01 -2.4538e+02  9.6914e+01 +/- 0.0000e+00 0.0000e+00 0.0000e+00 [bar]
-2.4538e+02  1.3049e+02  7.9129e+01 +/- 0.0000e+00 0.0000e+00 0.0000e+00 [bar]
 9.6914e+01  7.9129e+01  8.9568e+01 +/- 0.0000e+00 0.0000e+00 0.0000e+00 [bar]
Ideal-gas pressure:   5.152453e+02 +/ 0.000000e+00 [bar]
Excess pressure:     -4.098874e+02 +/ 0.000000e+00 [bar]
Pressure:             1.053579e+02 +/ 0.000000e+00 [bar]

Total potential energy/kʙ  -3.910859e+05 (-3.934927e+05 +/- 0.000000e+00) [K]
-------------------------------------------------------------------------------
ExternalField-molecule
    Van der Waals/kʙ        0.000000e+00 ( 0.000000e+00 +/- 0.000000e+00) [K]
Framework-molecule
    Van der Waals/kʙ        0.000000e+00 ( 0.000000e+00 +/- 0.000000e+00) [K]
    Van der Waals (Tail)/kʙ 0.000000e+00 ( 0.000000e+00 +/- 0.000000e+00) [K]
    Coulombic Real/kʙ       0.000000e+00 ( 0.000000e+00 +/- 0.000000e+00) [K]
    Coulombic Fourier/kʙ    0.000000e+00 ( 0.000000e+00 +/- 0.000000e+00) [K]
Molecule-molecule
    Van der Waals/kʙ       -2.782790e+05 (-2.824235e+05 +/- 0.000000e+00) [K]
    Van der Waals (Tail)/kʙ-8.880787e+03 (-8.984622e+03 +/- 0.000000e+00) [K]
    Coulombic Real/kʙ      -9.043878e+04 (-8.899617e+04 +/- 0.000000e+00) [K]
    Coulombic Fourier/kʙ   -1.348730e+04 (-1.308839e+04 +/- 0.000000e+00) [K]
    Molecule Intra/kʙ       0.000000e+00 ( 0.000000e+00 +/- 0.000000e+00) [K]

Current cycle: 200 out of 5000
===============================================================================

Box:      25.68176   0.00000   0.00000  Average:  25.66850   0.00000   0.00000
           0.00000  25.68176   0.00000             0.00000  25.66850   0.00000
           0.00000   0.00000  25.68176             0.00000   0.00000  25.66850
Lengths:  25.68176  25.68176  25.68176  Average:  25.66850  25.66850  25.66850
Angles:   90.00000  90.00000  90.00000  Average:  90.00000  90.00000  90.00000
Rectangular boundary conditions

net charge:   0.00000000

component 0 (CO2) lambda:  0 occupancy:  1 (1.000000)
    net charge:   0.00000000 [e]

Amount of molecules per component :
-------------------------------------------------------------------------------
Component 0 (CO2)
    molecules:      2.500000e+02 molecules  (2.500000e+02 +/- 0.000000e+00)
    number density: 1.475929e-02 molec./A^3 (1.478448e-02 +/- 0.000000e+00)
    density:        1.078339e+03 kg/m^3     (1.080179e+03 +/- 0.000000e+00)

Average pressure tensor: 
-------------------------------------------------------------------------------
 6.8256e+01 -9.3343e+01  2.4686e+01 +/- 0.0000e+00 0.0000e+00 0.0000e+00 [bar]
-9.3343e+01  1.0538e+02 -5.3731e+00 +/- 0.0000e+00 0.0000e+00 0.0000e+00 [bar]
 2.4686e+01 -5.3731e+00  9.7424e+01 +/- 0.0000e+00 0.0000e+00 0.0000e+00 [bar]
Ideal-gas pressure:   5.103049e+02 +/ 0.000000e+00 [bar]
Excess pressure:     -4.199511e+02 +/ 0.000000e+00 [bar]
Pressure:             9.035389e+01 +/ 0.000000e+00 [bar]

Total potential energy/kʙ  -3.845651e+05 (-3.894965e+05 +/- 0.000000e+00) [K]
-------------------------------------------------------------------------------
ExternalField-molecule
    Van der Waals/kʙ        0.000000e+00 ( 0.000000e+00 +/- 0.000000e+00) [K]
Framework-molecule
    Van der Waals/kʙ        0.000000e+00 ( 0.000000e+00 +/- 0.000000e+00) [K]
    Van der Waals (Tail)/kʙ 0.000000e+00 ( 0.000000e+00 +/- 0.000000e+00) [K]
    Coulombic Real/kʙ       0.000000e+00 ( 0.000000e+00 +/- 0.000000e+00) [K]
    Coulombic Fourier/kʙ    0.000000e+00 ( 0.000000e+00 +/- 0.000000e+00) [K]
Molecule-molecule
    Van der Waals/kʙ       -2.772442e+05 (-2.798803e+05 +/- 0.000000e+00) [K]
    Van der Waals (Tail)/kʙ-8.895757e+03 (-8.896996e+03 +/- 0.000000e+00) [K]
    Coulombic Real/kʙ      -8.651625e+04 (-8.798640e+04 +/- 0.000000e+00) [K]
    Coulombic Fourier/kʙ   -1.190890e+04 (-1.273278e+04 +/- 0.000000e+00) [K]
    Molecule Intra/kʙ       0.000000e+00 ( 0.000000e+00 +/- 0.000000e+00) [K]

Current cycle: 300 out of 5000
===============================================================================

Box:      25.47069   0.00000   0.00000  Average:  25.62146   0.00000   0.00000
           0.00000  25.47069   0.00000             0.00000  25.62146   0.00000
           0.00000   0.00000  25.47069             0.00000   0.00000  25.62146
Lengths:  25.47069  25.47069  25.47069  Average:  25.62146  25.62146  25.62146
Angles:   90.00000  90.00000  90.00000  Average:  90.00000  90.00000  90.00000
Rectangular boundary conditions

net charge:   0.00000000

component 0 (CO2) lambda:  0 occupancy:  1 (1.000000)
    net charge:   0.00000000 [e]

Amount of molecules per component :
-------------------------------------------------------------------------------
Component 0 (CO2)
    molecules:      2.500000e+02 molecules  (2.500000e+02 +/- 0.000000e+00)
    number density: 1.512926e-02 molec./A^3 (1.486618e-02 +/- 0.000000e+00)
    density:        1.105370e+03 kg/m^3     (1.086148e+03 +/- 0.000000e+00)

Average pressure tensor: 
-------------------------------------------------------------------------------
 6.0644e+01 -1.2228e+02  1.0671e+00 +/- 0.0000e+00 0.0000e+00 0.0000e+00 [bar]
-1.2228e+02  1.5007e+02 -1.5507e+01 +/- 0.0000e+00 0.0000e+00 0.0000e+00 [bar]
 1.0671e+00 -1.5507e+01  1.1527e+02 +/- 0.0000e+00 0.0000e+00 0.0000e+00 [bar]
Ideal-gas pressure:   5.131248e+02 +/ 0.000000e+00 [bar]
Excess pressure:     -4.044628e+02 +/ 0.000000e+00 [bar]
Pressure:             1.086620e+02 +/ 0.000000e+00 [bar]

Total potential energy/kʙ  -3.986825e+05 (-3.917050e+05 +/- 0.000000e+00) [K]
-------------------------------------------------------------------------------
ExternalField-molecule
    Van der Waals/kʙ        0.000000e+00 ( 0.000000e+00 +/- 0.000000e+00) [K]
Framework-molecule
    Van der Waals/kʙ        0.000000e+00 ( 0.000000e+00 +/- 0.000000e+00) [K]
    Van der Waals (Tail)/kʙ 0.000000e+00 ( 0.000000e+00 +/- 0.000000e+00) [K]
    Coulombic Real/kʙ       0.000000e+00 ( 0.000000e+00 +/- 0.000000e+00) [K]
    Coulombic Fourier/kʙ    0.000000e+00 ( 0.000000e+00 +/- 0.000000e+00) [K]
Molecule-molecule
    Van der Waals/kʙ       -2.862581e+05 (-2.815436e+05 +/- 0.000000e+00) [K]
    Van der Waals (Tail)/kʙ-9.118745e+03 (-8.949477e+03 +/- 0.000000e+00) [K]
    Coulombic Real/kʙ      -9.032432e+04 (-8.864324e+04 +/- 0.000000e+00) [K]
    Coulombic Fourier/kʙ   -1.298138e+04 (-1.256870e+04 +/- 0.000000e+00) [K]
    Molecule Intra/kʙ       0.000000e+00 ( 0.000000e+00 +/- 0.000000e+00) [K]

Current cycle: 400 out of 5000
===============================================================================

Box:      25.51425   0.00000   0.00000  Average:  25.63285   0.00000   0.00000
           0.00000  25.51425   0.00000             0.00000  25.63285   0.00000
           0.00000   0.00000  25.51425             0.00000   0.00000  25.63285
Lengths:  25.51425  25.51425  25.51425  Average:  25.63285  25.63285  25.63285
Angles:   90.00000  90.00000  90.00000  Average:  90.00000  90.00000  90.00000
Rectangular boundary conditions

net charge:   0.00000000

component 0 (CO2) lambda:  0 occupancy:  1 (1.000000)
    net charge:   0.00000000 [e]

Amount of molecules per component :
-------------------------------------------------------------------------------
Component 0 (CO2)
    molecules:      2.500000e+02 molecules  (2.500000e+02 +/- 0.000000e+00)
    number density: 1.505191e-02 molec./A^3 (1.484603e-02 +/- 0.000000e+00)
    density:        1.099718e+03 kg/m^3     (1.084676e+03 +/- 0.000000e+00)

Average pressure tensor: 
-------------------------------------------------------------------------------
 7.9970e+01 -8.9926e+01 -6.9394e+00 +/- 0.0000e+00 0.0000e+00 0.0000e+00 [bar]
-8.9926e+01  1.4508e+02  1.7273e+01 +/- 0.0000e+00 0.0000e+00 0.0000e+00 [bar]
-6.9394e+00  1.7273e+01  2.1312e+02 +/- 0.0000e+00 0.0000e+00 0.0000e+00 [bar]
Ideal-gas pressure:   5.124294e+02 +/ 0.000000e+00 [bar]
Excess pressure:     -3.663733e+02 +/ 0.000000e+00 [bar]
Pressure:             1.460560e+02 +/ 0.000000e+00 [bar]

Total potential energy/kʙ  -3.988555e+05 (-3.909100e+05 +/- 0.000000e+00) [K]
-------------------------------------------------------------------------------
ExternalField-molecule
    Van der Waals/kʙ        0.000000e+00 ( 0.000000e+00 +/- 0.000000e+00) [K]
Framework-molecule
    Van der Waals/kʙ        0.000000e+00 ( 0.000000e+00 +/- 0.000000e+00) [K]
    Van der Waals (Tail)/kʙ 0.000000e+00 ( 0.000000e+00 +/- 0.000000e+00) [K]
    Coulombic Real/kʙ       0.000000e+00 ( 0.000000e+00 +/- 0.000000e+00) [K]
    Coulombic Fourier/kʙ    0.000000e+00 ( 0.000000e+00 +/- 0.000000e+00) [K]
Molecule-molecule
    Van der Waals/kʙ       -2.812340e+05 (-2.805015e+05 +/- 0.000000e+00) [K]
    Van der Waals (Tail)/kʙ-9.072124e+03 (-8.947254e+03 +/- 0.000000e+00) [K]
    Coulombic Real/kʙ      -9.504928e+04 (-8.872632e+04 +/- 0.000000e+00) [K]
    Coulombic Fourier/kʙ   -1.350010e+04 (-1.273501e+04 +/- 0.000000e+00) [K]
    Molecule Intra/kʙ       0.000000e+00 ( 0.000000e+00 +/- 0.000000e+00) [K]

Current cycle: 500 out of 5000
===============================================================================

Box:      25.81518   0.00000   0.00000  Average:  25.63498   0.00000   0.00000
           0.00000  25.81518   0.00000             0.00000  25.63498   0.00000
           0.00000   0.00000  25.81518             0.00000   0.00000  25.63498
Lengths:  25.81518  25.81518  25.81518  Average:  25.63498  25.63498  25.63498
Angles:   90.00000  90.00000  90.00000  Average:  90.00000  90.00000  90.00000
Rectangular boundary conditions

net charge:   0.00000000

component 0 (CO2) lambda:  0 occupancy:  1 (1.000000)
    net charge:   0.00000000 [e]

Amount of molecules per component :
-------------------------------------------------------------------------------
Component 0 (CO2)
    molecules:      2.500000e+02 molecules  (2.500000e+02 +/- 0.000000e+00)
    number density: 1.453164e-02 molec./A^3 (1.484215e-02 +/- 0.000000e+00)
    density:        1.061706e+03 kg/m^3     (1.084393e+03 +/- 0.000000e+00)

Average pressure tensor: 
-------------------------------------------------------------------------------
 4.6408e+01 -6.4276e+01 -1.4637e+01 +/- 0.0000e+00 0.0000e+00 0.0000e+00 [bar]
-6.4276e+01  1.4834e+02 -2.1496e+01 +/- 0.0000e+00 0.0000e+00 0.0000e+00 [bar]
-1.4637e+01 -2.1496e+01  2.2424e+02 +/- 0.0000e+00 0.0000e+00 0.0000e+00 [bar]
Ideal-gas pressure:   5.122955e+02 +/ 0.000000e+00 [bar]
Excess pressure:     -3.726317e+02 +/ 0.000000e+00 [bar]
Pressure:             1.396638e+02 +/ 0.000000e+00 [bar]

Total potential energy/kʙ  -3.757278e+05 (-3.904181e+05 +/- 0.000000e+00) [K]
-------------------------------------------------------------------------------
ExternalField-molecule
    Van der Waals/kʙ        0.000000e+00 ( 0.000000e+00 +/- 0.000000e+00) [K]
Framework-molecule
    Van der Waals/kʙ        0.000000e+00 ( 0.000000e+00 +/- 0.000000e+00) [K]
    Van der Waals (Tail)/kʙ 0.000000e+00 ( 0.000000e+00 +/- 0.000000e+00) [K]
    Coulombic Real/kʙ       0.000000e+00 ( 0.000000e+00 +/- 0.000000e+00) [K]
    Coulombic Fourier/kʙ    0.000000e+00 ( 0.000000e+00 +/- 0.000000e+00) [K]
Molecule-molecule
    Van der Waals/kʙ       -2.753713e+05 (-2.805471e+05 +/- 0.000000e+00) [K]
    Van der Waals (Tail)/kʙ-8.758544e+03 (-8.941419e+03 +/- 0.000000e+00) [K]
    Coulombic Real/kʙ      -7.848738e+04 (-8.811104e+04 +/- 0.000000e+00) [K]
    Coulombic Fourier/kʙ   -1.311059e+04 (-1.281857e+04 +/- 0.000000e+00) [K]
    Molecule Intra/kʙ       0.000000e+00 ( 0.000000e+00 +/- 0.000000e+00) [K]

Current cycle: 600 out of 5000
===============================================================================

Box:      25.89936   0.00000   0.00000  Average:  25.65968   0.00000   0.00000
           0.00000  25.89936   0.00000             0.00000  25.65968   0.00000
           0.00000   0.00000  25.89936             0.00000   0.00000  25.65968
Lengths:  25.89936  25.89936  25.89936  Average:  25.65968  25.65968  25.65968
Angles:   90.00000  90.00000  90.00000  Average:  90.00000  90.00000  90.00000
Rectangular boundary conditions

net charge:   0.00000000

component 0 (CO2) lambda:  0 occupancy:  1 (1.000000)
    net charge:   0.00000000 [e]

Amount of molecules per component :
-------------------------------------------------------------------------------
Component 0 (CO2)
    molecules:      2.500000e+02 molecules  (2.500000e+02 +/- 0.000000e+00)
    number density: 1.439040e-02 molec./A^3 (1.479974e-02 +/- 0.000000e+00)
    density:        1.051387e+03 kg/m^3     (1.081294e+03 +/- 0.000000e+00)

Average pressure tensor: 
-------------------------------------------------------------------------------
 5.9918e+01 -3.0022e+01 -2.2955e+01 +/- 0.0000e+00 0.0000e+00 0.0000e+00 [bar]
-3.0022e+01  1.3496e+02  1.0749e+01 +/- 0.0000e+00 0.0000e+00 0.0000e+00 [bar]
-2.2955e+01  1.0749e+01  1.9346e+02 +/- 0.0000e+00 0.0000e+00 0.0000e+00 [bar]
Ideal-gas pressure:   5.108316e+02 +/ 0.000000e+00 [bar]
Excess pressure:     -3.813860e+02 +/ 0.000000e+00 [bar]
Pressure:             1.294456e+02 +/ 0.000000e+00 [bar]

Total potential energy/kʙ  -3.686800e+05 (-3.886636e+05 +/- 0.000000e+00) [K]
-------------------------------------------------------------------------------
ExternalField-molecule
    Van der Waals/kʙ        0.000000e+00 ( 0.000000e+00 +/- 0.000000e+00) [K]
Framework-molecule
    Van der Waals/kʙ        0.000000e+00 ( 0.000000e+00 +/- 0.000000e+00) [K]
    Van der Waals (Tail)/kʙ 0.000000e+00 ( 0.000000e+00 +/- 0.000000e+00) [K]
    Coulombic Real/kʙ       0.000000e+00 ( 0.000000e+00 +/- 0.000000e+00) [K]
    Coulombic Fourier/kʙ    0.000000e+00 ( 0.000000e+00 +/- 0.000000e+00) [K]
Molecule-molecule
    Van der Waals/kʙ       -2.618318e+05 (-2.790947e+05 +/- 0.000000e+00) [K]
    Van der Waals (Tail)/kʙ-8.673415e+03 (-8.911939e+03 +/- 0.000000e+00) [K]
    Coulombic Real/kʙ      -8.556532e+04 (-8.781095e+04 +/- 0.000000e+00) [K]
    Coulombic Fourier/kʙ   -1.260952e+04 (-1.284596e+04 +/- 0.000000e+00) [K]
    Molecule Intra/kʙ       0.000000e+00 ( 0.000000e+00 +/- 0.000000e+00) [K]

Current cycle: 700 out of 5000
===============================================================================

Box:      25.89827   0.00000   0.00000  Average:  25.70210   0.00000   0.00000
           0.00000  25.89827   0.00000             0.00000  25.70210   0.00000
           0.00000   0.00000  25.89827             0.00000   0.00000  25.70210
Lengths:  25.89827  25.89827  25.89827  Average:  25.70210  25.70210  25.70210
Angles:   90.00000  90.00000  90.00000  Average:  90.00000  90.00000  90.00000
Rectangular boundary conditions

net charge:   0.00000000

component 0 (CO2) lambda:  0 occupancy:  1 (1.000000)
    net charge:   0.00000000 [e]

Amount of molecules per component :
-------------------------------------------------------------------------------
Component 0 (CO2)
    molecules:      2.500000e+02 molecules  (2.500000e+02 +/- 0.000000e+00)
    number density: 1.439222e-02 molec./A^3 (1.472788e-02 +/- 0.000000e+00)
    density:        1.051520e+03 kg/m^3     (1.076044e+03 +/- 0.000000e+00)

Average pressure tensor: 
-------------------------------------------------------------------------------
 6.7164e+01 -8.9460e+00 -8.8384e+00 +/- 0.0000e+00 0.0000e+00 0.0000e+00 [bar]
-8.9460e+00  1.4773e+02 -1.4506e+01 +/- 0.0000e+00 0.0000e+00 0.0000e+00 [bar]
-8.8384e+00 -1.4506e+01  1.5680e+02 +/- 0.0000e+00 0.0000e+00 0.0000e+00 [bar]
Ideal-gas pressure:   5.083512e+02 +/ 0.000000e+00 [bar]
Excess pressure:     -3.844549e+02 +/ 0.000000e+00 [bar]
Pressure:             1.238962e+02 +/ 0.000000e+00 [bar]

Total potential energy/kʙ  -3.790328e+05 (-3.866718e+05 +/- 0.000000e+00) [K]
-------------------------------------------------------------------------------
ExternalField-molecule
    Van der Waals/kʙ        0.000000e+00 ( 0.000000e+00 +/- 0.000000e+00) [K]
Framework-molecule
    Van der Waals/kʙ        0.000000e+00 ( 0.000000e+00 +/- 0.000000e+00) [K]
    Van der Waals (Tail)/kʙ 0.000000e+00 ( 0.000000e+00 +/- 0.000000e+00) [K]
    Coulombic Real/kʙ       0.000000e+00 ( 0.000000e+00 +/- 0.000000e+00) [K]
    Coulombic Fourier/kʙ    0.000000e+00 ( 0.000000e+00 +/- 0.000000e+00) [K]
Molecule-molecule
    Van der Waals/kʙ       -2.718386e+05 (-2.779439e+05 +/- 0.000000e+00) [K]
    Van der Waals (Tail)/kʙ-8.674515e+03 (-8.871867e+03 +/- 0.000000e+00) [K]
    Coulombic Real/kʙ      -8.659058e+04 (-8.707791e+04 +/- 0.000000e+00) [K]
    Coulombic Fourier/kʙ   -1.192912e+04 (-1.277818e+04 +/- 0.000000e+00) [K]
    Molecule Intra/kʙ       0.000000e+00 ( 0.000000e+00 +/- 0.000000e+00) [K]

Current cycle: 800 out of 5000
===============================================================================

Box:      25.88478   0.00000   0.00000  Average:  25.72684   0.00000   0.00000
           0.00000  25.88478   0.00000             0.00000  25.72684   0.00000
           0.00000   0.00000  25.88478             0.00000   0.00000  25.72684
Lengths:  25.88478  25.88478  25.88478  Average:  25.72684  25.72684  25.72684
Angles:   90.00000  90.00000  90.00000  Average:  90.00000  90.00000  90.00000
Rectangular boundary conditions

net charge:   0.00000000

component 0 (CO2) lambda:  0 occupancy:  1 (1.000000)
    net charge:   0.00000000 [e]

Amount of molecules per component :
-------------------------------------------------------------------------------
Component 0 (CO2)
    molecules:      2.500000e+02 molecules  (2.500000e+02 +/- 0.000000e+00)
    number density: 1.441474e-02 molec./A^3 (1.468576e-02 +/- 0.000000e+00)
    density:        1.053165e+03 kg/m^3     (1.072967e+03 +/- 0.000000e+00)

Average pressure tensor: 
-------------------------------------------------------------------------------
 7.0139e+01  1.0473e+00  1.6582e+01 +/- 0.0000e+00 0.0000e+00 0.0000e+00 [bar]
 1.0473e+00  1.6475e+02 -1.0948e+01 +/- 0.0000e+00 0.0000e+00 0.0000e+00 [bar]
 1.6582e+01 -1.0948e+01  1.5439e+02 +/- 0.0000e+00 0.0000e+00 0.0000e+00 [bar]
Ideal-gas pressure:   5.068976e+02 +/ 0.000000e+00 [bar]
Excess pressure:     -3.771391e+02 +/ 0.000000e+00 [bar]
Pressure:             1.297585e+02 +/ 0.000000e+00 [bar]

Total potential energy/kʙ  -3.879483e+05 (-3.861261e+05 +/- 0.000000e+00) [K]
-------------------------------------------------------------------------------
ExternalField-molecule
    Van der Waals/kʙ        0.000000e+00 ( 0.000000e+00 +/- 0.000000e+00) [K]
Framework-molecule
    Van der Waals/kʙ        0.000000e+00 ( 0.000000e+00 +/- 0.000000e+00) [K]
    Van der Waals (Tail)/kʙ 0.000000e+00 ( 0.000000e+00 +/- 0.000000e+00) [K]
    Coulombic Real/kʙ       0.000000e+00 ( 0.000000e+00 +/- 0.000000e+00) [K]
    Coulombic Fourier/kʙ    0.000000e+00 ( 0.000000e+00 +/- 0.000000e+00) [K]
Molecule-molecule
    Van der Waals/kʙ       -2.747341e+05 (-2.772370e+05 +/- 0.000000e+00) [K]
    Van der Waals (Tail)/kʙ-8.688084e+03 (-8.847863e+03 +/- 0.000000e+00) [K]
    Coulombic Real/kʙ      -9.059932e+04 (-8.725965e+04 +/- 0.000000e+00) [K]
    Coulombic Fourier/kʙ   -1.392686e+04 (-1.278153e+04 +/- 0.000000e+00) [K]
    Molecule Intra/kʙ       0.000000e+00 ( 0.000000e+00 +/- 0.000000e+00) [K]

Current cycle: 900 out of 5000
===============================================================================

Box:      25.77150   0.00000   0.00000  Average:  25.72805   0.00000   0.00000
           0.00000  25.77150   0.00000             0.00000  25.72805   0.00000
           0.00000   0.00000  25.77150             0.00000   0.00000  25.72805
Lengths:  25.77150  25.77150  25.77150  Average:  25.72805  25.72805  25.72805
Angles:   90.00000  90.00000  90.00000  Average:  90.00000  90.00000  90.00000
Rectangular boundary conditions

net charge:   0.00000000

component 0 (CO2) lambda:  0 occupancy:  1 (1.000000)
    net charge:   0.00000000 [e]

Amount of molecules per component :
-------------------------------------------------------------------------------
Component 0 (CO2)
    molecules:      2.500000e+02 molecules  (2.500000e+02 +/- 0.000000e+00)
    number density: 1.460564e-02 molec./A^3 (1.468338e-02 +/- 0.000000e+00)
    density:        1.067113e+03 kg/m^3     (1.072793e+03 +/- 0.000000e+00)

Average pressure tensor: 
-------------------------------------------------------------------------------
 6.6396e+01 -2.7896e+00  9.2594e+00 +/- 0.0000e+00 0.0000e+00 0.0000e+00 [bar]
-2.7896e+00  1.5505e+02  2.8989e-01 +/- 0.0000e+00 0.0000e+00 0.0000e+00 [bar]
 9.2594e+00  2.8989e-01  1.1217e+02 +/- 0.0000e+00 0.0000e+00 0.0000e+00 [bar]
Ideal-gas pressure:   5.068155e+02 +/ 0.000000e+00 [bar]
Excess pressure:     -3.956099e+02 +/ 0.000000e+00 [bar]
Pressure:             1.112056e+02 +/ 0.000000e+00 [bar]

Total potential energy/kʙ  -3.928914e+05 (-3.868374e+05 +/- 0.000000e+00) [K]
-------------------------------------------------------------------------------
ExternalField-molecule
    Van der Waals/kʙ        0.000000e+00 ( 0.000000e+00 +/- 0.000000e+00) [K]
Framework-molecule
    Van der Waals/kʙ        0.000000e+00 ( 0.000000e+00 +/- 0.000000e+00) [K]
    Van der Waals (Tail)/kʙ 0.000000e+00 ( 0.000000e+00 +/- 0.000000e+00) [K]
    Coulombic Real/kʙ       0.000000e+00 ( 0.000000e+00 +/- 0.000000e+00) [K]
    Coulombic Fourier/kʙ    0.000000e+00 ( 0.000000e+00 +/- 0.000000e+00) [K]
Molecule-molecule
    Van der Waals/kʙ       -2.782786e+05 (-2.775635e+05 +/- 0.000000e+00) [K]
    Van der Waals (Tail)/kʙ-8.803148e+03 (-8.842485e+03 +/- 0.000000e+00) [K]
    Coulombic Real/kʙ      -9.213575e+04 (-8.757352e+04 +/- 0.000000e+00) [K]
    Coulombic Fourier/kʙ   -1.367387e+04 (-1.285792e+04 +/- 0.000000e+00) [K]
    Molecule Intra/kʙ       0.000000e+00 ( 0.000000e+00 +/- 0.000000e+00) [K]

Current cycle: 1000 out of 5000
===============================================================================

Box:      25.55474   0.00000   0.00000  Average:  25.72445   0.00000   0.00000
           0.00000  25.55474   0.00000             0.00000  25.72445   0.00000
           0.00000   0.00000  25.55474             0.00000   0.00000  25.72445
Lengths:  25.55474  25.55474  25.55474  Average:  25.72445  25.72445  25.72445
Angles:   90.00000  90.00000  90.00000  Average:  90.00000  90.00000  90.00000
Rectangular boundary conditions

net charge:   0.00000000

component 0 (CO2) lambda:  0 occupancy:  1 (1.000000)
    net charge:   0.00000000 [e]

Amount of molecules per component :
-------------------------------------------------------------------------------
Component 0 (CO2)
    molecules:      2.500000e+02 molecules  (2.500000e+02 +/- 0.000000e+00)
    number density: 1.498047e-02 molec./A^3 (1.468946e-02 +/- 0.000000e+00)
    density:        1.094499e+03 kg/m^3     (1.073237e+03 +/- 0.000000e+00)

Average pressure tensor: 
-------------------------------------------------------------------------------
 6.8094e+01 -1.9068e+01  5.1800e+00 +/- 0.0000e+00 0.0000e+00 0.0000e+00 [bar]
-1.9068e+01  1.6377e+02 -5.4562e+00 +/- 0.0000e+00 0.0000e+00 0.0000e+00 [bar]
 5.1800e+00 -5.4562e+00  1.0644e+02 +/- 0.0000e+00 0.0000e+00 0.0000e+00 [bar]
Ideal-gas pressure:   5.070251e+02 +/ 0.000000e+00 [bar]
Excess pressure:     -3.942584e+02 +/ 0.000000e+00 [bar]
Pressure:             1.127667e+02 +/ 0.000000e+00 [bar]

Total potential energy/kʙ  -3.970019e+05 (-3.874811e+05 +/- 0.000000e+00) [K]
-------------------------------------------------------------------------------
ExternalField-molecule
    Van der Waals/kʙ        0.000000e+00 ( 0.000000e+00 +/- 0.000000e+00) [K]
Framework-molecule
    Van der Waals/kʙ        0.000000e+00 ( 0.000000e+00 +/- 0.000000e+00) [K]
    Van der Waals (Tail)/kʙ 0.000000e+00 ( 0.000000e+00 +/- 0.000000e+00) [K]
    Coulombic Real/kʙ       0.000000e+00 ( 0.000000e+00 +/- 0.000000e+00) [K]
    Coulombic Fourier/kʙ    0.000000e+00 ( 0.000000e+00 +/- 0.000000e+00) [K]
Molecule-molecule
    Van der Waals/kʙ       -2.866130e+05 (-2.779305e+05 +/- 0.000000e+00) [K]
    Van der Waals (Tail)/kʙ-9.029064e+03 (-8.846761e+03 +/- 0.000000e+00) [K]
    Coulombic Real/kʙ      -8.760709e+04 (-8.777725e+04 +/- 0.000000e+00) [K]
    Coulombic Fourier/kʙ   -1.375284e+04 (-1.292658e+04 +/- 0.000000e+00) [K]
    Molecule Intra/kʙ       0.000000e+00 ( 0.000000e+00 +/- 0.000000e+00) [K]

Current cycle: 1100 out of 5000
===============================================================================

Box:      25.62586   0.00000   0.00000  Average:  25.70699   0.00000   0.00000
           0.00000  25.62586   0.00000             0.00000  25.70699   0.00000
           0.00000   0.00000  25.62586             0.00000   0.00000  25.70699
Lengths:  25.62586  25.62586  25.62586  Average:  25.70699  25.70699  25.70699
Angles:   90.00000  90.00000  90.00000  Average:  90.00000  90.00000  90.00000
Rectangular boundary conditions

net charge:   0.00000000

component 0 (CO2) lambda:  0 occupancy:  1 (1.000000)
    net charge:   0.00000000 [e]

Amount of molecules per component :
-------------------------------------------------------------------------------
Component 0 (CO2)
    molecules:      2.500000e+02 molecules  (2.500000e+02 +/- 0.000000e+00)
    number density: 1.485610e-02 molec./A^3 (1.471958e-02 +/- 0.000000e+00)
    density:        1.085412e+03 kg/m^3     (1.075437e+03 +/- 0.000000e+00)

Average pressure tensor: 
-------------------------------------------------------------------------------
 7.0304e+01 -5.1989e+00  1.2099e+01 +/- 0.0000e+00 0.0000e+00 0.0000e+00 [bar]
-5.1989e+00  1.6846e+02  1.0854e+00 +/- 0.0000e+00 0.0000e+00 0.0000e+00 [bar]
 1.2099e+01  1.0854e+00  1.0406e+02 +/- 0.0000e+00 0.0000e+00 0.0000e+00 [bar]
Ideal-gas pressure:   5.080647e+02 +/ 0.000000e+00 [bar]
Excess pressure:     -3.937902e+02 +/ 0.000000e+00 [bar]
Pressure:             1.142745e+02 +/ 0.000000e+00 [bar]

Total potential energy/kʙ  -3.896627e+05 (-3.883030e+05 +/- 0.000000e+00) [K]
-------------------------------------------------------------------------------
ExternalField-molecule
    Van der Waals/kʙ        0.000000e+00 ( 0.000000e+00 +/- 0.000000e+00) [K]
Framework-molecule
    Van der Waals/kʙ        0.000000e+00 ( 0.000000e+00 +/- 0.000000e+00) [K]
    Van der Waals (Tail)/kʙ 0.000000e+00 ( 0.000000e+00 +/- 0.000000e+00) [K]
    Coulombic Real/kʙ       0.000000e+00 ( 0.000000e+00 +/- 0.000000e+00) [K]
    Coulombic Fourier/kʙ    0.000000e+00 ( 0.000000e+00 +/- 0.000000e+00) [K]
Molecule-molecule
    Van der Waals/kʙ       -2.898199e+05 (-2.788644e+05 +/- 0.000000e+00) [K]
    Van der Waals (Tail)/kʙ-8.954104e+03 (-8.866726e+03 +/- 0.000000e+00) [K]
    Coulombic Real/kʙ      -7.825031e+04 (-8.762595e+04 +/- 0.000000e+00) [K]
    Coulombic Fourier/kʙ   -1.263831e+04 (-1.294598e+04 +/- 0.000000e+00) [K]
    Molecule Intra/kʙ       0.000000e+00 ( 0.000000e+00 +/- 0.000000e+00) [K]

Current cycle: 1200 out of 5000
===============================================================================

Box:      25.59787   0.00000   0.00000  Average:  25.69839   0.00000   0.00000
           0.00000  25.59787   0.00000             0.00000  25.69839   0.00000
           0.00000   0.00000  25.59787             0.00000   0.00000  25.69839
Lengths:  25.59787  25.59787  25.59787  Average:  25.69839  25.69839  25.69839
Angles:   90.00000  90.00000  90.00000  Average:  90.00000  90.00000  90.00000
Rectangular boundary conditions

net charge:   0.00000000

component 0 (CO2) lambda:  0 occupancy:  1 (1.000000)
    net charge:   0.00000000 [e]

Amount of molecules per component :
-------------------------------------------------------------------------------
Component 0 (CO2)
    molecules:      2.500000e+02 molecules  (2.500000e+02 +/- 0.000000e+00)
    number density: 1.490488e-02 molec./A^3 (1.473430e-02 +/- 0.000000e+00)
    density:        1.088976e+03 kg/m^3     (1.076513e+03 +/- 0.000000e+00)

Average pressure tensor: 
-------------------------------------------------------------------------------
 7.2230e+01  3.0064e+00  5.0097e+00 +/- 0.0000e+00 0.0000e+00 0.0000e+00 [bar]
 3.0064e+00  1.8013e+02 -4.7005e+00 +/- 0.0000e+00 0.0000e+00 0.0000e+00 [bar]
 5.0097e+00 -4.7005e+00  8.6900e+01 +/- 0.0000e+00 0.0000e+00 0.0000e+00 [bar]
Ideal-gas pressure:   5.085728e+02 +/ 0.000000e+00 [bar]
Excess pressure:     -3.954851e+02 +/ 0.000000e+00 [bar]
Pressure:             1.130877e+02 +/ 0.000000e+00 [bar]

Total potential energy/kʙ  -3.883719e+05 (-3.886025e+05 +/- 0.000000e+00) [K]
-------------------------------------------------------------------------------
ExternalField-molecule
    Van der Waals/kʙ        0.000000e+00 ( 0.000000e+00 +/- 0.000000e+00) [K]
Framework-molecule
    Van der Waals/kʙ        0.000000e+00 ( 0.000000e+00 +/- 0.000000e+00) [K]
    Van der Waals (Tail)/kʙ 0.000000e+00 ( 0.000000e+00 +/- 0.000000e+00) [K]
    Coulombic Real/kʙ       0.000000e+00 ( 0.000000e+00 +/- 0.000000e+00) [K]
    Coulombic Fourier/kʙ    0.000000e+00 ( 0.000000e+00 +/- 0.000000e+00) [K]
Molecule-molecule
    Van der Waals/kʙ       -2.788723e+05 (-2.791368e+05 +/- 0.000000e+00) [K]
    Van der Waals (Tail)/kʙ-8.983503e+03 (-8.874272e+03 +/- 0.000000e+00) [K]
    Coulombic Real/kʙ      -8.723856e+04 (-8.762074e+04 +/- 0.000000e+00) [K]
    Coulombic Fourier/kʙ   -1.327753e+04 (-1.297069e+04 +/- 0.000000e+00) [K]
    Molecule Intra/kʙ       0.000000e+00 ( 0.000000e+00 +/- 0.000000e+00) [K]

Current cycle: 1300 out of 5000
===============================================================================

Box:      25.75208   0.00000   0.00000  Average:  25.68829   0.00000   0.00000
           0.00000  25.75208   0.00000             0.00000  25.68829   0.00000
           0.00000   0.00000  25.75208             0.00000   0.00000  25.68829
Lengths:  25.75208  25.75208  25.75208  Average:  25.68829  25.68829  25.68829
Angles:   90.00000  90.00000  90.00000  Average:  90.00000  90.00000  90.00000
Rectangular boundary conditions

net charge:   0.00000000

component 0 (CO2) lambda:  0 occupancy:  1 (1.000000)
    net charge:   0.00000000 [e]

Amount of molecules per component :
-------------------------------------------------------------------------------
Component 0 (CO2)
    molecules:      2.500000e+02 molecules  (2.500000e+02 +/- 0.000000e+00)
    number density: 1.463873e-02 molec./A^3 (1.475165e-02 +/- 0.000000e+00)
    density:        1.069530e+03 kg/m^3     (1.077781e+03 +/- 0.000000e+00)

Average pressure tensor: 
-------------------------------------------------------------------------------
 9.0255e+01 -6.0313e+00  4.2124e+00 +/- 0.0000e+00 0.0000e+00 0.0000e+00 [bar]
-6.0313e+00  1.8328e+02  2.9832e+00 +/- 0.0000e+00 0.0000e+00 0.0000e+00 [bar]
 4.2124e+00  2.9832e+00  7.2762e+01 +/- 0.0000e+00 0.0000e+00 0.0000e+00 [bar]
Ideal-gas pressure:   5.091719e+02 +/ 0.000000e+00 [bar]
Excess pressure:     -3.937405e+02 +/ 0.000000e+00 [bar]
Pressure:             1.154314e+02 +/ 0.000000e+00 [bar]

Total potential energy/kʙ  -3.870221e+05 (-3.888317e+05 +/- 0.000000e+00) [K]
-------------------------------------------------------------------------------
ExternalField-molecule
    Van der Waals/kʙ        0.000000e+00 ( 0.000000e+00 +/- 0.000000e+00) [K]
Framework-molecule
    Van der Waals/kʙ        0.000000e+00 ( 0.000000e+00 +/- 0.000000e+00) [K]
    Van der Waals (Tail)/kʙ 0.000000e+00 ( 0.000000e+00 +/- 0.000000e+00) [K]
    Coulombic Real/kʙ       0.000000e+00 ( 0.000000e+00 +/- 0.000000e+00) [K]
    Coulombic Fourier/kʙ    0.000000e+00 ( 0.000000e+00 +/- 0.000000e+00) [K]
Molecule-molecule
    Van der Waals/kʙ       -2.746268e+05 (-2.793421e+05 +/- 0.000000e+00) [K]
    Van der Waals (Tail)/kʙ-8.823087e+03 (-8.883519e+03 +/- 0.000000e+00) [K]
    Coulombic Real/kʙ      -9.072563e+04 (-8.760736e+04 +/- 0.000000e+00) [K]
    Coulombic Fourier/kʙ   -1.284663e+04 (-1.299872e+04 +/- 0.000000e+00) [K]
    Molecule Intra/kʙ       0.000000e+00 ( 0.000000e+00 +/- 0.000000e+00) [K]

Current cycle: 1400 out of 5000
===============================================================================

Box:      25.77774   0.00000   0.00000  Average:  25.69951   0.00000   0.00000
           0.00000  25.77774   0.00000             0.00000  25.69951   0.00000
           0.00000   0.00000  25.77774             0.00000   0.00000  25.69951
Lengths:  25.77774  25.77774  25.77774  Average:  25.69951  25.69951  25.69951
Angles:   90.00000  90.00000  90.00000  Average:  90.00000  90.00000  90.00000
Rectangular boundary conditions

net charge:   0.00000000

component 0 (CO2) lambda:  0 occupancy:  1 (1.000000)
    net charge:   0.00000000 [e]

Amount of molecules per component :
-------------------------------------------------------------------------------
Component 0 (CO2)
    molecules:      2.500000e+02 molecules  (2.500000e+02 +/- 0.000000e+00)
    number density: 1.459505e-02 molec./A^3 (1.473239e-02 +/- 0.000000e+00)
    density:        1.066339e+03 kg/m^3     (1.076374e+03 +/- 0.000000e+00)

Average pressure tensor: 
-------------------------------------------------------------------------------
 9.7584e+01 -7.2643e+00  6.7088e+00 +/- 0.0000e+00 0.0000e+00 0.0000e+00 [bar]
-7.2643e+00  1.6809e+02  6.1818e+00 +/- 0.0000e+00 0.0000e+00 0.0000e+00 [bar]
 6.7088e+00  6.1818e+00  7.5731e+01 +/- 0.0000e+00 0.0000e+00 0.0000e+00 [bar]
Ideal-gas pressure:   5.085069e+02 +/ 0.000000e+00 [bar]
Excess pressure:     -3.947060e+02 +/ 0.000000e+00 [bar]
Pressure:             1.138010e+02 +/ 0.000000e+00 [bar]

Total potential energy/kʙ  -3.890799e+05 (-3.883218e+05 +/- 0.000000e+00) [K]
-------------------------------------------------------------------------------
ExternalField-molecule
    Van der Waals/kʙ        0.000000e+00 ( 0.000000e+00 +/- 0.000000e+00) [K]
Framework-molecule
    Van der Waals/kʙ        0.000000e+00 ( 0.000000e+00 +/- 0.000000e+00) [K]
    Van der Waals (Tail)/kʙ 0.000000e+00 ( 0.000000e+00 +/- 0.000000e+00) [K]
    Coulombic Real/kʙ       0.000000e+00 ( 0.000000e+00 +/- 0.000000e+00) [K]
    Coulombic Fourier/kʙ    0.000000e+00 ( 0.000000e+00 +/- 0.000000e+00) [K]
Molecule-molecule
    Van der Waals/kʙ       -2.776134e+05 (-2.789615e+05 +/- 0.000000e+00) [K]
    Van der Waals (Tail)/kʙ-8.796764e+03 (-8.872893e+03 +/- 0.000000e+00) [K]
    Coulombic Real/kʙ      -9.009242e+04 (-8.752126e+04 +/- 0.000000e+00) [K]
    Coulombic Fourier/kʙ   -1.257735e+04 (-1.296610e+04 +/- 0.000000e+00) [K]
    Molecule Intra/kʙ       0.000000e+00 ( 0.000000e+00 +/- 0.000000e+00) [K]

Current cycle: 1500 out of 5000
===============================================================================

Box:      25.75865   0.00000   0.00000  Average:  25.71101   0.00000   0.00000
           0.00000  25.75865   0.00000             0.00000  25.71101   0.00000
           0.00000   0.00000  25.75865             0.00000   0.00000  25.71101
Lengths:  25.75865  25.75865  25.75865  Average:  25.71101  25.71101  25.71101
Angles:   90.00000  90.00000  90.00000  Average:  90.00000  90.00000  90.00000
Rectangular boundary conditions

net charge:   0.00000000

component 0 (CO2) lambda:  0 occupancy:  1 (1.000000)
    net charge:   0.00000000 [e]

Amount of molecules per component :
-------------------------------------------------------------------------------
Component 0 (CO2)
    molecules:      2.500000e+02 molecules  (2.500000e+02 +/- 0.000000e+00)
    number density: 1.462753e-02 molec./A^3 (1.471273e-02 +/- 0.000000e+00)
    density:        1.068712e+03 kg/m^3     (1.074937e+03 +/- 0.000000e+00)

Average pressure tensor: 
-------------------------------------------------------------------------------
 9.4026e+01 -2.0087e+01 -3.7924e+00 +/- 0.0000e+00 0.0000e+00 0.0000e+00 [bar]
-2.0087e+01  1.7037e+02  1.8513e+01 +/- 0.0000e+00 0.0000e+00 0.0000e+00 [bar]
-3.7924e+00  1.8513e+01  8.4675e+01 +/- 0.0000e+00 0.0000e+00 0.0000e+00 [bar]
Ideal-gas pressure:   5.078283e+02 +/ 0.000000e+00 [bar]
Excess pressure:     -3.914703e+02 +/ 0.000000e+00 [bar]
Pressure:             1.163580e+02 +/ 0.000000e+00 [bar]

Total potential energy/kʙ  -3.796801e+05 (-3.878341e+05 +/- 0.000000e+00) [K]
-------------------------------------------------------------------------------
ExternalField-molecule
    Van der Waals/kʙ        0.000000e+00 ( 0.000000e+00 +/- 0.000000e+00) [K]
Framework-molecule
    Van der Waals/kʙ        0.000000e+00 ( 0.000000e+00 +/- 0.000000e+00) [K]
    Van der Waals (Tail)/kʙ 0.000000e+00 ( 0.000000e+00 +/- 0.000000e+00) [K]
    Coulombic Real/kʙ       0.000000e+00 ( 0.000000e+00 +/- 0.000000e+00) [K]
    Coulombic Fourier/kʙ    0.000000e+00 ( 0.000000e+00 +/- 0.000000e+00) [K]
Molecule-molecule
    Van der Waals/kʙ       -2.754336e+05 (-2.785957e+05 +/- 0.000000e+00) [K]
    Van der Waals (Tail)/kʙ-8.816337e+03 (-8.862894e+03 +/- 0.000000e+00) [K]
    Coulombic Real/kʙ      -8.198084e+04 (-8.743424e+04 +/- 0.000000e+00) [K]
    Coulombic Fourier/kʙ   -1.344936e+04 (-1.294132e+04 +/- 0.000000e+00) [K]
    Molecule Intra/kʙ       0.000000e+00 ( 0.000000e+00 +/- 0.000000e+00) [K]

Current cycle: 1600 out of 5000
===============================================================================

Box:      25.49311   0.00000   0.00000  Average:  25.70729   0.00000   0.00000
           0.00000  25.49311   0.00000             0.00000  25.70729   0.00000
           0.00000   0.00000  25.49311             0.00000   0.00000  25.70729
Lengths:  25.49311  25.49311  25.49311  Average:  25.70729  25.70729  25.70729
Angles:   90.00000  90.00000  90.00000  Average:  90.00000  90.00000  90.00000
Rectangular boundary conditions

net charge:   0.00000000

component 0 (CO2) lambda:  0 occupancy:  1 (1.000000)
    net charge:   0.00000000 [e]

Amount of molecules per component :
-------------------------------------------------------------------------------
Component 0 (CO2)
    molecules:      2.500000e+02 molecules  (2.500000e+02 +/- 0.000000e+00)
    number density: 1.508938e-02 molec./A^3 (1.471909e-02 +/- 0.000000e+00)
    density:        1.102456e+03 kg/m^3     (1.075402e+03 +/- 0.000000e+00)

Average pressure tensor: 
-------------------------------------------------------------------------------
 8.6444e+01 -2.7474e+01 -5.7132e+00 +/- 0.0000e+00 0.0000e+00 0.0000e+00 [bar]
-2.7474e+01  1.6092e+02  2.2769e+01 +/- 0.0000e+00 0.0000e+00 0.0000e+00 [bar]
-5.7132e+00  2.2769e+01  7.6998e+01 +/- 0.0000e+00 0.0000e+00 0.0000e+00 [bar]
Ideal-gas pressure:   5.080479e+02 +/ 0.000000e+00 [bar]
Excess pressure:     -3.999283e+02 +/ 0.000000e+00 [bar]
Pressure:             1.081196e+02 +/ 0.000000e+00 [bar]

Total potential energy/kʙ  -4.003003e+05 (-3.881522e+05 +/- 0.000000e+00) [K]
-------------------------------------------------------------------------------
ExternalField-molecule
    Van der Waals/kʙ        0.000000e+00 ( 0.000000e+00 +/- 0.000000e+00) [K]
Framework-molecule
    Van der Waals/kʙ        0.000000e+00 ( 0.000000e+00 +/- 0.000000e+00) [K]
    Van der Waals (Tail)/kʙ 0.000000e+00 ( 0.000000e+00 +/- 0.000000e+00) [K]
    Coulombic Real/kʙ       0.000000e+00 ( 0.000000e+00 +/- 0.000000e+00) [K]
    Coulombic Fourier/kʙ    0.000000e+00 ( 0.000000e+00 +/- 0.000000e+00) [K]
Molecule-molecule
    Van der Waals/kʙ       -2.866103e+05 (-2.789658e+05 +/- 0.000000e+00) [K]
    Van der Waals (Tail)/kʙ-9.094706e+03 (-8.864526e+03 +/- 0.000000e+00) [K]
    Coulombic Real/kʙ      -9.152713e+04 (-8.735789e+04 +/- 0.000000e+00) [K]
    Coulombic Fourier/kʙ   -1.306813e+04 (-1.296402e+04 +/- 0.000000e+00) [K]
    Molecule Intra/kʙ       0.000000e+00 ( 0.000000e+00 +/- 0.000000e+00) [K]

Current cycle: 1700 out of 5000
===============================================================================

Box:      25.36463   0.00000   0.00000  Average:  25.69347   0.00000   0.00000
           0.00000  25.36463   0.00000             0.00000  25.69347   0.00000
           0.00000   0.00000  25.36463             0.00000   0.00000  25.69347
Lengths:  25.36463  25.36463  25.36463  Average:  25.69347  25.69347  25.69347
Angles:   90.00000  90.00000  90.00000  Average:  90.00000  90.00000  90.00000
Rectangular boundary conditions

net charge:   0.00000000

component 0 (CO2) lambda:  0 occupancy:  1 (1.000000)
    net charge:   0.00000000 [e]

Amount of molecules per component :
-------------------------------------------------------------------------------
Component 0 (CO2)
    molecules:      2.500000e+02 molecules  (2.500000e+02 +/- 0.000000e+00)
    number density: 1.531985e-02 molec./A^3 (1.474312e-02 +/- 0.000000e+00)
    density:        1.119295e+03 kg/m^3     (1.077158e+03 +/- 0.000000e+00)

Average pressure tensor: 
-------------------------------------------------------------------------------
 9.2192e+01 -2.4009e+01 -2.4357e+00 +/- 0.0000e+00 0.0000e+00 0.0000e+00 [bar]
-2.4009e+01  1.6754e+02  2.7639e+01 +/- 0.0000e+00 0.0000e+00 0.0000e+00 [bar]
-2.4357e+00  2.7639e+01  7.5916e+01 +/- 0.0000e+00 0.0000e+00 0.0000e+00 [bar]
Ideal-gas pressure:   5.088774e+02 +/ 0.000000e+00 [bar]
Excess pressure:     -3.969933e+02 +/ 0.000000e+00 [bar]
Pressure:             1.118842e+02 +/ 0.000000e+00 [bar]

Total potential energy/kʙ  -4.097523e+05 (-3.890801e+05 +/- 0.000000e+00) [K]
-------------------------------------------------------------------------------
ExternalField-molecule
    Van der Waals/kʙ        0.000000e+00 ( 0.000000e+00 +/- 0.000000e+00) [K]
Framework-molecule
    Van der Waals/kʙ        0.000000e+00 ( 0.000000e+00 +/- 0.000000e+00) [K]
    Van der Waals (Tail)/kʙ 0.000000e+00 ( 0.000000e+00 +/- 0.000000e+00) [K]
    Coulombic Real/kʙ       0.000000e+00 ( 0.000000e+00 +/- 0.000000e+00) [K]
    Coulombic Fourier/kʙ    0.000000e+00 ( 0.000000e+00 +/- 0.000000e+00) [K]
Molecule-molecule
    Van der Waals/kʙ       -2.916472e+05 (-2.795136e+05 +/- 0.000000e+00) [K]
    Van der Waals (Tail)/kʙ-9.233618e+03 (-8.879696e+03 +/- 0.000000e+00) [K]
    Coulombic Real/kʙ      -9.497602e+04 (-8.766772e+04 +/- 0.000000e+00) [K]
    Coulombic Fourier/kʙ   -1.389548e+04 (-1.301911e+04 +/- 0.000000e+00) [K]
    Molecule Intra/kʙ       0.000000e+00 ( 0.000000e+00 +/- 0.000000e+00) [K]

Current cycle: 1800 out of 5000
===============================================================================

Box:      25.66652   0.00000   0.00000  Average:  25.67986   0.00000   0.00000
           0.00000  25.66652   0.00000             0.00000  25.67986   0.00000
           0.00000   0.00000  25.66652             0.00000   0.00000  25.67986
Lengths:  25.66652  25.66652  25.66652  Average:  25.67986  25.67986  25.67986
Angles:   90.00000  90.00000  90.00000  Average:  90.00000  90.00000  90.00000
Rectangular boundary conditions

net charge:   0.00000000

component 0 (CO2) lambda:  0 occupancy:  1 (1.000000)
    net charge:   0.00000000 [e]

Amount of molecules per component :
-------------------------------------------------------------------------------
Component 0 (CO2)
    molecules:      2.500000e+02 molecules  (2.500000e+02 +/- 0.000000e+00)
    number density: 1.478561e-02 molec./A^3 (1.476682e-02 +/- 0.000000e+00)
    density:        1.080262e+03 kg/m^3     (1.078889e+03 +/- 0.000000e+00)

Average pressure tensor: 
-------------------------------------------------------------------------------
 9.7054e+01 -2.5798e+01  5.4572e+00 +/- 0.0000e+00 0.0000e+00 0.0000e+00 [bar]
-2.5798e+01  1.7066e+02  3.3720e+01 +/- 0.0000e+00 0.0000e+00 0.0000e+00 [bar]
 5.4572e+00  3.3720e+01  8.6923e+01 +/- 0.0000e+00 0.0000e+00 0.0000e+00 [bar]
Ideal-gas pressure:   5.096955e+02 +/ 0.000000e+00 [bar]
Excess pressure:     -3.914837e+02 +/ 0.000000e+00 [bar]
Pressure:             1.182118e+02 +/ 0.000000e+00 [bar]

Total potential energy/kʙ  -3.907774e+05 (-3.897465e+05 +/- 0.000000e+00) [K]
-------------------------------------------------------------------------------
ExternalField-molecule
    Van der Waals/kʙ        0.000000e+00 ( 0.000000e+00 +/- 0.000000e+00) [K]
Framework-molecule
    Van der Waals/kʙ        0.000000e+00 ( 0.000000e+00 +/- 0.000000e+00) [K]
    Van der Waals (Tail)/kʙ 0.000000e+00 ( 0.000000e+00 +/- 0.000000e+00) [K]
    Coulombic Real/kʙ       0.000000e+00 ( 0.000000e+00 +/- 0.000000e+00) [K]
    Coulombic Fourier/kʙ    0.000000e+00 ( 0.000000e+00 +/- 0.000000e+00) [K]
Molecule-molecule
    Van der Waals/kʙ       -2.844083e+05 (-2.800060e+05 +/- 0.000000e+00) [K]
    Van der Waals (Tail)/kʙ-8.911615e+03 (-8.893739e+03 +/- 0.000000e+00) [K]
    Coulombic Real/kʙ      -8.356732e+04 (-8.776644e+04 +/- 0.000000e+00) [K]
    Coulombic Fourier/kʙ   -1.389011e+04 (-1.308033e+04 +/- 0.000000e+00) [K]
    Molecule Intra/kʙ       0.000000e+00 ( 0.000000e+00 +/- 0.000000e+00) [K]

Current cycle: 1900 out of 5000
===============================================================================

Box:      25.31830   0.00000   0.00000  Average:  25.66885   0.00000   0.00000
           0.00000  25.31830   0.00000             0.00000  25.66885   0.00000
           0.00000   0.00000  25.31830             0.00000   0.00000  25.66885
Lengths:  25.31830  25.31830  25.31830  Average:  25.66885  25.66885  25.66885
Angles:   90.00000  90.00000  90.00000  Average:  90.00000  90.00000  90.00000
Rectangular boundary conditions

net charge:   0.00000000

component 0 (CO2) lambda:  0 occupancy:  1 (1.000000)
    net charge:   0.00000000 [e]

Amount of molecules per component :
-------------------------------------------------------------------------------
Component 0 (CO2)
    molecules:      2.500000e+02 molecules  (2.500000e+02 +/- 0.000000e+00)
    number density: 1.540411e-02 molec./A^3 (1.478593e-02 +/- 0.000000e+00)
    density:        1.125450e+03 kg/m^3     (1.080285e+03 +/- 0.000000e+00)

Average pressure tensor: 
-------------------------------------------------------------------------------
 1.0386e+02 -3.2183e+01  6.3554e+00 +/- 0.0000e+00 0.0000e+00 0.0000e+00 [bar]
-3.2183e+01  1.7064e+02  2.9729e+01 +/- 0.0000e+00 0.0000e+00 0.0000e+00 [bar]
 6.3554e+00  2.9729e+01  7.1854e+01 +/- 0.0000e+00 0.0000e+00 0.0000e+00 [bar]
Ideal-gas pressure:   5.103550e+02 +/ 0.000000e+00 [bar]
Excess pressure:     -3.949046e+02 +/ 0.000000e+00 [bar]
Pressure:             1.154503e+02 +/ 0.000000e+00 [bar]

Total potential energy/kʙ  -4.159249e+05 (-3.906635e+05 +/- 0.000000e+00) [K]
-------------------------------------------------------------------------------
ExternalField-molecule
    Van der Waals/kʙ        0.000000e+00 ( 0.000000e+00 +/- 0.000000e+00) [K]
Framework-molecule
    Van der Waals/kʙ        0.000000e+00 ( 0.000000e+00 +/- 0.000000e+00) [K]
    Van der Waals (Tail)/kʙ 0.000000e+00 ( 0.000000e+00 +/- 0.000000e+00) [K]
    Coulombic Real/kʙ       0.000000e+00 ( 0.000000e+00 +/- 0.000000e+00) [K]
    Coulombic Fourier/kʙ    0.000000e+00 ( 0.000000e+00 +/- 0.000000e+00) [K]
Molecule-molecule
    Van der Waals/kʙ       -2.905198e+05 (-2.803695e+05 +/- 0.000000e+00) [K]
    Van der Waals (Tail)/kʙ-9.284399e+03 (-8.906235e+03 +/- 0.000000e+00) [K]
    Coulombic Real/kʙ      -1.013982e+05 (-8.829419e+04 +/- 0.000000e+00) [K]
    Coulombic Fourier/kʙ   -1.472243e+04 (-1.309357e+04 +/- 0.000000e+00) [K]
    Molecule Intra/kʙ       0.000000e+00 ( 0.000000e+00 +/- 0.000000e+00) [K]

Current cycle: 2000 out of 5000
===============================================================================

Box:      25.62386   0.00000   0.00000  Average:  25.66301   0.00000   0.00000
           0.00000  25.62386   0.00000             0.00000  25.66301   0.00000
           0.00000   0.00000  25.62386             0.00000   0.00000  25.66301
Lengths:  25.62386  25.62386  25.62386  Average:  25.66301  25.66301  25.66301
Angles:   90.00000  90.00000  90.00000  Average:  90.00000  90.00000  90.00000
Rectangular boundary conditions

net charge:   0.00000000

component 0 (CO2) lambda:  0 occupancy:  1 (1.000000)
    net charge:   0.00000000 [e]

Amount of molecules per component :
-------------------------------------------------------------------------------
Component 0 (CO2)
    molecules:      2.500000e+02 molecules  (2.500000e+02 +/- 0.000000e+00)
    number density: 1.485958e-02 molec./A^3 (1.479598e-02 +/- 0.000000e+00)
    density:        1.085666e+03 kg/m^3     (1.081020e+03 +/- 0.000000e+00)

Average pressure tensor: 
-------------------------------------------------------------------------------
 9.4692e+01 -3.1529e+01  4.4364e+00 +/- 0.0000e+00 0.0000e+00 0.0000e+00 [bar]
-3.1529e+01  1.8133e+02  3.4036e+01 +/- 0.0000e+00 0.0000e+00 0.0000e+00 [bar]
 4.4364e+00  3.4036e+01  6.2390e+01 +/- 0.0000e+00 0.0000e+00 0.0000e+00 [bar]
Ideal-gas pressure:   5.107019e+02 +/ 0.000000e+00 [bar]
Excess pressure:     -3.978971e+02 +/ 0.000000e+00 [bar]
Pressure:             1.128047e+02 +/ 0.000000e+00 [bar]

Total potential energy/kʙ  -3.984708e+05 (-3.911677e+05 +/- 0.000000e+00) [K]
-------------------------------------------------------------------------------
ExternalField-molecule
    Van der Waals/kʙ        0.000000e+00 ( 0.000000e+00 +/- 0.000000e+00) [K]
Framework-molecule
    Van der Waals/kʙ        0.000000e+00 ( 0.000000e+00 +/- 0.000000e+00) [K]
    Van der Waals (Tail)/kʙ 0.000000e+00 ( 0.000000e+00 +/- 0.000000e+00) [K]
    Coulombic Real/kʙ       0.000000e+00 ( 0.000000e+00 +/- 0.000000e+00) [K]
    Coulombic Fourier/kʙ    0.000000e+00 ( 0.000000e+00 +/- 0.000000e+00) [K]
Molecule-molecule
    Van der Waals/kʙ       -2.848463e+05 (-2.806022e+05 +/- 0.000000e+00) [K]
    Van der Waals (Tail)/kʙ-8.956201e+03 (-8.911378e+03 +/- 0.000000e+00) [K]
    Coulombic Real/kʙ      -9.119816e+04 (-8.852288e+04 +/- 0.000000e+00) [K]
    Coulombic Fourier/kʙ   -1.347021e+04 (-1.313120e+04 +/- 0.000000e+00) [K]
    Molecule Intra/kʙ       0.000000e+00 ( 0.000000e+00 +/- 0.000000e+00) [K]

Current cycle: 2100 out of 5000
===============================================================================

Box:      25.59226   0.00000   0.00000  Average:  25.66117   0.00000   0.00000
           0.00000  25.59226   0.00000             0.00000  25.66117   0.00000
           0.00000   0.00000  25.59226             0.00000   0.00000  25.66117
Lengths:  25.59226  25.59226  25.59226  Average:  25.66117  25.66117  25.66117
Angles:   90.00000  90.00000  90.00000  Average:  90.00000  90.00000  90.00000
Rectangular boundary conditions

net charge:   0.00000000

component 0 (CO2) lambda:  0 occupancy:  1 (1.000000)
    net charge:   0.00000000 [e]

Amount of molecules per component :
-------------------------------------------------------------------------------
Component 0 (CO2)
    molecules:      2.500000e+02 molecules  (2.500000e+02 +/- 0.000000e+00)
    number density: 1.491469e-02 molec./A^3 (1.479898e-02 +/- 0.000000e+00)
    density:        1.089692e+03 kg/m^3     (1.081239e+03 +/- 0.000000e+00)

Average pressure tensor: 
-------------------------------------------------------------------------------
 9.8633e+01 -3.0211e+01  2.2030e+00 +/- 0.0000e+00 0.0000e+00 0.0000e+00 [bar]
-3.0211e+01  1.7812e+02  4.3874e+01 +/- 0.0000e+00 0.0000e+00 0.0000e+00 [bar]
 2.2030e+00  4.3874e+01  6.8589e+01 +/- 0.0000e+00 0.0000e+00 0.0000e+00 [bar]
Ideal-gas pressure:   5.108056e+02 +/ 0.000000e+00 [bar]
Excess pressure:     -3.956913e+02 +/ 0.000000e+00 [bar]
Pressure:             1.151143e+02 +/ 0.000000e+00 [bar]

Total potential energy/kʙ  -3.939163e+05 (-3.913678e+05 +/- 0.000000e+00) [K]
-------------------------------------------------------------------------------
ExternalField-molecule
    Van der Waals/kʙ        0.000000e+00 ( 0.000000e+00 +/- 0.000000e+00) [K]
Framework-molecule
    Van der Waals/kʙ        0.000000e+00 ( 0.000000e+00 +/- 0.000000e+00) [K]
    Van der Waals (Tail)/kʙ 0.000000e+00 ( 0.000000e+00 +/- 0.000000e+00) [K]
[...]
    Coulombic Fourier/kʙ    0.000000e+00 ( 0.000000e+00 +/- 0.000000e+00) [K]
Molecule-molecule
    Van der Waals/kʙ       -2.870501e+05 (-2.812645e+05 +/- 3.591441e+03) [K]
    Van der Waals (Tail)/kʙ-9.321091e+03 (-8.939498e+03 +/- 1.021673e+02) [K]
    Coulombic Real/kʙ      -9.348825e+04 (-8.832040e+04 +/- 2.398579e+03) [K]
    Coulombic Fourier/kʙ   -1.271975e+04 (-1.306096e+04 +/- 3.213719e+02) [K]
    Molecule Intra/kʙ       0.000000e+00 ( 0.000000e+00 +/- 0.000000e+00) [K]

Current cycle: 4700 out of 5000
===============================================================================

Box:      25.29499   0.00000   0.00000  Average:  25.63273   0.00000   0.00000
           0.00000  25.29499   0.00000             0.00000  25.63273   0.00000
           0.00000   0.00000  25.29499             0.00000   0.00000  25.63273
Lengths:  25.29499  25.29499  25.29499  Average:  25.63273  25.63273  25.63273
Angles:   90.00000  90.00000  90.00000  Average:  90.00000  90.00000  90.00000
Rectangular boundary conditions

net charge:   0.00000000

component 0 (CO2) lambda:  0 occupancy:  1 (1.000000)
    net charge:   0.00000000 [e]

Amount of molecules per component :
-------------------------------------------------------------------------------
Component 0 (CO2)
    molecules:      2.500000e+02 molecules  (2.500000e+02 +/- 3.944933e-14)
    number density: 1.544674e-02 molec./A^3 (1.484869e-02 +/- 1.597307e-04)
    density:        1.128565e+03 kg/m^3     (1.084871e+03 +/- 1.167020e+01)

Average pressure tensor: 
-------------------------------------------------------------------------------
 1.3357e+02 -2.4758e+01 -1.0118e+01 +/- 8.6818e+01 7.9056e+01 3.3405e+01 [bar]
-2.4758e+01  1.6462e+02  6.0128e+00 +/- 7.9056e+01 3.5321e+01 5.5751e+01 [bar]
-1.0118e+01  6.0128e+00  1.2810e+02 +/- 3.3405e+01 5.5751e+01 9.8550e+01 [bar]
Ideal-gas pressure:   5.125213e+02 +/ 5.513305e+00 [bar]
Excess pressure:     -3.704251e+02 +/ 3.413377e+01 [bar]
Pressure:             1.420962e+02 +/ 3.635224e+01 [bar]

Total potential energy/kʙ  -4.120116e+05 (-3.919980e+05 +/- 5.185214e+03) [K]
-------------------------------------------------------------------------------
ExternalField-molecule
    Van der Waals/kʙ        0.000000e+00 ( 0.000000e+00 +/- 0.000000e+00) [K]
Framework-molecule
    Van der Waals/kʙ        0.000000e+00 ( 0.000000e+00 +/- 0.000000e+00) [K]
    Van der Waals (Tail)/kʙ 0.000000e+00 ( 0.000000e+00 +/- 0.000000e+00) [K]
    Coulombic Real/kʙ       0.000000e+00 ( 0.000000e+00 +/- 0.000000e+00) [K]
    Coulombic Fourier/kʙ    0.000000e+00 ( 0.000000e+00 +/- 0.000000e+00) [K]
Molecule-molecule
    Van der Waals/kʙ       -3.000755e+05 (-2.815636e+05 +/- 3.637893e+03) [K]
    Van der Waals (Tail)/kʙ-9.310093e+03 (-8.947579e+03 +/- 9.975034e+01) [K]
    Coulombic Real/kʙ      -8.826360e+04 (-8.840937e+04 +/- 1.955316e+03) [K]
    Coulombic Fourier/kʙ   -1.436242e+04 (-1.307745e+04 +/- 2.502024e+02) [K]
    Molecule Intra/kʙ       0.000000e+00 ( 0.000000e+00 +/- 0.000000e+00) [K]

Current cycle: 4800 out of 5000
===============================================================================

Box:      25.19169   0.00000   0.00000  Average:  25.62596   0.00000   0.00000
           0.00000  25.19169   0.00000             0.00000  25.62596   0.00000
           0.00000   0.00000  25.19169             0.00000   0.00000  25.62596
Lengths:  25.19169  25.19169  25.19169  Average:  25.62596  25.62596  25.62596
Angles:   90.00000  90.00000  90.00000  Average:  90.00000  90.00000  90.00000
Rectangular boundary conditions

net charge:   0.00000000

component 0 (CO2) lambda:  0 occupancy:  1 (1.000000)
    net charge:   0.00000000 [e]

Amount of molecules per component :
-------------------------------------------------------------------------------
Component 0 (CO2)
    molecules:      2.500000e+02 molecules  (2.500000e+02 +/- 0.000000e+00)
    number density: 1.563753e-02 molec./A^3 (1.486068e-02 +/- 1.665982e-04)
    density:        1.142505e+03 kg/m^3     (1.085747e+03 +/- 1.217195e+01)

Average pressure tensor: 
-------------------------------------------------------------------------------
 1.3142e+02 -2.5565e+01 -1.6010e+01 +/- 7.7134e+01 7.8530e+01 3.3427e+01 [bar]
-2.5565e+01  1.6221e+02  7.5807e+00 +/- 7.8530e+01 3.2632e+01 5.4663e+01 [bar]
-1.6010e+01  7.5807e+00  1.2944e+02 +/- 3.3427e+01 5.4663e+01 9.7608e+01 [bar]
Ideal-gas pressure:   5.129352e+02 +/ 5.750347e+00 [bar]
Excess pressure:     -3.719110e+02 +/ 3.058910e+01 [bar]
Pressure:             1.410242e+02 +/ 3.352531e+01 [bar]

Total potential energy/kʙ  -4.128813e+05 (-3.923015e+05 +/- 5.130450e+03) [K]
-------------------------------------------------------------------------------
ExternalField-molecule
    Van der Waals/kʙ        0.000000e+00 ( 0.000000e+00 +/- 0.000000e+00) [K]
Framework-molecule
    Van der Waals/kʙ        0.000000e+00 ( 0.000000e+00 +/- 0.000000e+00) [K]
    Van der Waals (Tail)/kʙ 0.000000e+00 ( 0.000000e+00 +/- 0.000000e+00) [K]
    Coulombic Real/kʙ       0.000000e+00 ( 0.000000e+00 +/- 0.000000e+00) [K]
    Coulombic Fourier/kʙ    0.000000e+00 ( 0.000000e+00 +/- 0.000000e+00) [K]
Molecule-molecule
    Van der Waals/kʙ       -2.943498e+05 (-2.818256e+05 +/- 3.872780e+03) [K]
    Van der Waals (Tail)/kʙ-9.425088e+03 (-8.954725e+03 +/- 1.042904e+02) [K]
    Coulombic Real/kʙ      -9.551917e+04 (-8.842462e+04 +/- 1.820529e+03) [K]
    Coulombic Fourier/kʙ   -1.358726e+04 (-1.309656e+04 +/- 2.048812e+02) [K]
    Molecule Intra/kʙ       0.000000e+00 ( 0.000000e+00 +/- 0.000000e+00) [K]

Current cycle: 4900 out of 5000
===============================================================================

Box:      25.53808   0.00000   0.00000  Average:  25.62199   0.00000   0.00000
           0.00000  25.53808   0.00000             0.00000  25.62199   0.00000
           0.00000   0.00000  25.53808             0.00000   0.00000  25.62199
Lengths:  25.53808  25.53808  25.53808  Average:  25.62199  25.62199  25.62199
Angles:   90.00000  90.00000  90.00000  Average:  90.00000  90.00000  90.00000
Rectangular boundary conditions

net charge:   0.00000000

component 0 (CO2) lambda:  0 occupancy:  1 (1.000000)
    net charge:   0.00000000 [e]

Amount of molecules per component :
-------------------------------------------------------------------------------
Component 0 (CO2)
    molecules:      2.500000e+02 molecules  (2.500000e+02 +/- 0.000000e+00)
    number density: 1.500982e-02 molec./A^3 (1.486763e-02 +/- 1.720678e-04)
    density:        1.096643e+03 kg/m^3     (1.086254e+03 +/- 1.257157e+01)

Average pressure tensor: 
-------------------------------------------------------------------------------
 1.3196e+02 -2.8131e+01 -1.9153e+01 +/- 7.5255e+01 7.8100e+01 3.6981e+01 [bar]
-2.8131e+01  1.6463e+02  5.9588e+00 +/- 7.8100e+01 3.4289e+01 5.5294e+01 [bar]
-1.9153e+01  5.9588e+00  1.2897e+02 +/- 3.6981e+01 5.5294e+01 9.7651e+01 [bar]
Ideal-gas pressure:   5.131749e+02 +/ 5.939138e+00 [bar]
Excess pressure:     -3.713223e+02 +/ 3.083605e+01 [bar]
Pressure:             1.418526e+02 +/ 3.403162e+01 [bar]

Total potential energy/kʙ  -3.891046e+05 (-3.924142e+05 +/- 5.157202e+03) [K]
-------------------------------------------------------------------------------
ExternalField-molecule
    Van der Waals/kʙ        0.000000e+00 ( 0.000000e+00 +/- 0.000000e+00) [K]
Framework-molecule
    Van der Waals/kʙ        0.000000e+00 ( 0.000000e+00 +/- 0.000000e+00) [K]
    Van der Waals (Tail)/kʙ 0.000000e+00 ( 0.000000e+00 +/- 0.000000e+00) [K]
    Coulombic Real/kʙ       0.000000e+00 ( 0.000000e+00 +/- 0.000000e+00) [K]
    Coulombic Fourier/kʙ    0.000000e+00 ( 0.000000e+00 +/- 0.000000e+00) [K]
Molecule-molecule
    Van der Waals/kʙ       -2.812985e+05 (-2.819344e+05 +/- 3.948654e+03) [K]
    Van der Waals (Tail)/kʙ-9.046754e+03 (-8.958459e+03 +/- 1.070814e+02) [K]
    Coulombic Real/kʙ      -8.621591e+04 (-8.842325e+04 +/- 1.754240e+03) [K]
    Coulombic Fourier/kʙ   -1.254347e+04 (-1.309807e+04 +/- 1.999355e+02) [K]
    Molecule Intra/kʙ       0.000000e+00 ( 0.000000e+00 +/- 0.000000e+00) [K]


Energy statistics             |  Energy [K]   | Recomputed [K]|  Drift [K]    |
===============================================================================
Total potential energy/kʙ     | -3.864378e+05 | -3.864378e+05 | -3.544143e-10 |
    external field VDW/kʙ     |  0.000000e+00 |  0.000000e+00 |  0.000000e+00 |
    external field Real/kʙ    |  0.000000e+00 |  0.000000e+00 |  0.000000e+00 |
    framework-molecule VDW/kʙ |  0.000000e+00 |  0.000000e+00 |  0.000000e+00 |
    framework-molecule Real/kʙ|  0.000000e+00 |  0.000000e+00 |  0.000000e+00 |
    molecule-molecule VDW/kʙ  | -2.757554e+05 | -2.757554e+05 | -2.275252e-09 |
    molecule-molecule Real/kʙ | -8.798441e+04 | -8.798441e+04 |  1.925214e-09 |
    Van der Waals (Tail)/kʙ   | -8.929115e+03 | -8.929115e+03 |  0.000000e+00 |
    Ewald Fourier/kʙ          |  8.922434e+03 |  8.922434e+03 | -4.375485e-12 |
    Ewald self/kʙ             | -5.029674e+06 | -5.029674e+06 |  0.000000e+00 |
    Ewald exclusion/kʙ        |  5.006983e+06 |  5.006983e+06 |  0.000000e+00 |
    intra VDW/kʙ              |  0.000000e+00 |  0.000000e+00 |  0.000000e+00 |
    intra Coulombic/kʙ        |  0.000000e+00 |  0.000000e+00 |  0.000000e+00 |
    polarization/kʙ           |  0.000000e+00 |  0.000000e+00 |  0.000000e+00 |
    dU/dlambda VDW/kʙ         |  0.000000e+00 |  0.000000e+00 |  0.000000e+00 |
    dU/dlambda Real/kʙ        |  0.000000e+00 |  0.000000e+00 |  0.000000e+00 |
    dU/dlambda Ewald/kʙ       |  0.000000e+00 |  0.000000e+00 |  0.000000e+00 |
-------------------------------------------------------------------------------


Monte-Carlo moves statistics
===============================================================================

    Volume change        all:                8453
    Volume change        total:              8453
    Volume change        constructed:        8453
    Volume change        accepted:           2285
    Volume change        fraction:       0.270318
    Volume change        max-change:     0.050000

Component 0 [CO2]
    Reinsertion (CBMC)   all:              413298
    Reinsertion (CBMC)   total:            413298
    Reinsertion (CBMC)   constructed:      358368
    Reinsertion (CBMC)   accepted:           4094
    Reinsertion (CBMC)   fraction:       0.009906
    Reinsertion (CBMC)   max-change:     0.000000

    Translation          all:              413556
    Translation          total:            137642     138196     137718
    Translation          constructed:      137642     138181     137718
    Translation          accepted:          81387      51936      64652
    Translation          fraction:       0.591295   0.375814   0.469452
    Translation          max-change:     0.491228   0.940789   0.700000

    Rotation             all:              414693
    Rotation             total:            138209     138034     138450
    Rotation             constructed:      138209     137749     138450
    Rotation             accepted:          64258      45334      68955
    Rotation             fraction:       0.464934   0.328426   0.498050
    Rotation             max-change:     0.761538   1.198751   0.670968



Production run counting of the MC moves summed over systems and components
===============================================================================

Volume change                          8453 (0.6762 [%])
Reinsertion (CBMC)                   413298 (33.0638 [%])
Translation                          413556 (33.0845 [%])
Rotation                             414693 (33.1754 [%])

Production count MC-steps:          1250000 [-]
               All summed:          1250000 [-]
               difference:                0 [-]


Production run CPU timings of the MC moves
===============================================================================

Component 0 CO2

Rotation                             60.527185 [s]
    Ewald                            23.282636 [s]
    ExternalField-Molecule            0.014268 [s]
    Framework-Molecule                0.012703 [s]
    Molecule-Molecule                35.446664 [s]
    Overhead                          1.770914 [s]

Reinsertion (CBMC)                  251.815188 [s]
    Ewald                            20.260584 [s]
    NonEwald                        231.168839 [s]
    Overhead                          0.385765 [s]

Translation                          60.584686 [s]
    Ewald                            23.252538 [s]
    ExternalField-Molecule            0.013442 [s]
    Framework-Molecule                0.026079 [s]
    Molecule-Molecule                35.432399 [s]
    Overhead                          1.860228 [s]



Volume change                         72.539493 [s]
    Ewald                             23.689183 [s]
    NonEwald                          45.282329 [s]
    Tail                               3.267875 [s]

Property sampling                     0.302031 [s]
Energy/pressure sampling:             8.364695 [s]


Production run CPU timings of the MC moves summed over systems and components
===============================================================================


Translation                          60.584686 [s]
    Ewald                            23.252538 [s]
    ExternalField-Molecule            0.013442 [s]
    Framework-Molecule                0.026079 [s]
    Molecule-Molecule                35.432399 [s]
    Overhead                          1.860228 [s]

Rotation                             60.527185 [s]
    Ewald                            23.282636 [s]
    ExternalField-Molecule            0.014268 [s]
    Framework-Molecule                0.012703 [s]
    Molecule-Molecule                35.446664 [s]
    Overhead                          1.770914 [s]

Volume change                        72.539493 [s]
    Ewald                            23.689183 [s]
    NonEwald                         45.282329 [s]
    Tail                              3.267875 [s]
    Overhead                          0.300106 [s]

Reinsertion (CBMC)                  251.815188 [s]
    Ewald                            20.260584 [s]
    NonEwald                        231.168839 [s]
    Overhead                          0.385765 [s]

Property sampling:                    0.302031 [s]
Energy/pressure sampling:             8.364695 [s]

Production simulation time:         455.081694 [s]
                All summed:         454.133278 [s]
                  Overhead:           0.948416 [s]


Initalization simulation time:       89.119094 [s]
Equilibration simulation time:        0.000000 [s]
Production simulation time:         455.081694 [s]
Total simulation time:              544.200788 [s]


Energy averages and statistics:
===============================================================================

Framework-molecule energy:
-------------------------------------------------------------------------------



Framework-molecule energy contributions per energy type:
-------------------------------------------------------------------------------



Inter-molecular energy:
-------------------------------------------------------------------------------

    Inter-molecular energy/kʙ 0-0 [CO2-CO2]:
    ---------------------------------------------------------------------------
        Block[  0] -3.873859e+05
        Block[  1] -3.948764e+05
        Block[  2] -3.975025e+05
        Block[  3] -3.890943e+05
        Block[  4] -3.927883e+05
        -----------------------------------------------------------------------
        Average  -3.923295e+05 +/-  5.132328e+03 [K]



Inter-molecular energy contributions per energy type:
-------------------------------------------------------------------------------

    Van der Waals energy/kʙ 0-0 [CO2-CO2]:
    ---------------------------------------------------------------------------
        Block[  0] -2.778437e+05
        Block[  1] -2.833183e+05
        Block[  2] -2.849395e+05
        Block[  3] -2.793693e+05
        Block[  4] -2.839756e+05
        -----------------------------------------------------------------------
        Average  -2.818893e+05 +/-  3.847331e+03 [K]

    VDW Tail-Correction energy/kʙ 0-0 [CO2-CO2]:
    ---------------------------------------------------------------------------
        Block[  0] -8.844938e+03
        Block[  1] -8.977370e+03
        Block[  2] -9.057257e+03
        Block[  3] -8.900897e+03
        Block[  4] -9.003302e+03
        -----------------------------------------------------------------------
        Average  -8.956753e+03 +/-  1.044519e+02 [K]

    Coulomb Real energy/kʙ 0-0 [CO2-CO2]:
    ---------------------------------------------------------------------------
        Block[  0] -8.777896e+04
        Block[  1] -8.924005e+04
        Block[  2] -9.040381e+04
        Block[  3] -8.769496e+04
        Block[  4] -8.679578e+04
        -----------------------------------------------------------------------
        Average  -8.838271e+04 +/-  1.774876e+03 [K]

    Coulomb Fourier energy/kʙ 0-0 [CO2-CO2]:
    ---------------------------------------------------------------------------
        Block[  0] -1.291832e+04
        Block[  1] -1.334069e+04
        Block[  2] -1.310197e+04
        Block[  3] -1.312922e+04
        Block[  4] -1.301363e+04
        -----------------------------------------------------------------------
        Average  -1.310077e+04 +/-  1.955605e+02 [K]


Total energy/kʙ
-------------------------------------------------------------------------------
    Block[  0] -3.873859e+05
    Block[  1] -3.948764e+05
    Block[  2] -3.975025e+05
    Block[  3] -3.890943e+05
    Block[  4] -3.927883e+05
    ---------------------------------------------------------------------------
    Average  -3.923295e+05 +/-  5.132328e+03 [K]

Pressure averages and statistics:
===============================================================================

Average pressure tensor: 
-------------------------------------------------------------------------------
 1.2841e+02 -2.8584e+01 -1.6818e+01 +/- 6.7785e+01 7.8114e+01 3.3581e+01 [bar]
-2.8584e+01  1.6373e+02  6.1703e+00 +/- 7.8114e+01 3.3298e+01 5.5052e+01 [bar]
-1.6818e+01  6.1703e+00  1.2807e+02 +/- 3.3581e+01 5.5052e+01 9.7848e+01 [bar]

    Block[  0]  5.070150e+07
    Block[  1]  5.143866e+07
    Block[  2]  5.186113e+07
    Block[  3]  5.097340e+07
    Block[  4]  5.157466e+07
    ---------------------------------------------------------------------------
    Ideal gas pressure   5.130987e+07 +/-  3.494534e-02 [Pa]
                         5.130987e+02 +/-  5.802813e+00 [bar]


    Block[  0] -3.943355e+07
    Block[  1] -4.015523e+07
    Block[  2] -3.512217e+07
    Block[  3] -3.555369e+07
    Block[  4] -3.624999e+07
    ---------------------------------------------------------------------------
    Excess pressure  -3.730292e+07 +/-  2.884864e+06 [Pa]
                     -3.730292e+02 +/-  2.884864e+01 [bar]


    Block[  0]  1.126796e+07
    Block[  1]  1.128342e+07
    Block[  2]  1.673896e+07
    Block[  3]  1.541971e+07
    Block[  4]  1.532467e+07
    ---------------------------------------------------------------------------
    Pressure average   1.400694e+07 +/-  3.172171e+06 [Pa]
                       1.400694e+02 +/-  3.172171e+01 [bar]


Enthalpy of adsorption
===============================================================================

No fluctuating components present.


Densities
===============================================================================

Component 0 (CO2)
    Block[  0] 250
    Block[  1] 250
    Block[  2] 250
    Block[  3] 250
    Block[  4] 250
    -----------------------------------------------------------------------
    Density average   2.500000e+02 +/-  0.000000e+00 [molecules]
    Density average   1.486542e-02 +/-  1.681183e-04 [molec/A^3]
    Density average   1.086093e+03 +/-  1.228301e+01 [kg.m⁻³]

