Compiler and run-time data
===============================================================================
RASPA 3.0.4

Random seed: 3575291496

Compiled as a 64-bits application
Compiler: gcc Ubuntu Clang 18.1.3 (1ubuntu1)
Compile Date = Mar 15 2025, Compile Time = 19:39:45

2025-06-02 12:33:28.184624
Simulation started on Mon, Jun 02
The start time was 12:33:00

Hostname:    c062
OS type:     Linux on x86_64
OS release:  6.8.0-58-generic
OS version:  #60-Ubuntu SMP PREEMPT_DYNAMIC Fri Mar 14 18:29:48 UTC 2025


Mutual consistent basic set of units:
===============================================================================

Unit of temperature: 1 [K]
Unit of length:      1e-10 [m]
Unit of time:        1e-12 [s]
Unit of mass:        1.6605402e-27 [kg]
Unit of charge:      1.60217733e-19 [C/particle]


Boltzmann constant (internal units):          0.8314464919307584 [-]
represents conversion from energy (internal units) to temperature (in Kelvin)

Derived units and their conversion factors:
===============================================================================

Unit of energy:                           1.6605402000000002e-23 [J]
Unit of energy:                           10.000008872307538 [J.mol⁻¹]
Unit of velocity:                         100 [m.s⁻¹]
Unit of force:                            1.6605402000000002e-13 [N]
Unit of diffusion:                        1.0000000000000002e-08 [m².s⁻¹]
Unit of acceleration:                     1.0000000000000002e-08 [m².s⁻¹]
Unit of torque:                           1.6605402000000002e-23 [N.m]
Unit of pressure:                         16605402 [Pa]
Unit of volume:                           1e-30 [m³]
Unit of density:                          1660.5402 [kg.m⁻³]
Unit of dynamic viscosity:                1.6605401999999997e-05 [N.s.m⁻²]
Unit of enthalpy:                         1.6605402000000002e-23 [J]
Unit of polarizability:                   1.5458657349975198e-35 [-]
Unit of Coulomb potential:                167101.08000665612 [K]
Unit of dielectric constant:              1.5458657349975193e-05 [s².C².kg⁻¹.m⁻³]
Unit of dipole moment:                    1.60217733e-29 [C.m]
Unit of Debye:                            4.803206799099162 [C.m]
Unit of electric potential:               0.00010364272224473431 [V]
Unit of electric field:                   1036427.222447343 [V.m⁻¹]
Unit of isothermal compressibility:       6.02213665167516e-08 [Pa⁻¹]
Unit of heat capacity:                    10.000008872307538 [J.mol⁻¹.K⁻¹]
Unit of volumetric expansion coefficient: 1 [K⁻¹]


Internal conversion factors:
===============================================================================

Energy (internal units) to Kelvin:      1.202724284692786 [-]
Kelvin to energy (internal units):      0.8314457542157567 [-]


System definitions
===============================================================================

Temperature:          250 [K]
Beta:                 0.0048108928702210625 [-]
Pressure:             1.6e+07 [Pa]
Helium void fraction: 1 [-]

Box:      30.00000   0.00000   0.00000
           0.00000  30.00000   0.00000
           0.00000   0.00000  30.00000
Lengths:  30.00000  30.00000  30.00000
Angles:   90.00000  90.00000  90.00000
Rectangular boundary conditions



Property measurement settings
===============================================================================




Pseudo-atoms
===============================================================================

  0 - C_co2    framework-atom: false
  1 - O_co2    framework-atom: false

  0 - C_co2    mass: 12.00000, charge:  0.70000
  1 - O_co2    mass: 15.99940, charge: -0.35000

  0 - C_co2    polarizability:  0.00000
  1 - O_co2    polarizability:  0.00000

  0 - J. J. Potoff et al., AIChE J. 2001, 47, 1676–1682.
  1 - J. J. Potoff et al., AIChE J. 2001, 47, 1676–1682.

Force field status
===============================================================================

Cutoff Framework-Molecule VDW:  12.00000 [Å]
Cutoff Molecule-Molecule VDW:   12.00000 [Å]
Cutoff Coulomb:                 12.00000 [Å]

Overlap-criteria VDW:           1.000000e+05 [K]

C_co2    - C_co2    Lennard-Jones p₀/kʙ:  27.00000 [K], p₁:  2.80000 [Å]
                                  shift:   0.00000 [K], tailcorrections: true
C_co2    - O_co2    Lennard-Jones p₀/kʙ:  46.18441 [K], p₁:  2.92500 [Å]
                                  shift:   0.00000 [K], tailcorrections: true
O_co2    - O_co2    Lennard-Jones p₀/kʙ:  79.00000 [K], p₁:  3.05000 [Å]
                                  shift:   0.00000 [K], tailcorrections: true

Ewald precision: 1e-06
Ewald alpha: 0.26505830360350674
Ewald k-vectors: 8 8 8


Component definitions
===============================================================================

Component 0 [CO2]

    Type: Adsorbate

    Critical temperature:  304.1282 [K]
    Critical pressure:     7377300 [Pa]
    Acentric factor:       0.22394 [-]

    Mol-fraction:                 1 [-]
    Swappable:                   false

    Mass:                         43.9988 [-]
    Bulk fluid density:           0 [-]
    Compressibility:              0 [-]
    Excess molecules:             0 [-]

    Number Of Atoms:    3
    CBMC starting bead: 0
      0: O_co2  position  0.00000 -0.00000  1.16000, charge -0.35000
      1: C_co2  position  0.00000 -0.00000  0.00000, charge  0.70000
      2: O_co2  position  0.00000 -0.00000 -1.16000, charge -0.35000
    Diagonalized inertia-vector:      43.05758528 43.05758528 0.00000000
    Translational degrees of freedom: 3
    Rotational degrees of freedom:    2
    Shape of the molecule is: 'Linear'
    Net-charge:        0.00000000 [e]

    Move probabilities:
    Translation:                   0.331126 [-]
    Random translation:            0.000000 [-]
    Rotation:                      0.331126 [-]
    Random rotation:               0.000000 [-]
    Volume change:                 0.006623 [-]
    Reinsertion (CBMC):            0.331126 [-]
    Identity change (CBMC):        0.000000 [-]
    Swap:                          0.000000 [-]
    Swap (CBMC):                   0.000000 [-]
    Swap (CFCMC):                  0.000000 [-]
    Swap (CB/CFCMC):               0.000000 [-]
    Gibbs volume:                  0.000000 [-]
    Gibbs swap (CBMC):             0.000000 [-]
    Gibbs swap (CFCMC):            0.000000 [-]
    Widom:                         0.000000 [-]
    Widom (CFCMC):                 0.000000 [-]
    Widom (CB/CFCMC):              0.000000 [-]
    Parallel tempering:            0.000000 [-]
    Hybrid MC:                     0.000000 [-]

    number of blocking-pockets: 0

    number of bonds: 0





Number of pseudo-atoms
===============================================================================

Component   0 (CO2)
-------------------------------------------------------------------------------
    index   0 (C_co2): 250 atoms
    index   1 (O_co2): 500 atoms

Total number of pseudo-atoms:
-------------------------------------------------------------------------------
    index   0 (C_co2): 250 atoms
    index   1 (O_co2): 500 atoms




Energy status Recomputed from scratch
===============================================================================

Total potential energy/kʙ       -6.393731e+04 [K]
    external field VDW/kʙ        0.000000e+00 [K]
    external field Real/kʙ       0.000000e+00 [K]
    framework-molecule VDW/kʙ    0.000000e+00 [K]
    framework-molecule Real/kʙ   0.000000e+00 [K]
    molecule-molecule VDW/kʙ    -3.215269e+04 [K]
    molecule-molecule Real/kʙ   -2.621884e+04 [K]
    Van der Waals (Tail)/kʙ     -4.298852e+03 [K]
    Ewald Fourier/kʙ             1.343448e+04 [K]
    Ewald self/kʙ               -4.591696e+06 [K]
    Ewald exclusion/kʙ           4.576994e+06 [K]
    intra VDW/kʙ                 0.000000e+00 [K]
    intra Coulombic/kʙ           0.000000e+00 [K]
    polarization/kʙ              0.000000e+00 [K]
    dU/dlambda VDW/kʙ            0.000000e+00 [K]
    dU/dlambda Real/kʙ           0.000000e+00 [K]
    dU/dlambda Ewald/kʙ          0.000000e+00 [K]





Initialization: Current cycle: 0 out of 1000
===============================================================================

Box:      30.03653   0.00000   0.00000
           0.00000  30.03653   0.00000
           0.00000   0.00000  30.03653
Lengths:  30.03653  30.03653  30.03653
Angles:   90.00000  90.00000  90.00000
Rectangular boundary conditions

net charge:   0.00000000

component   0 (CO2) lambda:  0 occupancy:  1 (1.000000)
    net charge:   0.00000000 [e]

Amount of molecules per component :
-------------------------------------------------------------------------------
Component 0 (CO2)
    molecules:         2.500000e+02 molecules
    number density:    9.225521e-03 molec/A^3
    density:           6.740324e+02 kg/m^3

Total potential energy/kʙ       -1.009109e+05 [K]
-------------------------------------------------------------------------------
    external field VDW/kʙ        0.000000e+00 [K]
    external field Real/kʙ       0.000000e+00 [K]
    framework-molecule VDW/kʙ    0.000000e+00 [K]
    framework-molecule Real/kʙ   0.000000e+00 [K]
    molecule-molecule VDW/kʙ    -6.391911e+04 [K]
    molecule-molecule Real/kʙ   -3.115843e+04 [K]
    Van der Waals (Tail)/kʙ     -4.283188e+03 [K]
    Ewald Fourier/kʙ             1.315122e+04 [K]
    Ewald self/kʙ               -4.591696e+06 [K]
    Ewald exclusion/kʙ           4.576994e+06 [K]
    intra VDW/kʙ                 0.000000e+00 [K]
    intra Coulombic/kʙ           0.000000e+00 [K]
    polarization/kʙ              0.000000e+00 [K]
    dU/dlambda VDW/kʙ            0.000000e+00 [K]
    dU/dlambda Real/kʙ           0.000000e+00 [K]
    dU/dlambda Ewald/kʙ          0.000000e+00 [K]


Initialization: Current cycle: 100 out of 1000
===============================================================================

Box:      27.84777   0.00000   0.00000
           0.00000  27.84777   0.00000
           0.00000   0.00000  27.84777
Lengths:  27.84777  27.84777  27.84777
Angles:   90.00000  90.00000  90.00000
Rectangular boundary conditions

net charge:   0.00000000

component   0 (CO2) lambda:  0 occupancy:  1 (1.000000)
    net charge:   0.00000000 [e]

Amount of molecules per component :
-------------------------------------------------------------------------------
Component 0 (CO2)
    molecules:         2.500000e+02 molecules
    number density:    1.157627e-02 molec/A^3
    density:           8.457821e+02 kg/m^3

Total potential energy/kʙ       -3.093215e+05 [K]
-------------------------------------------------------------------------------
    external field VDW/kʙ        0.000000e+00 [K]
    external field Real/kʙ       0.000000e+00 [K]
    framework-molecule VDW/kʙ    0.000000e+00 [K]
    framework-molecule Real/kʙ   0.000000e+00 [K]
    molecule-molecule VDW/kʙ    -2.217612e+05 [K]
    molecule-molecule Real/kʙ   -7.450563e+04 [K]
    Van der Waals (Tail)/kʙ     -5.374584e+03 [K]
    Ewald Fourier/kʙ             7.021378e+03 [K]
    Ewald self/kʙ               -4.591696e+06 [K]
    Ewald exclusion/kʙ           4.576994e+06 [K]
    intra VDW/kʙ                 0.000000e+00 [K]
    intra Coulombic/kʙ           0.000000e+00 [K]
    polarization/kʙ              0.000000e+00 [K]
    dU/dlambda VDW/kʙ            0.000000e+00 [K]
    dU/dlambda Real/kʙ           0.000000e+00 [K]
    dU/dlambda Ewald/kʙ          0.000000e+00 [K]


Initialization: Current cycle: 200 out of 1000
===============================================================================

Box:      26.62328   0.00000   0.00000
           0.00000  26.62328   0.00000
           0.00000   0.00000  26.62328
Lengths:  26.62328  26.62328  26.62328
Angles:   90.00000  90.00000  90.00000
Rectangular boundary conditions

net charge:   0.00000000

component   0 (CO2) lambda:  0 occupancy:  1 (1.000000)
    net charge:   0.00000000 [e]

Amount of molecules per component :
-------------------------------------------------------------------------------
Component 0 (CO2)
    molecules:         2.500000e+02 molecules
    number density:    1.324816e-02 molec/A^3
    density:           9.679330e+02 kg/m^3

Total potential energy/kʙ       -3.480357e+05 [K]
-------------------------------------------------------------------------------
    external field VDW/kʙ        0.000000e+00 [K]
    external field Real/kʙ       0.000000e+00 [K]
    framework-molecule VDW/kʙ    0.000000e+00 [K]
    framework-molecule Real/kʙ   0.000000e+00 [K]
    molecule-molecule VDW/kʙ    -2.548503e+05 [K]
    molecule-molecule Real/kʙ   -7.898645e+04 [K]
    Van der Waals (Tail)/kʙ     -6.150801e+03 [K]
    Ewald Fourier/kʙ             6.653270e+03 [K]
    Ewald self/kʙ               -4.591696e+06 [K]
    Ewald exclusion/kʙ           4.576994e+06 [K]
    intra VDW/kʙ                 0.000000e+00 [K]
    intra Coulombic/kʙ           0.000000e+00 [K]
    polarization/kʙ              0.000000e+00 [K]
    dU/dlambda VDW/kʙ            0.000000e+00 [K]
    dU/dlambda Real/kʙ           0.000000e+00 [K]
    dU/dlambda Ewald/kʙ          0.000000e+00 [K]


Initialization: Current cycle: 300 out of 1000
===============================================================================

Box:      25.89559   0.00000   0.00000
           0.00000  25.89559   0.00000
           0.00000   0.00000  25.89559
Lengths:  25.89559  25.89559  25.89559
Angles:   90.00000  90.00000  90.00000
Rectangular boundary conditions

net charge:   0.00000000

component   0 (CO2) lambda:  0 occupancy:  1 (1.000000)
    net charge:   0.00000000 [e]

Amount of molecules per component :
-------------------------------------------------------------------------------
Component 0 (CO2)
    molecules:         2.500000e+02 molecules
    number density:    1.439669e-02 molec/A^3
    density:           1.051847e+03 kg/m^3

Total potential energy/kʙ       -3.704502e+05 [K]
-------------------------------------------------------------------------------
    external field VDW/kʙ        0.000000e+00 [K]
    external field Real/kʙ       0.000000e+00 [K]
    framework-molecule VDW/kʙ    0.000000e+00 [K]
    framework-molecule Real/kʙ   0.000000e+00 [K]
    molecule-molecule VDW/kʙ    -2.681176e+05 [K]
    molecule-molecule Real/kʙ   -8.670584e+04 [K]
    Van der Waals (Tail)/kʙ     -6.684039e+03 [K]
    Ewald Fourier/kʙ             5.758716e+03 [K]
    Ewald self/kʙ               -4.591696e+06 [K]
    Ewald exclusion/kʙ           4.576994e+06 [K]
    intra VDW/kʙ                 0.000000e+00 [K]
    intra Coulombic/kʙ           0.000000e+00 [K]
    polarization/kʙ              0.000000e+00 [K]
    dU/dlambda VDW/kʙ            0.000000e+00 [K]
    dU/dlambda Real/kʙ           0.000000e+00 [K]
    dU/dlambda Ewald/kʙ          0.000000e+00 [K]


Initialization: Current cycle: 400 out of 1000
===============================================================================

Box:      25.74665   0.00000   0.00000
           0.00000  25.74665   0.00000
           0.00000   0.00000  25.74665
Lengths:  25.74665  25.74665  25.74665
Angles:   90.00000  90.00000  90.00000
Rectangular boundary conditions

net charge:   0.00000000

component   0 (CO2) lambda:  0 occupancy:  1 (1.000000)
    net charge:   0.00000000 [e]

Amount of molecules per component :
-------------------------------------------------------------------------------
Component 0 (CO2)
    molecules:         2.500000e+02 molecules
    number density:    1.464799e-02 molec/A^3
    density:           1.070207e+03 kg/m^3

Total potential energy/kʙ       -3.817937e+05 [K]
-------------------------------------------------------------------------------
    external field VDW/kʙ        0.000000e+00 [K]
    external field Real/kʙ       0.000000e+00 [K]
    framework-molecule VDW/kʙ    0.000000e+00 [K]
    framework-molecule Real/kʙ   0.000000e+00 [K]
    molecule-molecule VDW/kʙ    -2.807240e+05 [K]
    molecule-molecule Real/kʙ   -8.582511e+04 [K]
    Van der Waals (Tail)/kʙ     -6.800708e+03 [K]
    Ewald Fourier/kʙ             6.257470e+03 [K]
    Ewald self/kʙ               -4.591696e+06 [K]
    Ewald exclusion/kʙ           4.576994e+06 [K]
    intra VDW/kʙ                 0.000000e+00 [K]
    intra Coulombic/kʙ           0.000000e+00 [K]
    polarization/kʙ              0.000000e+00 [K]
    dU/dlambda VDW/kʙ            0.000000e+00 [K]
    dU/dlambda Real/kʙ           0.000000e+00 [K]
    dU/dlambda Ewald/kʙ          0.000000e+00 [K]


Initialization: Current cycle: 500 out of 1000
===============================================================================

Box:      25.65289   0.00000   0.00000
           0.00000  25.65289   0.00000
           0.00000   0.00000  25.65289
Lengths:  25.65289  25.65289  25.65289
Angles:   90.00000  90.00000  90.00000
Rectangular boundary conditions

net charge:   0.00000000

component   0 (CO2) lambda:  0 occupancy:  1 (1.000000)
    net charge:   0.00000000 [e]

Amount of molecules per component :
-------------------------------------------------------------------------------
Component 0 (CO2)
    molecules:         2.500000e+02 molecules
    number density:    1.480918e-02 molec/A^3
    density:           1.081984e+03 kg/m^3

Total potential energy/kʙ       -3.856218e+05 [K]
-------------------------------------------------------------------------------
    external field VDW/kʙ        0.000000e+00 [K]
    external field Real/kʙ       0.000000e+00 [K]
    framework-molecule VDW/kʙ    0.000000e+00 [K]
    framework-molecule Real/kʙ   0.000000e+00 [K]
    molecule-molecule VDW/kʙ    -2.815618e+05 [K]
    molecule-molecule Real/kʙ   -8.879277e+04 [K]
    Van der Waals (Tail)/kʙ     -6.875545e+03 [K]
    Ewald Fourier/kʙ             6.309785e+03 [K]
    Ewald self/kʙ               -4.591696e+06 [K]
    Ewald exclusion/kʙ           4.576994e+06 [K]
    intra VDW/kʙ                 0.000000e+00 [K]
    intra Coulombic/kʙ           0.000000e+00 [K]
    polarization/kʙ              0.000000e+00 [K]
    dU/dlambda VDW/kʙ            0.000000e+00 [K]
    dU/dlambda Real/kʙ           0.000000e+00 [K]
    dU/dlambda Ewald/kʙ          0.000000e+00 [K]


Initialization: Current cycle: 600 out of 1000
===============================================================================

Box:      25.64479   0.00000   0.00000
           0.00000  25.64479   0.00000
           0.00000   0.00000  25.64479
Lengths:  25.64479  25.64479  25.64479
Angles:   90.00000  90.00000  90.00000
Rectangular boundary conditions

net charge:   0.00000000

component   0 (CO2) lambda:  0 occupancy:  1 (1.000000)
    net charge:   0.00000000 [e]

Amount of molecules per component :
-------------------------------------------------------------------------------
Component 0 (CO2)
    molecules:         2.500000e+02 molecules
    number density:    1.482322e-02 molec/A^3
    density:           1.083010e+03 kg/m^3

Total potential energy/kʙ       -3.918454e+05 [K]
-------------------------------------------------------------------------------
    external field VDW/kʙ        0.000000e+00 [K]
    external field Real/kʙ       0.000000e+00 [K]
    framework-molecule VDW/kʙ    0.000000e+00 [K]
    framework-molecule Real/kʙ   0.000000e+00 [K]
    molecule-molecule VDW/kʙ    -2.811845e+05 [K]
    molecule-molecule Real/kʙ   -9.519598e+04 [K]
    Van der Waals (Tail)/kʙ     -6.882065e+03 [K]
    Ewald Fourier/kʙ             6.118500e+03 [K]
    Ewald self/kʙ               -4.591696e+06 [K]
    Ewald exclusion/kʙ           4.576994e+06 [K]
    intra VDW/kʙ                 0.000000e+00 [K]
    intra Coulombic/kʙ           0.000000e+00 [K]
    polarization/kʙ              0.000000e+00 [K]
    dU/dlambda VDW/kʙ            0.000000e+00 [K]
    dU/dlambda Real/kʙ           0.000000e+00 [K]
    dU/dlambda Ewald/kʙ          0.000000e+00 [K]


Initialization: Current cycle: 700 out of 1000
===============================================================================

Box:      25.72089   0.00000   0.00000
           0.00000  25.72089   0.00000
           0.00000   0.00000  25.72089
Lengths:  25.72089  25.72089  25.72089
Angles:   90.00000  90.00000  90.00000
Rectangular boundary conditions

net charge:   0.00000000

component   0 (CO2) lambda:  0 occupancy:  1 (1.000000)
    net charge:   0.00000000 [e]

Amount of molecules per component :
-------------------------------------------------------------------------------
Component 0 (CO2)
    molecules:         2.500000e+02 molecules
    number density:    1.469204e-02 molec/A^3
    density:           1.073426e+03 kg/m^3

Total potential energy/kʙ       -3.919927e+05 [K]
-------------------------------------------------------------------------------
    external field VDW/kʙ        0.000000e+00 [K]
    external field Real/kʙ       0.000000e+00 [K]
    framework-molecule VDW/kʙ    0.000000e+00 [K]
    framework-molecule Real/kʙ   0.000000e+00 [K]
    molecule-molecule VDW/kʙ    -2.858648e+05 [K]
    molecule-molecule Real/kʙ   -9.076933e+04 [K]
    Van der Waals (Tail)/kʙ     -6.821163e+03 [K]
    Ewald Fourier/kʙ             6.163932e+03 [K]
    Ewald self/kʙ               -4.591696e+06 [K]
    Ewald exclusion/kʙ           4.576994e+06 [K]
    intra VDW/kʙ                 0.000000e+00 [K]
    intra Coulombic/kʙ           0.000000e+00 [K]
    polarization/kʙ              0.000000e+00 [K]
    dU/dlambda VDW/kʙ            0.000000e+00 [K]
    dU/dlambda Real/kʙ           0.000000e+00 [K]
    dU/dlambda Ewald/kʙ          0.000000e+00 [K]


Initialization: Current cycle: 800 out of 1000
===============================================================================

Box:      25.65707   0.00000   0.00000
           0.00000  25.65707   0.00000
           0.00000   0.00000  25.65707
Lengths:  25.65707  25.65707  25.65707
Angles:   90.00000  90.00000  90.00000
Rectangular boundary conditions

net charge:   0.00000000

component   0 (CO2) lambda:  0 occupancy:  1 (1.000000)
    net charge:   0.00000000 [e]

Amount of molecules per component :
-------------------------------------------------------------------------------
Component 0 (CO2)
    molecules:         2.500000e+02 molecules
    number density:    1.480195e-02 molec/A^3
    density:           1.081455e+03 kg/m^3

Total potential energy/kʙ       -3.931254e+05 [K]
-------------------------------------------------------------------------------
    external field VDW/kʙ        0.000000e+00 [K]
    external field Real/kʙ       0.000000e+00 [K]
    framework-molecule VDW/kʙ    0.000000e+00 [K]
    framework-molecule Real/kʙ   0.000000e+00 [K]
    molecule-molecule VDW/kʙ    -2.836009e+05 [K]
    molecule-molecule Real/kʙ   -9.359701e+04 [K]
    Van der Waals (Tail)/kʙ     -6.872188e+03 [K]
    Ewald Fourier/kʙ             5.646113e+03 [K]
    Ewald self/kʙ               -4.591696e+06 [K]
    Ewald exclusion/kʙ           4.576994e+06 [K]
    intra VDW/kʙ                 0.000000e+00 [K]
    intra Coulombic/kʙ           0.000000e+00 [K]
    polarization/kʙ              0.000000e+00 [K]
    dU/dlambda VDW/kʙ            0.000000e+00 [K]
    dU/dlambda Real/kʙ           0.000000e+00 [K]
    dU/dlambda Ewald/kʙ          0.000000e+00 [K]


Initialization: Current cycle: 900 out of 1000
===============================================================================

Box:      25.65562   0.00000   0.00000
           0.00000  25.65562   0.00000
           0.00000   0.00000  25.65562
Lengths:  25.65562  25.65562  25.65562
Angles:   90.00000  90.00000  90.00000
Rectangular boundary conditions

net charge:   0.00000000

component   0 (CO2) lambda:  0 occupancy:  1 (1.000000)
    net charge:   0.00000000 [e]

Amount of molecules per component :
-------------------------------------------------------------------------------
Component 0 (CO2)
    molecules:         2.500000e+02 molecules
    number density:    1.480446e-02 molec/A^3
    density:           1.081639e+03 kg/m^3

Total potential energy/kʙ       -3.990293e+05 [K]
-------------------------------------------------------------------------------
    external field VDW/kʙ        0.000000e+00 [K]
    external field Real/kʙ       0.000000e+00 [K]
    framework-molecule VDW/kʙ    0.000000e+00 [K]
    framework-molecule Real/kʙ   0.000000e+00 [K]
    molecule-molecule VDW/kʙ    -2.906348e+05 [K]
    molecule-molecule Real/kʙ   -9.348623e+04 [K]
    Van der Waals (Tail)/kʙ     -6.873357e+03 [K]
    Ewald Fourier/kʙ             6.666486e+03 [K]
    Ewald self/kʙ               -4.591696e+06 [K]
    Ewald exclusion/kʙ           4.576994e+06 [K]
    intra VDW/kʙ                 0.000000e+00 [K]
    intra Coulombic/kʙ           0.000000e+00 [K]
    polarization/kʙ              0.000000e+00 [K]
    dU/dlambda VDW/kʙ            0.000000e+00 [K]
    dU/dlambda Real/kʙ           0.000000e+00 [K]
    dU/dlambda Ewald/kʙ          0.000000e+00 [K]


Current cycle: 0 out of 5000
===============================================================================

Box:      25.69718   0.00000   0.00000  Average:  25.69718   0.00000   0.00000
           0.00000  25.69718   0.00000             0.00000  25.69718   0.00000
           0.00000   0.00000  25.69718             0.00000   0.00000  25.69718
Lengths:  25.69718  25.69718  25.69718  Average:  25.69718  25.69718  25.69718
Angles:   90.00000  90.00000  90.00000  Average:  90.00000  90.00000  90.00000
Rectangular boundary conditions

net charge:   0.00000000

component 0 (CO2) lambda:  0 occupancy:  1 (1.000000)
    net charge:   0.00000000 [e]

Amount of molecules per component :
-------------------------------------------------------------------------------
Component 0 (CO2)
    molecules:      2.500000e+02 molecules  (2.500000e+02 +/- 0.000000e+00)
    number density: 1.473275e-02 molec./A^3 (1.473275e-02 +/- 0.000000e+00)
    density:        1.076400e+03 kg/m^3     (1.076400e+03 +/- 0.000000e+00)

Average pressure tensor: 
-------------------------------------------------------------------------------
 5.0852e+02  0.0000e+00  0.0000e+00 +/- 0.0000e+00 0.0000e+00 0.0000e+00 [bar]
 0.0000e+00  5.0852e+02  0.0000e+00 +/- 0.0000e+00 0.0000e+00 0.0000e+00 [bar]
 0.0000e+00  0.0000e+00  5.0852e+02 +/- 0.0000e+00 0.0000e+00 0.0000e+00 [bar]
Ideal-gas pressure:   5.085192e+02 +/ 0.000000e+00 [bar]
Excess pressure:      0.000000e+00 +/ 0.000000e+00 [bar]
Pressure:             5.085192e+02 +/ 0.000000e+00 [bar]

Total potential energy/kʙ  -3.856166e+05 (-3.856166e+05 +/- 0.000000e+00) [K]
-------------------------------------------------------------------------------
ExternalField-molecule
    Van der Waals/kʙ        0.000000e+00 ( 0.000000e+00 +/- 0.000000e+00) [K]
Framework-molecule
    Van der Waals/kʙ        0.000000e+00 ( 0.000000e+00 +/- 0.000000e+00) [K]
    Van der Waals (Tail)/kʙ 0.000000e+00 ( 0.000000e+00 +/- 0.000000e+00) [K]
    Coulombic Real/kʙ       0.000000e+00 ( 0.000000e+00 +/- 0.000000e+00) [K]
    Coulombic Fourier/kʙ    0.000000e+00 ( 0.000000e+00 +/- 0.000000e+00) [K]
Molecule-molecule
    Van der Waals/kʙ       -2.796130e+05 (-2.796130e+05 +/- 0.000000e+00) [K]
    Van der Waals (Tail)/kʙ-6.840060e+03 (-6.840060e+03 +/- 0.000000e+00) [K]
    Coulombic Real/kʙ      -9.047143e+04 (-9.047143e+04 +/- 0.000000e+00) [K]
    Coulombic Fourier/kʙ   -8.692064e+03 (-8.692064e+03 +/- 0.000000e+00) [K]
    Molecule Intra/kʙ       0.000000e+00 ( 0.000000e+00 +/- 0.000000e+00) [K]

Current cycle: 100 out of 5000
===============================================================================

Box:      25.72420   0.00000   0.00000  Average:  25.68011   0.00000   0.00000
           0.00000  25.72420   0.00000             0.00000  25.68011   0.00000
           0.00000   0.00000  25.72420             0.00000   0.00000  25.68011
Lengths:  25.72420  25.72420  25.72420  Average:  25.68011  25.68011  25.68011
Angles:   90.00000  90.00000  90.00000  Average:  90.00000  90.00000  90.00000
Rectangular boundary conditions

net charge:   0.00000000

component 0 (CO2) lambda:  0 occupancy:  1 (1.000000)
    net charge:   0.00000000 [e]

Amount of molecules per component :
-------------------------------------------------------------------------------
Component 0 (CO2)
    molecules:      2.500000e+02 molecules  (2.500000e+02 +/- 0.000000e+00)
    number density: 1.468637e-02 molec./A^3 (1.476333e-02 +/- 0.000000e+00)
    density:        1.073011e+03 kg/m^3     (1.078634e+03 +/- 0.000000e+00)

Average pressure tensor: 
-------------------------------------------------------------------------------
-1.8377e+02 -1.8821e+01  1.0528e+02 +/- 0.0000e+00 0.0000e+00 0.0000e+00 [bar]
-1.8821e+01  3.4842e+02  8.3170e+01 +/- 0.0000e+00 0.0000e+00 0.0000e+00 [bar]
 1.0528e+02  8.3170e+01  1.4918e+02 +/- 0.0000e+00 0.0000e+00 0.0000e+00 [bar]
Ideal-gas pressure:   5.095747e+02 +/ 0.000000e+00 [bar]
Excess pressure:     -4.049648e+02 +/ 0.000000e+00 [bar]
Pressure:             1.046100e+02 +/ 0.000000e+00 [bar]

Total potential energy/kʙ  -3.867306e+05 (-3.859291e+05 +/- 0.000000e+00) [K]
-------------------------------------------------------------------------------
ExternalField-molecule
    Van der Waals/kʙ        0.000000e+00 ( 0.000000e+00 +/- 0.000000e+00) [K]
Framework-molecule
    Van der Waals/kʙ        0.000000e+00 ( 0.000000e+00 +/- 0.000000e+00) [K]
    Van der Waals (Tail)/kʙ 0.000000e+00 ( 0.000000e+00 +/- 0.000000e+00) [K]
    Coulombic Real/kʙ       0.000000e+00 ( 0.000000e+00 +/- 0.000000e+00) [K]
    Coulombic Fourier/kʙ    0.000000e+00 ( 0.000000e+00 +/- 0.000000e+00) [K]
Molecule-molecule
    Van der Waals/kʙ       -2.795087e+05 (-2.823841e+05 +/- 0.000000e+00) [K]
    Van der Waals (Tail)/kʙ-6.818529e+03 (-6.845823e+03 +/- 0.000000e+00) [K]
    Coulombic Real/kʙ      -9.181273e+04 (-8.805727e+04 +/- 0.000000e+00) [K]
    Coulombic Fourier/kʙ   -8.590702e+03 (-8.641959e+03 +/- 0.000000e+00) [K]
    Molecule Intra/kʙ       0.000000e+00 ( 0.000000e+00 +/- 0.000000e+00) [K]

Current cycle: 200 out of 5000
===============================================================================

Box:      25.31792   0.00000   0.00000  Average:  25.64583   0.00000   0.00000
           0.00000  25.31792   0.00000             0.00000  25.64583   0.00000
           0.00000   0.00000  25.31792             0.00000   0.00000  25.64583
Lengths:  25.31792  25.31792  25.31792  Average:  25.64583  25.64583  25.64583
Angles:   90.00000  90.00000  90.00000  Average:  90.00000  90.00000  90.00000
Rectangular boundary conditions

net charge:   0.00000000

component 0 (CO2) lambda:  0 occupancy:  1 (1.000000)
    net charge:   0.00000000 [e]

Amount of molecules per component :
-------------------------------------------------------------------------------
Component 0 (CO2)
    molecules:      2.500000e+02 molecules  (2.500000e+02 +/- 0.000000e+00)
    number density: 1.540480e-02 molec./A^3 (1.482306e-02 +/- 0.000000e+00)
    density:        1.125501e+03 kg/m^3     (1.082998e+03 +/- 0.000000e+00)

Average pressure tensor: 
-------------------------------------------------------------------------------
-3.4030e+01  3.4361e+00  8.7352e+01 +/- 0.0000e+00 0.0000e+00 0.0000e+00 [bar]
 3.4361e+00  2.6181e+02  7.3976e+01 +/- 0.0000e+00 0.0000e+00 0.0000e+00 [bar]
 8.7352e+01  7.3976e+01  1.4066e+02 +/- 0.0000e+00 0.0000e+00 0.0000e+00 [bar]
Ideal-gas pressure:   5.116367e+02 +/ 0.000000e+00 [bar]
Excess pressure:     -3.888222e+02 +/ 0.000000e+00 [bar]
Pressure:             1.228145e+02 +/ 0.000000e+00 [bar]

Total potential energy/kʙ  -4.072493e+05 (-3.903113e+05 +/- 0.000000e+00) [K]
-------------------------------------------------------------------------------
ExternalField-molecule
    Van der Waals/kʙ        0.000000e+00 ( 0.000000e+00 +/- 0.000000e+00) [K]
Framework-molecule
    Van der Waals/kʙ        0.000000e+00 ( 0.000000e+00 +/- 0.000000e+00) [K]
    Van der Waals (Tail)/kʙ 0.000000e+00 ( 0.000000e+00 +/- 0.000000e+00) [K]
    Coulombic Real/kʙ       0.000000e+00 ( 0.000000e+00 +/- 0.000000e+00) [K]
    Coulombic Fourier/kʙ    0.000000e+00 ( 0.000000e+00 +/- 0.000000e+00) [K]
Molecule-molecule
    Van der Waals/kʙ       -2.935849e+05 (-2.844776e+05 +/- 0.000000e+00) [K]
    Van der Waals (Tail)/kʙ-7.152078e+03 (-6.886141e+03 +/- 0.000000e+00) [K]
    Coulombic Real/kʙ      -9.750047e+04 (-9.029662e+04 +/- 0.000000e+00) [K]
    Coulombic Fourier/kʙ   -9.011892e+03 (-8.650909e+03 +/- 0.000000e+00) [K]
    Molecule Intra/kʙ       0.000000e+00 ( 0.000000e+00 +/- 0.000000e+00) [K]

Current cycle: 300 out of 5000
===============================================================================

Box:      25.84743   0.00000   0.00000  Average:  25.66000   0.00000   0.00000
           0.00000  25.84743   0.00000             0.00000  25.66000   0.00000
           0.00000   0.00000  25.84743             0.00000   0.00000  25.66000
Lengths:  25.84743  25.84743  25.84743  Average:  25.66000  25.66000  25.66000
Angles:   90.00000  90.00000  90.00000  Average:  90.00000  90.00000  90.00000
Rectangular boundary conditions

net charge:   0.00000000

component 0 (CO2) lambda:  0 occupancy:  1 (1.000000)
    net charge:   0.00000000 [e]

Amount of molecules per component :
-------------------------------------------------------------------------------
Component 0 (CO2)
    molecules:      2.500000e+02 molecules  (2.500000e+02 +/- 0.000000e+00)
    number density: 1.447731e-02 molec./A^3 (1.479926e-02 +/- 0.000000e+00)
    density:        1.057737e+03 kg/m^3     (1.081259e+03 +/- 0.000000e+00)

Average pressure tensor: 
-------------------------------------------------------------------------------
-2.6791e+01  2.7669e+00  5.8511e+01 +/- 0.0000e+00 0.0000e+00 0.0000e+00 [bar]
 2.7669e+00  2.1711e+02  6.2776e+01 +/- 0.0000e+00 0.0000e+00 0.0000e+00 [bar]
 5.8511e+01  6.2776e+01  1.0747e+02 +/- 0.0000e+00 0.0000e+00 0.0000e+00 [bar]
Ideal-gas pressure:   5.108152e+02 +/ 0.000000e+00 [bar]
Excess pressure:     -4.115531e+02 +/ 0.000000e+00 [bar]
Pressure:             9.926205e+01 +/ 0.000000e+00 [bar]

Total potential energy/kʙ  -3.834169e+05 (-3.888762e+05 +/- 0.000000e+00) [K]
-------------------------------------------------------------------------------
ExternalField-molecule
    Van der Waals/kʙ        0.000000e+00 ( 0.000000e+00 +/- 0.000000e+00) [K]
Framework-molecule
    Van der Waals/kʙ        0.000000e+00 ( 0.000000e+00 +/- 0.000000e+00) [K]
    Van der Waals (Tail)/kʙ 0.000000e+00 ( 0.000000e+00 +/- 0.000000e+00) [K]
    Coulombic Real/kʙ       0.000000e+00 ( 0.000000e+00 +/- 0.000000e+00) [K]
    Coulombic Fourier/kʙ    0.000000e+00 ( 0.000000e+00 +/- 0.000000e+00) [K]
Molecule-molecule
    Van der Waals/kʙ       -2.745299e+05 (-2.840851e+05 +/- 0.000000e+00) [K]
    Van der Waals (Tail)/kʙ-6.721469e+03 (-6.863677e+03 +/- 0.000000e+00) [K]
    Coulombic Real/kʙ      -9.286781e+04 (-8.929639e+04 +/- 0.000000e+00) [K]
    Coulombic Fourier/kʙ   -9.297649e+03 (-8.631014e+03 +/- 0.000000e+00) [K]
    Molecule Intra/kʙ       0.000000e+00 ( 0.000000e+00 +/- 0.000000e+00) [K]

Current cycle: 400 out of 5000
===============================================================================

Box:      25.78014   0.00000   0.00000  Average:  25.67320   0.00000   0.00000
           0.00000  25.78014   0.00000             0.00000  25.67320   0.00000
           0.00000   0.00000  25.78014             0.00000   0.00000  25.67320
Lengths:  25.78014  25.78014  25.78014  Average:  25.67320  25.67320  25.67320
Angles:   90.00000  90.00000  90.00000  Average:  90.00000  90.00000  90.00000
Rectangular boundary conditions

net charge:   0.00000000

component 0 (CO2) lambda:  0 occupancy:  1 (1.000000)
    net charge:   0.00000000 [e]

Amount of molecules per component :
-------------------------------------------------------------------------------
Component 0 (CO2)
    molecules:      2.500000e+02 molecules  (2.500000e+02 +/- 0.000000e+00)
    number density: 1.459097e-02 molec./A^3 (1.477641e-02 +/- 0.000000e+00)
    density:        1.066041e+03 kg/m^3     (1.079590e+03 +/- 0.000000e+00)

Average pressure tensor: 
-------------------------------------------------------------------------------
-1.1541e+01 -6.4045e+01  5.6789e+01 +/- 0.0000e+00 0.0000e+00 0.0000e+00 [bar]
-6.4045e+01  2.0195e+02  1.1093e+02 +/- 0.0000e+00 0.0000e+00 0.0000e+00 [bar]
 5.6789e+01  1.1093e+02  1.1209e+02 +/- 0.0000e+00 0.0000e+00 0.0000e+00 [bar]
Ideal-gas pressure:   5.100265e+02 +/ 0.000000e+00 [bar]
Excess pressure:     -4.091950e+02 +/ 0.000000e+00 [bar]
Pressure:             1.008315e+02 +/ 0.000000e+00 [bar]

Total potential energy/kʙ  -3.945628e+05 (-3.887896e+05 +/- 0.000000e+00) [K]
-------------------------------------------------------------------------------
ExternalField-molecule
    Van der Waals/kʙ        0.000000e+00 ( 0.000000e+00 +/- 0.000000e+00) [K]
Framework-molecule
    Van der Waals/kʙ        0.000000e+00 ( 0.000000e+00 +/- 0.000000e+00) [K]
    Van der Waals (Tail)/kʙ 0.000000e+00 ( 0.000000e+00 +/- 0.000000e+00) [K]
    Coulombic Real/kʙ       0.000000e+00 ( 0.000000e+00 +/- 0.000000e+00) [K]
    Coulombic Fourier/kʙ    0.000000e+00 ( 0.000000e+00 +/- 0.000000e+00) [K]
Molecule-molecule
    Van der Waals/kʙ       -2.878029e+05 (-2.839298e+05 +/- 0.000000e+00) [K]
    Van der Waals (Tail)/kʙ-6.774237e+03 (-6.852672e+03 +/- 0.000000e+00) [K]
    Coulombic Real/kʙ      -9.112531e+04 (-8.938556e+04 +/- 0.000000e+00) [K]
    Coulombic Fourier/kʙ   -8.860383e+03 (-8.621564e+03 +/- 0.000000e+00) [K]
    Molecule Intra/kʙ       0.000000e+00 ( 0.000000e+00 +/- 0.000000e+00) [K]

Current cycle: 500 out of 5000
===============================================================================

Box:      25.69024   0.00000   0.00000  Average:  25.66262   0.00000   0.00000
           0.00000  25.69024   0.00000             0.00000  25.66262   0.00000
           0.00000   0.00000  25.69024             0.00000   0.00000  25.66262
Lengths:  25.69024  25.69024  25.69024  Average:  25.66262  25.66262  25.66262
Angles:   90.00000  90.00000  90.00000  Average:  90.00000  90.00000  90.00000
Rectangular boundary conditions

net charge:   0.00000000

component 0 (CO2) lambda:  0 occupancy:  1 (1.000000)
    net charge:   0.00000000 [e]

Amount of molecules per component :
-------------------------------------------------------------------------------
Component 0 (CO2)
    molecules:      2.500000e+02 molecules  (2.500000e+02 +/- 0.000000e+00)
    number density: 1.474468e-02 molec./A^3 (1.479459e-02 +/- 0.000000e+00)
    density:        1.077272e+03 kg/m^3     (1.080918e+03 +/- 0.000000e+00)

Average pressure tensor: 
-------------------------------------------------------------------------------
-2.6441e+00 -5.8832e+01  7.7305e+01 +/- 0.0000e+00 0.0000e+00 0.0000e+00 [bar]
-5.8832e+01  1.6554e+02  8.8036e+01 +/- 0.0000e+00 0.0000e+00 0.0000e+00 [bar]
 7.7305e+01  8.8036e+01  5.8752e+01 +/- 0.0000e+00 0.0000e+00 0.0000e+00 [bar]
Ideal-gas pressure:   5.106540e+02 +/ 0.000000e+00 [bar]
Excess pressure:     -4.367707e+02 +/ 0.000000e+00 [bar]
Pressure:             7.388327e+01 +/ 0.000000e+00 [bar]

Total potential energy/kʙ  -3.942944e+05 (-3.899983e+05 +/- 0.000000e+00) [K]
-------------------------------------------------------------------------------
ExternalField-molecule
    Van der Waals/kʙ        0.000000e+00 ( 0.000000e+00 +/- 0.000000e+00) [K]
Framework-molecule
    Van der Waals/kʙ        0.000000e+00 ( 0.000000e+00 +/- 0.000000e+00) [K]
    Van der Waals (Tail)/kʙ 0.000000e+00 ( 0.000000e+00 +/- 0.000000e+00) [K]
    Coulombic Real/kʙ       0.000000e+00 ( 0.000000e+00 +/- 0.000000e+00) [K]
    Coulombic Fourier/kʙ    0.000000e+00 ( 0.000000e+00 +/- 0.000000e+00) [K]
Molecule-molecule
    Van der Waals/kʙ       -2.883218e+05 (-2.842639e+05 +/- 0.000000e+00) [K]
    Van der Waals (Tail)/kʙ-6.845601e+03 (-6.855177e+03 +/- 0.000000e+00) [K]
    Coulombic Real/kʙ      -9.087798e+04 (-9.028678e+04 +/- 0.000000e+00) [K]
    Coulombic Fourier/kʙ   -8.249051e+03 (-8.592476e+03 +/- 0.000000e+00) [K]
    Molecule Intra/kʙ       0.000000e+00 ( 0.000000e+00 +/- 0.000000e+00) [K]

Current cycle: 600 out of 5000
===============================================================================

Box:      25.51984   0.00000   0.00000  Average:  25.63113   0.00000   0.00000
           0.00000  25.51984   0.00000             0.00000  25.63113   0.00000
           0.00000   0.00000  25.51984             0.00000   0.00000  25.63113
Lengths:  25.51984  25.51984  25.51984  Average:  25.63113  25.63113  25.63113
Angles:   90.00000  90.00000  90.00000  Average:  90.00000  90.00000  90.00000
Rectangular boundary conditions

net charge:   0.00000000

component 0 (CO2) lambda:  0 occupancy:  1 (1.000000)
    net charge:   0.00000000 [e]

Amount of molecules per component :
-------------------------------------------------------------------------------
Component 0 (CO2)
    molecules:      2.500000e+02 molecules  (2.500000e+02 +/- 0.000000e+00)
    number density: 1.504202e-02 molec./A^3 (1.484980e-02 +/- 0.000000e+00)
    density:        1.098996e+03 kg/m^3     (1.084952e+03 +/- 0.000000e+00)

Average pressure tensor: 
-------------------------------------------------------------------------------
 2.0412e+01 -3.7307e+01  5.5128e+01 +/- 0.0000e+00 0.0000e+00 0.0000e+00 [bar]
-3.7307e+01  2.0115e+02  5.7883e+01 +/- 0.0000e+00 0.0000e+00 0.0000e+00 [bar]
 5.5128e+01  5.7883e+01  8.3870e+01 +/- 0.0000e+00 0.0000e+00 0.0000e+00 [bar]
Ideal-gas pressure:   5.125595e+02 +/ 0.000000e+00 [bar]
Excess pressure:     -4.107505e+02 +/ 0.000000e+00 [bar]
Pressure:             1.018091e+02 +/ 0.000000e+00 [bar]

Total potential energy/kʙ  -3.974571e+05 (-3.915945e+05 +/- 0.000000e+00) [K]
-------------------------------------------------------------------------------
ExternalField-molecule
    Van der Waals/kʙ        0.000000e+00 ( 0.000000e+00 +/- 0.000000e+00) [K]
Framework-molecule
    Van der Waals/kʙ        0.000000e+00 ( 0.000000e+00 +/- 0.000000e+00) [K]
    Van der Waals (Tail)/kʙ 0.000000e+00 ( 0.000000e+00 +/- 0.000000e+00) [K]
    Coulombic Real/kʙ       0.000000e+00 ( 0.000000e+00 +/- 0.000000e+00) [K]
    Coulombic Fourier/kʙ    0.000000e+00 ( 0.000000e+00 +/- 0.000000e+00) [K]
Molecule-molecule
    Van der Waals/kʙ       -2.844927e+05 (-2.849466e+05 +/- 0.000000e+00) [K]
    Van der Waals (Tail)/kʙ-6.983649e+03 (-6.884545e+03 +/- 0.000000e+00) [K]
    Coulombic Real/kʙ      -9.729075e+04 (-9.120123e+04 +/- 0.000000e+00) [K]
    Coulombic Fourier/kʙ   -8.689950e+03 (-8.562068e+03 +/- 0.000000e+00) [K]
    Molecule Intra/kʙ       0.000000e+00 ( 0.000000e+00 +/- 0.000000e+00) [K]

Current cycle: 700 out of 5000
===============================================================================

Box:      25.36210   0.00000   0.00000  Average:  25.60675   0.00000   0.00000
           0.00000  25.36210   0.00000             0.00000  25.60675   0.00000
           0.00000   0.00000  25.36210             0.00000   0.00000  25.60675
Lengths:  25.36210  25.36210  25.36210  Average:  25.60675  25.60675  25.60675
Angles:   90.00000  90.00000  90.00000  Average:  90.00000  90.00000  90.00000
Rectangular boundary conditions

net charge:   0.00000000

component 0 (CO2) lambda:  0 occupancy:  1 (1.000000)
    net charge:   0.00000000 [e]

Amount of molecules per component :
-------------------------------------------------------------------------------
Component 0 (CO2)
    molecules:      2.500000e+02 molecules  (2.500000e+02 +/- 0.000000e+00)
    number density: 1.532444e-02 molec./A^3 (1.489242e-02 +/- 0.000000e+00)
    density:        1.119630e+03 kg/m^3     (1.088066e+03 +/- 0.000000e+00)

Average pressure tensor: 
-------------------------------------------------------------------------------
 2.6800e+01  8.8263e+00  4.4156e+01 +/- 0.0000e+00 0.0000e+00 0.0000e+00 [bar]
 8.8263e+00  2.2194e+02  8.7715e+01 +/- 0.0000e+00 0.0000e+00 0.0000e+00 [bar]
 4.4156e+01  8.7715e+01  6.9981e+01 +/- 0.0000e+00 0.0000e+00 0.0000e+00 [bar]
Ideal-gas pressure:   5.140306e+02 +/ 0.000000e+00 [bar]
Excess pressure:     -4.077892e+02 +/ 0.000000e+00 [bar]
Pressure:             1.062414e+02 +/ 0.000000e+00 [bar]

Total potential energy/kʙ  -4.053760e+05 (-3.927777e+05 +/- 0.000000e+00) [K]
-------------------------------------------------------------------------------
ExternalField-molecule
    Van der Waals/kʙ        0.000000e+00 ( 0.000000e+00 +/- 0.000000e+00) [K]
Framework-molecule
    Van der Waals/kʙ        0.000000e+00 ( 0.000000e+00 +/- 0.000000e+00) [K]
    Van der Waals (Tail)/kʙ 0.000000e+00 ( 0.000000e+00 +/- 0.000000e+00) [K]
    Coulombic Real/kʙ       0.000000e+00 ( 0.000000e+00 +/- 0.000000e+00) [K]
    Coulombic Fourier/kʙ    0.000000e+00 ( 0.000000e+00 +/- 0.000000e+00) [K]
Molecule-molecule
    Van der Waals/kʙ       -2.924670e+05 (-2.856191e+05 +/- 0.000000e+00) [K]
    Van der Waals (Tail)/kʙ-7.114770e+03 (-6.904566e+03 +/- 0.000000e+00) [K]
    Coulombic Real/kʙ      -9.689637e+04 (-9.162711e+04 +/- 0.000000e+00) [K]
    Coulombic Fourier/kʙ   -8.897903e+03 (-8.626938e+03 +/- 0.000000e+00) [K]
    Molecule Intra/kʙ       0.000000e+00 ( 0.000000e+00 +/- 0.000000e+00) [K]

Current cycle: 800 out of 5000
===============================================================================

Box:      25.51382   0.00000   0.00000  Average:  25.58890   0.00000   0.00000
           0.00000  25.51382   0.00000             0.00000  25.58890   0.00000
           0.00000   0.00000  25.51382             0.00000   0.00000  25.58890
Lengths:  25.51382  25.51382  25.51382  Average:  25.58890  25.58890  25.58890
Angles:   90.00000  90.00000  90.00000  Average:  90.00000  90.00000  90.00000
Rectangular boundary conditions

net charge:   0.00000000

component 0 (CO2) lambda:  0 occupancy:  1 (1.000000)
    net charge:   0.00000000 [e]

Amount of molecules per component :
-------------------------------------------------------------------------------
Component 0 (CO2)
    molecules:      2.500000e+02 molecules  (2.500000e+02 +/- 0.000000e+00)
    number density: 1.505266e-02 molec./A^3 (1.492375e-02 +/- 0.000000e+00)
    density:        1.099773e+03 kg/m^3     (1.090355e+03 +/- 0.000000e+00)

Average pressure tensor: 
-------------------------------------------------------------------------------
 7.6809e+01  2.6351e+01  5.2598e+01 +/- 0.0000e+00 0.0000e+00 0.0000e+00 [bar]
 2.6351e+01  2.3693e+02  8.5414e+01 +/- 0.0000e+00 0.0000e+00 0.0000e+00 [bar]
 5.2598e+01  8.5414e+01  8.1294e+01 +/- 0.0000e+00 0.0000e+00 0.0000e+00 [bar]
Ideal-gas pressure:   5.151121e+02 +/ 0.000000e+00 [bar]
Excess pressure:     -3.834344e+02 +/ 0.000000e+00 [bar]
Pressure:             1.316777e+02 +/ 0.000000e+00 [bar]

Total potential energy/kʙ  -3.989282e+05 (-3.937117e+05 +/- 0.000000e+00) [K]
-------------------------------------------------------------------------------
ExternalField-molecule
    Van der Waals/kʙ        0.000000e+00 ( 0.000000e+00 +/- 0.000000e+00) [K]
Framework-molecule
    Van der Waals/kʙ        0.000000e+00 ( 0.000000e+00 +/- 0.000000e+00) [K]
    Van der Waals (Tail)/kʙ 0.000000e+00 ( 0.000000e+00 +/- 0.000000e+00) [K]
    Coulombic Real/kʙ       0.000000e+00 ( 0.000000e+00 +/- 0.000000e+00) [K]
    Coulombic Fourier/kʙ    0.000000e+00 ( 0.000000e+00 +/- 0.000000e+00) [K]
Molecule-molecule
    Van der Waals/kʙ       -2.892148e+05 (-2.857041e+05 +/- 0.000000e+00) [K]
    Van der Waals (Tail)/kʙ-6.988591e+03 (-6.919302e+03 +/- 0.000000e+00) [K]
    Coulombic Real/kʙ      -9.322661e+04 (-9.236030e+04 +/- 0.000000e+00) [K]
    Coulombic Fourier/kʙ   -9.498223e+03 (-8.727946e+03 +/- 0.000000e+00) [K]
    Molecule Intra/kʙ       0.000000e+00 ( 0.000000e+00 +/- 0.000000e+00) [K]

Current cycle: 900 out of 5000
===============================================================================

Box:      25.70733   0.00000   0.00000  Average:  25.58941   0.00000   0.00000
           0.00000  25.70733   0.00000             0.00000  25.58941   0.00000
           0.00000   0.00000  25.70733             0.00000   0.00000  25.58941
Lengths:  25.70733  25.70733  25.70733  Average:  25.58941  25.58941  25.58941
Angles:   90.00000  90.00000  90.00000  Average:  90.00000  90.00000  90.00000
Rectangular boundary conditions

net charge:   0.00000000

component 0 (CO2) lambda:  0 occupancy:  1 (1.000000)
    net charge:   0.00000000 [e]

Amount of molecules per component :
-------------------------------------------------------------------------------
Component 0 (CO2)
    molecules:      2.500000e+02 molecules  (2.500000e+02 +/- 0.000000e+00)
    number density: 1.471530e-02 molec./A^3 (1.492261e-02 +/- 0.000000e+00)
    density:        1.075125e+03 kg/m^3     (1.090272e+03 +/- 0.000000e+00)

Average pressure tensor: 
-------------------------------------------------------------------------------
 8.1810e+01  3.6615e+01  3.6644e+01 +/- 0.0000e+00 0.0000e+00 0.0000e+00 [bar]
 3.6615e+01  2.3808e+02  7.0809e+01 +/- 0.0000e+00 0.0000e+00 0.0000e+00 [bar]
 3.6644e+01  7.0809e+01  8.3927e+01 +/- 0.0000e+00 0.0000e+00 0.0000e+00 [bar]
Ideal-gas pressure:   5.150727e+02 +/ 0.000000e+00 [bar]
Excess pressure:     -3.804683e+02 +/ 0.000000e+00 [bar]
Pressure:             1.346044e+02 +/ 0.000000e+00 [bar]

Total potential energy/kʙ  -3.863888e+05 (-3.935702e+05 +/- 0.000000e+00) [K]
-------------------------------------------------------------------------------
ExternalField-molecule
    Van der Waals/kʙ        0.000000e+00 ( 0.000000e+00 +/- 0.000000e+00) [K]
Framework-molecule
    Van der Waals/kʙ        0.000000e+00 ( 0.000000e+00 +/- 0.000000e+00) [K]
    Van der Waals (Tail)/kʙ 0.000000e+00 ( 0.000000e+00 +/- 0.000000e+00) [K]
    Coulombic Real/kʙ       0.000000e+00 ( 0.000000e+00 +/- 0.000000e+00) [K]
    Coulombic Fourier/kʙ    0.000000e+00 ( 0.000000e+00 +/- 0.000000e+00) [K]
Molecule-molecule
    Van der Waals/kʙ       -2.775414e+05 (-2.856876e+05 +/- 0.000000e+00) [K]
    Van der Waals (Tail)/kʙ-6.831959e+03 (-6.919598e+03 +/- 0.000000e+00) [K]
    Coulombic Real/kʙ      -9.388529e+04 (-9.229823e+04 +/- 0.000000e+00) [K]
    Coulombic Fourier/kʙ   -8.130127e+03 (-8.664785e+03 +/- 0.000000e+00) [K]
    Molecule Intra/kʙ       0.000000e+00 ( 0.000000e+00 +/- 0.000000e+00) [K]

Current cycle: 1000 out of 5000
===============================================================================

Box:      25.52494   0.00000   0.00000  Average:  25.59102   0.00000   0.00000
           0.00000  25.52494   0.00000             0.00000  25.59102   0.00000
           0.00000   0.00000  25.52494             0.00000   0.00000  25.59102
Lengths:  25.52494  25.52494  25.52494  Average:  25.59102  25.59102  25.59102
Angles:   90.00000  90.00000  90.00000  Average:  90.00000  90.00000  90.00000
Rectangular boundary conditions

net charge:   0.00000000

component 0 (CO2) lambda:  0 occupancy:  1 (1.000000)
    net charge:   0.00000000 [e]

Amount of molecules per component :
-------------------------------------------------------------------------------
Component 0 (CO2)
    molecules:      2.500000e+02 molecules  (2.500000e+02 +/- 0.000000e+00)
    number density: 1.503301e-02 molec./A^3 (1.491967e-02 +/- 0.000000e+00)
    density:        1.098337e+03 kg/m^3     (1.090056e+03 +/- 0.000000e+00)

Average pressure tensor: 
-------------------------------------------------------------------------------
 9.4537e+01  5.4360e+01  3.1367e+01 +/- 0.0000e+00 0.0000e+00 0.0000e+00 [bar]
 5.4360e+01  2.4281e+02  7.0324e+01 +/- 0.0000e+00 0.0000e+00 0.0000e+00 [bar]
 3.1367e+01  7.0324e+01  8.5509e+01 +/- 0.0000e+00 0.0000e+00 0.0000e+00 [bar]
Ideal-gas pressure:   5.149710e+02 +/ 0.000000e+00 [bar]
Excess pressure:     -3.740184e+02 +/ 0.000000e+00 [bar]
Pressure:             1.409526e+02 +/ 0.000000e+00 [bar]

Total potential energy/kʙ  -3.977382e+05 (-3.933168e+05 +/- 0.000000e+00) [K]
-------------------------------------------------------------------------------
ExternalField-molecule
    Van der Waals/kʙ        0.000000e+00 ( 0.000000e+00 +/- 0.000000e+00) [K]
Framework-molecule
    Van der Waals/kʙ        0.000000e+00 ( 0.000000e+00 +/- 0.000000e+00) [K]
    Van der Waals (Tail)/kʙ 0.000000e+00 ( 0.000000e+00 +/- 0.000000e+00) [K]
    Coulombic Real/kʙ       0.000000e+00 ( 0.000000e+00 +/- 0.000000e+00) [K]
    Coulombic Fourier/kʙ    0.000000e+00 ( 0.000000e+00 +/- 0.000000e+00) [K]
Molecule-molecule
    Van der Waals/kʙ       -2.909719e+05 (-2.855268e+05 +/- 0.000000e+00) [K]
    Van der Waals (Tail)/kʙ-6.979463e+03 (-6.919613e+03 +/- 0.000000e+00) [K]
    Coulombic Real/kʙ      -9.113925e+04 (-9.223491e+04 +/- 0.000000e+00) [K]
    Coulombic Fourier/kʙ   -8.647610e+03 (-8.635523e+03 +/- 0.000000e+00) [K]
    Molecule Intra/kʙ       0.000000e+00 ( 0.000000e+00 +/- 0.000000e+00) [K]

Current cycle: 1100 out of 5000
===============================================================================

Box:      25.52713   0.00000   0.00000  Average:  25.57919   0.00000   0.00000
           0.00000  25.52713   0.00000             0.00000  25.57919   0.00000
           0.00000   0.00000  25.52713             0.00000   0.00000  25.57919
Lengths:  25.52713  25.52713  25.52713  Average:  25.57919  25.57919  25.57919
Angles:   90.00000  90.00000  90.00000  Average:  90.00000  90.00000  90.00000
Rectangular boundary conditions

net charge:   0.00000000

component 0 (CO2) lambda:  0 occupancy:  1 (1.000000)
    net charge:   0.00000000 [e]

Amount of molecules per component :
-------------------------------------------------------------------------------
Component 0 (CO2)
    molecules:      2.500000e+02 molecules  (2.500000e+02 +/- 0.000000e+00)
    number density: 1.502913e-02 molec./A^3 (1.494042e-02 +/- 0.000000e+00)
    density:        1.098054e+03 kg/m^3     (1.091572e+03 +/- 0.000000e+00)

Average pressure tensor: 
-------------------------------------------------------------------------------
 1.0494e+02  8.4070e+01  3.1972e+01 +/- 0.0000e+00 0.0000e+00 0.0000e+00 [bar]
 8.4070e+01  2.2465e+02  6.5258e+01 +/- 0.0000e+00 0.0000e+00 0.0000e+00 [bar]
 3.1972e+01  6.5258e+01  7.0762e+01 +/- 0.0000e+00 0.0000e+00 0.0000e+00 [bar]
Ideal-gas pressure:   5.156872e+02 +/ 0.000000e+00 [bar]
Excess pressure:     -3.822381e+02 +/ 0.000000e+00 [bar]
Pressure:             1.334491e+02 +/ 0.000000e+00 [bar]

Total potential energy/kʙ  -3.903650e+05 (-3.939058e+05 +/- 0.000000e+00) [K]
-------------------------------------------------------------------------------
ExternalField-molecule
    Van der Waals/kʙ        0.000000e+00 ( 0.000000e+00 +/- 0.000000e+00) [K]
Framework-molecule
    Van der Waals/kʙ        0.000000e+00 ( 0.000000e+00 +/- 0.000000e+00) [K]
    Van der Waals (Tail)/kʙ 0.000000e+00 ( 0.000000e+00 +/- 0.000000e+00) [K]
    Coulombic Real/kʙ       0.000000e+00 ( 0.000000e+00 +/- 0.000000e+00) [K]
    Coulombic Fourier/kʙ    0.000000e+00 ( 0.000000e+00 +/- 0.000000e+00) [K]
Molecule-molecule
    Van der Waals/kʙ       -2.801537e+05 (-2.860547e+05 +/- 0.000000e+00) [K]
    Van der Waals (Tail)/kʙ-6.977665e+03 (-6.929736e+03 +/- 0.000000e+00) [K]
    Coulombic Real/kʙ      -9.489294e+04 (-9.225158e+04 +/- 0.000000e+00) [K]
    Coulombic Fourier/kʙ   -8.340764e+03 (-8.669794e+03 +/- 0.000000e+00) [K]
    Molecule Intra/kʙ       0.000000e+00 ( 0.000000e+00 +/- 0.000000e+00) [K]

Current cycle: 1200 out of 5000
===============================================================================

Box:      25.59082   0.00000   0.00000  Average:  25.57932   0.00000   0.00000
           0.00000  25.59082   0.00000             0.00000  25.57932   0.00000
           0.00000   0.00000  25.59082             0.00000   0.00000  25.57932
Lengths:  25.59082  25.59082  25.59082  Average:  25.57932  25.57932  25.57932
Angles:   90.00000  90.00000  90.00000  Average:  90.00000  90.00000  90.00000
Rectangular boundary conditions

net charge:   0.00000000

component 0 (CO2) lambda:  0 occupancy:  1 (1.000000)
    net charge:   0.00000000 [e]

Amount of molecules per component :
-------------------------------------------------------------------------------
Component 0 (CO2)
    molecules:      2.500000e+02 molecules  (2.500000e+02 +/- 0.000000e+00)
    number density: 1.491721e-02 molec./A^3 (1.494019e-02 +/- 0.000000e+00)
    density:        1.089877e+03 kg/m^3     (1.091556e+03 +/- 0.000000e+00)

Average pressure tensor: 
-------------------------------------------------------------------------------
 1.0809e+02  1.0357e+02  1.7339e+01 +/- 0.0000e+00 0.0000e+00 0.0000e+00 [bar]
 1.0357e+02  2.2918e+02  5.3533e+01 +/- 0.0000e+00 0.0000e+00 0.0000e+00 [bar]
 1.7339e+01  5.3533e+01  8.9069e+01 +/- 0.0000e+00 0.0000e+00 0.0000e+00 [bar]
Ideal-gas pressure:   5.156795e+02 +/ 0.000000e+00 [bar]
Excess pressure:     -3.735675e+02 +/ 0.000000e+00 [bar]
Pressure:             1.421120e+02 +/ 0.000000e+00 [bar]

Total potential energy/kʙ  -3.874081e+05 (-3.937904e+05 +/- 0.000000e+00) [K]
-------------------------------------------------------------------------------
ExternalField-molecule
    Van der Waals/kʙ        0.000000e+00 ( 0.000000e+00 +/- 0.000000e+00) [K]
Framework-molecule
    Van der Waals/kʙ        0.000000e+00 ( 0.000000e+00 +/- 0.000000e+00) [K]
    Van der Waals (Tail)/kʙ 0.000000e+00 ( 0.000000e+00 +/- 0.000000e+00) [K]
    Coulombic Real/kʙ       0.000000e+00 ( 0.000000e+00 +/- 0.000000e+00) [K]
    Coulombic Fourier/kʙ    0.000000e+00 ( 0.000000e+00 +/- 0.000000e+00) [K]
Molecule-molecule
    Van der Waals/kʙ       -2.829536e+05 (-2.859616e+05 +/- 0.000000e+00) [K]
    Van der Waals (Tail)/kʙ-6.925701e+03 (-6.930911e+03 +/- 0.000000e+00) [K]
    Coulombic Real/kʙ      -8.964306e+04 (-9.226138e+04 +/- 0.000000e+00) [K]
    Coulombic Fourier/kʙ   -7.885735e+03 (-8.636474e+03 +/- 0.000000e+00) [K]
    Molecule Intra/kʙ       0.000000e+00 ( 0.000000e+00 +/- 0.000000e+00) [K]

Current cycle: 1300 out of 5000
===============================================================================

Box:      25.80919   0.00000   0.00000  Average:  25.58945   0.00000   0.00000
           0.00000  25.80919   0.00000             0.00000  25.58945   0.00000
           0.00000   0.00000  25.80919             0.00000   0.00000  25.58945
Lengths:  25.80919  25.80919  25.80919  Average:  25.58945  25.58945  25.58945
Angles:   90.00000  90.00000  90.00000  Average:  90.00000  90.00000  90.00000
Rectangular boundary conditions

net charge:   0.00000000

component 0 (CO2) lambda:  0 occupancy:  1 (1.000000)
    net charge:   0.00000000 [e]

Amount of molecules per component :
-------------------------------------------------------------------------------
Component 0 (CO2)
    molecules:      2.500000e+02 molecules  (2.500000e+02 +/- 0.000000e+00)
    number density: 1.454176e-02 molec./A^3 (1.492249e-02 +/- 0.000000e+00)
    density:        1.062446e+03 kg/m^3     (1.090262e+03 +/- 0.000000e+00)

Average pressure tensor: 
-------------------------------------------------------------------------------
 1.0677e+02  1.0065e+02  8.8840e+00 +/- 0.0000e+00 0.0000e+00 0.0000e+00 [bar]
 1.0065e+02  2.3371e+02  4.2800e+01 +/- 0.0000e+00 0.0000e+00 0.0000e+00 [bar]
 8.8840e+00  4.2800e+01  8.8737e+01 +/- 0.0000e+00 0.0000e+00 0.0000e+00 [bar]
Ideal-gas pressure:   5.150684e+02 +/ 0.000000e+00 [bar]
Excess pressure:     -3.719951e+02 +/ 0.000000e+00 [bar]
Pressure:             1.430732e+02 +/ 0.000000e+00 [bar]

Total potential energy/kʙ  -3.828137e+05 (-3.935133e+05 +/- 0.000000e+00) [K]
-------------------------------------------------------------------------------
ExternalField-molecule
    Van der Waals/kʙ        0.000000e+00 ( 0.000000e+00 +/- 0.000000e+00) [K]
Framework-molecule
    Van der Waals/kʙ        0.000000e+00 ( 0.000000e+00 +/- 0.000000e+00) [K]
    Van der Waals (Tail)/kʙ 0.000000e+00 ( 0.000000e+00 +/- 0.000000e+00) [K]
    Coulombic Real/kʙ       0.000000e+00 ( 0.000000e+00 +/- 0.000000e+00) [K]
    Coulombic Fourier/kʙ    0.000000e+00 ( 0.000000e+00 +/- 0.000000e+00) [K]
Molecule-molecule
    Van der Waals/kʙ       -2.774045e+05 (-2.857612e+05 +/- 0.000000e+00) [K]
    Van der Waals (Tail)/kʙ-6.751390e+03 (-6.923087e+03 +/- 0.000000e+00) [K]
    Coulombic Real/kʙ      -9.039509e+04 (-9.222270e+04 +/- 0.000000e+00) [K]
    Coulombic Fourier/kʙ   -8.262682e+03 (-8.606336e+03 +/- 0.000000e+00) [K]
    Molecule Intra/kʙ       0.000000e+00 ( 0.000000e+00 +/- 0.000000e+00) [K]

Current cycle: 1400 out of 5000
===============================================================================

Box:      25.78216   0.00000   0.00000  Average:  25.60409   0.00000   0.00000
           0.00000  25.78216   0.00000             0.00000  25.60409   0.00000
           0.00000   0.00000  25.78216             0.00000   0.00000  25.60409
Lengths:  25.78216  25.78216  25.78216  Average:  25.60409  25.60409  25.60409
Angles:   90.00000  90.00000  90.00000  Average:  90.00000  90.00000  90.00000
Rectangular boundary conditions

net charge:   0.00000000

component 0 (CO2) lambda:  0 occupancy:  1 (1.000000)
    net charge:   0.00000000 [e]

Amount of molecules per component :
-------------------------------------------------------------------------------
Component 0 (CO2)
    molecules:      2.500000e+02 molecules  (2.500000e+02 +/- 0.000000e+00)
    number density: 1.458754e-02 molec./A^3 (1.489715e-02 +/- 0.000000e+00)
    density:        1.065791e+03 kg/m^3     (1.088411e+03 +/- 0.000000e+00)

Average pressure tensor: 
-------------------------------------------------------------------------------
 1.0037e+02  1.1299e+02 -1.0437e+00 +/- 0.0000e+00 0.0000e+00 0.0000e+00 [bar]
 1.1299e+02  2.2138e+02  3.3777e+01 +/- 0.0000e+00 0.0000e+00 0.0000e+00 [bar]
-1.0437e+00  3.3777e+01  1.0427e+02 +/- 0.0000e+00 0.0000e+00 0.0000e+00 [bar]
Ideal-gas pressure:   5.141938e+02 +/ 0.000000e+00 [bar]
Excess pressure:     -3.721886e+02 +/ 0.000000e+00 [bar]
Pressure:             1.420052e+02 +/ 0.000000e+00 [bar]

Total potential energy/kʙ  -3.860794e+05 (-3.927768e+05 +/- 0.000000e+00) [K]
-------------------------------------------------------------------------------
ExternalField-molecule
    Van der Waals/kʙ        0.000000e+00 ( 0.000000e+00 +/- 0.000000e+00) [K]
Framework-molecule
    Van der Waals/kʙ        0.000000e+00 ( 0.000000e+00 +/- 0.000000e+00) [K]
    Van der Waals (Tail)/kʙ 0.000000e+00 ( 0.000000e+00 +/- 0.000000e+00) [K]
    Coulombic Real/kʙ       0.000000e+00 ( 0.000000e+00 +/- 0.000000e+00) [K]
    Coulombic Fourier/kʙ    0.000000e+00 ( 0.000000e+00 +/- 0.000000e+00) [K]
Molecule-molecule
    Van der Waals/kʙ       -2.794254e+05 (-2.851268e+05 +/- 0.000000e+00) [K]
    Van der Waals (Tail)/kʙ-6.772646e+03 (-6.910403e+03 +/- 0.000000e+00) [K]
    Coulombic Real/kʙ      -9.163630e+04 (-9.215248e+04 +/- 0.000000e+00) [K]
    Coulombic Fourier/kʙ   -8.245018e+03 (-8.587127e+03 +/- 0.000000e+00) [K]
    Molecule Intra/kʙ       0.000000e+00 ( 0.000000e+00 +/- 0.000000e+00) [K]

Current cycle: 1500 out of 5000
===============================================================================

Box:      25.90333   0.00000   0.00000  Average:  25.61602   0.00000   0.00000
           0.00000  25.90333   0.00000             0.00000  25.61602   0.00000
           0.00000   0.00000  25.90333             0.00000   0.00000  25.61602
Lengths:  25.90333  25.90333  25.90333  Average:  25.61602  25.61602  25.61602
Angles:   90.00000  90.00000  90.00000  Average:  90.00000  90.00000  90.00000
Rectangular boundary conditions

net charge:   0.00000000

component 0 (CO2) lambda:  0 occupancy:  1 (1.000000)
    net charge:   0.00000000 [e]

Amount of molecules per component :
-------------------------------------------------------------------------------
Component 0 (CO2)
    molecules:      2.500000e+02 molecules  (2.500000e+02 +/- 0.000000e+00)
    number density: 1.438379e-02 molec./A^3 (1.487646e-02 +/- 0.000000e+00)
    density:        1.050904e+03 kg/m^3     (1.086900e+03 +/- 0.000000e+00)

Average pressure tensor: 
-------------------------------------------------------------------------------
 1.1253e+02  1.0696e+02 -1.6291e+00 +/- 0.0000e+00 0.0000e+00 0.0000e+00 [bar]
 1.0696e+02  2.2119e+02  2.6028e+01 +/- 0.0000e+00 0.0000e+00 0.0000e+00 [bar]
-1.6291e+00  2.6028e+01  1.0146e+02 +/- 0.0000e+00 0.0000e+00 0.0000e+00 [bar]
Ideal-gas pressure:   5.134797e+02 +/ 0.000000e+00 [bar]
Excess pressure:     -3.684196e+02 +/ 0.000000e+00 [bar]
Pressure:             1.450601e+02 +/ 0.000000e+00 [bar]

Total potential energy/kʙ  -3.859992e+05 (-3.921181e+05 +/- 0.000000e+00) [K]
-------------------------------------------------------------------------------
ExternalField-molecule
    Van der Waals/kʙ        0.000000e+00 ( 0.000000e+00 +/- 0.000000e+00) [K]
Framework-molecule
    Van der Waals/kʙ        0.000000e+00 ( 0.000000e+00 +/- 0.000000e+00) [K]
    Van der Waals (Tail)/kʙ 0.000000e+00 ( 0.000000e+00 +/- 0.000000e+00) [K]
    Coulombic Real/kʙ       0.000000e+00 ( 0.000000e+00 +/- 0.000000e+00) [K]
    Coulombic Fourier/kʙ    0.000000e+00 ( 0.000000e+00 +/- 0.000000e+00) [K]
Molecule-molecule
    Van der Waals/kʙ       -2.785903e+05 (-2.846832e+05 +/- 0.000000e+00) [K]
    Van der Waals (Tail)/kʙ-6.678047e+03 (-6.900583e+03 +/- 0.000000e+00) [K]
    Coulombic Real/kʙ      -9.207378e+04 (-9.194410e+04 +/- 0.000000e+00) [K]
    Coulombic Fourier/kʙ   -8.657030e+03 (-8.590283e+03 +/- 0.000000e+00) [K]
    Molecule Intra/kʙ       0.000000e+00 ( 0.000000e+00 +/- 0.000000e+00) [K]

Current cycle: 1600 out of 5000
===============================================================================

Box:      25.89704   0.00000   0.00000  Average:  25.62581   0.00000   0.00000
           0.00000  25.89704   0.00000             0.00000  25.62581   0.00000
           0.00000   0.00000  25.89704             0.00000   0.00000  25.62581
Lengths:  25.89704  25.89704  25.89704  Average:  25.62581  25.62581  25.62581
Angles:   90.00000  90.00000  90.00000  Average:  90.00000  90.00000  90.00000
Rectangular boundary conditions

net charge:   0.00000000

component 0 (CO2) lambda:  0 occupancy:  1 (1.000000)
    net charge:   0.00000000 [e]

Amount of molecules per component :
-------------------------------------------------------------------------------
Component 0 (CO2)
    molecules:      2.500000e+02 molecules  (2.500000e+02 +/- 0.000000e+00)
    number density: 1.439427e-02 molec./A^3 (1.485946e-02 +/- 0.000000e+00)
    density:        1.051670e+03 kg/m^3     (1.085657e+03 +/- 0.000000e+00)

Average pressure tensor: 
-------------------------------------------------------------------------------
 1.1770e+02  1.1363e+02 -2.4510e+00 +/- 0.0000e+00 0.0000e+00 0.0000e+00 [bar]
 1.1363e+02  2.1200e+02  2.0364e+01 +/- 0.0000e+00 0.0000e+00 0.0000e+00 [bar]
-2.4510e+00  2.0364e+01  9.7620e+01 +/- 0.0000e+00 0.0000e+00 0.0000e+00 [bar]
Ideal-gas pressure:   5.128928e+02 +/ 0.000000e+00 [bar]
Excess pressure:     -3.704528e+02 +/ 0.000000e+00 [bar]
Pressure:             1.424400e+02 +/ 0.000000e+00 [bar]

Total potential energy/kʙ  -3.760075e+05 (-3.916533e+05 +/- 0.000000e+00) [K]
-------------------------------------------------------------------------------
ExternalField-molecule
    Van der Waals/kʙ        0.000000e+00 ( 0.000000e+00 +/- 0.000000e+00) [K]
Framework-molecule
    Van der Waals/kʙ        0.000000e+00 ( 0.000000e+00 +/- 0.000000e+00) [K]
    Van der Waals (Tail)/kʙ 0.000000e+00 ( 0.000000e+00 +/- 0.000000e+00) [K]
    Coulombic Real/kʙ       0.000000e+00 ( 0.000000e+00 +/- 0.000000e+00) [K]
    Coulombic Fourier/kʙ    0.000000e+00 ( 0.000000e+00 +/- 0.000000e+00) [K]
Molecule-molecule
    Van der Waals/kʙ       -2.751220e+05 (-2.843797e+05 +/- 0.000000e+00) [K]
    Van der Waals (Tail)/kʙ-6.682914e+03 (-6.893066e+03 +/- 0.000000e+00) [K]
    Coulombic Real/kʙ      -8.539683e+04 (-9.180627e+04 +/- 0.000000e+00) [K]
    Coulombic Fourier/kʙ   -8.805811e+03 (-8.574265e+03 +/- 0.000000e+00) [K]
    Molecule Intra/kʙ       0.000000e+00 ( 0.000000e+00 +/- 0.000000e+00) [K]

Current cycle: 1700 out of 5000
===============================================================================

Box:      25.52106   0.00000   0.00000  Average:  25.62135   0.00000   0.00000
           0.00000  25.52106   0.00000             0.00000  25.62135   0.00000
           0.00000   0.00000  25.52106             0.00000   0.00000  25.62135
Lengths:  25.52106  25.52106  25.52106  Average:  25.62135  25.62135  25.62135
Angles:   90.00000  90.00000  90.00000  Average:  90.00000  90.00000  90.00000
Rectangular boundary conditions

net charge:   0.00000000

component 0 (CO2) lambda:  0 occupancy:  1 (1.000000)
    net charge:   0.00000000 [e]

Amount of molecules per component :
-------------------------------------------------------------------------------
Component 0 (CO2)
    molecules:      2.500000e+02 molecules  (2.500000e+02 +/- 0.000000e+00)
    number density: 1.503986e-02 molec./A^3 (1.486714e-02 +/- 0.000000e+00)
    density:        1.098838e+03 kg/m^3     (1.086219e+03 +/- 0.000000e+00)

Average pressure tensor: 
-------------------------------------------------------------------------------
 1.2421e+02  1.0672e+02  2.2363e+00 +/- 0.0000e+00 0.0000e+00 0.0000e+00 [bar]
 1.0672e+02  2.1096e+02  1.6068e+01 +/- 0.0000e+00 0.0000e+00 0.0000e+00 [bar]
 2.2363e+00  1.6068e+01  1.0037e+02 +/- 0.0000e+00 0.0000e+00 0.0000e+00 [bar]
Ideal-gas pressure:   5.131581e+02 +/ 0.000000e+00 [bar]
Excess pressure:     -3.679799e+02 +/ 0.000000e+00 [bar]
Pressure:             1.451782e+02 +/ 0.000000e+00 [bar]

Total potential energy/kʙ  -4.012058e+05 (-3.919292e+05 +/- 0.000000e+00) [K]
-------------------------------------------------------------------------------
ExternalField-molecule
    Van der Waals/kʙ        0.000000e+00 ( 0.000000e+00 +/- 0.000000e+00) [K]
Framework-molecule
    Van der Waals/kʙ        0.000000e+00 ( 0.000000e+00 +/- 0.000000e+00) [K]
    Van der Waals (Tail)/kʙ 0.000000e+00 ( 0.000000e+00 +/- 0.000000e+00) [K]
    Coulombic Real/kʙ       0.000000e+00 ( 0.000000e+00 +/- 0.000000e+00) [K]
    Coulombic Fourier/kʙ    0.000000e+00 ( 0.000000e+00 +/- 0.000000e+00) [K]
Molecule-molecule
    Van der Waals/kʙ       -2.878574e+05 (-2.845016e+05 +/- 0.000000e+00) [K]
    Van der Waals (Tail)/kʙ-6.982647e+03 (-6.897543e+03 +/- 0.000000e+00) [K]
    Coulombic Real/kʙ      -9.725405e+04 (-9.194195e+04 +/- 0.000000e+00) [K]
    Coulombic Fourier/kʙ   -9.111760e+03 (-8.588100e+03 +/- 0.000000e+00) [K]
    Molecule Intra/kʙ       0.000000e+00 ( 0.000000e+00 +/- 0.000000e+00) [K]

Current cycle: 1800 out of 5000
===============================================================================

Box:      25.55099   0.00000   0.00000  Average:  25.61244   0.00000   0.00000
           0.00000  25.55099   0.00000             0.00000  25.61244   0.00000
           0.00000   0.00000  25.55099             0.00000   0.00000  25.61244
Lengths:  25.55099  25.55099  25.55099  Average:  25.61244  25.61244  25.61244
Angles:   90.00000  90.00000  90.00000  Average:  90.00000  90.00000  90.00000
Rectangular boundary conditions

net charge:   0.00000000

component 0 (CO2) lambda:  0 occupancy:  1 (1.000000)
    net charge:   0.00000000 [e]

Amount of molecules per component :
-------------------------------------------------------------------------------
Component 0 (CO2)
    molecules:      2.500000e+02 molecules  (2.500000e+02 +/- 0.000000e+00)
    number density: 1.498707e-02 molec./A^3 (1.488274e-02 +/- 0.000000e+00)
    density:        1.094981e+03 kg/m^3     (1.087359e+03 +/- 0.000000e+00)

Average pressure tensor: 
-------------------------------------------------------------------------------
 1.3303e+02  9.3280e+01 -9.9219e-01 +/- 0.0000e+00 0.0000e+00 0.0000e+00 [bar]
 9.3280e+01  1.9525e+02  1.3580e+01 +/- 0.0000e+00 0.0000e+00 0.0000e+00 [bar]
-9.9219e-01  1.3580e+01  9.1977e+01 +/- 0.0000e+00 0.0000e+00 0.0000e+00 [bar]
Ideal-gas pressure:   5.136966e+02 +/ 0.000000e+00 [bar]
Excess pressure:     -3.736086e+02 +/ 0.000000e+00 [bar]
Pressure:             1.400880e+02 +/ 0.000000e+00 [bar]

Total potential energy/kʙ  -3.943465e+05 (-3.923133e+05 +/- 0.000000e+00) [K]
-------------------------------------------------------------------------------
ExternalField-molecule
    Van der Waals/kʙ        0.000000e+00 ( 0.000000e+00 +/- 0.000000e+00) [K]
Framework-molecule
    Van der Waals/kʙ        0.000000e+00 ( 0.000000e+00 +/- 0.000000e+00) [K]
    Van der Waals (Tail)/kʙ 0.000000e+00 ( 0.000000e+00 +/- 0.000000e+00) [K]
    Coulombic Real/kʙ       0.000000e+00 ( 0.000000e+00 +/- 0.000000e+00) [K]
    Coulombic Fourier/kʙ    0.000000e+00 ( 0.000000e+00 +/- 0.000000e+00) [K]
Molecule-molecule
    Van der Waals/kʙ       -2.900233e+05 (-2.848577e+05 +/- 0.000000e+00) [K]
    Van der Waals (Tail)/kʙ-6.958136e+03 (-6.904203e+03 +/- 0.000000e+00) [K]
    Coulombic Real/kʙ      -8.903788e+04 (-9.196438e+04 +/- 0.000000e+00) [K]
    Coulombic Fourier/kʙ   -8.327123e+03 (-8.587033e+03 +/- 0.000000e+00) [K]
    Molecule Intra/kʙ       0.000000e+00 ( 0.000000e+00 +/- 0.000000e+00) [K]

Current cycle: 1900 out of 5000
===============================================================================

Box:      25.47699   0.00000   0.00000  Average:  25.60456   0.00000   0.00000
           0.00000  25.47699   0.00000             0.00000  25.60456   0.00000
           0.00000   0.00000  25.47699             0.00000   0.00000  25.60456
Lengths:  25.47699  25.47699  25.47699  Average:  25.60456  25.60456  25.60456
Angles:   90.00000  90.00000  90.00000  Average:  90.00000  90.00000  90.00000
Rectangular boundary conditions

net charge:   0.00000000

component 0 (CO2) lambda:  0 occupancy:  1 (1.000000)
    net charge:   0.00000000 [e]

Amount of molecules per component :
-------------------------------------------------------------------------------
Component 0 (CO2)
    molecules:      2.500000e+02 molecules  (2.500000e+02 +/- 0.000000e+00)
    number density: 1.511805e-02 molec./A^3 (1.489650e-02 +/- 0.000000e+00)
    density:        1.104551e+03 kg/m^3     (1.088364e+03 +/- 0.000000e+00)

Average pressure tensor: 
-------------------------------------------------------------------------------
 1.2948e+02  8.4890e+01 -3.8420e+00 +/- 0.0000e+00 0.0000e+00 0.0000e+00 [bar]
 8.4890e+01  1.9704e+02  1.1531e+01 +/- 0.0000e+00 0.0000e+00 0.0000e+00 [bar]
-3.8420e+00  1.1531e+01  9.1775e+01 +/- 0.0000e+00 0.0000e+00 0.0000e+00 [bar]
Ideal-gas pressure:   5.141713e+02 +/ 0.000000e+00 [bar]
Excess pressure:     -3.747382e+02 +/ 0.000000e+00 [bar]
Pressure:             1.394331e+02 +/ 0.000000e+00 [bar]

Total potential energy/kʙ  -3.994099e+05 (-3.927170e+05 +/- 0.000000e+00) [K]
-------------------------------------------------------------------------------
ExternalField-molecule
    Van der Waals/kʙ        0.000000e+00 ( 0.000000e+00 +/- 0.000000e+00) [K]
Framework-molecule
    Van der Waals/kʙ        0.000000e+00 ( 0.000000e+00 +/- 0.000000e+00) [K]
    Van der Waals (Tail)/kʙ 0.000000e+00 ( 0.000000e+00 +/- 0.000000e+00) [K]
    Coulombic Real/kʙ       0.000000e+00 ( 0.000000e+00 +/- 0.000000e+00) [K]
    Coulombic Fourier/kʙ    0.000000e+00 ( 0.000000e+00 +/- 0.000000e+00) [K]
Molecule-molecule
    Van der Waals/kʙ       -2.923801e+05 (-2.851863e+05 +/- 0.000000e+00) [K]
    Van der Waals (Tail)/kʙ-7.018949e+03 (-6.910267e+03 +/- 0.000000e+00) [K]
    Coulombic Real/kʙ      -9.173181e+04 (-9.203417e+04 +/- 0.000000e+00) [K]
    Coulombic Fourier/kʙ   -8.279063e+03 (-8.586197e+03 +/- 0.000000e+00) [K]
    Molecule Intra/kʙ       0.000000e+00 ( 0.000000e+00 +/- 0.000000e+00) [K]

Current cycle: 2000 out of 5000
===============================================================================

Box:      25.39318   0.00000   0.00000  Average:  25.59097   0.00000   0.00000
           0.00000  25.39318   0.00000             0.00000  25.59097   0.00000
           0.00000   0.00000  25.39318             0.00000   0.00000  25.59097
Lengths:  25.39318  25.39318  25.39318  Average:  25.59097  25.59097  25.59097
Angles:   90.00000  90.00000  90.00000  Average:  90.00000  90.00000  90.00000
Rectangular boundary conditions

net charge:   0.00000000

component 0 (CO2) lambda:  0 occupancy:  1 (1.000000)
    net charge:   0.00000000 [e]

Amount of molecules per component :
-------------------------------------------------------------------------------
Component 0 (CO2)
    molecules:      2.500000e+02 molecules  (2.500000e+02 +/- 0.000000e+00)
    number density: 1.526823e-02 molec./A^3 (1.492063e-02 +/- 0.000000e+00)
    density:        1.115523e+03 kg/m^3     (1.090127e+03 +/- 0.000000e+00)

Average pressure tensor: 
-------------------------------------------------------------------------------
 1.3333e+02  8.5543e+01 -7.6733e-01 +/- 0.0000e+00 0.0000e+00 0.0000e+00 [bar]
 8.5543e+01  1.9270e+02  9.6419e+00 +/- 0.0000e+00 0.0000e+00 0.0000e+00 [bar]
-7.6733e-01  9.6419e+00  1.0599e+02 +/- 0.0000e+00 0.0000e+00 0.0000e+00 [bar]
Ideal-gas pressure:   5.150044e+02 +/ 0.000000e+00 [bar]
Excess pressure:     -3.709977e+02 +/ 0.000000e+00 [bar]
Pressure:             1.440067e+02 +/ 0.000000e+00 [bar]

Total potential energy/kʙ  -4.031780e+05 (-3.934410e+05 +/- 0.000000e+00) [K]
-------------------------------------------------------------------------------
ExternalField-molecule
    Van der Waals/kʙ        0.000000e+00 ( 0.000000e+00 +/- 0.000000e+00) [K]
Framework-molecule
    Van der Waals/kʙ        0.000000e+00 ( 0.000000e+00 +/- 0.000000e+00) [K]
    Van der Waals (Tail)/kʙ 0.000000e+00 ( 0.000000e+00 +/- 0.000000e+00) [K]
    Coulombic Real/kʙ       0.000000e+00 ( 0.000000e+00 +/- 0.000000e+00) [K]
    Coulombic Fourier/kʙ    0.000000e+00 ( 0.000000e+00 +/- 0.000000e+00) [K]
Molecule-molecule
    Van der Waals/kʙ       -2.914445e+05 (-2.856702e+05 +/- 0.000000e+00) [K]
    Van der Waals (Tail)/kʙ-7.088674e+03 (-6.922524e+03 +/- 0.000000e+00) [K]
    Coulombic Real/kʙ      -9.574889e+04 (-9.226543e+04 +/- 0.000000e+00) [K]
    Coulombic Fourier/kʙ   -8.895926e+03 (-8.582816e+03 +/- 0.000000e+00) [K]
    Molecule Intra/kʙ       0.000000e+00 ( 0.000000e+00 +/- 0.000000e+00) [K]

Current cycle: 2100 out of 5000
===============================================================================

Box:      25.35585   0.00000   0.00000  Average:  25.58229   0.00000   0.00000
           0.00000  25.35585   0.00000             0.00000  25.58229   0.00000
           0.00000   0.00000  25.35585             0.00000   0.00000  25.58229
Lengths:  25.35585  25.35585  25.35585  Average:  25.58229  25.58229  25.58229
Angles:   90.00000  90.00000  90.00000  Average:  90.00000  90.00000  90.00000
Rectangular boundary conditions

net charge:   0.00000000

component 0 (CO2) lambda:  0 occupancy:  1 (1.000000)
    net charge:   0.00000000 [e]

Amount of molecules per component :
-------------------------------------------------------------------------------
Component 0 (CO2)
    molecules:      2.500000e+02 molecules  (2.500000e+02 +/- 0.000000e+00)
    number density: 1.533576e-02 molec./A^3 (1.493591e-02 +/- 0.000000e+00)
    density:        1.120457e+03 kg/m^3     (1.091243e+03 +/- 0.000000e+00)

Average pressure tensor: 
-------------------------------------------------------------------------------
 1.3964e+02  8.1689e+01  2.6229e-02 +/- 0.0000e+00 0.0000e+00 0.0000e+00 [bar]
 8.1689e+01  1.9439e+02  5.8288e+00 +/- 0.0000e+00 0.0000e+00 0.0000e+00 [bar]
 2.6229e-02  5.8288e+00  1.0156e+02 +/- 0.0000e+00 0.0000e+00 0.0000e+00 [bar]
Ideal-gas pressure:   5.155317e+02 +/ 0.000000e+00 [bar]
Excess pressure:     -3.703338e+02 +/ 0.000000e+00 [bar]
Pressure:             1.451978e+02 +/ 0.000000e+00 [bar]

Total potential energy/kʙ  -4.111070e+05 (-3.940210e+05 +/- 0.000000e+00) [K]
-------------------------------------------------------------------------------
ExternalField-molecule
    Van der Waals/kʙ        0.000000e+00 ( 0.000000e+00 +/- 0.000000e+00) [K]
Framework-molecule
    Van der Waals/kʙ        0.000000e+00 ( 0.000000e+00 +/- 0.000000e+00) [K]
    Van der Waals (Tail)/kʙ 0.000000e+00 ( 0.000000e+00 +/- 0.000000e+00) [K]
[...]
    Coulombic Fourier/kʙ    0.000000e+00 ( 0.000000e+00 +/- 0.000000e+00) [K]
Molecule-molecule
    Van der Waals/kʙ       -2.873464e+05 (-2.861984e+05 +/- 4.762065e+03) [K]
    Van der Waals (Tail)/kʙ-6.981303e+03 (-6.942507e+03 +/- 1.073955e+02) [K]
    Coulombic Real/kʙ      -8.915527e+04 (-9.418807e+04 +/- 3.487306e+03) [K]
    Coulombic Fourier/kʙ   -8.490699e+03 (-8.654376e+03 +/- 1.412805e+02) [K]
    Molecule Intra/kʙ       0.000000e+00 ( 0.000000e+00 +/- 0.000000e+00) [K]

Current cycle: 4700 out of 5000
===============================================================================

Box:      25.55966   0.00000   0.00000  Average:  25.57479   0.00000   0.00000
           0.00000  25.55966   0.00000             0.00000  25.57479   0.00000
           0.00000   0.00000  25.55966             0.00000   0.00000  25.57479
Lengths:  25.55966  25.55966  25.55966  Average:  25.57479  25.57479  25.57479
Angles:   90.00000  90.00000  90.00000  Average:  90.00000  90.00000  90.00000
Rectangular boundary conditions

net charge:   0.00000000

component 0 (CO2) lambda:  0 occupancy:  1 (1.000000)
    net charge:   0.00000000 [e]

Amount of molecules per component :
-------------------------------------------------------------------------------
Component 0 (CO2)
    molecules:      2.500000e+02 molecules  (2.500000e+02 +/- 3.944933e-14)
    number density: 1.497183e-02 molec./A^3 (1.494962e-02 +/- 2.259461e-04)
    density:        1.093867e+03 kg/m^3     (1.092245e+03 +/- 1.650801e+01)

Average pressure tensor: 
-------------------------------------------------------------------------------
 1.4031e+02  3.3825e+01 -4.6797e+00 +/- 7.0173e+01 8.2608e+01 3.2826e+01 [bar]
 3.3825e+01  1.5821e+02 -1.1610e+01 +/- 8.2608e+01 6.5998e+01 8.4679e+01 [bar]
-4.6797e+00 -1.1610e+01  1.8508e+02 +/- 3.2826e+01 8.4679e+01 1.0035e+02 [bar]
Ideal-gas pressure:   5.160049e+02 +/ 7.798814e+00 [bar]
Excess pressure:     -3.548046e+02 +/ 2.705608e+01 [bar]
Pressure:             1.612003e+02 +/ 2.770515e+01 [bar]

Total potential energy/kʙ  -3.980630e+05 (-3.958785e+05 +/- 7.770449e+03) [K]
-------------------------------------------------------------------------------
ExternalField-molecule
    Van der Waals/kʙ        0.000000e+00 ( 0.000000e+00 +/- 0.000000e+00) [K]
Framework-molecule
    Van der Waals/kʙ        0.000000e+00 ( 0.000000e+00 +/- 0.000000e+00) [K]
    Van der Waals (Tail)/kʙ 0.000000e+00 ( 0.000000e+00 +/- 0.000000e+00) [K]
    Coulombic Real/kʙ       0.000000e+00 ( 0.000000e+00 +/- 0.000000e+00) [K]
    Coulombic Fourier/kʙ    0.000000e+00 ( 0.000000e+00 +/- 0.000000e+00) [K]
Molecule-molecule
    Van der Waals/kʙ       -2.842987e+05 (-2.861044e+05 +/- 4.593941e+03) [K]
    Van der Waals (Tail)/kʙ-6.951060e+03 (-6.940599e+03 +/- 1.036919e+02) [K]
    Coulombic Real/kʙ      -9.806124e+04 (-9.418111e+04 +/- 3.379262e+03) [K]
    Coulombic Fourier/kʙ   -8.752062e+03 (-8.652428e+03 +/- 1.406665e+02) [K]
    Molecule Intra/kʙ       0.000000e+00 ( 0.000000e+00 +/- 0.000000e+00) [K]

Current cycle: 4800 out of 5000
===============================================================================

Box:      25.40900   0.00000   0.00000  Average:  25.57699   0.00000   0.00000
           0.00000  25.40900   0.00000             0.00000  25.57699   0.00000
           0.00000   0.00000  25.40900             0.00000   0.00000  25.57699
Lengths:  25.40900  25.40900  25.40900  Average:  25.57699  25.57699  25.57699
Angles:   90.00000  90.00000  90.00000  Average:  90.00000  90.00000  90.00000
Rectangular boundary conditions

net charge:   0.00000000

component 0 (CO2) lambda:  0 occupancy:  1 (1.000000)
    net charge:   0.00000000 [e]

Amount of molecules per component :
-------------------------------------------------------------------------------
Component 0 (CO2)
    molecules:      2.500000e+02 molecules  (2.500000e+02 +/- 0.000000e+00)
    number density: 1.523972e-02 molec./A^3 (1.494572e-02 +/- 2.183273e-04)
    density:        1.113440e+03 kg/m^3     (1.091960e+03 +/- 1.595137e+01)

Average pressure tensor: 
-------------------------------------------------------------------------------
 1.4008e+02  3.2273e+01 -1.7094e+00 +/- 7.0040e+01 8.1154e+01 3.6063e+01 [bar]
 3.2273e+01  1.5559e+02 -1.3091e+01 +/- 8.1154e+01 6.5396e+01 8.1889e+01 [bar]
-1.7094e+00 -1.3091e+01  1.9038e+02 +/- 3.6063e+01 8.1889e+01 1.0254e+02 [bar]
Ideal-gas pressure:   5.158704e+02 +/ 7.535843e+00 [bar]
Excess pressure:     -3.538516e+02 +/ 2.793922e+01 [bar]
Pressure:             1.620188e+02 +/ 2.825520e+01 [bar]

Total potential energy/kʙ  -3.958752e+05 (-3.957405e+05 +/- 7.638601e+03) [K]
-------------------------------------------------------------------------------
ExternalField-molecule
    Van der Waals/kʙ        0.000000e+00 ( 0.000000e+00 +/- 0.000000e+00) [K]
Framework-molecule
    Van der Waals/kʙ        0.000000e+00 ( 0.000000e+00 +/- 0.000000e+00) [K]
    Van der Waals (Tail)/kʙ 0.000000e+00 ( 0.000000e+00 +/- 0.000000e+00) [K]
    Coulombic Real/kʙ       0.000000e+00 ( 0.000000e+00 +/- 0.000000e+00) [K]
    Coulombic Fourier/kʙ    0.000000e+00 ( 0.000000e+00 +/- 0.000000e+00) [K]
Molecule-molecule
    Van der Waals/kʙ       -2.818346e+05 (-2.860056e+05 +/- 4.496540e+03) [K]
    Van der Waals (Tail)/kʙ-7.075438e+03 (-6.939318e+03 +/- 9.953628e+01) [K]
    Coulombic Real/kʙ      -9.823607e+04 (-9.414314e+04 +/- 3.353579e+03) [K]
    Coulombic Fourier/kʙ   -8.729124e+03 (-8.652440e+03 +/- 1.374848e+02) [K]
    Molecule Intra/kʙ       0.000000e+00 ( 0.000000e+00 +/- 0.000000e+00) [K]

Current cycle: 4900 out of 5000
===============================================================================

Box:      25.73541   0.00000   0.00000  Average:  25.57635   0.00000   0.00000
           0.00000  25.73541   0.00000             0.00000  25.57635   0.00000
           0.00000   0.00000  25.73541             0.00000   0.00000  25.57635
Lengths:  25.73541  25.73541  25.73541  Average:  25.57635  25.57635  25.57635
Angles:   90.00000  90.00000  90.00000  Average:  90.00000  90.00000  90.00000
Rectangular boundary conditions

net charge:   0.00000000

component 0 (CO2) lambda:  0 occupancy:  1 (1.000000)
    net charge:   0.00000000 [e]

Amount of molecules per component :
-------------------------------------------------------------------------------
Component 0 (CO2)
    molecules:      2.500000e+02 molecules  (2.500000e+02 +/- 0.000000e+00)
    number density: 1.466719e-02 molec./A^3 (1.494680e-02 +/- 2.003497e-04)
    density:        1.071610e+03 kg/m^3     (1.092039e+03 +/- 1.463789e+01)

Average pressure tensor: 
-------------------------------------------------------------------------------
 1.4264e+02  3.0541e+01 -1.8541e+00 +/- 7.0964e+01 8.0417e+01 3.5160e+01 [bar]
 3.0541e+01  1.5560e+02 -1.2886e+01 +/- 8.0417e+01 6.5395e+01 8.1451e+01 [bar]
-1.8541e+00 -1.2886e+01  1.9315e+02 +/- 3.5160e+01 8.1451e+01 1.0406e+02 [bar]
Ideal-gas pressure:   5.159075e+02 +/ 6.915322e+00 [bar]
Excess pressure:     -3.521108e+02 +/ 3.019099e+01 [bar]
Pressure:             1.637967e+02 +/ 2.997335e+01 [bar]

Total potential energy/kʙ  -3.897126e+05 (-3.958334e+05 +/- 7.062897e+03) [K]
-------------------------------------------------------------------------------
ExternalField-molecule
    Van der Waals/kʙ        0.000000e+00 ( 0.000000e+00 +/- 0.000000e+00) [K]
Framework-molecule
    Van der Waals/kʙ        0.000000e+00 ( 0.000000e+00 +/- 0.000000e+00) [K]
    Van der Waals (Tail)/kʙ 0.000000e+00 ( 0.000000e+00 +/- 0.000000e+00) [K]
    Coulombic Real/kʙ       0.000000e+00 ( 0.000000e+00 +/- 0.000000e+00) [K]
    Coulombic Fourier/kʙ    0.000000e+00 ( 0.000000e+00 +/- 0.000000e+00) [K]
Molecule-molecule
    Van der Waals/kʙ       -2.851082e+05 (-2.860310e+05 +/- 4.116831e+03) [K]
    Van der Waals (Tail)/kʙ-6.809624e+03 (-6.939665e+03 +/- 9.272519e+01) [K]
    Coulombic Real/kʙ      -8.892287e+04 (-9.420603e+04 +/- 3.207156e+03) [K]
    Coulombic Fourier/kʙ   -8.871975e+03 (-8.656765e+03 +/- 1.307497e+02) [K]
    Molecule Intra/kʙ       0.000000e+00 ( 0.000000e+00 +/- 0.000000e+00) [K]


Energy statistics             |  Energy [K]   | Recomputed [K]|  Drift [K]    |
===============================================================================
Total potential energy/kʙ     | -3.878966e+05 | -3.878966e+05 |  6.814819e-10 |
    external field VDW/kʙ     |  0.000000e+00 |  0.000000e+00 |  0.000000e+00 |
    external field Real/kʙ    |  0.000000e+00 |  0.000000e+00 |  0.000000e+00 |
    framework-molecule VDW/kʙ |  0.000000e+00 |  0.000000e+00 |  0.000000e+00 |
    framework-molecule Real/kʙ|  0.000000e+00 |  0.000000e+00 |  0.000000e+00 |
    molecule-molecule VDW/kʙ  | -2.809875e+05 | -2.809875e+05 |  4.900544e-10 |
    molecule-molecule Real/kʙ | -9.093642e+04 | -9.093642e+04 |  1.925214e-10 |
    Van der Waals (Tail)/kʙ   | -6.884601e+03 | -6.884601e+03 |  0.000000e+00 |
    Ewald Fourier/kʙ          |  5.613361e+03 |  5.613361e+03 | -1.093871e-12 |
    Ewald self/kʙ             | -4.591696e+06 | -4.591696e+06 |  0.000000e+00 |
    Ewald exclusion/kʙ        |  4.576994e+06 |  4.576994e+06 |  0.000000e+00 |
    intra VDW/kʙ              |  0.000000e+00 |  0.000000e+00 |  0.000000e+00 |
    intra Coulombic/kʙ        |  0.000000e+00 |  0.000000e+00 |  0.000000e+00 |
    polarization/kʙ           |  0.000000e+00 |  0.000000e+00 |  0.000000e+00 |
    dU/dlambda VDW/kʙ         |  0.000000e+00 |  0.000000e+00 |  0.000000e+00 |
    dU/dlambda Real/kʙ        |  0.000000e+00 |  0.000000e+00 |  0.000000e+00 |
    dU/dlambda Ewald/kʙ       |  0.000000e+00 |  0.000000e+00 |  0.000000e+00 |
-------------------------------------------------------------------------------


Monte-Carlo moves statistics
===============================================================================

    Volume change        all:                8317
    Volume change        total:              8317
    Volume change        constructed:        8317
    Volume change        accepted:           3221
    Volume change        fraction:       0.387279
    Volume change        max-change:     0.033333

Component 0 [CO2]
    Reinsertion (CBMC)   all:              412621
    Reinsertion (CBMC)   total:            412621
    Reinsertion (CBMC)   constructed:      355006
    Reinsertion (CBMC)   accepted:           3901
    Reinsertion (CBMC)   fraction:       0.009454
    Reinsertion (CBMC)   max-change:     0.000000

    Translation          all:              413542
    Translation          total:            137522     137724     138296
    Translation          constructed:      137522     137724     138296
    Translation          accepted:          67033      63565      77240
    Translation          fraction:       0.487435   0.461539   0.558512
    Translation          max-change:     0.668435   0.718894   0.533333

    Rotation             all:              415520
    Rotation             total:            138514     138764     138242
    Rotation             constructed:      138514     138764     138155
    Rotation             accepted:          60358      68160      49695
    Rotation             fraction:       0.435754   0.491194   0.359478
    Rotation             max-change:     0.827586   0.687500   1.077441



Production run counting of the MC moves summed over systems and components
===============================================================================

Volume change                          8317 (0.6654 [%])
Reinsertion (CBMC)                   412621 (33.0097 [%])
Translation                          413542 (33.0834 [%])
Rotation                             415520 (33.2416 [%])

Production count MC-steps:          1250000 [-]
               All summed:          1250000 [-]
               difference:                0 [-]


Production run CPU timings of the MC moves
===============================================================================

Component 0 CO2

Rotation                             61.193802 [s]
    Ewald                            16.638820 [s]
    ExternalField-Molecule            0.013861 [s]
    Framework-Molecule                0.014026 [s]
    Molecule-Molecule                43.174229 [s]
    Overhead                          1.352866 [s]

Reinsertion (CBMC)                  290.377281 [s]
    Ewald                            14.313806 [s]
    NonEwald                        275.709753 [s]
    Overhead                          0.353722 [s]

Translation                          60.996248 [s]
    Ewald                            16.498201 [s]
    ExternalField-Molecule            0.012688 [s]
    Framework-Molecule                0.025596 [s]
    Molecule-Molecule                43.027250 [s]
    Overhead                          1.432513 [s]



Volume change                         72.609741 [s]
    Ewald                             15.301009 [s]
    NonEwald                          54.557510 [s]
    Tail                               2.454280 [s]

Property sampling                     0.307328 [s]
Energy/pressure sampling:             8.202101 [s]


Production run CPU timings of the MC moves summed over systems and components
===============================================================================


Translation                          60.996248 [s]
    Ewald                            16.498201 [s]
    ExternalField-Molecule            0.012688 [s]
    Framework-Molecule                0.025596 [s]
    Molecule-Molecule                43.027250 [s]
    Overhead                          1.432513 [s]

Rotation                             61.193802 [s]
    Ewald                            16.638820 [s]
    ExternalField-Molecule            0.013861 [s]
    Framework-Molecule                0.014026 [s]
    Molecule-Molecule                43.174229 [s]
    Overhead                          1.352866 [s]

Volume change                        72.609741 [s]
    Ewald                            15.301009 [s]
    NonEwald                         54.557510 [s]
    Tail                              2.454280 [s]
    Overhead                          0.296942 [s]

Reinsertion (CBMC)                  290.377281 [s]
    Ewald                            14.313806 [s]
    NonEwald                        275.709753 [s]
    Overhead                          0.353722 [s]

Property sampling:                    0.307328 [s]
Energy/pressure sampling:             8.202101 [s]

Production simulation time:         494.537427 [s]
                All summed:         493.686501 [s]
                  Overhead:           0.850926 [s]


Initalization simulation time:       98.176108 [s]
Equilibration simulation time:        0.000000 [s]
Production simulation time:         494.537427 [s]
Total simulation time:              592.713535 [s]


Energy averages and statistics:
===============================================================================

Framework-molecule energy:
-------------------------------------------------------------------------------



Framework-molecule energy contributions per energy type:
-------------------------------------------------------------------------------



Inter-molecular energy:
-------------------------------------------------------------------------------

    Inter-molecular energy/kʙ 0-0 [CO2-CO2]:
    ---------------------------------------------------------------------------
        Block[  0] -3.932726e+05
        Block[  1] -3.935120e+05
        Block[  2] -4.026985e+05
        Block[  3] -4.003086e+05
        Block[  4] -3.890429e+05
        -----------------------------------------------------------------------
        Average  -3.957669e+05 +/-  6.945337e+03 [K]



Inter-molecular energy contributions per energy type:
-------------------------------------------------------------------------------

    Van der Waals energy/kʙ 0-0 [CO2-CO2]:
    ---------------------------------------------------------------------------
        Block[  0] -2.854723e+05
        Block[  1] -2.858103e+05
        Block[  2] -2.899681e+05
        Block[  3] -2.875080e+05
        Block[  4] -2.811953e+05
        -----------------------------------------------------------------------
        Average  -2.859908e+05 +/-  3.994892e+03 [K]

    VDW Tail-Correction energy/kʙ 0-0 [CO2-CO2]:
    ---------------------------------------------------------------------------
        Block[  0] -6.919014e+03
        Block[  1] -6.924372e+03
        Block[  2] -7.035646e+03
        Block[  3] -6.975692e+03
        Block[  4] -6.841113e+03
        -----------------------------------------------------------------------
        Average  -6.939167e+03 +/-  8.969910e+01 [K]

    Coulomb Real energy/kʙ 0-0 [CO2-CO2]:
    ---------------------------------------------------------------------------
        Block[  0] -9.224587e+04
        Block[  1] -9.225016e+04
        Block[  2] -9.689814e+04
        Block[  3] -9.710374e+04
        Block[  4] -9.237046e+04
        -----------------------------------------------------------------------
        Average  -9.417367e+04 +/-  3.206007e+03 [K]

    Coulomb Fourier energy/kʙ 0-0 [CO2-CO2]:
    ---------------------------------------------------------------------------
        Block[  0] -8.635403e+03
        Block[  1] -8.527098e+03
        Block[  2] -8.796540e+03
        Block[  3] -8.721177e+03
        Block[  4] -8.635995e+03
        -----------------------------------------------------------------------
        Average  -8.663243e+03 +/-  1.259606e+02 [K]


Total energy/kʙ
-------------------------------------------------------------------------------
    Block[  0] -3.932726e+05
    Block[  1] -3.935120e+05
    Block[  2] -4.026985e+05
    Block[  3] -4.003086e+05
    Block[  4] -3.890429e+05
    ---------------------------------------------------------------------------
    Average  -3.957669e+05 +/-  6.945337e+03 [K]

Pressure averages and statistics:
===============================================================================

Average pressure tensor: 
-------------------------------------------------------------------------------
 1.4124e+02  2.5650e+01 -2.6662e+00 +/- 7.0255e+01 8.0588e+01 3.3848e+01 [bar]
 2.5650e+01  1.5858e+02 -9.4793e+00 +/- 8.0588e+01 6.5833e+01 8.3827e+01 [bar]
-2.6662e+00 -9.4793e+00  1.9155e+02 +/- 3.3848e+01 8.3827e+01 1.0247e+02 [bar]

    Block[  0]  5.149671e+07
    Block[  1]  5.150296e+07
    Block[  2]  5.223019e+07
    Block[  3]  5.189825e+07
    Block[  4]  5.079497e+07
    ---------------------------------------------------------------------------
    Ideal gas pressure   5.158462e+07 +/-  4.014039e-02 [Pa]
                         5.158462e+02 +/-  6.665473e+00 [bar]


    Block[  0] -3.736931e+07
    Block[  1] -3.681412e+07
    Block[  2] -3.261373e+07
    Block[  3] -3.656948e+07
    Block[  4] -3.266115e+07
    ---------------------------------------------------------------------------
    Excess pressure  -3.520556e+07 +/-  2.932669e+06 [Pa]
                     -3.520556e+02 +/-  2.932669e+01 [bar]


    Block[  0]  1.412740e+07
    Block[  1]  1.468884e+07
    Block[  2]  1.961646e+07
    Block[  3]  1.532877e+07
    Block[  4]  1.813383e+07
    ---------------------------------------------------------------------------
    Pressure average   1.637906e+07 +/-  2.950269e+06 [Pa]
                       1.637906e+02 +/-  2.950269e+01 [bar]


Enthalpy of adsorption
===============================================================================

No fluctuating components present.


Densities
===============================================================================

Component 0 (CO2)
    Block[  0] 250
    Block[  1] 250
    Block[  2] 250
    Block[  3] 250
    Block[  4] 250
    -----------------------------------------------------------------------
    Density average   2.500000e+02 +/-  0.000000e+00 [molecules]
    Density average   1.494502e-02 +/-  1.931111e-04 [molec/A^3]
    Density average   1.091909e+03 +/-  1.410903e+01 [kg.m⁻³]

