Compiler and run-time data
===============================================================================
RASPA 3.0.4

Random seed: 2090347715

Compiled as a 64-bits application
Compiler: gcc Ubuntu Clang 18.1.3 (1ubuntu1)
Compile Date = Mar 15 2025, Compile Time = 19:39:45

2025-06-03 11:00:36.156334
Simulation started on Tue, Jun 03
The start time was 11:00:00

Hostname:    c060
OS type:     Linux on x86_64
OS release:  6.8.0-58-generic
OS version:  #60-Ubuntu SMP PREEMPT_DYNAMIC Fri Mar 14 18:29:48 UTC 2025


Mutual consistent basic set of units:
===============================================================================

Unit of temperature: 1 [K]
Unit of length:      1e-10 [m]
Unit of time:        1e-12 [s]
Unit of mass:        1.6605402e-27 [kg]
Unit of charge:      1.60217733e-19 [C/particle]


Boltzmann constant (internal units):          0.8314464919307584 [-]
represents conversion from energy (internal units) to temperature (in Kelvin)

Derived units and their conversion factors:
===============================================================================

Unit of energy:                           1.6605402000000002e-23 [J]
Unit of energy:                           10.000008872307538 [J.mol⁻¹]
Unit of velocity:                         100 [m.s⁻¹]
Unit of force:                            1.6605402000000002e-13 [N]
Unit of diffusion:                        1.0000000000000002e-08 [m².s⁻¹]
Unit of acceleration:                     1.0000000000000002e-08 [m².s⁻¹]
Unit of torque:                           1.6605402000000002e-23 [N.m]
Unit of pressure:                         16605402 [Pa]
Unit of volume:                           1e-30 [m³]
Unit of density:                          1660.5402 [kg.m⁻³]
Unit of dynamic viscosity:                1.6605401999999997e-05 [N.s.m⁻²]
Unit of enthalpy:                         1.6605402000000002e-23 [J]
Unit of polarizability:                   1.5458657349975198e-35 [-]
Unit of Coulomb potential:                167101.08000665612 [K]
Unit of dielectric constant:              1.5458657349975193e-05 [s².C².kg⁻¹.m⁻³]
Unit of dipole moment:                    1.60217733e-29 [C.m]
Unit of Debye:                            4.803206799099162 [C.m]
Unit of electric potential:               0.00010364272224473431 [V]
Unit of electric field:                   1036427.222447343 [V.m⁻¹]
Unit of isothermal compressibility:       6.02213665167516e-08 [Pa⁻¹]
Unit of heat capacity:                    10.000008872307538 [J.mol⁻¹.K⁻¹]
Unit of volumetric expansion coefficient: 1 [K⁻¹]


Internal conversion factors:
===============================================================================

Energy (internal units) to Kelvin:      1.202724284692786 [-]
Kelvin to energy (internal units):      0.8314457542157567 [-]


System definitions
===============================================================================

Temperature:          220 [K]
Beta:                 0.005466923716160299 [-]
Pressure:             0 [Pa]
Helium void fraction: 1 [-]

Box:      30.00000   0.00000   0.00000
           0.00000  30.00000   0.00000
           0.00000   0.00000  30.00000
Lengths:  30.00000  30.00000  30.00000
Angles:   90.00000  90.00000  90.00000
Rectangular boundary conditions



Property measurement settings
===============================================================================




Pseudo-atoms
===============================================================================

  0 - C_co2    framework-atom: false
  1 - O_co2    framework-atom: false

  0 - C_co2    mass: 12.00000, charge:  0.70000
  1 - O_co2    mass: 15.99940, charge: -0.35000

  0 - C_co2    polarizability:  0.00000
  1 - O_co2    polarizability:  0.00000

  0 - J. J. Potoff et al., AIChE J. 2001, 47, 1676–1682.
  1 - J. J. Potoff et al., AIChE J. 2001, 47, 1676–1682.

Force field status
===============================================================================

Cutoff Framework-Molecule VDW:  12.00000 [Å]
Cutoff Molecule-Molecule VDW:   12.00000 [Å]
Cutoff Coulomb:                 12.00000 [Å]

Overlap-criteria VDW:           1.000000e+05 [K]

C_co2    - C_co2    Lennard-Jones p₀/kʙ:  27.00000 [K], p₁:  2.80000 [Å]
                                  shift:   0.00000 [K], tailcorrections: true
C_co2    - O_co2    Lennard-Jones p₀/kʙ:  46.18441 [K], p₁:  2.92500 [Å]
                                  shift:   0.00000 [K], tailcorrections: true
O_co2    - O_co2    Lennard-Jones p₀/kʙ:  79.00000 [K], p₁:  3.05000 [Å]
                                  shift:   0.00000 [K], tailcorrections: true

Ewald precision: 1e-06
Ewald alpha: 0.26505830360350674
Ewald k-vectors: 8 8 8


Component definitions
===============================================================================

Component 0 [CO2]

    Type: Adsorbate

    Critical temperature:  304.1282 [K]
    Critical pressure:     7377300 [Pa]
    Acentric factor:       0.22394 [-]

    Mol-fraction:                 1 [-]
    Swappable:                   true

    Mass:                         43.9988 [-]
    Fugacity coefficient:         -nan [-]
    Bulk fluid density:           0 [-]
    Compressibility:              1 [-]
    Excess molecules:             0 [-]

    Number Of Atoms:    3
    CBMC starting bead: 0
      0: O_co2  position  0.00000 -0.00000  1.16000, charge -0.35000
      1: C_co2  position  0.00000 -0.00000  0.00000, charge  0.70000
      2: O_co2  position  0.00000 -0.00000 -1.16000, charge -0.35000
    Diagonalized inertia-vector:      43.05758528 43.05758528 0.00000000
    Translational degrees of freedom: 3
    Rotational degrees of freedom:    2
    Shape of the molecule is: 'Linear'
    Net-charge:        0.00000000 [e]

    Move probabilities:
    Translation:                   0.199203 [-]
    Random translation:            0.000000 [-]
    Rotation:                      0.199203 [-]
    Random rotation:               0.000000 [-]
    Volume change:                 0.000000 [-]
    Reinsertion (CBMC):            0.199203 [-]
    Identity change (CBMC):        0.000000 [-]
    Swap:                          0.000000 [-]
    Swap (CBMC):                   0.000000 [-]
    Swap (CFCMC):                  0.000000 [-]
    Swap (CB/CFCMC):               0.000000 [-]
    Gibbs volume:                  0.003984 [-]
    Gibbs swap (CBMC):             0.398406 [-]
    Gibbs swap (CFCMC):            0.000000 [-]
    Widom:                         0.000000 [-]
    Widom (CFCMC):                 0.000000 [-]
    Widom (CB/CFCMC):              0.000000 [-]
    Parallel tempering:            0.000000 [-]
    Hybrid MC:                     0.000000 [-]

    number of blocking-pockets: 0

    number of bonds: 0





Number of pseudo-atoms
===============================================================================

Component   0 (CO2)
-------------------------------------------------------------------------------
    index   0 (C_co2): 40 atoms
    index   1 (O_co2): 80 atoms

Total number of pseudo-atoms:
-------------------------------------------------------------------------------
    index   0 (C_co2): 40 atoms
    index   1 (O_co2): 80 atoms




Energy status Recomputed from scratch
===============================================================================

Total potential energy/kʙ       -5.881918e+03 [K]
    external field VDW/kʙ        0.000000e+00 [K]
    external field Real/kʙ       0.000000e+00 [K]
    framework-molecule VDW/kʙ    0.000000e+00 [K]
    framework-molecule Real/kʙ   0.000000e+00 [K]
    molecule-molecule VDW/kʙ    -4.635624e+03 [K]
    molecule-molecule Real/kʙ   -1.123125e+03 [K]
    Van der Waals (Tail)/kʙ     -1.100506e+02 [K]
    Ewald Fourier/kʙ             2.339107e+03 [K]
    Ewald self/kʙ               -7.346713e+05 [K]
    Ewald exclusion/kʙ           7.323191e+05 [K]
    intra VDW/kʙ                 0.000000e+00 [K]
    intra Coulombic/kʙ           0.000000e+00 [K]
    polarization/kʙ              0.000000e+00 [K]
    dU/dlambda VDW/kʙ            0.000000e+00 [K]
    dU/dlambda Real/kʙ           0.000000e+00 [K]
    dU/dlambda Ewald/kʙ          0.000000e+00 [K]





Initialization: Current cycle: 0 out of 2000
===============================================================================

Box:      30.00000   0.00000   0.00000
           0.00000  30.00000   0.00000
           0.00000   0.00000  30.00000
Lengths:  30.00000  30.00000  30.00000
Angles:   90.00000  90.00000  90.00000
Rectangular boundary conditions

net charge:   0.00000000

component   0 (CO2) lambda:  0 occupancy:  1 (1.000000)
    net charge:   0.00000000 [e]

Amount of molecules per component :
-------------------------------------------------------------------------------
Component 0 (CO2)
    molecules:         2.800000e+01 molecules
    number density:    1.037037e-03 molec/A^3
    density:           7.576770e+01 kg/m^3

Total potential energy/kʙ       -4.246442e+03 [K]
-------------------------------------------------------------------------------
    external field VDW/kʙ        0.000000e+00 [K]
    external field Real/kʙ       0.000000e+00 [K]
    framework-molecule VDW/kʙ    0.000000e+00 [K]
    framework-molecule Real/kʙ   0.000000e+00 [K]
    molecule-molecule VDW/kʙ    -2.669128e+03 [K]
    molecule-molecule Real/kʙ   -1.590065e+03 [K]
    Van der Waals (Tail)/kʙ     -5.392480e+01 [K]
    Ewald Fourier/kʙ             1.713235e+03 [K]
    Ewald self/kʙ               -5.142699e+05 [K]
    Ewald exclusion/kʙ           5.126233e+05 [K]
    intra VDW/kʙ                 0.000000e+00 [K]
    intra Coulombic/kʙ           0.000000e+00 [K]
    polarization/kʙ              0.000000e+00 [K]
    dU/dlambda VDW/kʙ            0.000000e+00 [K]
    dU/dlambda Real/kʙ           0.000000e+00 [K]
    dU/dlambda Ewald/kʙ          0.000000e+00 [K]


Initialization: Current cycle: 100 out of 2000
===============================================================================

Box:      31.12587   0.00000   0.00000
           0.00000  31.12587   0.00000
           0.00000   0.00000  31.12587
Lengths:  31.12587  31.12587  31.12587
Angles:   90.00000  90.00000  90.00000
Rectangular boundary conditions

net charge:   0.00000000

component   0 (CO2) lambda:  0 occupancy:  1 (1.000000)
    net charge:   0.00000000 [e]

Amount of molecules per component :
-------------------------------------------------------------------------------
Component 0 (CO2)
    molecules:         5.000000e+00 molecules
    number density:    1.658080e-04 molec/A^3
    density:           1.211422e+01 kg/m^3

Total potential energy/kʙ       -6.612850e+01 [K]
-------------------------------------------------------------------------------
    external field VDW/kʙ        0.000000e+00 [K]
    external field Real/kʙ       0.000000e+00 [K]
    framework-molecule VDW/kʙ    0.000000e+00 [K]
    framework-molecule Real/kʙ   0.000000e+00 [K]
    molecule-molecule VDW/kʙ    -7.797867e+01 [K]
    molecule-molecule Real/kʙ    2.506246e+01 [K]
    Van der Waals (Tail)/kʙ     -1.539613e+00 [K]
    Ewald Fourier/kʙ             2.823555e+02 [K]
    Ewald self/kʙ               -9.183391e+04 [K]
    Ewald exclusion/kʙ           9.153988e+04 [K]
    intra VDW/kʙ                 0.000000e+00 [K]
    intra Coulombic/kʙ           0.000000e+00 [K]
    polarization/kʙ              0.000000e+00 [K]
    dU/dlambda VDW/kʙ            0.000000e+00 [K]
    dU/dlambda Real/kʙ           0.000000e+00 [K]
    dU/dlambda Ewald/kʙ          0.000000e+00 [K]


Initialization: Current cycle: 200 out of 2000
===============================================================================

Box:      31.96213   0.00000   0.00000
           0.00000  31.96213   0.00000
           0.00000   0.00000  31.96213
Lengths:  31.96213  31.96213  31.96213
Angles:   90.00000  90.00000  90.00000
Rectangular boundary conditions

net charge:   0.00000000

component   0 (CO2) lambda:  0 occupancy:  1 (1.000000)
    net charge:   0.00000000 [e]

Amount of molecules per component :
-------------------------------------------------------------------------------
Component 0 (CO2)
    molecules:         3.000000e+00 molecules
    number density:    9.187851e-05 molec/A^3
    density:           6.712801e+00 kg/m^3

Total potential energy/kʙ       -9.892054e+00 [K]
-------------------------------------------------------------------------------
    external field VDW/kʙ        0.000000e+00 [K]
    external field Real/kʙ       0.000000e+00 [K]
    framework-molecule VDW/kʙ    0.000000e+00 [K]
    framework-molecule Real/kʙ   0.000000e+00 [K]
    molecule-molecule VDW/kʙ    -6.270560e+00 [K]
    molecule-molecule Real/kʙ   -5.011841e-01 [K]
    Van der Waals (Tail)/kʙ     -2.843799e-01 [K]
    Ewald Fourier/kʙ             1.735810e+02 [K]
    Ewald self/kʙ               -5.510035e+04 [K]
    Ewald exclusion/kʙ           5.492393e+04 [K]
    intra VDW/kʙ                 0.000000e+00 [K]
    intra Coulombic/kʙ           0.000000e+00 [K]
    polarization/kʙ              0.000000e+00 [K]
    dU/dlambda VDW/kʙ            0.000000e+00 [K]
    dU/dlambda Real/kʙ           0.000000e+00 [K]
    dU/dlambda Ewald/kʙ          0.000000e+00 [K]


Initialization: Current cycle: 300 out of 2000
===============================================================================

Box:      32.20240   0.00000   0.00000
           0.00000  32.20240   0.00000
           0.00000   0.00000  32.20240
Lengths:  32.20240  32.20240  32.20240
Angles:   90.00000  90.00000  90.00000
Rectangular boundary conditions

net charge:   0.00000000

component   0 (CO2) lambda:  0 occupancy:  1 (1.000000)
    net charge:   0.00000000 [e]

Amount of molecules per component :
-------------------------------------------------------------------------------
Component 0 (CO2)
    molecules:         2.000000e+00 molecules
    number density:    5.989150e-05 molec/A^3
    density:           4.375775e+00 kg/m^3

Total potential energy/kʙ       -7.081329e+00 [K]
-------------------------------------------------------------------------------
    external field VDW/kʙ        0.000000e+00 [K]
    external field Real/kʙ       0.000000e+00 [K]
    framework-molecule VDW/kʙ    0.000000e+00 [K]
    framework-molecule Real/kʙ   0.000000e+00 [K]
    molecule-molecule VDW/kʙ    -1.110982e+01 [K]
    molecule-molecule Real/kʙ    1.515690e+00 [K]
    Van der Waals (Tail)/kʙ     -2.224495e-01 [K]
    Ewald Fourier/kʙ             1.203465e+02 [K]
    Ewald self/kʙ               -3.673356e+04 [K]
    Ewald exclusion/kʙ           3.661595e+04 [K]
    intra VDW/kʙ                 0.000000e+00 [K]
    intra Coulombic/kʙ           0.000000e+00 [K]
    polarization/kʙ              0.000000e+00 [K]
    dU/dlambda VDW/kʙ            0.000000e+00 [K]
    dU/dlambda Real/kʙ           0.000000e+00 [K]
    dU/dlambda Ewald/kʙ          0.000000e+00 [K]


Initialization: Current cycle: 400 out of 2000
===============================================================================

Box:      32.83417   0.00000   0.00000
           0.00000  32.83417   0.00000
           0.00000   0.00000  32.83417
Lengths:  32.83417  32.83417  32.83417
Angles:   90.00000  90.00000  90.00000
Rectangular boundary conditions

net charge:   0.00000000

component   0 (CO2) lambda:  0 occupancy:  1 (1.000000)
    net charge:   0.00000000 [e]

Amount of molecules per component :
-------------------------------------------------------------------------------
Component 0 (CO2)
    molecules:         0.000000e+00 molecules
    number density:    0.000000e+00 molec/A^3
    density:           0.000000e+00 kg/m^3

Total potential energy/kʙ       -1.918775e+00 [K]
-------------------------------------------------------------------------------
    external field VDW/kʙ        0.000000e+00 [K]
    external field Real/kʙ       0.000000e+00 [K]
    framework-molecule VDW/kʙ    0.000000e+00 [K]
    framework-molecule Real/kʙ   0.000000e+00 [K]
    molecule-molecule VDW/kʙ    -1.904839e+00 [K]
    molecule-molecule Real/kʙ   -1.713261e-01 [K]
    Van der Waals (Tail)/kʙ      1.573908e-01 [K]
    Ewald Fourier/kʙ             1.794633e-13 [K]
    Ewald self/kʙ               -8.750971e-12 [K]
    Ewald exclusion/kʙ           2.406517e-11 [K]
    intra VDW/kʙ                 0.000000e+00 [K]
    intra Coulombic/kʙ           0.000000e+00 [K]
    polarization/kʙ              0.000000e+00 [K]
    dU/dlambda VDW/kʙ            0.000000e+00 [K]
    dU/dlambda Real/kʙ           0.000000e+00 [K]
    dU/dlambda Ewald/kʙ          0.000000e+00 [K]


Initialization: Current cycle: 500 out of 2000
===============================================================================

Box:      33.28458   0.00000   0.00000
           0.00000  33.28458   0.00000
           0.00000   0.00000  33.28458
Lengths:  33.28458  33.28458  33.28458
Angles:   90.00000  90.00000  90.00000
Rectangular boundary conditions

net charge:   0.00000000

component   0 (CO2) lambda:  0 occupancy:  1 (1.000000)
    net charge:   0.00000000 [e]

Amount of molecules per component :
-------------------------------------------------------------------------------
Component 0 (CO2)
    molecules:         0.000000e+00 molecules
    number density:    0.000000e+00 molec/A^3
    density:           0.000000e+00 kg/m^3

Total potential energy/kʙ       -2.642955e+00 [K]
-------------------------------------------------------------------------------
    external field VDW/kʙ        0.000000e+00 [K]
    external field Real/kʙ       0.000000e+00 [K]
    framework-molecule VDW/kʙ    0.000000e+00 [K]
    framework-molecule Real/kʙ   0.000000e+00 [K]
    molecule-molecule VDW/kʙ    -2.732579e+00 [K]
    molecule-molecule Real/kʙ    3.926085e-02 [K]
    Van der Waals (Tail)/kʙ      5.036246e-02 [K]
    Ewald Fourier/kʙ            -2.563761e-14 [K]
    Ewald self/kʙ               -8.750971e-12 [K]
    Ewald exclusion/kʙ           4.156711e-11 [K]
    intra VDW/kʙ                 0.000000e+00 [K]
    intra Coulombic/kʙ           0.000000e+00 [K]
    polarization/kʙ              0.000000e+00 [K]
    dU/dlambda VDW/kʙ            0.000000e+00 [K]
    dU/dlambda Real/kʙ           0.000000e+00 [K]
    dU/dlambda Ewald/kʙ          0.000000e+00 [K]


Initialization: Current cycle: 600 out of 2000
===============================================================================

Box:      33.46200   0.00000   0.00000
           0.00000  33.46200   0.00000
           0.00000   0.00000  33.46200
Lengths:  33.46200  33.46200  33.46200
Angles:   90.00000  90.00000  90.00000
Rectangular boundary conditions

net charge:   0.00000000

component   0 (CO2) lambda:  0 occupancy:  1 (1.000000)
    net charge:   0.00000000 [e]

Amount of molecules per component :
-------------------------------------------------------------------------------
Component 0 (CO2)
    molecules:         6.000000e+00 molecules
    number density:    1.601384e-04 molec/A^3
    density:           1.169998e+01 kg/m^3

Total potential energy/kʙ       -1.721050e+02 [K]
-------------------------------------------------------------------------------
    external field VDW/kʙ        0.000000e+00 [K]
    external field Real/kʙ       0.000000e+00 [K]
    framework-molecule VDW/kʙ    0.000000e+00 [K]
    framework-molecule Real/kʙ   0.000000e+00 [K]
    molecule-molecule VDW/kʙ    -1.501429e+02 [K]
    molecule-molecule Real/kʙ   -6.416385e+00 [K]
    Van der Waals (Tail)/kʙ     -1.784361e+00 [K]
    Ewald Fourier/kʙ             3.390724e+02 [K]
    Ewald self/kʙ               -1.102007e+05 [K]
    Ewald exclusion/kʙ           1.098479e+05 [K]
    intra VDW/kʙ                 0.000000e+00 [K]
    intra Coulombic/kʙ           0.000000e+00 [K]
    polarization/kʙ              0.000000e+00 [K]
    dU/dlambda VDW/kʙ            0.000000e+00 [K]
    dU/dlambda Real/kʙ           0.000000e+00 [K]
    dU/dlambda Ewald/kʙ          0.000000e+00 [K]


Initialization: Current cycle: 700 out of 2000
===============================================================================

Box:      33.68623   0.00000   0.00000
           0.00000  33.68623   0.00000
           0.00000   0.00000  33.68623
Lengths:  33.68623  33.68623  33.68623
Angles:   90.00000  90.00000  90.00000
Rectangular boundary conditions

net charge:   0.00000000

component   0 (CO2) lambda:  0 occupancy:  1 (1.000000)
    net charge:   0.00000000 [e]

Amount of molecules per component :
-------------------------------------------------------------------------------
Component 0 (CO2)
    molecules:         6.000000e+00 molecules
    number density:    1.569618e-04 molec/A^3
    density:           1.146790e+01 kg/m^3

Total potential energy/kʙ       -3.045640e+02 [K]
-------------------------------------------------------------------------------
    external field VDW/kʙ        0.000000e+00 [K]
    external field Real/kʙ       0.000000e+00 [K]
    framework-molecule VDW/kʙ    0.000000e+00 [K]
    framework-molecule Real/kʙ   0.000000e+00 [K]
    molecule-molecule VDW/kʙ    -1.624433e+02 [K]
    molecule-molecule Real/kʙ   -1.084836e+02 [K]
    Van der Waals (Tail)/kʙ     -1.748967e+00 [K]
    Ewald Fourier/kʙ             3.209458e+02 [K]
    Ewald self/kʙ               -1.102007e+05 [K]
    Ewald exclusion/kʙ           1.098479e+05 [K]
    intra VDW/kʙ                 0.000000e+00 [K]
    intra Coulombic/kʙ           0.000000e+00 [K]
    polarization/kʙ              0.000000e+00 [K]
    dU/dlambda VDW/kʙ            0.000000e+00 [K]
    dU/dlambda Real/kʙ           0.000000e+00 [K]
    dU/dlambda Ewald/kʙ          0.000000e+00 [K]


Initialization: Current cycle: 800 out of 2000
===============================================================================

Box:      33.77406   0.00000   0.00000
           0.00000  33.77406   0.00000
           0.00000   0.00000  33.77406
Lengths:  33.77406  33.77406  33.77406
Angles:   90.00000  90.00000  90.00000
Rectangular boundary conditions

net charge:   0.00000000

component   0 (CO2) lambda:  0 occupancy:  1 (1.000000)
    net charge:   0.00000000 [e]

Amount of molecules per component :
-------------------------------------------------------------------------------
Component 0 (CO2)
    molecules:         7.000000e+00 molecules
    number density:    1.816972e-04 molec/A^3
    density:           1.327511e+01 kg/m^3

Total potential energy/kʙ       -2.769269e+02 [K]
-------------------------------------------------------------------------------
    external field VDW/kʙ        0.000000e+00 [K]
    external field Real/kʙ       0.000000e+00 [K]
    framework-molecule VDW/kʙ    0.000000e+00 [K]
    framework-molecule Real/kʙ   0.000000e+00 [K]
    molecule-molecule VDW/kʙ    -1.392986e+02 [K]
    molecule-molecule Real/kʙ   -1.132101e+02 [K]
    Van der Waals (Tail)/kʙ     -2.362014e+00 [K]
    Ewald Fourier/kʙ             3.895833e+02 [K]
    Ewald self/kʙ               -1.285675e+05 [K]
    Ewald exclusion/kʙ           1.281558e+05 [K]
    intra VDW/kʙ                 0.000000e+00 [K]
    intra Coulombic/kʙ           0.000000e+00 [K]
    polarization/kʙ              0.000000e+00 [K]
    dU/dlambda VDW/kʙ            0.000000e+00 [K]
    dU/dlambda Real/kʙ           0.000000e+00 [K]
    dU/dlambda Ewald/kʙ          0.000000e+00 [K]


Initialization: Current cycle: 900 out of 2000
===============================================================================

Box:      33.69477   0.00000   0.00000
           0.00000  33.69477   0.00000
           0.00000   0.00000  33.69477
Lengths:  33.69477  33.69477  33.69477
Angles:   90.00000  90.00000  90.00000
Rectangular boundary conditions

net charge:   0.00000000

component   0 (CO2) lambda:  0 occupancy:  1 (1.000000)
    net charge:   0.00000000 [e]

Amount of molecules per component :
-------------------------------------------------------------------------------
Component 0 (CO2)
    molecules:         6.000000e+00 molecules
    number density:    1.568425e-04 molec/A^3
    density:           1.145918e+01 kg/m^3

Total potential energy/kʙ       -6.475604e+00 [K]
-------------------------------------------------------------------------------
    external field VDW/kʙ        0.000000e+00 [K]
    external field Real/kʙ       0.000000e+00 [K]
    framework-molecule VDW/kʙ    0.000000e+00 [K]
    framework-molecule Real/kʙ   0.000000e+00 [K]
    molecule-molecule VDW/kʙ    -1.866511e+01 [K]
    molecule-molecule Real/kʙ    5.780811e+00 [K]
    Van der Waals (Tail)/kʙ     -1.747637e+00 [K]
    Ewald Fourier/kʙ             3.609902e+02 [K]
    Ewald self/kʙ               -1.102007e+05 [K]
    Ewald exclusion/kʙ           1.098479e+05 [K]
    intra VDW/kʙ                 0.000000e+00 [K]
    intra Coulombic/kʙ           0.000000e+00 [K]
    polarization/kʙ              0.000000e+00 [K]
    dU/dlambda VDW/kʙ            0.000000e+00 [K]
    dU/dlambda Real/kʙ           0.000000e+00 [K]
    dU/dlambda Ewald/kʙ          0.000000e+00 [K]


Initialization: Current cycle: 1000 out of 2000
===============================================================================

Box:      33.76492   0.00000   0.00000
           0.00000  33.76492   0.00000
           0.00000   0.00000  33.76492
Lengths:  33.76492  33.76492  33.76492
Angles:   90.00000  90.00000  90.00000
Rectangular boundary conditions

net charge:   0.00000000

component   0 (CO2) lambda:  0 occupancy:  1 (1.000000)
    net charge:   0.00000000 [e]

Amount of molecules per component :
-------------------------------------------------------------------------------
Component 0 (CO2)
    molecules:         8.000000e+00 molecules
    number density:    2.078227e-04 molec/A^3
    density:           1.518388e+01 kg/m^3

Total potential energy/kʙ       -9.496376e+00 [K]
-------------------------------------------------------------------------------
    external field VDW/kʙ        0.000000e+00 [K]
    external field Real/kʙ       0.000000e+00 [K]
    framework-molecule VDW/kʙ    0.000000e+00 [K]
    framework-molecule Real/kʙ   0.000000e+00 [K]
    molecule-molecule VDW/kʙ    -3.049061e+01 [K]
    molecule-molecule Real/kʙ    4.309157e+00 [K]
    Van der Waals (Tail)/kʙ     -3.087587e+00 [K]
    Ewald Fourier/kʙ             4.902178e+02 [K]
    Ewald self/kʙ               -1.469343e+05 [K]
    Ewald exclusion/kʙ           1.464638e+05 [K]
    intra VDW/kʙ                 0.000000e+00 [K]
    intra Coulombic/kʙ           0.000000e+00 [K]
    polarization/kʙ              0.000000e+00 [K]
    dU/dlambda VDW/kʙ            0.000000e+00 [K]
    dU/dlambda Real/kʙ           0.000000e+00 [K]
    dU/dlambda Ewald/kʙ          0.000000e+00 [K]


Initialization: Current cycle: 1100 out of 2000
===============================================================================

Box:      33.84033   0.00000   0.00000
           0.00000  33.84033   0.00000
           0.00000   0.00000  33.84033
Lengths:  33.84033  33.84033  33.84033
Angles:   90.00000  90.00000  90.00000
Rectangular boundary conditions

net charge:   0.00000000

component   0 (CO2) lambda:  0 occupancy:  1 (1.000000)
    net charge:   0.00000000 [e]

Amount of molecules per component :
-------------------------------------------------------------------------------
Component 0 (CO2)
    molecules:         9.000000e+00 molecules
    number density:    2.322408e-04 molec/A^3
    density:           1.696791e+01 kg/m^3

Total potential energy/kʙ       -4.058951e+02 [K]
-------------------------------------------------------------------------------
    external field VDW/kʙ        0.000000e+00 [K]
    external field Real/kʙ       0.000000e+00 [K]
    framework-molecule VDW/kʙ    0.000000e+00 [K]
    framework-molecule Real/kʙ   0.000000e+00 [K]
    molecule-molecule VDW/kʙ    -2.758787e+02 [K]
    molecule-molecule Real/kʙ   -1.327545e+02 [K]
    Van der Waals (Tail)/kʙ     -3.881658e+00 [K]
    Ewald Fourier/kʙ             5.358705e+02 [K]
    Ewald self/kʙ               -1.653010e+05 [K]
    Ewald exclusion/kʙ           1.647718e+05 [K]
    intra VDW/kʙ                 0.000000e+00 [K]
    intra Coulombic/kʙ           0.000000e+00 [K]
    polarization/kʙ              0.000000e+00 [K]
    dU/dlambda VDW/kʙ            0.000000e+00 [K]
    dU/dlambda Real/kʙ           0.000000e+00 [K]
    dU/dlambda Ewald/kʙ          0.000000e+00 [K]


Initialization: Current cycle: 1200 out of 2000
===============================================================================

Box:      33.94149   0.00000   0.00000
           0.00000  33.94149   0.00000
           0.00000   0.00000  33.94149
Lengths:  33.94149  33.94149  33.94149
Angles:   90.00000  90.00000  90.00000
Rectangular boundary conditions

net charge:   0.00000000

component   0 (CO2) lambda:  0 occupancy:  1 (1.000000)
    net charge:   0.00000000 [e]

Amount of molecules per component :
-------------------------------------------------------------------------------
Component 0 (CO2)
    molecules:         9.000000e+00 molecules
    number density:    2.301706e-04 molec/A^3
    density:           1.681665e+01 kg/m^3

Total potential energy/kʙ       -1.154326e+02 [K]
-------------------------------------------------------------------------------
    external field VDW/kʙ        0.000000e+00 [K]
    external field Real/kʙ       0.000000e+00 [K]
    framework-molecule VDW/kʙ    0.000000e+00 [K]
    framework-molecule Real/kʙ   0.000000e+00 [K]
    molecule-molecule VDW/kʙ    -5.912203e+01 [K]
    molecule-molecule Real/kʙ   -3.122909e+01 [K]
    Van der Waals (Tail)/kʙ     -3.847056e+00 [K]
    Ewald Fourier/kʙ             5.080163e+02 [K]
    Ewald self/kʙ               -1.653010e+05 [K]
    Ewald exclusion/kʙ           1.647718e+05 [K]
    intra VDW/kʙ                 0.000000e+00 [K]
    intra Coulombic/kʙ           0.000000e+00 [K]
    polarization/kʙ              0.000000e+00 [K]
    dU/dlambda VDW/kʙ            0.000000e+00 [K]
    dU/dlambda Real/kʙ           0.000000e+00 [K]
    dU/dlambda Ewald/kʙ          0.000000e+00 [K]


Initialization: Current cycle: 1300 out of 2000
===============================================================================

Box:      33.84475   0.00000   0.00000
           0.00000  33.84475   0.00000
           0.00000   0.00000  33.84475
Lengths:  33.84475  33.84475  33.84475
Angles:   90.00000  90.00000  90.00000
Rectangular boundary conditions

net charge:   0.00000000

component   0 (CO2) lambda:  0 occupancy:  1 (1.000000)
    net charge:   0.00000000 [e]

Amount of molecules per component :
-------------------------------------------------------------------------------
Component 0 (CO2)
    molecules:         6.000000e+00 molecules
    number density:    1.547666e-04 molec/A^3
    density:           1.130752e+01 kg/m^3

Total potential energy/kʙ       -2.324689e+02 [K]
-------------------------------------------------------------------------------
    external field VDW/kʙ        0.000000e+00 [K]
    external field Real/kʙ       0.000000e+00 [K]
    framework-molecule VDW/kʙ    0.000000e+00 [K]
    framework-molecule Real/kʙ   0.000000e+00 [K]
    molecule-molecule VDW/kʙ    -1.360574e+02 [K]
    molecule-molecule Real/kʙ   -7.702390e+01 [K]
    Van der Waals (Tail)/kʙ     -1.724507e+00 [K]
    Ewald Fourier/kʙ             3.351707e+02 [K]
    Ewald self/kʙ               -1.102007e+05 [K]
    Ewald exclusion/kʙ           1.098479e+05 [K]
    intra VDW/kʙ                 0.000000e+00 [K]
    intra Coulombic/kʙ           0.000000e+00 [K]
    polarization/kʙ              0.000000e+00 [K]
    dU/dlambda VDW/kʙ            0.000000e+00 [K]
    dU/dlambda Real/kʙ           0.000000e+00 [K]
    dU/dlambda Ewald/kʙ          0.000000e+00 [K]


Initialization: Current cycle: 1400 out of 2000
===============================================================================

Box:      33.79150   0.00000   0.00000
           0.00000  33.79150   0.00000
           0.00000   0.00000  33.79150
Lengths:  33.79150  33.79150  33.79150
Angles:   90.00000  90.00000  90.00000
Rectangular boundary conditions

net charge:   0.00000000

component   0 (CO2) lambda:  0 occupancy:  1 (1.000000)
    net charge:   0.00000000 [e]

Amount of molecules per component :
-------------------------------------------------------------------------------
Component 0 (CO2)
    molecules:         5.000000e+00 molecules
    number density:    1.295828e-04 molec/A^3
    density:           9.467543e+00 kg/m^3

Total potential energy/kʙ       -4.270271e+02 [K]
-------------------------------------------------------------------------------
    external field VDW/kʙ        0.000000e+00 [K]
    external field Real/kʙ       0.000000e+00 [K]
    framework-molecule VDW/kʙ    0.000000e+00 [K]
    framework-molecule Real/kʙ   0.000000e+00 [K]
    molecule-molecule VDW/kʙ    -2.759957e+02 [K]
    molecule-molecule Real/kʙ   -1.207870e+02 [K]
    Van der Waals (Tail)/kʙ     -1.203244e+00 [K]
    Ewald Fourier/kʙ             2.649871e+02 [K]
    Ewald self/kʙ               -9.183391e+04 [K]
    Ewald exclusion/kʙ           9.153988e+04 [K]
    intra VDW/kʙ                 0.000000e+00 [K]
    intra Coulombic/kʙ           0.000000e+00 [K]
    polarization/kʙ              0.000000e+00 [K]
    dU/dlambda VDW/kʙ            0.000000e+00 [K]
    dU/dlambda Real/kʙ           0.000000e+00 [K]
    dU/dlambda Ewald/kʙ          0.000000e+00 [K]


Initialization: Current cycle: 1500 out of 2000
===============================================================================

Box:      33.81686   0.00000   0.00000
           0.00000  33.81686   0.00000
           0.00000   0.00000  33.81686
Lengths:  33.81686  33.81686  33.81686
Angles:   90.00000  90.00000  90.00000
Rectangular boundary conditions

net charge:   0.00000000

component   0 (CO2) lambda:  0 occupancy:  1 (1.000000)
    net charge:   0.00000000 [e]

Amount of molecules per component :
-------------------------------------------------------------------------------
Component 0 (CO2)
    molecules:         7.000000e+00 molecules
    number density:    1.810082e-04 molec/A^3
    density:           1.322477e+01 kg/m^3

Total potential energy/kʙ       -4.023495e+01 [K]
-------------------------------------------------------------------------------
    external field VDW/kʙ        0.000000e+00 [K]
    external field Real/kʙ       0.000000e+00 [K]
    framework-molecule VDW/kʙ    0.000000e+00 [K]
    framework-molecule Real/kʙ   0.000000e+00 [K]
    molecule-molecule VDW/kʙ    -4.125725e+01 [K]
    molecule-molecule Real/kʙ    1.033258e+00 [K]
    Van der Waals (Tail)/kʙ     -2.353058e+00 [K]
    Ewald Fourier/kʙ             4.139816e+02 [K]
    Ewald self/kʙ               -1.285675e+05 [K]
    Ewald exclusion/kʙ           1.281558e+05 [K]
    intra VDW/kʙ                 0.000000e+00 [K]
    intra Coulombic/kʙ           0.000000e+00 [K]
    polarization/kʙ              0.000000e+00 [K]
    dU/dlambda VDW/kʙ            0.000000e+00 [K]
    dU/dlambda Real/kʙ           0.000000e+00 [K]
    dU/dlambda Ewald/kʙ          0.000000e+00 [K]


Initialization: Current cycle: 1600 out of 2000
===============================================================================

Box:      33.72331   0.00000   0.00000
           0.00000  33.72331   0.00000
           0.00000   0.00000  33.72331
Lengths:  33.72331  33.72331  33.72331
Angles:   90.00000  90.00000  90.00000
Rectangular boundary conditions

net charge:   0.00000000

component   0 (CO2) lambda:  0 occupancy:  1 (1.000000)
    net charge:   0.00000000 [e]

Amount of molecules per component :
-------------------------------------------------------------------------------
Component 0 (CO2)
    molecules:         9.000000e+00 molecules
    number density:    2.346670e-04 molec/A^3
    density:           1.714518e+01 kg/m^3

Total potential energy/kʙ       -1.065136e+03 [K]
-------------------------------------------------------------------------------
    external field VDW/kʙ        0.000000e+00 [K]
    external field Real/kʙ       0.000000e+00 [K]
    framework-molecule VDW/kʙ    0.000000e+00 [K]
    framework-molecule Real/kʙ   0.000000e+00 [K]
    molecule-molecule VDW/kʙ    -8.586028e+02 [K]
    molecule-molecule Real/kʙ   -1.789267e+02 [K]
    Van der Waals (Tail)/kʙ     -3.922210e+00 [K]
    Ewald Fourier/kʙ             5.055663e+02 [K]
    Ewald self/kʙ               -1.653010e+05 [K]
    Ewald exclusion/kʙ           1.647718e+05 [K]
    intra VDW/kʙ                 0.000000e+00 [K]
    intra Coulombic/kʙ           0.000000e+00 [K]
    polarization/kʙ              0.000000e+00 [K]
    dU/dlambda VDW/kʙ            0.000000e+00 [K]
    dU/dlambda Real/kʙ           0.000000e+00 [K]
    dU/dlambda Ewald/kʙ          0.000000e+00 [K]


Initialization: Current cycle: 1700 out of 2000
===============================================================================

Box:      33.71904   0.00000   0.00000
           0.00000  33.71904   0.00000
           0.00000   0.00000  33.71904
Lengths:  33.71904  33.71904  33.71904
Angles:   90.00000  90.00000  90.00000
Rectangular boundary conditions

net charge:   0.00000000

component   0 (CO2) lambda:  0 occupancy:  1 (1.000000)
    net charge:   0.00000000 [e]

Amount of molecules per component :
-------------------------------------------------------------------------------
Component 0 (CO2)
    molecules:         6.000000e+00 molecules
    number density:    1.565041e-04 molec/A^3
    density:           1.143446e+01 kg/m^3

Total potential energy/kʙ       -5.238219e+01 [K]
-------------------------------------------------------------------------------
    external field VDW/kʙ        0.000000e+00 [K]
    external field Real/kʙ       0.000000e+00 [K]
    framework-molecule VDW/kʙ    0.000000e+00 [K]
    framework-molecule Real/kʙ   0.000000e+00 [K]
    molecule-molecule VDW/kʙ    -3.631592e+01 [K]
    molecule-molecule Real/kʙ   -1.224612e+01 [K]
    Van der Waals (Tail)/kʙ     -1.743866e+00 [K]
    Ewald Fourier/kʙ             3.507576e+02 [K]
    Ewald self/kʙ               -1.102007e+05 [K]
    Ewald exclusion/kʙ           1.098479e+05 [K]
    intra VDW/kʙ                 0.000000e+00 [K]
    intra Coulombic/kʙ           0.000000e+00 [K]
    polarization/kʙ              0.000000e+00 [K]
    dU/dlambda VDW/kʙ            0.000000e+00 [K]
    dU/dlambda Real/kʙ           0.000000e+00 [K]
    dU/dlambda Ewald/kʙ          0.000000e+00 [K]


Initialization: Current cycle: 1800 out of 2000
===============================================================================

Box:      33.82132   0.00000   0.00000
           0.00000  33.82132   0.00000
           0.00000   0.00000  33.82132
Lengths:  33.82132  33.82132  33.82132
Angles:   90.00000  90.00000  90.00000
Rectangular boundary conditions

net charge:   0.00000000

component   0 (CO2) lambda:  0 occupancy:  1 (1.000000)
    net charge:   0.00000000 [e]

Amount of molecules per component :
-------------------------------------------------------------------------------
Component 0 (CO2)
    molecules:         9.000000e+00 molecules
    number density:    2.326328e-04 molec/A^3
    density:           1.699655e+01 kg/m^3

Total potential energy/kʙ       -4.781300e+02 [K]
-------------------------------------------------------------------------------
    external field VDW/kʙ        0.000000e+00 [K]
    external field Real/kʙ       0.000000e+00 [K]
    framework-molecule VDW/kʙ    0.000000e+00 [K]
    framework-molecule Real/kʙ   0.000000e+00 [K]
    molecule-molecule VDW/kʙ    -4.927738e+02 [K]
    molecule-molecule Real/kʙ    8.888983e+00 [K]
    Van der Waals (Tail)/kʙ     -3.888210e+00 [K]
    Ewald Fourier/kʙ             5.388937e+02 [K]
    Ewald self/kʙ               -1.653010e+05 [K]
    Ewald exclusion/kʙ           1.647718e+05 [K]
    intra VDW/kʙ                 0.000000e+00 [K]
    intra Coulombic/kʙ           0.000000e+00 [K]
    polarization/kʙ              0.000000e+00 [K]
    dU/dlambda VDW/kʙ            0.000000e+00 [K]
    dU/dlambda Real/kʙ           0.000000e+00 [K]
    dU/dlambda Ewald/kʙ          0.000000e+00 [K]


Initialization: Current cycle: 1900 out of 2000
===============================================================================

Box:      33.90153   0.00000   0.00000
           0.00000  33.90153   0.00000
           0.00000   0.00000  33.90153
Lengths:  33.90153  33.90153  33.90153
Angles:   90.00000  90.00000  90.00000
Rectangular boundary conditions

net charge:   0.00000000

component   0 (CO2) lambda:  0 occupancy:  1 (1.000000)
    net charge:   0.00000000 [e]

Amount of molecules per component :
-------------------------------------------------------------------------------
Component 0 (CO2)
    molecules:         8.000000e+00 molecules
    number density:    2.053203e-04 molec/A^3
    density:           1.500105e+01 kg/m^3

Total potential energy/kʙ       -5.146747e+01 [K]
-------------------------------------------------------------------------------
    external field VDW/kʙ        0.000000e+00 [K]
    external field Real/kʙ       0.000000e+00 [K]
    framework-molecule VDW/kʙ    0.000000e+00 [K]
    framework-molecule Real/kʙ   0.000000e+00 [K]
    molecule-molecule VDW/kʙ    -2.758705e+01 [K]
    molecule-molecule Real/kʙ   -5.691814e+00 [K]
    Van der Waals (Tail)/kʙ     -3.050410e+00 [K]
    Ewald Fourier/kʙ             4.553069e+02 [K]
    Ewald self/kʙ               -1.469343e+05 [K]
    Ewald exclusion/kʙ           1.464638e+05 [K]
    intra VDW/kʙ                 0.000000e+00 [K]
    intra Coulombic/kʙ           0.000000e+00 [K]
    polarization/kʙ              0.000000e+00 [K]
    dU/dlambda VDW/kʙ            0.000000e+00 [K]
    dU/dlambda Real/kʙ           0.000000e+00 [K]
    dU/dlambda Ewald/kʙ          0.000000e+00 [K]


Current cycle: 0 out of 6000
===============================================================================

Box:      33.89525   0.00000   0.00000  Average:  33.89525   0.00000   0.00000
           0.00000  33.89525   0.00000             0.00000  33.89525   0.00000
           0.00000   0.00000  33.89525             0.00000   0.00000  33.89525
Lengths:  33.89525  33.89525  33.89525  Average:  33.89525  33.89525  33.89525
Angles:   90.00000  90.00000  90.00000  Average:  90.00000  90.00000  90.00000
Rectangular boundary conditions

net charge:   0.00000000

component 0 (CO2) lambda:  0 occupancy:  1 (1.000000)
    net charge:   0.00000000 [e]

Amount of molecules per component :
-------------------------------------------------------------------------------
Component 0 (CO2)
    molecules:      1.000000e+01 molecules  (1.000000e+01 +/- 0.000000e+00)
    number density: 2.567933e-04 molec./A^3 (2.567933e-04 +/- 0.000000e+00)
    density:        1.876175e+01 kg/m^3     (1.876175e+01 +/- 0.000000e+00)

Average pressure tensor: 
-------------------------------------------------------------------------------
 7.7999e+00  0.0000e+00  0.0000e+00 +/- 0.0000e+00 0.0000e+00 0.0000e+00 [bar]
 0.0000e+00  7.7999e+00  0.0000e+00 +/- 0.0000e+00 0.0000e+00 0.0000e+00 [bar]
 0.0000e+00  0.0000e+00  7.7999e+00 +/- 0.0000e+00 0.0000e+00 0.0000e+00 [bar]
Ideal-gas pressure:   7.799917e+00 +/ 0.000000e+00 [bar]
Excess pressure:      0.000000e+00 +/ 0.000000e+00 [bar]
Pressure:             7.799917e+00 +/ 0.000000e+00 [bar]

Total potential energy/kʙ  -4.895972e+02 (-4.895972e+02 +/- 0.000000e+00) [K]
-------------------------------------------------------------------------------
ExternalField-molecule
    Van der Waals/kʙ        0.000000e+00 ( 0.000000e+00 +/- 0.000000e+00) [K]
Framework-molecule
    Van der Waals/kʙ        0.000000e+00 ( 0.000000e+00 +/- 0.000000e+00) [K]
    Van der Waals (Tail)/kʙ 0.000000e+00 ( 0.000000e+00 +/- 0.000000e+00) [K]
    Coulombic Real/kʙ       0.000000e+00 ( 0.000000e+00 +/- 0.000000e+00) [K]
    Coulombic Fourier/kʙ    0.000000e+00 ( 0.000000e+00 +/- 0.000000e+00) [K]
Molecule-molecule
    Van der Waals/kʙ       -2.763703e+02 (-2.763703e+02 +/- 0.000000e+00) [K]
    Van der Waals (Tail)/kʙ-4.768918e+00 (-4.768918e+00 +/- 0.000000e+00) [K]
    Coulombic Real/kʙ      -1.781543e+02 (-1.781543e+02 +/- 0.000000e+00) [K]
    Coulombic Fourier/kʙ   -3.030374e+01 (-3.030374e+01 +/- 0.000000e+00) [K]
    Molecule Intra/kʙ       0.000000e+00 ( 0.000000e+00 +/- 0.000000e+00) [K]

Current cycle: 100 out of 6000
===============================================================================

Box:      33.85795   0.00000   0.00000  Average:  33.89713   0.00000   0.00000
           0.00000  33.85795   0.00000             0.00000  33.89713   0.00000
           0.00000   0.00000  33.85795             0.00000   0.00000  33.89713
Lengths:  33.85795  33.85795  33.85795  Average:  33.89713  33.89713  33.89713
Angles:   90.00000  90.00000  90.00000  Average:  90.00000  90.00000  90.00000
Rectangular boundary conditions

net charge:   0.00000000

component 0 (CO2) lambda:  0 occupancy:  1 (1.000000)
    net charge:   0.00000000 [e]

Amount of molecules per component :
-------------------------------------------------------------------------------
Component 0 (CO2)
    molecules:      9.000000e+00 molecules  (8.950495e+00 +/- 0.000000e+00)
    number density: 2.318784e-04 molec./A^3 (2.298121e-04 +/- 0.000000e+00)
    density:        1.694144e+01 kg/m^3     (1.679046e+01 +/- 0.000000e+00)

Average pressure tensor: 
-------------------------------------------------------------------------------
 6.0794e+00  3.8376e-02 -2.9491e-01 +/- 0.0000e+00 0.0000e+00 0.0000e+00 [bar]
 3.8376e-02  1.2457e+01 -2.2601e+00 +/- 0.0000e+00 0.0000e+00 0.0000e+00 [bar]
-2.9491e-01 -2.2601e+00  6.0129e+00 +/- 0.0000e+00 0.0000e+00 0.0000e+00 [bar]
Ideal-gas pressure:   6.980383e+00 +/ 0.000000e+00 [bar]
Excess pressure:      1.202550e+00 +/ 0.000000e+00 [bar]
Pressure:             8.182933e+00 +/ 0.000000e+00 [bar]

Total potential energy/kʙ  -5.273525e+01 (-3.530404e+02 +/- 0.000000e+00) [K]
-------------------------------------------------------------------------------
ExternalField-molecule
    Van der Waals/kʙ        0.000000e+00 ( 0.000000e+00 +/- 0.000000e+00) [K]
Framework-molecule
    Van der Waals/kʙ        0.000000e+00 ( 0.000000e+00 +/- 0.000000e+00) [K]
    Van der Waals (Tail)/kʙ 0.000000e+00 ( 0.000000e+00 +/- 0.000000e+00) [K]
    Coulombic Real/kʙ       0.000000e+00 ( 0.000000e+00 +/- 0.000000e+00) [K]
    Coulombic Fourier/kʙ    0.000000e+00 ( 0.000000e+00 +/- 0.000000e+00) [K]
Molecule-molecule
    Van der Waals/kʙ       -2.600110e+01 (-1.704114e+02 +/- 0.000000e+00) [K]
    Van der Waals (Tail)/kʙ-3.875601e+00 (-3.772135e+00 +/- 0.000000e+00) [K]
    Coulombic Real/kʙ       4.584074e+00 (-1.644184e+02 +/- 0.000000e+00) [K]
    Coulombic Fourier/kʙ   -2.744262e+01 (-1.443855e+01 +/- 0.000000e+00) [K]
    Molecule Intra/kʙ       0.000000e+00 ( 0.000000e+00 +/- 0.000000e+00) [K]

Current cycle: 200 out of 6000
===============================================================================

Box:      33.84124   0.00000   0.00000  Average:  33.86700   0.00000   0.00000
           0.00000  33.84124   0.00000             0.00000  33.86700   0.00000
           0.00000   0.00000  33.84124             0.00000   0.00000  33.86700
Lengths:  33.84124  33.84124  33.84124  Average:  33.86700  33.86700  33.86700
Angles:   90.00000  90.00000  90.00000  Average:  90.00000  90.00000  90.00000
Rectangular boundary conditions

net charge:   0.00000000

component 0 (CO2) lambda:  0 occupancy:  1 (1.000000)
    net charge:   0.00000000 [e]

Amount of molecules per component :
-------------------------------------------------------------------------------
Component 0 (CO2)
    molecules:      9.000000e+00 molecules  (8.447761e+00 +/- 0.000000e+00)
    number density: 2.322221e-04 molec./A^3 (2.174587e-04 +/- 0.000000e+00)
    density:        1.696655e+01 kg/m^3     (1.588791e+01 +/- 0.000000e+00)

Average pressure tensor: 
-------------------------------------------------------------------------------
 5.8785e+00  1.0046e-01  2.1252e-02 +/- 0.0000e+00 0.0000e+00 0.0000e+00 [bar]
 1.0046e-01  9.1144e+00 -1.4142e+00 +/- 0.0000e+00 0.0000e+00 0.0000e+00 [bar]
 2.1252e-02 -1.4142e+00  6.5242e+00 +/- 0.0000e+00 0.0000e+00 0.0000e+00 [bar]
Ideal-gas pressure:   6.605158e+00 +/ 0.000000e+00 [bar]
Excess pressure:      5.672200e-01 +/ 0.000000e+00 [bar]
Pressure:             7.172378e+00 +/ 0.000000e+00 [bar]

Total potential energy/kʙ  -5.257674e+02 (-3.091477e+02 +/- 0.000000e+00) [K]
-------------------------------------------------------------------------------
ExternalField-molecule
    Van der Waals/kʙ        0.000000e+00 ( 0.000000e+00 +/- 0.000000e+00) [K]
Framework-molecule
    Van der Waals/kʙ        0.000000e+00 ( 0.000000e+00 +/- 0.000000e+00) [K]
    Van der Waals (Tail)/kʙ 0.000000e+00 ( 0.000000e+00 +/- 0.000000e+00) [K]
    Coulombic Real/kʙ       0.000000e+00 ( 0.000000e+00 +/- 0.000000e+00) [K]
    Coulombic Fourier/kʙ    0.000000e+00 ( 0.000000e+00 +/- 0.000000e+00) [K]
Molecule-molecule
    Van der Waals/kʙ       -3.918073e+02 (-1.729075e+02 +/- 0.000000e+00) [K]
    Van der Waals (Tail)/kʙ-3.881346e+00 (-3.454317e+00 +/- 0.000000e+00) [K]
    Coulombic Real/kʙ      -7.327771e+01 (-1.203291e+02 +/- 0.000000e+00) [K]
    Coulombic Fourier/kʙ   -5.680103e+01 (-1.245681e+01 +/- 0.000000e+00) [K]
    Molecule Intra/kʙ       0.000000e+00 ( 0.000000e+00 +/- 0.000000e+00) [K]

Current cycle: 300 out of 6000
===============================================================================

Box:      33.91463   0.00000   0.00000  Average:  33.86067   0.00000   0.00000
           0.00000  33.91463   0.00000             0.00000  33.86067   0.00000
           0.00000   0.00000  33.91463             0.00000   0.00000  33.86067
Lengths:  33.91463  33.91463  33.91463  Average:  33.86067  33.86067  33.86067
Angles:   90.00000  90.00000  90.00000  Average:  90.00000  90.00000  90.00000
Rectangular boundary conditions

net charge:   0.00000000

component 0 (CO2) lambda:  0 occupancy:  1 (1.000000)
    net charge:   0.00000000 [e]

Amount of molecules per component :
-------------------------------------------------------------------------------
Component 0 (CO2)
    molecules:      6.000000e+00 molecules  (8.132890e+00 +/- 0.000000e+00)
    number density: 1.538119e-04 molec./A^3 (2.094589e-04 +/- 0.000000e+00)
    density:        1.123776e+01 kg/m^3     (1.530342e+01 +/- 0.000000e+00)

Average pressure tensor: 
-------------------------------------------------------------------------------
 5.4652e+00 -5.5974e-02 -4.6671e-02 +/- 0.0000e+00 0.0000e+00 0.0000e+00 [bar]
-5.5974e-02  7.7368e+00 -8.7667e-01 +/- 0.0000e+00 0.0000e+00 0.0000e+00 [bar]
-4.6671e-02 -8.7667e-01  5.9312e+00 +/- 0.0000e+00 0.0000e+00 0.0000e+00 [bar]
Ideal-gas pressure:   6.362168e+00 +/ 0.000000e+00 [bar]
Excess pressure:      1.557747e-02 +/ 0.000000e+00 [bar]
Pressure:             6.377745e+00 +/ 0.000000e+00 [bar]

Total potential energy/kʙ  -5.123600e+00 (-2.818739e+02 +/- 0.000000e+00) [K]
-------------------------------------------------------------------------------
ExternalField-molecule
    Van der Waals/kʙ        0.000000e+00 ( 0.000000e+00 +/- 0.000000e+00) [K]
Framework-molecule
    Van der Waals/kʙ        0.000000e+00 ( 0.000000e+00 +/- 0.000000e+00) [K]
    Van der Waals (Tail)/kʙ 0.000000e+00 ( 0.000000e+00 +/- 0.000000e+00) [K]
    Coulombic Real/kʙ       0.000000e+00 ( 0.000000e+00 +/- 0.000000e+00) [K]
    Coulombic Fourier/kʙ    0.000000e+00 ( 0.000000e+00 +/- 0.000000e+00) [K]
Molecule-molecule
    Van der Waals/kʙ       -9.893388e-02 (-1.760191e+02 +/- 0.000000e+00) [K]
    Van der Waals (Tail)/kʙ-1.713868e+00 (-3.221788e+00 +/- 0.000000e+00) [K]
    Coulombic Real/kʙ       2.007854e-02 (-9.133135e+01 +/- 0.000000e+00) [K]
    Coulombic Fourier/kʙ   -3.330877e+00 (-1.130165e+01 +/- 0.000000e+00) [K]
    Molecule Intra/kʙ       0.000000e+00 ( 0.000000e+00 +/- 0.000000e+00) [K]

Current cycle: 400 out of 6000
===============================================================================

Box:      33.79373   0.00000   0.00000  Average:  33.86284   0.00000   0.00000
           0.00000  33.79373   0.00000             0.00000  33.86284   0.00000
           0.00000   0.00000  33.79373             0.00000   0.00000  33.86284
Lengths:  33.79373  33.79373  33.79373  Average:  33.86284  33.86284  33.86284
Angles:   90.00000  90.00000  90.00000  Average:  90.00000  90.00000  90.00000
Rectangular boundary conditions

net charge:   0.00000000

component 0 (CO2) lambda:  0 occupancy:  1 (1.000000)
    net charge:   0.00000000 [e]

Amount of molecules per component :
-------------------------------------------------------------------------------
Component 0 (CO2)
    molecules:      9.000000e+00 molecules  (8.309227e+00 +/- 0.000000e+00)
    number density: 2.332030e-04 molec./A^3 (2.139550e-04 +/- 0.000000e+00)
    density:        1.703821e+01 kg/m^3     (1.563192e+01 +/- 0.000000e+00)

Average pressure tensor: 
-------------------------------------------------------------------------------
 6.2940e+00 -2.2035e-01 -1.8017e-01 +/- 0.0000e+00 0.0000e+00 0.0000e+00 [bar]
-2.2035e-01  7.1817e+00 -6.0256e-01 +/- 0.0000e+00 0.0000e+00 0.0000e+00 [bar]
-1.8017e-01 -6.0256e-01  5.9959e+00 +/- 0.0000e+00 0.0000e+00 0.0000e+00 [bar]
Ideal-gas pressure:   6.498734e+00 +/ 0.000000e+00 [bar]
Excess pressure:     -8.187800e-03 +/ 0.000000e+00 [bar]
Pressure:             6.490546e+00 +/ 0.000000e+00 [bar]

Total potential energy/kʙ  -2.405201e+01 (-3.015894e+02 +/- 0.000000e+00) [K]
-------------------------------------------------------------------------------
ExternalField-molecule
    Van der Waals/kʙ        0.000000e+00 ( 0.000000e+00 +/- 0.000000e+00) [K]
Framework-molecule
    Van der Waals/kʙ        0.000000e+00 ( 0.000000e+00 +/- 0.000000e+00) [K]
    Van der Waals (Tail)/kʙ 0.000000e+00 ( 0.000000e+00 +/- 0.000000e+00) [K]
    Coulombic Real/kʙ       0.000000e+00 ( 0.000000e+00 +/- 0.000000e+00) [K]
    Coulombic Fourier/kʙ    0.000000e+00 ( 0.000000e+00 +/- 0.000000e+00) [K]
Molecule-molecule
    Van der Waals/kʙ       -4.668283e+01 (-2.040354e+02 +/- 0.000000e+00) [K]
    Van der Waals (Tail)/kʙ-3.897739e+00 (-3.409054e+00 +/- 0.000000e+00) [K]
    Coulombic Real/kʙ       1.303854e+01 (-8.521321e+01 +/- 0.000000e+00) [K]
    Coulombic Fourier/kʙ    1.349001e+01 (-8.931754e+00 +/- 0.000000e+00) [K]
    Molecule Intra/kʙ       0.000000e+00 ( 0.000000e+00 +/- 0.000000e+00) [K]

Current cycle: 500 out of 6000
===============================================================================

Box:      33.78703   0.00000   0.00000  Average:  33.86202   0.00000   0.00000
           0.00000  33.78703   0.00000             0.00000  33.86202   0.00000
           0.00000   0.00000  33.78703             0.00000   0.00000  33.86202
Lengths:  33.78703  33.78703  33.78703  Average:  33.86202  33.86202  33.86202
Angles:   90.00000  90.00000  90.00000  Average:  90.00000  90.00000  90.00000
Rectangular boundary conditions

net charge:   0.00000000

component 0 (CO2) lambda:  0 occupancy:  1 (1.000000)
    net charge:   0.00000000 [e]

Amount of molecules per component :
-------------------------------------------------------------------------------
Component 0 (CO2)
    molecules:      1.000000e+01 molecules  (8.826347e+00 +/- 0.000000e+00)
    number density: 2.592686e-04 molec./A^3 (2.272964e-04 +/- 0.000000e+00)
    density:        1.894261e+01 kg/m^3     (1.660666e+01 +/- 0.000000e+00)

Average pressure tensor: 
-------------------------------------------------------------------------------
 6.4276e+00 -1.6051e-01 -3.5299e-02 +/- 0.0000e+00 0.0000e+00 0.0000e+00 [bar]
-1.6051e-01  7.2392e+00 -4.6726e-01 +/- 0.0000e+00 0.0000e+00 0.0000e+00 [bar]
-3.5299e-02 -4.6726e-01  6.2683e+00 +/- 0.0000e+00 0.0000e+00 0.0000e+00 [bar]
Ideal-gas pressure:   6.903971e+00 +/ 0.000000e+00 [bar]
Excess pressure:     -2.589513e-01 +/ 0.000000e+00 [bar]
Pressure:             6.645019e+00 +/ 0.000000e+00 [bar]

Total potential energy/kʙ  -8.108606e+02 (-3.397070e+02 +/- 0.000000e+00) [K]
-------------------------------------------------------------------------------
ExternalField-molecule
    Van der Waals/kʙ        0.000000e+00 ( 0.000000e+00 +/- 0.000000e+00) [K]
Framework-molecule
    Van der Waals/kʙ        0.000000e+00 ( 0.000000e+00 +/- 0.000000e+00) [K]
    Van der Waals (Tail)/kʙ 0.000000e+00 ( 0.000000e+00 +/- 0.000000e+00) [K]
    Coulombic Real/kʙ       0.000000e+00 ( 0.000000e+00 +/- 0.000000e+00) [K]
    Coulombic Fourier/kʙ    0.000000e+00 ( 0.000000e+00 +/- 0.000000e+00) [K]
Molecule-molecule
    Van der Waals/kʙ       -5.940984e+02 (-2.381324e+02 +/- 0.000000e+00) [K]
    Van der Waals (Tail)/kʙ-4.814888e+00 (-3.832873e+00 +/- 0.000000e+00) [K]
    Coulombic Real/kʙ      -2.453474e+02 (-9.207309e+01 +/- 0.000000e+00) [K]
    Coulombic Fourier/kʙ    3.340009e+01 (-5.668557e+00 +/- 0.000000e+00) [K]
    Molecule Intra/kʙ       0.000000e+00 ( 0.000000e+00 +/- 0.000000e+00) [K]

Current cycle: 600 out of 6000
===============================================================================

Box:      33.78684   0.00000   0.00000  Average:  33.85346   0.00000   0.00000
           0.00000  33.78684   0.00000             0.00000  33.85346   0.00000
           0.00000   0.00000  33.78684             0.00000   0.00000  33.85346
Lengths:  33.78684  33.78684  33.78684  Average:  33.85346  33.85346  33.85346
Angles:   90.00000  90.00000  90.00000  Average:  90.00000  90.00000  90.00000
Rectangular boundary conditions

net charge:   0.00000000

component 0 (CO2) lambda:  0 occupancy:  1 (1.000000)
    net charge:   0.00000000 [e]

Amount of molecules per component :
-------------------------------------------------------------------------------
Component 0 (CO2)
    molecules:      6.000000e+00 molecules  (8.735441e+00 +/- 0.000000e+00)
    number density: 1.555638e-04 molec./A^3 (2.251133e-04 +/- 0.000000e+00)
    density:        1.136576e+01 kg/m^3     (1.644716e+01 +/- 0.000000e+00)

Average pressure tensor: 
-------------------------------------------------------------------------------
 6.4376e+00 -1.4848e-01 -4.4147e-02 +/- 0.0000e+00 0.0000e+00 0.0000e+00 [bar]
-1.4848e-01  7.0172e+00 -3.3615e-01 +/- 0.0000e+00 0.0000e+00 0.0000e+00 [bar]
-4.4147e-02 -3.3615e-01  6.2988e+00 +/- 0.0000e+00 0.0000e+00 0.0000e+00 [bar]
Ideal-gas pressure:   6.837659e+00 +/ 0.000000e+00 [bar]
Excess pressure:     -2.530952e-01 +/ 0.000000e+00 [bar]
Pressure:             6.584564e+00 +/ 0.000000e+00 [bar]

Total potential energy/kʙ  -6.154540e+02 (-3.167356e+02 +/- 0.000000e+00) [K]
-------------------------------------------------------------------------------
ExternalField-molecule
    Van der Waals/kʙ        0.000000e+00 ( 0.000000e+00 +/- 0.000000e+00) [K]
Framework-molecule
    Van der Waals/kʙ        0.000000e+00 ( 0.000000e+00 +/- 0.000000e+00) [K]
    Van der Waals (Tail)/kʙ 0.000000e+00 ( 0.000000e+00 +/- 0.000000e+00) [K]
    Coulombic Real/kʙ       0.000000e+00 ( 0.000000e+00 +/- 0.000000e+00) [K]
    Coulombic Fourier/kʙ    0.000000e+00 ( 0.000000e+00 +/- 0.000000e+00) [K]
Molecule-molecule
    Van der Waals/kʙ       -2.157038e+02 (-2.208429e+02 +/- 0.000000e+00) [K]
    Van der Waals (Tail)/kʙ-1.733389e+00 (-3.753196e+00 +/- 0.000000e+00) [K]
    Coulombic Real/kʙ      -3.907483e+02 (-8.649167e+01 +/- 0.000000e+00) [K]
    Coulombic Fourier/kʙ   -7.268443e+00 (-5.647903e+00 +/- 0.000000e+00) [K]
    Molecule Intra/kʙ       0.000000e+00 ( 0.000000e+00 +/- 0.000000e+00) [K]

Current cycle: 700 out of 6000
===============================================================================

Box:      33.73328   0.00000   0.00000  Average:  33.83350   0.00000   0.00000
           0.00000  33.73328   0.00000             0.00000  33.83350   0.00000
           0.00000   0.00000  33.73328             0.00000   0.00000  33.83350
Lengths:  33.73328  33.73328  33.73328  Average:  33.83350  33.83350  33.83350
Angles:   90.00000  90.00000  90.00000  Average:  90.00000  90.00000  90.00000
Rectangular boundary conditions

net charge:   0.00000000

component 0 (CO2) lambda:  0 occupancy:  1 (1.000000)
    net charge:   0.00000000 [e]

Amount of molecules per component :
-------------------------------------------------------------------------------
Component 0 (CO2)
    molecules:      8.000000e+00 molecules  (8.510699e+00 +/- 0.000000e+00)
    number density: 2.084080e-04 molec./A^3 (2.196631e-04 +/- 0.000000e+00)
    density:        1.522664e+01 kg/m^3     (1.604896e+01 +/- 0.000000e+00)

Average pressure tensor: 
-------------------------------------------------------------------------------
 6.5248e+00 -1.9693e-01  7.6103e-02 +/- 0.0000e+00 0.0000e+00 0.0000e+00 [bar]
-1.9693e-01  6.7211e+00 -3.3131e-01 +/- 0.0000e+00 0.0000e+00 0.0000e+00 [bar]
 7.6103e-02 -3.3131e-01  6.0833e+00 +/- 0.0000e+00 0.0000e+00 0.0000e+00 [bar]
Ideal-gas pressure:   6.672114e+00 +/ 0.000000e+00 [bar]
Excess pressure:     -2.290400e-01 +/ 0.000000e+00 [bar]
Pressure:             6.443074e+00 +/ 0.000000e+00 [bar]

Total potential energy/kʙ  -5.439928e+01 (-3.013286e+02 +/- 0.000000e+00) [K]
-------------------------------------------------------------------------------
ExternalField-molecule
    Van der Waals/kʙ        0.000000e+00 ( 0.000000e+00 +/- 0.000000e+00) [K]
Framework-molecule
    Van der Waals/kʙ        0.000000e+00 ( 0.000000e+00 +/- 0.000000e+00) [K]
    Van der Waals (Tail)/kʙ 0.000000e+00 ( 0.000000e+00 +/- 0.000000e+00) [K]
    Coulombic Real/kʙ       0.000000e+00 ( 0.000000e+00 +/- 0.000000e+00) [K]
    Coulombic Fourier/kʙ    0.000000e+00 ( 0.000000e+00 +/- 0.000000e+00) [K]
Molecule-molecule
    Van der Waals/kʙ       -2.481162e+01 (-2.122163e+02 +/- 0.000000e+00) [K]
    Van der Waals (Tail)/kʙ-3.096282e+00 (-3.613950e+00 +/- 0.000000e+00) [K]
    Coulombic Real/kʙ      -1.059529e+01 (-8.096232e+01 +/- 0.000000e+00) [K]
    Coulombic Fourier/kʙ   -1.589610e+01 (-4.536004e+00 +/- 0.000000e+00) [K]
    Molecule Intra/kʙ       0.000000e+00 ( 0.000000e+00 +/- 0.000000e+00) [K]

Current cycle: 800 out of 6000
===============================================================================

Box:      33.82689   0.00000   0.00000  Average:  33.82661   0.00000   0.00000
           0.00000  33.82689   0.00000             0.00000  33.82661   0.00000
           0.00000   0.00000  33.82689             0.00000   0.00000  33.82661
Lengths:  33.82689  33.82689  33.82689  Average:  33.82661  33.82661  33.82661
Angles:   90.00000  90.00000  90.00000  Average:  90.00000  90.00000  90.00000
Rectangular boundary conditions

net charge:   0.00000000

component 0 (CO2) lambda:  0 occupancy:  1 (1.000000)
    net charge:   0.00000000 [e]

Amount of molecules per component :
-------------------------------------------------------------------------------
Component 0 (CO2)
    molecules:      7.000000e+00 molecules  (8.408240e+00 +/- 0.000000e+00)
    number density: 1.808471e-04 molec./A^3 (2.171497e-04 +/- 0.000000e+00)
    density:        1.321300e+01 kg/m^3     (1.586533e+01 +/- 0.000000e+00)

Average pressure tensor: 
-------------------------------------------------------------------------------
 6.3856e+00 -1.6167e-01  5.5375e-02 +/- 0.0000e+00 0.0000e+00 0.0000e+00 [bar]
-1.6167e-01  6.5680e+00 -2.4330e-01 +/- 0.0000e+00 0.0000e+00 0.0000e+00 [bar]
 5.5375e-02 -2.4330e-01  5.9340e+00 +/- 0.0000e+00 0.0000e+00 0.0000e+00 [bar]
Ideal-gas pressure:   6.595772e+00 +/ 0.000000e+00 [bar]
Excess pressure:     -2.998891e-01 +/ 0.000000e+00 [bar]
Pressure:             6.295883e+00 +/ 0.000000e+00 [bar]

Total potential energy/kʙ  -5.714761e+02 (-2.994036e+02 +/- 0.000000e+00) [K]
-------------------------------------------------------------------------------
ExternalField-molecule
    Van der Waals/kʙ        0.000000e+00 ( 0.000000e+00 +/- 0.000000e+00) [K]
Framework-molecule
    Van der Waals/kʙ        0.000000e+00 ( 0.000000e+00 +/- 0.000000e+00) [K]
    Van der Waals (Tail)/kʙ 0.000000e+00 ( 0.000000e+00 +/- 0.000000e+00) [K]
    Coulombic Real/kʙ       0.000000e+00 ( 0.000000e+00 +/- 0.000000e+00) [K]
    Coulombic Fourier/kʙ    0.000000e+00 ( 0.000000e+00 +/- 0.000000e+00) [K]
Molecule-molecule
    Van der Waals/kʙ       -2.336263e+02 (-2.096194e+02 +/- 0.000000e+00) [K]
    Van der Waals (Tail)/kʙ-2.350964e+00 (-3.583420e+00 +/- 0.000000e+00) [K]
    Coulombic Real/kʙ      -3.059691e+02 (-8.027876e+01 +/- 0.000000e+00) [K]
    Coulombic Fourier/kʙ   -2.952984e+01 (-5.922067e+00 +/- 0.000000e+00) [K]
    Molecule Intra/kʙ       0.000000e+00 ( 0.000000e+00 +/- 0.000000e+00) [K]

Current cycle: 900 out of 6000
===============================================================================

Box:      33.85105   0.00000   0.00000  Average:  33.82773   0.00000   0.00000
           0.00000  33.85105   0.00000             0.00000  33.82773   0.00000
           0.00000   0.00000  33.85105             0.00000   0.00000  33.82773
Lengths:  33.85105  33.85105  33.85105  Average:  33.82773  33.82773  33.82773
Angles:   90.00000  90.00000  90.00000  Average:  90.00000  90.00000  90.00000
Rectangular boundary conditions

net charge:   0.00000000

component 0 (CO2) lambda:  0 occupancy:  1 (1.000000)
    net charge:   0.00000000 [e]

Amount of molecules per component :
-------------------------------------------------------------------------------
Component 0 (CO2)
    molecules:      8.000000e+00 molecules  (8.403996e+00 +/- 0.000000e+00)
    number density: 2.062402e-04 molec./A^3 (2.170218e-04 +/- 0.000000e+00)
    density:        1.506826e+01 kg/m^3     (1.585599e+01 +/- 0.000000e+00)

Average pressure tensor: 
-------------------------------------------------------------------------------
 6.5490e+00 -9.6135e-02  2.1478e-01 +/- 0.0000e+00 0.0000e+00 0.0000e+00 [bar]
-9.6135e-02  6.5054e+00 -1.7671e-01 +/- 0.0000e+00 0.0000e+00 0.0000e+00 [bar]
 2.1478e-01 -1.7671e-01  6.0606e+00 +/- 0.0000e+00 0.0000e+00 0.0000e+00 [bar]
Ideal-gas pressure:   6.591888e+00 +/ 0.000000e+00 [bar]
Excess pressure:     -2.202123e-01 +/ 0.000000e+00 [bar]
Pressure:             6.371676e+00 +/ 0.000000e+00 [bar]

Total potential energy/kʙ  -3.123940e+01 (-2.849385e+02 +/- 0.000000e+00) [K]
-------------------------------------------------------------------------------
ExternalField-molecule
    Van der Waals/kʙ        0.000000e+00 ( 0.000000e+00 +/- 0.000000e+00) [K]
Framework-molecule
    Van der Waals/kʙ        0.000000e+00 ( 0.000000e+00 +/- 0.000000e+00) [K]
    Van der Waals (Tail)/kʙ 0.000000e+00 ( 0.000000e+00 +/- 0.000000e+00) [K]
    Coulombic Real/kʙ       0.000000e+00 ( 0.000000e+00 +/- 0.000000e+00) [K]
    Coulombic Fourier/kʙ    0.000000e+00 ( 0.000000e+00 +/- 0.000000e+00) [K]
Molecule-molecule
    Van der Waals/kʙ       -2.913789e+01 (-1.991170e+02 +/- 0.000000e+00) [K]
    Van der Waals (Tail)/kʙ-3.064076e+00 (-3.557119e+00 +/- 0.000000e+00) [K]
    Coulombic Real/kʙ       2.081691e+00 (-7.652999e+01 +/- 0.000000e+00) [K]
    Coulombic Fourier/kʙ   -1.119121e+00 (-5.734314e+00 +/- 0.000000e+00) [K]
    Molecule Intra/kʙ       0.000000e+00 ( 0.000000e+00 +/- 0.000000e+00) [K]

Current cycle: 1000 out of 6000
===============================================================================

Box:      33.85737   0.00000   0.00000  Average:  33.82948   0.00000   0.00000
           0.00000  33.85737   0.00000             0.00000  33.82948   0.00000
           0.00000   0.00000  33.85737             0.00000   0.00000  33.82948
Lengths:  33.85737  33.85737  33.85737  Average:  33.82948  33.82948  33.82948
Angles:   90.00000  90.00000  90.00000  Average:  90.00000  90.00000  90.00000
Rectangular boundary conditions

net charge:   0.00000000

component 0 (CO2) lambda:  0 occupancy:  1 (1.000000)
    net charge:   0.00000000 [e]

Amount of molecules per component :
-------------------------------------------------------------------------------
Component 0 (CO2)
    molecules:      8.000000e+00 molecules  (8.395604e+00 +/- 0.000000e+00)
    number density: 2.061248e-04 molec./A^3 (2.167787e-04 +/- 0.000000e+00)
    density:        1.505983e+01 kg/m^3     (1.583822e+01 +/- 0.000000e+00)

Average pressure tensor: 
-------------------------------------------------------------------------------
 6.4967e+00  2.4697e-03  2.1415e-01 +/- 0.0000e+00 0.0000e+00 0.0000e+00 [bar]
 2.4697e-03  6.4614e+00 -1.0674e-01 +/- 0.0000e+00 0.0000e+00 0.0000e+00 [bar]
 2.1415e-01 -1.0674e-01  6.0508e+00 +/- 0.0000e+00 0.0000e+00 0.0000e+00 [bar]
Ideal-gas pressure:   6.584502e+00 +/ 0.000000e+00 [bar]
Excess pressure:     -2.481807e-01 +/ 0.000000e+00 [bar]
Pressure:             6.336321e+00 +/ 0.000000e+00 [bar]

Total potential energy/kʙ  -2.024429e+01 (-2.807203e+02 +/- 0.000000e+00) [K]
-------------------------------------------------------------------------------
ExternalField-molecule
    Van der Waals/kʙ        0.000000e+00 ( 0.000000e+00 +/- 0.000000e+00) [K]
Framework-molecule
    Van der Waals/kʙ        0.000000e+00 ( 0.000000e+00 +/- 0.000000e+00) [K]
    Van der Waals (Tail)/kʙ 0.000000e+00 ( 0.000000e+00 +/- 0.000000e+00) [K]
    Coulombic Real/kʙ       0.000000e+00 ( 0.000000e+00 +/- 0.000000e+00) [K]
    Coulombic Fourier/kʙ    0.000000e+00 ( 0.000000e+00 +/- 0.000000e+00) [K]
Molecule-molecule
    Van der Waals/kʙ       -9.625995e+00 (-1.949852e+02 +/- 0.000000e+00) [K]
    Van der Waals (Tail)/kʙ-3.062361e+00 (-3.554336e+00 +/- 0.000000e+00) [K]
    Coulombic Real/kʙ      -1.074076e+00 (-7.655365e+01 +/- 0.000000e+00) [K]
    Coulombic Fourier/kʙ   -6.481859e+00 (-5.627128e+00 +/- 0.000000e+00) [K]
    Molecule Intra/kʙ       0.000000e+00 ( 0.000000e+00 +/- 0.000000e+00) [K]

Current cycle: 1100 out of 6000
===============================================================================

Box:      33.91576   0.00000   0.00000  Average:  33.83351   0.00000   0.00000
           0.00000  33.91576   0.00000             0.00000  33.83351   0.00000
           0.00000   0.00000  33.91576             0.00000   0.00000  33.83351
Lengths:  33.91576  33.91576  33.91576  Average:  33.83351  33.83351  33.83351
Angles:   90.00000  90.00000  90.00000  Average:  90.00000  90.00000  90.00000
Rectangular boundary conditions

net charge:   0.00000000

component 0 (CO2) lambda:  0 occupancy:  1 (1.000000)
    net charge:   0.00000000 [e]

Amount of molecules per component :
-------------------------------------------------------------------------------
Component 0 (CO2)
    molecules:      1.000000e+01 molecules  (8.415077e+00 +/- 0.000000e+00)
    number density: 2.563276e-04 molec./A^3 (2.172067e-04 +/- 0.000000e+00)
    density:        1.872773e+01 kg/m^3     (1.586949e+01 +/- 0.000000e+00)

Average pressure tensor: 
-------------------------------------------------------------------------------
 6.4308e+00  3.2008e-02  2.0757e-01 +/- 0.0000e+00 0.0000e+00 0.0000e+00 [bar]
 3.2008e-02  6.4299e+00 -1.4398e-01 +/- 0.0000e+00 0.0000e+00 0.0000e+00 [bar]
 2.0757e-01 -1.4398e-01  6.0028e+00 +/- 0.0000e+00 0.0000e+00 0.0000e+00 [bar]
Ideal-gas pressure:   6.597504e+00 +/ 0.000000e+00 [bar]
Excess pressure:     -3.096634e-01 +/ 0.000000e+00 [bar]
Pressure:             6.287840e+00 +/ 0.000000e+00 [bar]

Total potential energy/kʙ  -5.529133e+02 (-2.800948e+02 +/- 0.000000e+00) [K]
-------------------------------------------------------------------------------
ExternalField-molecule
    Van der Waals/kʙ        0.000000e+00 ( 0.000000e+00 +/- 0.000000e+00) [K]
Framework-molecule
    Van der Waals/kʙ        0.000000e+00 ( 0.000000e+00 +/- 0.000000e+00) [K]
    Van der Waals (Tail)/kʙ 0.000000e+00 ( 0.000000e+00 +/- 0.000000e+00) [K]
    Coulombic Real/kʙ       0.000000e+00 ( 0.000000e+00 +/- 0.000000e+00) [K]
    Coulombic Fourier/kʙ    0.000000e+00 ( 0.000000e+00 +/- 0.000000e+00) [K]
Molecule-molecule
    Van der Waals/kʙ       -3.229688e+02 (-1.948980e+02 +/- 0.000000e+00) [K]
    Van der Waals (Tail)/kʙ-4.760270e+00 (-3.579476e+00 +/- 0.000000e+00) [K]
    Coulombic Real/kʙ      -2.115983e+02 (-7.529574e+01 +/- 0.000000e+00) [K]
    Coulombic Fourier/kʙ   -1.358592e+01 (-6.321541e+00 +/- 0.000000e+00) [K]
    Molecule Intra/kʙ       0.000000e+00 ( 0.000000e+00 +/- 0.000000e+00) [K]

Current cycle: 1200 out of 6000
===============================================================================

Box:      33.89980   0.00000   0.00000  Average:  33.83846   0.00000   0.00000
           0.00000  33.89980   0.00000             0.00000  33.83846   0.00000
           0.00000   0.00000  33.89980             0.00000   0.00000  33.83846
Lengths:  33.89980  33.89980  33.89980  Average:  33.83846  33.83846  33.83846
Angles:   90.00000  90.00000  90.00000  Average:  90.00000  90.00000  90.00000
Rectangular boundary conditions

net charge:   0.00000000

component 0 (CO2) lambda:  0 occupancy:  1 (1.000000)
    net charge:   0.00000000 [e]

Amount of molecules per component :
-------------------------------------------------------------------------------
Component 0 (CO2)
    molecules:      1.000000e+01 molecules  (8.507910e+00 +/- 0.000000e+00)
    number density: 2.566899e-04 molec./A^3 (2.194983e-04 +/- 0.000000e+00)
    density:        1.875420e+01 kg/m^3     (1.603692e+01 +/- 0.000000e+00)

Average pressure tensor: 
-------------------------------------------------------------------------------
 6.6137e+00 -4.0856e-02  3.3585e-01 +/- 0.0000e+00 0.0000e+00 0.0000e+00 [bar]
-4.0856e-02  6.3429e+00 -1.7170e-01 +/- 0.0000e+00 0.0000e+00 0.0000e+00 [bar]
 3.3585e-01 -1.7170e-01  5.9307e+00 +/- 0.0000e+00 0.0000e+00 0.0000e+00 [bar]
Ideal-gas pressure:   6.667110e+00 +/ 0.000000e+00 [bar]
Excess pressure:     -3.713547e-01 +/ 0.000000e+00 [bar]
Pressure:             6.295755e+00 +/ 0.000000e+00 [bar]

Total potential energy/kʙ  -1.530659e+02 (-3.022004e+02 +/- 0.000000e+00) [K]
-------------------------------------------------------------------------------
ExternalField-molecule
    Van der Waals/kʙ        0.000000e+00 ( 0.000000e+00 +/- 0.000000e+00) [K]
Framework-molecule
    Van der Waals/kʙ        0.000000e+00 ( 0.000000e+00 +/- 0.000000e+00) [K]
    Van der Waals (Tail)/kʙ 0.000000e+00 ( 0.000000e+00 +/- 0.000000e+00) [K]
    Coulombic Real/kʙ       0.000000e+00 ( 0.000000e+00 +/- 0.000000e+00) [K]
    Coulombic Fourier/kʙ    0.000000e+00 ( 0.000000e+00 +/- 0.000000e+00) [K]
Molecule-molecule
    Van der Waals/kʙ        2.859915e+01 (-2.067031e+02 +/- 0.000000e+00) [K]
    Van der Waals (Tail)/kʙ-4.766998e+00 (-3.669309e+00 +/- 0.000000e+00) [K]
    Coulombic Real/kʙ      -1.424487e+02 (-8.491868e+01 +/- 0.000000e+00) [K]
    Coulombic Fourier/kʙ   -3.444944e+01 (-6.909347e+00 +/- 0.000000e+00) [K]
    Molecule Intra/kʙ       0.000000e+00 ( 0.000000e+00 +/- 0.000000e+00) [K]

Current cycle: 1300 out of 6000
===============================================================================

Box:      33.94740   0.00000   0.00000  Average:  33.84511   0.00000   0.00000
           0.00000  33.94740   0.00000             0.00000  33.84511   0.00000
           0.00000   0.00000  33.94740             0.00000   0.00000  33.84511
Lengths:  33.94740  33.94740  33.94740  Average:  33.84511  33.84511  33.84511
Angles:   90.00000  90.00000  90.00000  Average:  90.00000  90.00000  90.00000
Rectangular boundary conditions

net charge:   0.00000000

component 0 (CO2) lambda:  0 occupancy:  1 (1.000000)
    net charge:   0.00000000 [e]

Amount of molecules per component :
-------------------------------------------------------------------------------
Component 0 (CO2)
    molecules:      7.000000e+00 molecules  (8.557264e+00 +/- 0.000000e+00)
    number density: 1.789281e-04 molec./A^3 (2.206354e-04 +/- 0.000000e+00)
    density:        1.307279e+01 kg/m^3     (1.612000e+01 +/- 0.000000e+00)

Average pressure tensor: 
-------------------------------------------------------------------------------
 6.7343e+00 -1.0838e-01  3.6286e-01 +/- 0.0000e+00 0.0000e+00 0.0000e+00 [bar]
-1.0838e-01  6.4332e+00 -1.7143e-01 +/- 0.0000e+00 0.0000e+00 0.0000e+00 [bar]
 3.6286e-01 -1.7143e-01  5.9404e+00 +/- 0.0000e+00 0.0000e+00 0.0000e+00 [bar]
Ideal-gas pressure:   6.701649e+00 +/ 0.000000e+00 [bar]
Excess pressure:     -3.323525e-01 +/ 0.000000e+00 [bar]
Pressure:             6.369296e+00 +/ 0.000000e+00 [bar]

Total potential energy/kʙ  -5.082549e+01 (-2.983026e+02 +/- 0.000000e+00) [K]
-------------------------------------------------------------------------------
ExternalField-molecule
    Van der Waals/kʙ        0.000000e+00 ( 0.000000e+00 +/- 0.000000e+00) [K]
Framework-molecule
    Van der Waals/kʙ        0.000000e+00 ( 0.000000e+00 +/- 0.000000e+00) [K]
    Van der Waals (Tail)/kʙ 0.000000e+00 ( 0.000000e+00 +/- 0.000000e+00) [K]
    Coulombic Real/kʙ       0.000000e+00 ( 0.000000e+00 +/- 0.000000e+00) [K]
    Coulombic Fourier/kʙ    0.000000e+00 ( 0.000000e+00 +/- 0.000000e+00) [K]
Molecule-molecule
    Van der Waals/kʙ       -2.685291e+01 (-2.060226e+02 +/- 0.000000e+00) [K]
    Van der Waals (Tail)/kʙ-2.326016e+00 (-3.708072e+00 +/- 0.000000e+00) [K]
    Coulombic Real/kʙ      -1.261268e+01 (-8.177462e+01 +/- 0.000000e+00) [K]
    Coulombic Fourier/kʙ   -9.033870e+00 (-6.797271e+00 +/- 0.000000e+00) [K]
    Molecule Intra/kʙ       0.000000e+00 ( 0.000000e+00 +/- 0.000000e+00) [K]

Current cycle: 1400 out of 6000
===============================================================================

Box:      33.79393   0.00000   0.00000  Average:  33.84772   0.00000   0.00000
           0.00000  33.79393   0.00000             0.00000  33.84772   0.00000
           0.00000   0.00000  33.79393             0.00000   0.00000  33.84772
Lengths:  33.79393  33.79393  33.79393  Average:  33.84772  33.84772  33.84772
Angles:   90.00000  90.00000  90.00000  Average:  90.00000  90.00000  90.00000
Rectangular boundary conditions

net charge:   0.00000000

component 0 (CO2) lambda:  0 occupancy:  1 (1.000000)
    net charge:   0.00000000 [e]

Amount of molecules per component :
-------------------------------------------------------------------------------
Component 0 (CO2)
    molecules:      7.000000e+00 molecules  (8.555318e+00 +/- 0.000000e+00)
    number density: 1.813768e-04 molec./A^3 (2.205320e-04 +/- 0.000000e+00)
    density:        1.325170e+01 kg/m^3     (1.611245e+01 +/- 0.000000e+00)

Average pressure tensor: 
-------------------------------------------------------------------------------
 6.6735e+00 -8.1753e-02  3.1853e-01 +/- 0.0000e+00 0.0000e+00 0.0000e+00 [bar]
-8.1753e-02  6.3825e+00 -1.8342e-01 +/- 0.0000e+00 0.0000e+00 0.0000e+00 [bar]
 3.1853e-01 -1.8342e-01  5.9156e+00 +/- 0.0000e+00 0.0000e+00 0.0000e+00 [bar]
Ideal-gas pressure:   6.698507e+00 +/ 0.000000e+00 [bar]
Excess pressure:     -3.746242e-01 +/ 0.000000e+00 [bar]
Pressure:             6.323883e+00 +/ 0.000000e+00 [bar]

Total potential energy/kʙ  -6.679014e+02 (-2.990449e+02 +/- 0.000000e+00) [K]
-------------------------------------------------------------------------------
ExternalField-molecule
    Van der Waals/kʙ        0.000000e+00 ( 0.000000e+00 +/- 0.000000e+00) [K]
Framework-molecule
    Van der Waals/kʙ        0.000000e+00 ( 0.000000e+00 +/- 0.000000e+00) [K]
    Van der Waals (Tail)/kʙ 0.000000e+00 ( 0.000000e+00 +/- 0.000000e+00) [K]
    Coulombic Real/kʙ       0.000000e+00 ( 0.000000e+00 +/- 0.000000e+00) [K]
    Coulombic Fourier/kʙ    0.000000e+00 ( 0.000000e+00 +/- 0.000000e+00) [K]
Molecule-molecule
    Van der Waals/kʙ       -3.628214e+02 (-2.057074e+02 +/- 0.000000e+00) [K]
    Van der Waals (Tail)/kʙ-2.357849e+00 (-3.706561e+00 +/- 0.000000e+00) [K]
    Coulombic Real/kʙ      -2.859774e+02 (-8.265847e+01 +/- 0.000000e+00) [K]
    Coulombic Fourier/kʙ   -1.674470e+01 (-6.972471e+00 +/- 0.000000e+00) [K]
    Molecule Intra/kʙ       0.000000e+00 ( 0.000000e+00 +/- 0.000000e+00) [K]

Current cycle: 1500 out of 6000
===============================================================================

Box:      33.88244   0.00000   0.00000  Average:  33.84846   0.00000   0.00000
           0.00000  33.88244   0.00000             0.00000  33.84846   0.00000
           0.00000   0.00000  33.88244             0.00000   0.00000  33.84846
[...]
    number density: 3.309064e-04 molec./A^3 (2.017141e-04 +/- 3.141362e-05)
    density:        2.417658e+01 kg/m^3     (1.473758e+01 +/- 2.295133e+00)

Average pressure tensor: 
-------------------------------------------------------------------------------
 5.9353e+00 -1.2698e-01  5.6005e-02 +/- 1.0609e+00 2.3318e-01 2.9079e-01 [bar]
-1.2698e-01  6.0180e+00 -1.8295e-02 +/- 2.3318e-01 8.4031e-01 2.0570e-01 [bar]
 5.6005e-02 -1.8295e-02  5.7038e+00 +/- 2.9079e-01 2.0570e-01 9.0544e-01 [bar]
Ideal-gas pressure:   6.126926e+00 +/ 9.541669e-01 [bar]
Excess pressure:     -2.412169e-01 +/ 2.566038e-01 [bar]
Pressure:             5.885709e+00 +/ 9.253004e-01 [bar]

Total potential energy/kʙ  -4.116573e+02 (-2.546910e+02 +/- 1.111031e+02) [K]
-------------------------------------------------------------------------------
ExternalField-molecule
    Van der Waals/kʙ        0.000000e+00 ( 0.000000e+00 +/- 0.000000e+00) [K]
Framework-molecule
    Van der Waals/kʙ        0.000000e+00 ( 0.000000e+00 +/- 0.000000e+00) [K]
    Van der Waals (Tail)/kʙ 0.000000e+00 ( 0.000000e+00 +/- 0.000000e+00) [K]
    Coulombic Real/kʙ       0.000000e+00 ( 0.000000e+00 +/- 0.000000e+00) [K]
    Coulombic Fourier/kʙ    0.000000e+00 ( 0.000000e+00 +/- 0.000000e+00) [K]
Molecule-molecule
    Van der Waals/kʙ       -4.847725e+02 (-1.744310e+02 +/- 7.450784e+01) [K]
    Van der Waals (Tail)/kʙ-7.988857e+00 (-3.208826e+00 +/- 9.102222e-01) [K]
    Coulombic Real/kʙ       1.209499e+02 (-7.085405e+01 +/- 3.413467e+01) [K]
    Coulombic Fourier/kʙ   -3.984586e+01 (-6.197122e+00 +/- 3.476756e+00) [K]
    Molecule Intra/kʙ       0.000000e+00 ( 0.000000e+00 +/- 0.000000e+00) [K]

Current cycle: 5800 out of 6000
===============================================================================

Box:      33.93068   0.00000   0.00000  Average:  33.86877   0.00000   0.00000
           0.00000  33.93068   0.00000             0.00000  33.86877   0.00000
           0.00000   0.00000  33.93068             0.00000   0.00000  33.86877
Lengths:  33.93068  33.93068  33.93068  Average:  33.86877  33.86877  33.86877
Angles:   90.00000  90.00000  90.00000  Average:  90.00000  90.00000  90.00000
Rectangular boundary conditions

net charge:   0.00000000

component 0 (CO2) lambda:  0 occupancy:  1 (1.000000)
    net charge:   0.00000000 [e]

Amount of molecules per component :
-------------------------------------------------------------------------------
Component 0 (CO2)
    molecules:      1.200000e+01 molecules  (7.921048e+00 +/- 1.081160e+00)
    number density: 3.071876e-04 molec./A^3 (2.037455e-04 +/- 2.738258e-05)
    density:        2.244365e+01 kg/m^3     (1.488599e+01 +/- 2.000618e+00)

Average pressure tensor: 
-------------------------------------------------------------------------------
 6.0272e+00 -1.1881e-01  5.7096e-02 +/- 9.8496e-01 2.4192e-01 2.9090e-01 [bar]
-1.1881e-01  6.0428e+00 -2.0476e-02 +/- 2.4192e-01 7.9594e-01 2.0250e-01 [bar]
 5.7096e-02 -2.0476e-02  5.7487e+00 +/- 2.9090e-01 2.0250e-01 8.2239e-01 [bar]
Ideal-gas pressure:   6.188628e+00 +/ 8.317268e-01 [bar]
Excess pressure:     -2.490356e-01 +/ 2.371004e-01 [bar]
Pressure:             5.939592e+00 +/ 8.510679e-01 [bar]

Total potential energy/kʙ  -7.460957e+02 (-2.588155e+02 +/- 1.002013e+02) [K]
-------------------------------------------------------------------------------
ExternalField-molecule
    Van der Waals/kʙ        0.000000e+00 ( 0.000000e+00 +/- 0.000000e+00) [K]
Framework-molecule
    Van der Waals/kʙ        0.000000e+00 ( 0.000000e+00 +/- 0.000000e+00) [K]
    Van der Waals (Tail)/kʙ 0.000000e+00 ( 0.000000e+00 +/- 0.000000e+00) [K]
    Coulombic Real/kʙ       0.000000e+00 ( 0.000000e+00 +/- 0.000000e+00) [K]
    Coulombic Fourier/kʙ    0.000000e+00 ( 0.000000e+00 +/- 0.000000e+00) [K]
Molecule-molecule
    Van der Waals/kʙ       -5.015254e+02 (-1.768945e+02 +/- 6.837281e+01) [K]
    Van der Waals (Tail)/kʙ-6.845752e+00 (-3.285022e+00 +/- 8.287084e-01) [K]
    Coulombic Real/kʙ      -1.860943e+02 (-7.208539e+01 +/- 3.032901e+01) [K]
    Coulombic Fourier/kʙ   -5.163026e+01 (-6.550552e+00 +/- 2.845767e+00) [K]
    Molecule Intra/kʙ       0.000000e+00 ( 0.000000e+00 +/- 0.000000e+00) [K]

Current cycle: 5900 out of 6000
===============================================================================

Box:      34.00994   0.00000   0.00000  Average:  33.87130   0.00000   0.00000
           0.00000  34.00994   0.00000             0.00000  33.87130   0.00000
           0.00000   0.00000  34.00994             0.00000   0.00000  33.87130
Lengths:  34.00994  34.00994  34.00994  Average:  33.87130  33.87130  33.87130
Angles:   90.00000  90.00000  90.00000  Average:  90.00000  90.00000  90.00000
Rectangular boundary conditions

net charge:   0.00000000

component 0 (CO2) lambda:  0 occupancy:  1 (1.000000)
    net charge:   0.00000000 [e]

Amount of molecules per component :
-------------------------------------------------------------------------------
Component 0 (CO2)
    molecules:      1.500000e+01 molecules  (8.002881e+00 +/- 1.014781e+00)
    number density: 3.813060e-04 molec./A^3 (2.057811e-04 +/- 2.557032e-05)
    density:        2.785887e+01 kg/m^3     (1.503472e+01 +/- 1.868212e+00)

Average pressure tensor: 
-------------------------------------------------------------------------------
 6.0633e+00 -1.1621e-01  6.3707e-02 +/- 9.8351e-01 2.3959e-01 2.9242e-01 [bar]
-1.1621e-01  6.0749e+00 -3.8842e-02 +/- 2.3959e-01 7.6521e-01 2.3398e-01 [bar]
 6.3707e-02 -3.8842e-02  5.7732e+00 +/- 2.9242e-01 2.3398e-01 7.9364e-01 [bar]
Ideal-gas pressure:   6.250457e+00 +/ 7.766808e-01 [bar]
Excess pressure:     -2.800019e-01 +/ 2.111864e-01 [bar]
Pressure:             5.970456e+00 +/ 8.312326e-01 [bar]

Total potential energy/kʙ  -1.347555e+03 (-2.675902e+02 +/- 8.901107e+01) [K]
-------------------------------------------------------------------------------
ExternalField-molecule
    Van der Waals/kʙ        0.000000e+00 ( 0.000000e+00 +/- 0.000000e+00) [K]
Framework-molecule
    Van der Waals/kʙ        0.000000e+00 ( 0.000000e+00 +/- 0.000000e+00) [K]
    Van der Waals (Tail)/kʙ 0.000000e+00 ( 0.000000e+00 +/- 0.000000e+00) [K]
    Coulombic Real/kʙ       0.000000e+00 ( 0.000000e+00 +/- 0.000000e+00) [K]
    Coulombic Fourier/kʙ    0.000000e+00 ( 0.000000e+00 +/- 0.000000e+00) [K]
Molecule-molecule
    Van der Waals/kʙ       -8.701200e+02 (-1.826149e+02 +/- 6.176966e+01) [K]
    Van der Waals (Tail)/kʙ-1.062187e+01 (-3.361636e+00 +/- 8.291101e-01) [K]
    Coulombic Real/kʙ      -4.158505e+02 (-7.475926e+01 +/- 2.608241e+01) [K]
    Coulombic Fourier/kʙ   -5.096249e+01 (-6.854465e+00 +/- 2.716644e+00) [K]
    Molecule Intra/kʙ       0.000000e+00 ( 0.000000e+00 +/- 0.000000e+00) [K]


Energy statistics             |  Energy [K]   | Recomputed [K]|  Drift [K]    |
===============================================================================
Total potential energy/kʙ     | -2.808461e+02 | -2.808461e+02 | -3.434585e-11 |
    external field VDW/kʙ     |  0.000000e+00 |  0.000000e+00 |  0.000000e+00 |
    external field Real/kʙ    |  0.000000e+00 |  0.000000e+00 |  0.000000e+00 |
    framework-molecule VDW/kʙ |  0.000000e+00 |  0.000000e+00 |  0.000000e+00 |
    framework-molecule Real/kʙ|  0.000000e+00 |  0.000000e+00 |  0.000000e+00 |
    molecule-molecule VDW/kʙ  | -2.654065e+02 | -2.654065e+02 |  1.367339e-13 |
    molecule-molecule Real/kʙ |  4.228766e+01 |  4.228766e+01 | -3.674724e-13 |
    Van der Waals (Tail)/kʙ   | -4.756470e+00 | -4.756470e+00 |  0.000000e+00 |
    Ewald Fourier/kʙ          |  5.350856e+02 |  5.350856e+02 |  8.887705e-13 |
    Ewald self/kʙ             | -1.836678e+05 | -1.836678e+05 |  0.000000e+00 |
    Ewald exclusion/kʙ        |  1.830798e+05 |  1.830798e+05 | -3.500388e-11 |
    intra VDW/kʙ              |  0.000000e+00 |  0.000000e+00 |  0.000000e+00 |
    intra Coulombic/kʙ        |  0.000000e+00 |  0.000000e+00 |  0.000000e+00 |
    polarization/kʙ           |  0.000000e+00 |  0.000000e+00 |  0.000000e+00 |
    dU/dlambda VDW/kʙ         |  0.000000e+00 |  0.000000e+00 |  0.000000e+00 |
    dU/dlambda Real/kʙ        |  0.000000e+00 |  0.000000e+00 |  0.000000e+00 |
    dU/dlambda Ewald/kʙ       |  0.000000e+00 |  0.000000e+00 |  0.000000e+00 |
-------------------------------------------------------------------------------


Monte-Carlo moves statistics
===============================================================================

    Gibbs volume         all:                2919
    Gibbs volume         total:              5834
    Gibbs volume         constructed:        5834
    Gibbs volume         accepted:           3541
    Gibbs volume         fraction:       0.606959
    Gibbs volume         max-change:     0.030823

Component 0 [CO2]
    Reinsertion (CBMC)   all:              149251
    Reinsertion (CBMC)   total:            149250
    Reinsertion (CBMC)   constructed:      149250
    Reinsertion (CBMC)   accepted:         128189
    Reinsertion (CBMC)   fraction:       0.858888
    Reinsertion (CBMC)   max-change:     0.000000

    Gibbs swap (CBMC)    all:              298535
    Gibbs swap (CBMC)    total:            597061
    Gibbs swap (CBMC)    constructed:      511265
    Gibbs swap (CBMC)    accepted:           6910
    Gibbs swap (CBMC)    fraction:       0.011573
    Gibbs swap (CBMC)    max-change:     0.000000

    Translation          all:              150092
    Translation          total:             49947      49940      50205
    Translation          constructed:       49925      49922      50177
    Translation          accepted:          47003      46952      47201
    Translation          fraction:       0.941058   0.940168   0.940165
    Translation          max-change:     1.500000   1.500000   1.500000

    Rotation             all:              149319
    Rotation             total:             49676      49642      50000
    Rotation             constructed:       49667      49637      49993
    Rotation             accepted:          46559      46564      46924
    Rotation             fraction:       0.937253   0.937996   0.938480
    Rotation             max-change:     1.500000   1.500000   1.500000



Production run counting of the MC moves summed over systems and components
===============================================================================

Reinsertion (CBMC)                   298765 (19.9177 [%])
Gibbs volume                           5834 (0.3889 [%])
Gibbs swap (CBMC)                    597061 (39.8041 [%])
Translation                          299900 (19.9933 [%])
Rotation                             298440 (19.8960 [%])

Production count MC-steps:          1500000 [-]
               All summed:          1500000 [-]
               difference:                0 [-]


Production run CPU timings of the MC moves
===============================================================================

Component 0 CO2

Rotation                              7.245166 [s]
    Ewald                             6.007010 [s]
    ExternalField-Molecule            0.006755 [s]
    Framework-Molecule                0.005650 [s]
    Molecule-Molecule                 0.319920 [s]
    Overhead                          0.905831 [s]

Reinsertion (CBMC)                   12.266267 [s]
    Ewald                             6.031764 [s]
    NonEwald                          5.403236 [s]
    Overhead                          0.831267 [s]

Translation                           7.304198 [s]
    Ewald                             6.045145 [s]
    ExternalField-Molecule            0.006056 [s]
    Framework-Molecule                0.012433 [s]
    Molecule-Molecule                 0.326918 [s]
    Overhead                          0.913646 [s]



Gibbs swap (CBMC)                   176.564481 [s]
    Ewald                            27.071743 [s]
    NonEwald                        147.298814 [s]
    Tail                              1.566120 [s]

Gibbs volume                         23.950089 [s]
    Ewald                            10.056685 [s]
    NonEwald                         12.927170 [s]
    Tail                              0.823413 [s]

Property sampling                     0.230303 [s]
Energy/pressure sampling:             0.173498 [s]


Production run CPU timings of the MC moves summed over systems and components
===============================================================================


Translation                          30.842114 [s]
    Ewald                            17.360021 [s]
    ExternalField-Molecule            0.012233 [s]
    Framework-Molecule                0.024924 [s]
    Molecule-Molecule                11.593496 [s]
    Overhead                          1.851440 [s]

Rotation                             30.606770 [s]
    Ewald                            17.269626 [s]
    ExternalField-Molecule            0.013610 [s]
    Framework-Molecule                0.011371 [s]
    Molecule-Molecule                11.426163 [s]
    Overhead                          1.886000 [s]

Reinsertion (CBMC)                   85.468299 [s]
    Ewald                            14.225491 [s]
    NonEwald                         70.252494 [s]
    Overhead                          0.990314 [s]

Gibbs volume                         47.859480 [s]
    Ewald                            20.096117 [s]
    NonEwald                         25.829400 [s]
    Tail                              1.645829 [s]
    Overhead                          0.288134 [s]

Gibbs swap (CBMC)                   279.134591 [s]
    Ewald                            46.349110 [s]
    NonEwald                        229.082325 [s]
    Tail                              2.592964 [s]
    Overhead                          1.110192 [s]

Property sampling:                    0.561077 [s]
Energy/pressure sampling:            11.637058 [s]

Production simulation time:         487.400917 [s]
                All summed:         486.109389 [s]
                  Overhead:           1.291528 [s]


Initalization simulation time:      159.658003 [s]
Equilibration simulation time:        0.000000 [s]
Production simulation time:         487.400917 [s]
Total simulation time:              647.058920 [s]


Energy averages and statistics:
===============================================================================

Framework-molecule energy:
-------------------------------------------------------------------------------



Framework-molecule energy contributions per energy type:
-------------------------------------------------------------------------------



Inter-molecular energy:
-------------------------------------------------------------------------------

    Inter-molecular energy/kʙ 0-0 [CO2-CO2]:
    ---------------------------------------------------------------------------
        Block[  0] -3.034432e+02
        Block[  1] -2.218064e+02
        Block[  2] -1.983422e+02
        Block[  3] -3.747054e+02
        Block[  4] -3.067599e+02
        -----------------------------------------------------------------------
        Average  -2.810114e+02 +/-  8.840625e+01 [K]



Inter-molecular energy contributions per energy type:
-------------------------------------------------------------------------------

    Van der Waals energy/kʙ 0-0 [CO2-CO2]:
    ---------------------------------------------------------------------------
        Block[  0] -2.086639e+02
        Block[  1] -1.490721e+02
        Block[  2] -1.337608e+02
        Block[  3] -2.559324e+02
        Block[  4] -2.058533e+02
        -----------------------------------------------------------------------
        Average  -1.906565e+02 +/-  6.139464e+01 [K]

    VDW Tail-Correction energy/kʙ 0-0 [CO2-CO2]:
    ---------------------------------------------------------------------------
        Block[  0] -3.660162e+00
        Block[  1] -3.189070e+00
        Block[  2] -2.325450e+00
        Block[  3] -4.110747e+00
        Block[  4] -4.048855e+00
        -----------------------------------------------------------------------
        Average  -3.466857e+00 +/-  9.145350e-01 [K]

    Coulomb Real energy/kʙ 0-0 [CO2-CO2]:
    ---------------------------------------------------------------------------
        Block[  0] -8.443926e+01
        Block[  1] -5.997301e+01
        Block[  2] -5.875836e+01
        Block[  3] -1.071418e+02
        Block[  4] -8.749842e+01
        -----------------------------------------------------------------------
        Average  -7.956216e+01 +/-  2.532054e+01 [K]

    Coulomb Fourier energy/kʙ 0-0 [CO2-CO2]:
    ---------------------------------------------------------------------------
        Block[  0] -6.679847e+00
        Block[  1] -9.572215e+00
        Block[  2] -3.497650e+00
        Block[  3] -7.520421e+00
        Block[  4] -9.359333e+00
        -----------------------------------------------------------------------
        Average  -7.325893e+00 +/-  3.059368e+00 [K]


Total energy/kʙ
-------------------------------------------------------------------------------
    Block[  0] -3.034432e+02
    Block[  1] -2.218064e+02
    Block[  2] -1.983422e+02
    Block[  3] -3.747054e+02
    Block[  4] -3.067599e+02
    ---------------------------------------------------------------------------
    Average  -2.810114e+02 +/-  8.840625e+01 [K]

Pressure averages and statistics:
===============================================================================

Average pressure tensor: 
-------------------------------------------------------------------------------
 6.1183e+00 -9.5775e-02  5.3781e-02 +/- 1.0014e+00 2.7076e-01 2.9055e-01 [bar]
-9.5775e-02  6.1237e+00 -4.8458e-02 +/- 2.7076e-01 7.5057e-01 2.4531e-01 [bar]
 5.3781e-02 -4.8458e-02  5.8299e+00 +/- 2.9055e-01 2.4531e-01 7.6931e-01 [bar]

    Block[  0]  6.666169e+05
    Block[  1]  6.233627e+05
    Block[  2]  5.306623e+05
    Block[  3]  6.940788e+05
    Block[  4]  6.528502e+05
    ---------------------------------------------------------------------------
    Ideal gas pressure   6.335142e+05 +/-  4.701632e-03 [Pa]
                         6.335142e+00 +/-  7.807249e-01 [bar]


    Block[  0] -3.693920e+04
    Block[  1]  6.553482e+02
    Block[  2] -4.285756e+04
    Block[  3] -3.387357e+04
    Block[  4] -4.256968e+04
    ---------------------------------------------------------------------------
    Excess pressure  -3.111693e+04 +/-  2.255219e+04 [Pa]
                     -3.111693e-01 +/-  2.255219e-01 [bar]


    Block[  0]  6.296777e+05
    Block[  1]  6.240180e+05
    Block[  2]  4.878048e+05
    Block[  3]  6.602052e+05
    Block[  4]  6.102806e+05
    ---------------------------------------------------------------------------
    Pressure average   6.023972e+05 +/-  8.269270e+04 [Pa]
                       6.023972e+00 +/-  8.269270e-01 [bar]


Enthalpy of adsorption
===============================================================================

Component 0 [CO2]
-------------------------------------------------------------------------------
    Block[  0] -3.046448e+02
    Block[  1] -3.056025e+02
    Block[  2] -2.895394e+02
    Block[  3] -2.853980e+02
    Block[  4] -2.986660e+02
    ---------------------------------------------------------------------------
    Enthalpy of adsorption: -2.967701e+02 +/-  1.119427e+01 [K]
                            -2.467485e+00 +/-  9.307440e-02 [kJ/mol]
    Warning: need to subtract the ideal-gas energy.


Densities
===============================================================================

Component 0 (CO2)
    Block[  0] 8.506666666666668
    Block[  1] 7.986666666666667
    Block[  2] 6.7575
    Block[  3] 8.918333333333335
    Block[  4] 8.4
    -----------------------------------------------------------------------
    Density average   8.113833e+00 +/-  1.027353e+00 [molecules]
    Density average   2.085691e-04 +/-  2.570346e-05 [molec/A^3]
    Density average   1.523841e+01 +/-  1.877939e+00 [kg.m⁻³]

