Compiler and run-time data
===============================================================================
RASPA 3.0.4

Random seed: 3391758398

Compiled as a 64-bits application
Compiler: gcc Ubuntu Clang 18.1.3 (1ubuntu1)
Compile Date = Mar 15 2025, Compile Time = 19:39:45

2025-06-02 14:17:00.115986
Simulation started on Mon, Jun 02
The start time was 14:17:00

Hostname:    c061
OS type:     Linux on x86_64
OS release:  6.8.0-58-generic
OS version:  #60-Ubuntu SMP PREEMPT_DYNAMIC Fri Mar 14 18:29:48 UTC 2025


Mutual consistent basic set of units:
===============================================================================

Unit of temperature: 1 [K]
Unit of length:      1e-10 [m]
Unit of time:        1e-12 [s]
Unit of mass:        1.6605402e-27 [kg]
Unit of charge:      1.60217733e-19 [C/particle]


Boltzmann constant (internal units):          0.8314464919307584 [-]
represents conversion from energy (internal units) to temperature (in Kelvin)

Derived units and their conversion factors:
===============================================================================

Unit of energy:                           1.6605402000000002e-23 [J]
Unit of energy:                           10.000008872307538 [J.mol⁻¹]
Unit of velocity:                         100 [m.s⁻¹]
Unit of force:                            1.6605402000000002e-13 [N]
Unit of diffusion:                        1.0000000000000002e-08 [m².s⁻¹]
Unit of acceleration:                     1.0000000000000002e-08 [m².s⁻¹]
Unit of torque:                           1.6605402000000002e-23 [N.m]
Unit of pressure:                         16605402 [Pa]
Unit of volume:                           1e-30 [m³]
Unit of density:                          1660.5402 [kg.m⁻³]
Unit of dynamic viscosity:                1.6605401999999997e-05 [N.s.m⁻²]
Unit of enthalpy:                         1.6605402000000002e-23 [J]
Unit of polarizability:                   1.5458657349975198e-35 [-]
Unit of Coulomb potential:                167101.08000665612 [K]
Unit of dielectric constant:              1.5458657349975193e-05 [s².C².kg⁻¹.m⁻³]
Unit of dipole moment:                    1.60217733e-29 [C.m]
Unit of Debye:                            4.803206799099162 [C.m]
Unit of electric potential:               0.00010364272224473431 [V]
Unit of electric field:                   1036427.222447343 [V.m⁻¹]
Unit of isothermal compressibility:       6.02213665167516e-08 [Pa⁻¹]
Unit of heat capacity:                    10.000008872307538 [J.mol⁻¹.K⁻¹]
Unit of volumetric expansion coefficient: 1 [K⁻¹]


Internal conversion factors:
===============================================================================

Energy (internal units) to Kelvin:      1.202724284692786 [-]
Kelvin to energy (internal units):      0.8314457542157567 [-]


System definitions
===============================================================================

Temperature:          250 [K]
Beta:                 0.0048108928702210625 [-]
Pressure:             1.4e+07 [Pa]
Helium void fraction: 1 [-]

Box:      30.00000   0.00000   0.00000
           0.00000  30.00000   0.00000
           0.00000   0.00000  30.00000
Lengths:  30.00000  30.00000  30.00000
Angles:   90.00000  90.00000  90.00000
Rectangular boundary conditions



Property measurement settings
===============================================================================




Pseudo-atoms
===============================================================================

  0 - C_co2    framework-atom: false
  1 - O_co2    framework-atom: false

  0 - C_co2    mass: 12.00000, charge:  0.70000
  1 - O_co2    mass: 15.99940, charge: -0.35000

  0 - C_co2    polarizability:  0.00000
  1 - O_co2    polarizability:  0.00000

  0 - J. J. Potoff et al., AIChE J. 2001, 47, 1676–1682.
  1 - J. J. Potoff et al., AIChE J. 2001, 47, 1676–1682.

Force field status
===============================================================================

Cutoff Framework-Molecule VDW:  10.00000 [Å]
Cutoff Molecule-Molecule VDW:   10.00000 [Å]
Cutoff Coulomb:                 10.00000 [Å]

Overlap-criteria VDW:           1.000000e+05 [K]

C_co2    - C_co2    Lennard-Jones p₀/kʙ:  27.00000 [K], p₁:  2.80000 [Å]
                                  shift:   0.00000 [K], tailcorrections: true
C_co2    - O_co2    Lennard-Jones p₀/kʙ:  46.18441 [K], p₁:  2.92500 [Å]
                                  shift:   0.00000 [K], tailcorrections: true
O_co2    - O_co2    Lennard-Jones p₀/kʙ:  79.00000 [K], p₁:  3.05000 [Å]
                                  shift:   0.00000 [K], tailcorrections: true

Ewald precision: 1e-06
Ewald alpha: 0.32079885109097883
Ewald k-vectors: 10 10 10


Component definitions
===============================================================================

Component 0 [CO2]

    Type: Adsorbate

    Critical temperature:  304.1282 [K]
    Critical pressure:     7377300 [Pa]
    Acentric factor:       0.22394 [-]

    Mol-fraction:                 1 [-]
    Swappable:                   false

    Mass:                         43.9988 [-]
    Bulk fluid density:           0 [-]
    Compressibility:              0 [-]
    Excess molecules:             0 [-]

    Number Of Atoms:    3
    CBMC starting bead: 0
      0: O_co2  position  0.00000 -0.00000  1.16000, charge -0.35000
      1: C_co2  position  0.00000 -0.00000  0.00000, charge  0.70000
      2: O_co2  position  0.00000 -0.00000 -1.16000, charge -0.35000
    Diagonalized inertia-vector:      43.05758528 43.05758528 0.00000000
    Translational degrees of freedom: 3
    Rotational degrees of freedom:    2
    Shape of the molecule is: 'Linear'
    Net-charge:        0.00000000 [e]

    Move probabilities:
    Translation:                   0.331126 [-]
    Random translation:            0.000000 [-]
    Rotation:                      0.331126 [-]
    Random rotation:               0.000000 [-]
    Volume change:                 0.006623 [-]
    Reinsertion (CBMC):            0.331126 [-]
    Identity change (CBMC):        0.000000 [-]
    Swap:                          0.000000 [-]
    Swap (CBMC):                   0.000000 [-]
    Swap (CFCMC):                  0.000000 [-]
    Swap (CB/CFCMC):               0.000000 [-]
    Gibbs volume:                  0.000000 [-]
    Gibbs swap (CBMC):             0.000000 [-]
    Gibbs swap (CFCMC):            0.000000 [-]
    Widom:                         0.000000 [-]
    Widom (CFCMC):                 0.000000 [-]
    Widom (CB/CFCMC):              0.000000 [-]
    Parallel tempering:            0.000000 [-]
    Hybrid MC:                     0.000000 [-]

    number of blocking-pockets: 0

    number of bonds: 0





Number of pseudo-atoms
===============================================================================

Component   0 (CO2)
-------------------------------------------------------------------------------
    index   0 (C_co2): 100 atoms
    index   1 (O_co2): 200 atoms

Total number of pseudo-atoms:
-------------------------------------------------------------------------------
    index   0 (C_co2): 100 atoms
    index   1 (O_co2): 200 atoms




Energy status Recomputed from scratch
===============================================================================

Total potential energy/kʙ       -4.134792e+03 [K]
    external field VDW/kʙ        0.000000e+00 [K]
    external field Real/kʙ       0.000000e+00 [K]
    framework-molecule VDW/kʙ    0.000000e+00 [K]
    framework-molecule Real/kʙ   0.000000e+00 [K]
    molecule-molecule VDW/kʙ    -5.412412e+02 [K]
    molecule-molecule Real/kʙ   -2.528339e+03 [K]
    Van der Waals (Tail)/kʙ     -1.188352e+03 [K]
    Ewald Fourier/kʙ             1.465399e+04 [K]
    Ewald self/kʙ               -2.222923e+06 [K]
    Ewald exclusion/kʙ           2.208392e+06 [K]
    intra VDW/kʙ                 0.000000e+00 [K]
    intra Coulombic/kʙ           0.000000e+00 [K]
    polarization/kʙ              0.000000e+00 [K]
    dU/dlambda VDW/kʙ            0.000000e+00 [K]
    dU/dlambda Real/kʙ           0.000000e+00 [K]
    dU/dlambda Ewald/kʙ          0.000000e+00 [K]





Initialization: Current cycle: 0 out of 1000
===============================================================================

Box:      30.00000   0.00000   0.00000
           0.00000  30.00000   0.00000
           0.00000   0.00000  30.00000
Lengths:  30.00000  30.00000  30.00000
Angles:   90.00000  90.00000  90.00000
Rectangular boundary conditions

net charge:   0.00000000

component   0 (CO2) lambda:  0 occupancy:  1 (1.000000)
    net charge:   0.00000000 [e]

Amount of molecules per component :
-------------------------------------------------------------------------------
Component 0 (CO2)
    molecules:         1.000000e+02 molecules
    number density:    3.703704e-03 molec/A^3
    density:           2.705989e+02 kg/m^3

Total potential energy/kʙ       -2.157881e+04 [K]
-------------------------------------------------------------------------------
    external field VDW/kʙ        0.000000e+00 [K]
    external field Real/kʙ       0.000000e+00 [K]
    framework-molecule VDW/kʙ    0.000000e+00 [K]
    framework-molecule Real/kʙ   0.000000e+00 [K]
    molecule-molecule VDW/kʙ    -1.601250e+04 [K]
    molecule-molecule Real/kʙ   -3.893709e+03 [K]
    Van der Waals (Tail)/kʙ     -1.188352e+03 [K]
    Ewald Fourier/kʙ             1.404661e+04 [K]
    Ewald self/kʙ               -2.222923e+06 [K]
    Ewald exclusion/kʙ           2.208392e+06 [K]
    intra VDW/kʙ                 0.000000e+00 [K]
    intra Coulombic/kʙ           0.000000e+00 [K]
    polarization/kʙ              0.000000e+00 [K]
    dU/dlambda VDW/kʙ            0.000000e+00 [K]
    dU/dlambda Real/kʙ           0.000000e+00 [K]
    dU/dlambda Ewald/kʙ          0.000000e+00 [K]


Initialization: Current cycle: 100 out of 1000
===============================================================================

Box:      27.46127   0.00000   0.00000
           0.00000  27.46127   0.00000
           0.00000   0.00000  27.46127
Lengths:  27.46127  27.46127  27.46127
Angles:   90.00000  90.00000  90.00000
Rectangular boundary conditions

net charge:   0.00000000

component   0 (CO2) lambda:  0 occupancy:  1 (1.000000)
    net charge:   0.00000000 [e]

Amount of molecules per component :
-------------------------------------------------------------------------------
Component 0 (CO2)
    molecules:         1.000000e+02 molecules
    number density:    4.828790e-03 molec/A^3
    density:           3.527997e+02 kg/m^3

Total potential energy/kʙ       -7.225628e+04 [K]
-------------------------------------------------------------------------------
    external field VDW/kʙ        0.000000e+00 [K]
    external field Real/kʙ       0.000000e+00 [K]
    framework-molecule VDW/kʙ    0.000000e+00 [K]
    framework-molecule Real/kʙ   0.000000e+00 [K]
    molecule-molecule VDW/kʙ    -5.142036e+04 [K]
    molecule-molecule Real/kʙ   -1.589232e+04 [K]
    Van der Waals (Tail)/kʙ     -1.549341e+03 [K]
    Ewald Fourier/kʙ             1.113659e+04 [K]
    Ewald self/kʙ               -2.222923e+06 [K]
    Ewald exclusion/kʙ           2.208392e+06 [K]
    intra VDW/kʙ                 0.000000e+00 [K]
    intra Coulombic/kʙ           0.000000e+00 [K]
    polarization/kʙ              0.000000e+00 [K]
    dU/dlambda VDW/kʙ            0.000000e+00 [K]
    dU/dlambda Real/kʙ           0.000000e+00 [K]
    dU/dlambda Ewald/kʙ          0.000000e+00 [K]


Initialization: Current cycle: 200 out of 1000
===============================================================================

Box:      24.29169   0.00000   0.00000
           0.00000  24.29169   0.00000
           0.00000   0.00000  24.29169
Lengths:  24.29169  24.29169  24.29169
Angles:   90.00000  90.00000  90.00000
Rectangular boundary conditions

net charge:   0.00000000

component   0 (CO2) lambda:  0 occupancy:  1 (1.000000)
    net charge:   0.00000000 [e]

Amount of molecules per component :
-------------------------------------------------------------------------------
Component 0 (CO2)
    molecules:         1.000000e+02 molecules
    number density:    6.976325e-03 molec/A^3
    density:           5.097022e+02 kg/m^3

Total potential energy/kʙ       -8.602150e+04 [K]
-------------------------------------------------------------------------------
    external field VDW/kʙ        0.000000e+00 [K]
    external field Real/kʙ       0.000000e+00 [K]
    framework-molecule VDW/kʙ    0.000000e+00 [K]
    framework-molecule Real/kʙ   0.000000e+00 [K]
    molecule-molecule VDW/kʙ    -6.039278e+04 [K]
    molecule-molecule Real/kʙ   -1.888312e+04 [K]
    Van der Waals (Tail)/kʙ     -2.238388e+03 [K]
    Ewald Fourier/kʙ             1.002364e+04 [K]
    Ewald self/kʙ               -2.222923e+06 [K]
    Ewald exclusion/kʙ           2.208392e+06 [K]
    intra VDW/kʙ                 0.000000e+00 [K]
    intra Coulombic/kʙ           0.000000e+00 [K]
    polarization/kʙ              0.000000e+00 [K]
    dU/dlambda VDW/kʙ            0.000000e+00 [K]
    dU/dlambda Real/kʙ           0.000000e+00 [K]
    dU/dlambda Ewald/kʙ          0.000000e+00 [K]


Initialization: Current cycle: 300 out of 1000
===============================================================================

Box:      22.17593   0.00000   0.00000
           0.00000  22.17593   0.00000
           0.00000   0.00000  22.17593
Lengths:  22.17593  22.17593  22.17593
Angles:   90.00000  90.00000  90.00000
Rectangular boundary conditions

net charge:   0.00000000

component   0 (CO2) lambda:  0 occupancy:  1 (1.000000)
    net charge:   0.00000000 [e]

Amount of molecules per component :
-------------------------------------------------------------------------------
Component 0 (CO2)
    molecules:         1.000000e+02 molecules
    number density:    9.169684e-03 molec/A^3
    density:           6.699528e+02 kg/m^3

Total potential energy/kʙ       -1.017050e+05 [K]
-------------------------------------------------------------------------------
    external field VDW/kʙ        0.000000e+00 [K]
    external field Real/kʙ       0.000000e+00 [K]
    framework-molecule VDW/kʙ    0.000000e+00 [K]
    framework-molecule Real/kʙ   0.000000e+00 [K]
    molecule-molecule VDW/kʙ    -7.322439e+04 [K]
    molecule-molecule Real/kʙ   -2.123002e+04 [K]
    Van der Waals (Tail)/kʙ     -2.942138e+03 [K]
    Ewald Fourier/kʙ             1.022243e+04 [K]
    Ewald self/kʙ               -2.222923e+06 [K]
    Ewald exclusion/kʙ           2.208392e+06 [K]
    intra VDW/kʙ                 0.000000e+00 [K]
    intra Coulombic/kʙ           0.000000e+00 [K]
    polarization/kʙ              0.000000e+00 [K]
    dU/dlambda VDW/kʙ            0.000000e+00 [K]
    dU/dlambda Real/kʙ           0.000000e+00 [K]
    dU/dlambda Ewald/kʙ          0.000000e+00 [K]


Initialization: Current cycle: 400 out of 1000
===============================================================================

Box:      20.38288   0.00000   0.00000
           0.00000  20.38288   0.00000
           0.00000   0.00000  20.38288
Lengths:  20.38288  20.38288  20.38288
Angles:   90.00000  90.00000  90.00000
Rectangular boundary conditions

net charge:   0.00000000

component   0 (CO2) lambda:  0 occupancy:  1 (1.000000)
    net charge:   0.00000000 [e]

Amount of molecules per component :
-------------------------------------------------------------------------------
Component 0 (CO2)
    molecules:         1.000000e+02 molecules
    number density:    1.180874e-02 molec/A^3
    density:           8.627669e+02 kg/m^3

Total potential energy/kʙ       -1.215769e+05 [K]
-------------------------------------------------------------------------------
    external field VDW/kʙ        0.000000e+00 [K]
    external field Real/kʙ       0.000000e+00 [K]
    framework-molecule VDW/kʙ    0.000000e+00 [K]
    framework-molecule Real/kʙ   0.000000e+00 [K]
    molecule-molecule VDW/kʙ    -8.698649e+04 [K]
    molecule-molecule Real/kʙ   -2.488597e+04 [K]
    Van der Waals (Tail)/kʙ     -3.788893e+03 [K]
    Ewald Fourier/kʙ             8.615312e+03 [K]
    Ewald self/kʙ               -2.222923e+06 [K]
    Ewald exclusion/kʙ           2.208392e+06 [K]
    intra VDW/kʙ                 0.000000e+00 [K]
    intra Coulombic/kʙ           0.000000e+00 [K]
    polarization/kʙ              0.000000e+00 [K]
    dU/dlambda VDW/kʙ            0.000000e+00 [K]
    dU/dlambda Real/kʙ           0.000000e+00 [K]
    dU/dlambda Ewald/kʙ          0.000000e+00 [K]


Initialization: Current cycle: 500 out of 1000
===============================================================================

Box:      19.40762   0.00000   0.00000
           0.00000  19.40762   0.00000
           0.00000   0.00000  19.40762
Lengths:  19.40762  19.40762  19.40762
Angles:   90.00000  90.00000  90.00000
Rectangular boundary conditions

net charge:   0.00000000

component   0 (CO2) lambda:  0 occupancy:  1 (1.000000)
    net charge:   0.00000000 [e]

Amount of molecules per component :
-------------------------------------------------------------------------------
Component 0 (CO2)
    molecules:         1.000000e+02 molecules
    number density:    1.367990e-02 molec/A^3
    density:           9.994771e+02 kg/m^3

Total potential energy/kʙ       -1.430708e+05 [K]
-------------------------------------------------------------------------------
    external field VDW/kʙ        0.000000e+00 [K]
    external field Real/kʙ       0.000000e+00 [K]
    framework-molecule VDW/kʙ    0.000000e+00 [K]
    framework-molecule Real/kʙ   0.000000e+00 [K]
    molecule-molecule VDW/kʙ    -1.042092e+05 [K]
    molecule-molecule Real/kʙ   -2.733070e+04 [K]
    Van der Waals (Tail)/kʙ     -4.389264e+03 [K]
    Ewald Fourier/kʙ             7.389248e+03 [K]
    Ewald self/kʙ               -2.222923e+06 [K]
    Ewald exclusion/kʙ           2.208392e+06 [K]
    intra VDW/kʙ                 0.000000e+00 [K]
    intra Coulombic/kʙ           0.000000e+00 [K]
    polarization/kʙ              0.000000e+00 [K]
    dU/dlambda VDW/kʙ            0.000000e+00 [K]
    dU/dlambda Real/kʙ           0.000000e+00 [K]
    dU/dlambda Ewald/kʙ          0.000000e+00 [K]


Initialization: Current cycle: 600 out of 1000
===============================================================================

Box:      19.16647   0.00000   0.00000
           0.00000  19.16647   0.00000
           0.00000   0.00000  19.16647
Lengths:  19.16647  19.16647  19.16647
Angles:   90.00000  90.00000  90.00000
Rectangular boundary conditions

net charge:   0.00000000

component   0 (CO2) lambda:  0 occupancy:  1 (1.000000)
    net charge:   0.00000000 [e]

Amount of molecules per component :
-------------------------------------------------------------------------------
Component 0 (CO2)
    molecules:         1.000000e+02 molecules
    number density:    1.420279e-02 molec/A^3
    density:           1.037680e+03 kg/m^3

Total potential energy/kʙ       -1.503769e+05 [K]
-------------------------------------------------------------------------------
    external field VDW/kʙ        0.000000e+00 [K]
    external field Real/kʙ       0.000000e+00 [K]
    framework-molecule VDW/kʙ    0.000000e+00 [K]
    framework-molecule Real/kʙ   0.000000e+00 [K]
    molecule-molecule VDW/kʙ    -1.073731e+05 [K]
    molecule-molecule Real/kʙ   -3.080658e+04 [K]
    Van der Waals (Tail)/kʙ     -4.557035e+03 [K]
    Ewald Fourier/kʙ             6.890730e+03 [K]
    Ewald self/kʙ               -2.222923e+06 [K]
    Ewald exclusion/kʙ           2.208392e+06 [K]
    intra VDW/kʙ                 0.000000e+00 [K]
    intra Coulombic/kʙ           0.000000e+00 [K]
    polarization/kʙ              0.000000e+00 [K]
    dU/dlambda VDW/kʙ            0.000000e+00 [K]
    dU/dlambda Real/kʙ           0.000000e+00 [K]
    dU/dlambda Ewald/kʙ          0.000000e+00 [K]


Initialization: Current cycle: 700 out of 1000
===============================================================================

Box:      19.09623   0.00000   0.00000
           0.00000  19.09623   0.00000
           0.00000   0.00000  19.09623
Lengths:  19.09623  19.09623  19.09623
Angles:   90.00000  90.00000  90.00000
Rectangular boundary conditions

net charge:   0.00000000

component   0 (CO2) lambda:  0 occupancy:  1 (1.000000)
    net charge:   0.00000000 [e]

Amount of molecules per component :
-------------------------------------------------------------------------------
Component 0 (CO2)
    molecules:         1.000000e+02 molecules
    number density:    1.436008e-02 molec/A^3
    density:           1.049172e+03 kg/m^3

Total potential energy/kʙ       -1.565675e+05 [K]
-------------------------------------------------------------------------------
    external field VDW/kʙ        0.000000e+00 [K]
    external field Real/kʙ       0.000000e+00 [K]
    framework-molecule VDW/kʙ    0.000000e+00 [K]
    framework-molecule Real/kʙ   0.000000e+00 [K]
    molecule-molecule VDW/kʙ    -1.132849e+05 [K]
    molecule-molecule Real/kʙ   -3.117129e+04 [K]
    Van der Waals (Tail)/kʙ     -4.607502e+03 [K]
    Ewald Fourier/kʙ             7.027026e+03 [K]
    Ewald self/kʙ               -2.222923e+06 [K]
    Ewald exclusion/kʙ           2.208392e+06 [K]
    intra VDW/kʙ                 0.000000e+00 [K]
    intra Coulombic/kʙ           0.000000e+00 [K]
    polarization/kʙ              0.000000e+00 [K]
    dU/dlambda VDW/kʙ            0.000000e+00 [K]
    dU/dlambda Real/kʙ           0.000000e+00 [K]
    dU/dlambda Ewald/kʙ          0.000000e+00 [K]


Initialization: Current cycle: 800 out of 1000
===============================================================================

Box:      19.01931   0.00000   0.00000
           0.00000  19.01931   0.00000
           0.00000   0.00000  19.01931
Lengths:  19.01931  19.01931  19.01931
Angles:   90.00000  90.00000  90.00000
Rectangular boundary conditions

net charge:   0.00000000

component   0 (CO2) lambda:  0 occupancy:  1 (1.000000)
    net charge:   0.00000000 [e]

Amount of molecules per component :
-------------------------------------------------------------------------------
Component 0 (CO2)
    molecules:         1.000000e+02 molecules
    number density:    1.453502e-02 molec/A^3
    density:           1.061953e+03 kg/m^3

Total potential energy/kʙ       -1.505337e+05 [K]
-------------------------------------------------------------------------------
    external field VDW/kʙ        0.000000e+00 [K]
    external field Real/kʙ       0.000000e+00 [K]
    framework-molecule VDW/kʙ    0.000000e+00 [K]
    framework-molecule Real/kʙ   0.000000e+00 [K]
    molecule-molecule VDW/kʙ    -1.112578e+05 [K]
    molecule-molecule Real/kʙ   -2.720525e+04 [K]
    Van der Waals (Tail)/kʙ     -4.663632e+03 [K]
    Ewald Fourier/kʙ             7.123881e+03 [K]
    Ewald self/kʙ               -2.222923e+06 [K]
    Ewald exclusion/kʙ           2.208392e+06 [K]
    intra VDW/kʙ                 0.000000e+00 [K]
    intra Coulombic/kʙ           0.000000e+00 [K]
    polarization/kʙ              0.000000e+00 [K]
    dU/dlambda VDW/kʙ            0.000000e+00 [K]
    dU/dlambda Real/kʙ           0.000000e+00 [K]
    dU/dlambda Ewald/kʙ          0.000000e+00 [K]


Initialization: Current cycle: 900 out of 1000
===============================================================================

Box:      19.31632   0.00000   0.00000
           0.00000  19.31632   0.00000
           0.00000   0.00000  19.31632
Lengths:  19.31632  19.31632  19.31632
Angles:   90.00000  90.00000  90.00000
Rectangular boundary conditions

net charge:   0.00000000

component   0 (CO2) lambda:  0 occupancy:  1 (1.000000)
    net charge:   0.00000000 [e]

Amount of molecules per component :
-------------------------------------------------------------------------------
Component 0 (CO2)
    molecules:         1.000000e+02 molecules
    number density:    1.387480e-02 molec/A^3
    density:           1.013716e+03 kg/m^3

Total potential energy/kʙ       -1.457735e+05 [K]
-------------------------------------------------------------------------------
    external field VDW/kʙ        0.000000e+00 [K]
    external field Real/kʙ       0.000000e+00 [K]
    framework-molecule VDW/kʙ    0.000000e+00 [K]
    framework-molecule Real/kʙ   0.000000e+00 [K]
    molecule-molecule VDW/kʙ    -1.059795e+05 [K]
    molecule-molecule Real/kʙ   -2.804639e+04 [K]
    Van der Waals (Tail)/kʙ     -4.451797e+03 [K]
    Ewald Fourier/kʙ             7.235061e+03 [K]
    Ewald self/kʙ               -2.222923e+06 [K]
    Ewald exclusion/kʙ           2.208392e+06 [K]
    intra VDW/kʙ                 0.000000e+00 [K]
    intra Coulombic/kʙ           0.000000e+00 [K]
    polarization/kʙ              0.000000e+00 [K]
    dU/dlambda VDW/kʙ            0.000000e+00 [K]
    dU/dlambda Real/kʙ           0.000000e+00 [K]
    dU/dlambda Ewald/kʙ          0.000000e+00 [K]


Current cycle: 0 out of 5000
===============================================================================

Box:      19.17296   0.00000   0.00000  Average:  19.17296   0.00000   0.00000
           0.00000  19.17296   0.00000             0.00000  19.17296   0.00000
           0.00000   0.00000  19.17296             0.00000   0.00000  19.17296
Lengths:  19.17296  19.17296  19.17296  Average:  19.17296  19.17296  19.17296
Angles:   90.00000  90.00000  90.00000  Average:  90.00000  90.00000  90.00000
Rectangular boundary conditions

net charge:   0.00000000

component 0 (CO2) lambda:  0 occupancy:  1 (1.000000)
    net charge:   0.00000000 [e]

Amount of molecules per component :
-------------------------------------------------------------------------------
Component 0 (CO2)
    molecules:      1.000000e+02 molecules  (1.000000e+02 +/- 0.000000e+00)
    number density: 1.418836e-02 molec./A^3 (1.418836e-02 +/- 0.000000e+00)
    density:        1.036626e+03 kg/m^3     (1.036626e+03 +/- 0.000000e+00)

Average pressure tensor: 
-------------------------------------------------------------------------------
 4.8973e+02  0.0000e+00  0.0000e+00 +/- 0.0000e+00 0.0000e+00 0.0000e+00 [bar]
 0.0000e+00  4.8973e+02  0.0000e+00 +/- 0.0000e+00 0.0000e+00 0.0000e+00 [bar]
 0.0000e+00  0.0000e+00  4.8973e+02 +/- 0.0000e+00 0.0000e+00 0.0000e+00 [bar]
Ideal-gas pressure:   4.897292e+02 +/ 0.000000e+00 [bar]
Excess pressure:      0.000000e+00 +/ 0.000000e+00 [bar]
Pressure:             4.897292e+02 +/ 0.000000e+00 [bar]

Total potential energy/kʙ  -1.429506e+05 (-1.429506e+05 +/- 0.000000e+00) [K]
-------------------------------------------------------------------------------
ExternalField-molecule
    Van der Waals/kʙ        0.000000e+00 ( 0.000000e+00 +/- 0.000000e+00) [K]
Framework-molecule
    Van der Waals/kʙ        0.000000e+00 ( 0.000000e+00 +/- 0.000000e+00) [K]
    Van der Waals (Tail)/kʙ 0.000000e+00 ( 0.000000e+00 +/- 0.000000e+00) [K]
    Coulombic Real/kʙ       0.000000e+00 ( 0.000000e+00 +/- 0.000000e+00) [K]
    Coulombic Fourier/kʙ    0.000000e+00 ( 0.000000e+00 +/- 0.000000e+00) [K]
Molecule-molecule
    Van der Waals/kʙ       -1.018063e+05 (-1.018063e+05 +/- 0.000000e+00) [K]
    Van der Waals (Tail)/kʙ-4.552406e+03 (-4.552406e+03 +/- 0.000000e+00) [K]
    Coulombic Real/kʙ      -2.904192e+04 (-2.904192e+04 +/- 0.000000e+00) [K]
    Coulombic Fourier/kʙ   -7.549890e+03 (-7.549890e+03 +/- 0.000000e+00) [K]
    Molecule Intra/kʙ       0.000000e+00 ( 0.000000e+00 +/- 0.000000e+00) [K]

Current cycle: 100 out of 5000
===============================================================================

Box:      19.40648   0.00000   0.00000  Average:  19.25859   0.00000   0.00000
           0.00000  19.40648   0.00000             0.00000  19.25859   0.00000
           0.00000   0.00000  19.40648             0.00000   0.00000  19.25859
Lengths:  19.40648  19.40648  19.40648  Average:  19.25859  19.25859  19.25859
Angles:   90.00000  90.00000  90.00000  Average:  90.00000  90.00000  90.00000
Rectangular boundary conditions

net charge:   0.00000000

component 0 (CO2) lambda:  0 occupancy:  1 (1.000000)
    net charge:   0.00000000 [e]

Amount of molecules per component :
-------------------------------------------------------------------------------
Component 0 (CO2)
    molecules:      1.000000e+02 molecules  (1.000000e+02 +/- 0.000000e+00)
    number density: 1.368232e-02 molec./A^3 (1.400104e-02 +/- 0.000000e+00)
    density:        9.996540e+02 kg/m^3     (1.022940e+03 +/- 0.000000e+00)

Average pressure tensor: 
-------------------------------------------------------------------------------
 5.0795e+02 -4.9530e+01 -7.7841e+01 +/- 0.0000e+00 0.0000e+00 0.0000e+00 [bar]
-4.9530e+01 -1.7907e+02 -1.1704e+02 +/- 0.0000e+00 0.0000e+00 0.0000e+00 [bar]
-7.7841e+01 -1.1704e+02  5.8327e+01 +/- 0.0000e+00 0.0000e+00 0.0000e+00 [bar]
Ideal-gas pressure:   4.832636e+02 +/ 0.000000e+00 [bar]
Excess pressure:     -3.541946e+02 +/ 0.000000e+00 [bar]
Pressure:             1.290690e+02 +/ 0.000000e+00 [bar]

Total potential energy/kʙ  -1.513282e+05 (-1.485446e+05 +/- 0.000000e+00) [K]
-------------------------------------------------------------------------------
ExternalField-molecule
    Van der Waals/kʙ        0.000000e+00 ( 0.000000e+00 +/- 0.000000e+00) [K]
Framework-molecule
    Van der Waals/kʙ        0.000000e+00 ( 0.000000e+00 +/- 0.000000e+00) [K]
    Van der Waals (Tail)/kʙ 0.000000e+00 ( 0.000000e+00 +/- 0.000000e+00) [K]
    Coulombic Real/kʙ       0.000000e+00 ( 0.000000e+00 +/- 0.000000e+00) [K]
    Coulombic Fourier/kʙ    0.000000e+00 ( 0.000000e+00 +/- 0.000000e+00) [K]
Molecule-molecule
    Van der Waals/kʙ       -1.058075e+05 (-1.053519e+05 +/- 0.000000e+00) [K]
    Van der Waals (Tail)/kʙ-4.390041e+03 (-4.503357e+03 +/- 0.000000e+00) [K]
    Coulombic Real/kʙ      -3.331766e+04 (-3.094091e+04 +/- 0.000000e+00) [K]
    Coulombic Fourier/kʙ   -7.812947e+03 (-7.748503e+03 +/- 0.000000e+00) [K]
    Molecule Intra/kʙ       0.000000e+00 ( 0.000000e+00 +/- 0.000000e+00) [K]

Current cycle: 200 out of 5000
===============================================================================

Box:      19.36679   0.00000   0.00000  Average:  19.26042   0.00000   0.00000
           0.00000  19.36679   0.00000             0.00000  19.26042   0.00000
           0.00000   0.00000  19.36679             0.00000   0.00000  19.26042
Lengths:  19.36679  19.36679  19.36679  Average:  19.26042  19.26042  19.26042
Angles:   90.00000  90.00000  90.00000  Average:  90.00000  90.00000  90.00000
Rectangular boundary conditions

net charge:   0.00000000

component 0 (CO2) lambda:  0 occupancy:  1 (1.000000)
    net charge:   0.00000000 [e]

Amount of molecules per component :
-------------------------------------------------------------------------------
Component 0 (CO2)
    molecules:      1.000000e+02 molecules  (1.000000e+02 +/- 0.000000e+00)
    number density: 1.376660e-02 molec./A^3 (1.399819e-02 +/- 0.000000e+00)
    density:        1.005812e+03 kg/m^3     (1.022732e+03 +/- 0.000000e+00)

Average pressure tensor: 
-------------------------------------------------------------------------------
 2.7489e+02  1.8861e+01  4.5477e+01 +/- 0.0000e+00 0.0000e+00 0.0000e+00 [bar]
 1.8861e+01 -8.8882e+00 -1.3766e+01 +/- 0.0000e+00 0.0000e+00 0.0000e+00 [bar]
 4.5477e+01 -1.3766e+01 -2.5847e+01 +/- 0.0000e+00 0.0000e+00 0.0000e+00 [bar]
Ideal-gas pressure:   4.831653e+02 +/ 0.000000e+00 [bar]
Excess pressure:     -4.031126e+02 +/ 0.000000e+00 [bar]
Pressure:             8.005268e+01 +/ 0.000000e+00 [bar]

Total potential energy/kʙ  -1.476674e+05 (-1.483782e+05 +/- 0.000000e+00) [K]
-------------------------------------------------------------------------------
ExternalField-molecule
    Van der Waals/kʙ        0.000000e+00 ( 0.000000e+00 +/- 0.000000e+00) [K]
Framework-molecule
    Van der Waals/kʙ        0.000000e+00 ( 0.000000e+00 +/- 0.000000e+00) [K]
    Van der Waals (Tail)/kʙ 0.000000e+00 ( 0.000000e+00 +/- 0.000000e+00) [K]
    Coulombic Real/kʙ       0.000000e+00 ( 0.000000e+00 +/- 0.000000e+00) [K]
    Coulombic Fourier/kʙ    0.000000e+00 ( 0.000000e+00 +/- 0.000000e+00) [K]
Molecule-molecule
    Van der Waals/kʙ       -1.056192e+05 (-1.049429e+05 +/- 0.000000e+00) [K]
    Van der Waals (Tail)/kʙ-4.417082e+03 (-4.498061e+03 +/- 0.000000e+00) [K]
    Coulombic Real/kʙ      -3.048267e+04 (-3.136886e+04 +/- 0.000000e+00) [K]
    Coulombic Fourier/kʙ   -7.148416e+03 (-7.568435e+03 +/- 0.000000e+00) [K]
    Molecule Intra/kʙ       0.000000e+00 ( 0.000000e+00 +/- 0.000000e+00) [K]

Current cycle: 300 out of 5000
===============================================================================

Box:      19.17866   0.00000   0.00000  Average:  19.23409   0.00000   0.00000
           0.00000  19.17866   0.00000             0.00000  19.23409   0.00000
           0.00000   0.00000  19.17866             0.00000   0.00000  19.23409
Lengths:  19.17866  19.17866  19.17866  Average:  19.23409  19.23409  19.23409
Angles:   90.00000  90.00000  90.00000  Average:  90.00000  90.00000  90.00000
Rectangular boundary conditions

net charge:   0.00000000

component 0 (CO2) lambda:  0 occupancy:  1 (1.000000)
    net charge:   0.00000000 [e]

Amount of molecules per component :
-------------------------------------------------------------------------------
Component 0 (CO2)
    molecules:      1.000000e+02 molecules  (1.000000e+02 +/- 0.000000e+00)
    number density: 1.417572e-02 molec./A^3 (1.405631e-02 +/- 0.000000e+00)
    density:        1.035702e+03 kg/m^3     (1.026978e+03 +/- 0.000000e+00)

Average pressure tensor: 
-------------------------------------------------------------------------------
 1.1442e+02 -7.2692e+00  1.5263e+02 +/- 0.0000e+00 0.0000e+00 0.0000e+00 [bar]
-7.2692e+00  9.5855e+01  6.3109e+01 +/- 0.0000e+00 0.0000e+00 0.0000e+00 [bar]
 1.5263e+02  6.3109e+01  2.5086e+01 +/- 0.0000e+00 0.0000e+00 0.0000e+00 [bar]
Ideal-gas pressure:   4.851713e+02 +/ 0.000000e+00 [bar]
Excess pressure:     -4.067167e+02 +/ 0.000000e+00 [bar]
Pressure:             7.845455e+01 +/ 0.000000e+00 [bar]

Total potential energy/kʙ  -1.500520e+05 (-1.485049e+05 +/- 0.000000e+00) [K]
-------------------------------------------------------------------------------
ExternalField-molecule
    Van der Waals/kʙ        0.000000e+00 ( 0.000000e+00 +/- 0.000000e+00) [K]
Framework-molecule
    Van der Waals/kʙ        0.000000e+00 ( 0.000000e+00 +/- 0.000000e+00) [K]
    Van der Waals (Tail)/kʙ 0.000000e+00 ( 0.000000e+00 +/- 0.000000e+00) [K]
    Coulombic Real/kʙ       0.000000e+00 ( 0.000000e+00 +/- 0.000000e+00) [K]
    Coulombic Fourier/kʙ    0.000000e+00 ( 0.000000e+00 +/- 0.000000e+00) [K]
Molecule-molecule
    Van der Waals/kʙ       -1.046993e+05 (-1.052610e+05 +/- 0.000000e+00) [K]
    Van der Waals (Tail)/kʙ-4.548349e+03 (-4.515560e+03 +/- 0.000000e+00) [K]
    Coulombic Real/kʙ      -3.263634e+04 (-3.106577e+04 +/- 0.000000e+00) [K]
    Coulombic Fourier/kʙ   -8.167973e+03 (-7.662560e+03 +/- 0.000000e+00) [K]
    Molecule Intra/kʙ       0.000000e+00 ( 0.000000e+00 +/- 0.000000e+00) [K]

Current cycle: 400 out of 5000
===============================================================================

Box:      18.90053   0.00000   0.00000  Average:  19.20725   0.00000   0.00000
           0.00000  18.90053   0.00000             0.00000  19.20725   0.00000
           0.00000   0.00000  18.90053             0.00000   0.00000  19.20725
Lengths:  18.90053  18.90053  18.90053  Average:  19.20725  19.20725  19.20725
Angles:   90.00000  90.00000  90.00000  Average:  90.00000  90.00000  90.00000
Rectangular boundary conditions

net charge:   0.00000000

component 0 (CO2) lambda:  0 occupancy:  1 (1.000000)
    net charge:   0.00000000 [e]

Amount of molecules per component :
-------------------------------------------------------------------------------
Component 0 (CO2)
    molecules:      1.000000e+02 molecules  (1.000000e+02 +/- 0.000000e+00)
    number density: 1.481077e-02 molec./A^3 (1.411633e-02 +/- 0.000000e+00)
    density:        1.082100e+03 kg/m^3     (1.031363e+03 +/- 0.000000e+00)

Average pressure tensor: 
-------------------------------------------------------------------------------
 6.4703e+01 -2.2316e+01  1.4885e+02 +/- 0.0000e+00 0.0000e+00 0.0000e+00 [bar]
-2.2316e+01  1.0486e+02  8.2187e+01 +/- 0.0000e+00 0.0000e+00 0.0000e+00 [bar]
 1.4885e+02  8.2187e+01  1.3839e+01 +/- 0.0000e+00 0.0000e+00 0.0000e+00 [bar]
Ideal-gas pressure:   4.872430e+02 +/ 0.000000e+00 [bar]
Excess pressure:     -4.261085e+02 +/ 0.000000e+00 [bar]
Pressure:             6.113450e+01 +/ 0.000000e+00 [bar]

Total potential energy/kʙ  -1.551553e+05 (-1.492386e+05 +/- 0.000000e+00) [K]
-------------------------------------------------------------------------------
ExternalField-molecule
    Van der Waals/kʙ        0.000000e+00 ( 0.000000e+00 +/- 0.000000e+00) [K]
Framework-molecule
    Van der Waals/kʙ        0.000000e+00 ( 0.000000e+00 +/- 0.000000e+00) [K]
    Van der Waals (Tail)/kʙ 0.000000e+00 ( 0.000000e+00 +/- 0.000000e+00) [K]
    Coulombic Real/kʙ       0.000000e+00 ( 0.000000e+00 +/- 0.000000e+00) [K]
    Coulombic Fourier/kʙ    0.000000e+00 ( 0.000000e+00 +/- 0.000000e+00) [K]
Molecule-molecule
    Van der Waals/kʙ       -1.110675e+05 (-1.056832e+05 +/- 0.000000e+00) [K]
    Van der Waals (Tail)/kʙ-4.752109e+03 (-4.532758e+03 +/- 0.000000e+00) [K]
    Coulombic Real/kʙ      -3.154430e+04 (-3.126467e+04 +/- 0.000000e+00) [K]
    Coulombic Fourier/kʙ   -7.791376e+03 (-7.758005e+03 +/- 0.000000e+00) [K]
    Molecule Intra/kʙ       0.000000e+00 ( 0.000000e+00 +/- 0.000000e+00) [K]

Current cycle: 500 out of 5000
===============================================================================

Box:      19.35731   0.00000   0.00000  Average:  19.20997   0.00000   0.00000
           0.00000  19.35731   0.00000             0.00000  19.20997   0.00000
           0.00000   0.00000  19.35731             0.00000   0.00000  19.20997
Lengths:  19.35731  19.35731  19.35731  Average:  19.20997  19.20997  19.20997
Angles:   90.00000  90.00000  90.00000  Average:  90.00000  90.00000  90.00000
Rectangular boundary conditions

net charge:   0.00000000

component 0 (CO2) lambda:  0 occupancy:  1 (1.000000)
    net charge:   0.00000000 [e]

Amount of molecules per component :
-------------------------------------------------------------------------------
Component 0 (CO2)
    molecules:      1.000000e+02 molecules  (1.000000e+02 +/- 0.000000e+00)
    number density: 1.378685e-02 molec./A^3 (1.411070e-02 +/- 0.000000e+00)
    density:        1.007290e+03 kg/m^3     (1.030952e+03 +/- 0.000000e+00)

Average pressure tensor: 
-------------------------------------------------------------------------------
 9.0627e+01 -1.8946e+01  1.3822e+02 +/- 0.0000e+00 0.0000e+00 0.0000e+00 [bar]
-1.8946e+01  6.0685e+01  1.0912e+02 +/- 0.0000e+00 0.0000e+00 0.0000e+00 [bar]
 1.3822e+02  1.0912e+02  6.6318e+01 +/- 0.0000e+00 0.0000e+00 0.0000e+00 [bar]
Ideal-gas pressure:   4.870484e+02 +/ 0.000000e+00 [bar]
Excess pressure:     -4.145051e+02 +/ 0.000000e+00 [bar]
Pressure:             7.254325e+01 +/ 0.000000e+00 [bar]

Total potential energy/kʙ  -1.455747e+05 (-1.483079e+05 +/- 0.000000e+00) [K]
-------------------------------------------------------------------------------
ExternalField-molecule
    Van der Waals/kʙ        0.000000e+00 ( 0.000000e+00 +/- 0.000000e+00) [K]
Framework-molecule
    Van der Waals/kʙ        0.000000e+00 ( 0.000000e+00 +/- 0.000000e+00) [K]
    Van der Waals (Tail)/kʙ 0.000000e+00 ( 0.000000e+00 +/- 0.000000e+00) [K]
    Coulombic Real/kʙ       0.000000e+00 ( 0.000000e+00 +/- 0.000000e+00) [K]
    Coulombic Fourier/kʙ    0.000000e+00 ( 0.000000e+00 +/- 0.000000e+00) [K]
Molecule-molecule
    Van der Waals/kʙ       -1.027476e+05 (-1.054388e+05 +/- 0.000000e+00) [K]
    Van der Waals (Tail)/kʙ-4.423577e+03 (-4.526930e+03 +/- 0.000000e+00) [K]
    Coulombic Real/kʙ      -3.120620e+04 (-3.071372e+04 +/- 0.000000e+00) [K]
    Coulombic Fourier/kʙ   -7.197301e+03 (-7.628440e+03 +/- 0.000000e+00) [K]
    Molecule Intra/kʙ       0.000000e+00 ( 0.000000e+00 +/- 0.000000e+00) [K]

Current cycle: 600 out of 5000
===============================================================================

Box:      19.22410   0.00000   0.00000  Average:  19.23425   0.00000   0.00000
           0.00000  19.22410   0.00000             0.00000  19.23425   0.00000
           0.00000   0.00000  19.22410             0.00000   0.00000  19.23425
Lengths:  19.22410  19.22410  19.22410  Average:  19.23425  19.23425  19.23425
Angles:   90.00000  90.00000  90.00000  Average:  90.00000  90.00000  90.00000
Rectangular boundary conditions

net charge:   0.00000000

component 0 (CO2) lambda:  0 occupancy:  1 (1.000000)
    net charge:   0.00000000 [e]

Amount of molecules per component :
-------------------------------------------------------------------------------
Component 0 (CO2)
    molecules:      1.000000e+02 molecules  (1.000000e+02 +/- 0.000000e+00)
    number density: 1.407544e-02 molec./A^3 (1.405799e-02 +/- 0.000000e+00)
    density:        1.028375e+03 kg/m^3     (1.027101e+03 +/- 0.000000e+00)

Average pressure tensor: 
-------------------------------------------------------------------------------
 5.6718e+01 -2.4719e+00  1.1354e+02 +/- 0.0000e+00 0.0000e+00 0.0000e+00 [bar]
-2.4719e+00  4.0944e+01  1.0124e+02 +/- 0.0000e+00 0.0000e+00 0.0000e+00 [bar]
 1.1354e+02  1.0124e+02  4.1505e+01 +/- 0.0000e+00 0.0000e+00 0.0000e+00 [bar]
Ideal-gas pressure:   4.852291e+02 +/ 0.000000e+00 [bar]
Excess pressure:     -4.388402e+02 +/ 0.000000e+00 [bar]
Pressure:             4.638891e+01 +/ 0.000000e+00 [bar]

Total potential energy/kʙ  -1.506484e+05 (-1.477232e+05 +/- 0.000000e+00) [K]
-------------------------------------------------------------------------------
ExternalField-molecule
    Van der Waals/kʙ        0.000000e+00 ( 0.000000e+00 +/- 0.000000e+00) [K]
Framework-molecule
    Van der Waals/kʙ        0.000000e+00 ( 0.000000e+00 +/- 0.000000e+00) [K]
    Van der Waals (Tail)/kʙ 0.000000e+00 ( 0.000000e+00 +/- 0.000000e+00) [K]
    Coulombic Real/kʙ       0.000000e+00 ( 0.000000e+00 +/- 0.000000e+00) [K]
    Coulombic Fourier/kʙ    0.000000e+00 ( 0.000000e+00 +/- 0.000000e+00) [K]
Molecule-molecule
    Van der Waals/kʙ       -1.050376e+05 (-1.051176e+05 +/- 0.000000e+00) [K]
    Van der Waals (Tail)/kʙ-4.516173e+03 (-4.510648e+03 +/- 0.000000e+00) [K]
    Coulombic Real/kʙ      -3.331584e+04 (-3.054343e+04 +/- 0.000000e+00) [K]
    Coulombic Fourier/kʙ   -7.778813e+03 (-7.551506e+03 +/- 0.000000e+00) [K]
    Molecule Intra/kʙ       0.000000e+00 ( 0.000000e+00 +/- 0.000000e+00) [K]

Current cycle: 700 out of 5000
===============================================================================

Box:      18.87478   0.00000   0.00000  Average:  19.20619   0.00000   0.00000
           0.00000  18.87478   0.00000             0.00000  19.20619   0.00000
           0.00000   0.00000  18.87478             0.00000   0.00000  19.20619
Lengths:  18.87478  18.87478  18.87478  Average:  19.20619  19.20619  19.20619
Angles:   90.00000  90.00000  90.00000  Average:  90.00000  90.00000  90.00000
Rectangular boundary conditions

net charge:   0.00000000

component 0 (CO2) lambda:  0 occupancy:  1 (1.000000)
    net charge:   0.00000000 [e]

Amount of molecules per component :
-------------------------------------------------------------------------------
Component 0 (CO2)
    molecules:      1.000000e+02 molecules  (1.000000e+02 +/- 0.000000e+00)
    number density: 1.487148e-02 molec./A^3 (1.412042e-02 +/- 0.000000e+00)
    density:        1.086536e+03 kg/m^3     (1.031662e+03 +/- 0.000000e+00)

Average pressure tensor: 
-------------------------------------------------------------------------------
 3.2152e+01 -7.6915e+00  1.2136e+02 +/- 0.0000e+00 0.0000e+00 0.0000e+00 [bar]
-7.6915e+00  3.1855e+01  1.1123e+02 +/- 0.0000e+00 0.0000e+00 0.0000e+00 [bar]
 1.2136e+02  1.1123e+02  2.7735e+01 +/- 0.0000e+00 0.0000e+00 0.0000e+00 [bar]
Ideal-gas pressure:   4.873842e+02 +/ 0.000000e+00 [bar]
Excess pressure:     -4.568034e+02 +/ 0.000000e+00 [bar]
Pressure:             3.058082e+01 +/ 0.000000e+00 [bar]

Total potential energy/kʙ  -1.556225e+05 (-1.484290e+05 +/- 0.000000e+00) [K]
-------------------------------------------------------------------------------
ExternalField-molecule
    Van der Waals/kʙ        0.000000e+00 ( 0.000000e+00 +/- 0.000000e+00) [K]
Framework-molecule
    Van der Waals/kʙ        0.000000e+00 ( 0.000000e+00 +/- 0.000000e+00) [K]
    Van der Waals (Tail)/kʙ 0.000000e+00 ( 0.000000e+00 +/- 0.000000e+00) [K]
    Coulombic Real/kʙ       0.000000e+00 ( 0.000000e+00 +/- 0.000000e+00) [K]
    Coulombic Fourier/kʙ    0.000000e+00 ( 0.000000e+00 +/- 0.000000e+00) [K]
Molecule-molecule
    Van der Waals/kʙ       -1.123326e+05 (-1.056773e+05 +/- 0.000000e+00) [K]
    Van der Waals (Tail)/kʙ-4.771589e+03 (-4.528757e+03 +/- 0.000000e+00) [K]
    Coulombic Real/kʙ      -3.140680e+04 (-3.065360e+04 +/- 0.000000e+00) [K]
    Coulombic Fourier/kʙ   -7.111526e+03 (-7.569351e+03 +/- 0.000000e+00) [K]
    Molecule Intra/kʙ       0.000000e+00 ( 0.000000e+00 +/- 0.000000e+00) [K]

Current cycle: 800 out of 5000
===============================================================================

Box:      19.17475   0.00000   0.00000  Average:  19.18672   0.00000   0.00000
           0.00000  19.17475   0.00000             0.00000  19.18672   0.00000
           0.00000   0.00000  19.17475             0.00000   0.00000  19.18672
Lengths:  19.17475  19.17475  19.17475  Average:  19.18672  19.18672  19.18672
Angles:   90.00000  90.00000  90.00000  Average:  90.00000  90.00000  90.00000
Rectangular boundary conditions

net charge:   0.00000000

component 0 (CO2) lambda:  0 occupancy:  1 (1.000000)
    net charge:   0.00000000 [e]

Amount of molecules per component :
-------------------------------------------------------------------------------
Component 0 (CO2)
    molecules:      1.000000e+02 molecules  (1.000000e+02 +/- 0.000000e+00)
    number density: 1.418441e-02 molec./A^3 (1.416363e-02 +/- 0.000000e+00)
    density:        1.036337e+03 kg/m^3     (1.034819e+03 +/- 0.000000e+00)

Average pressure tensor: 
-------------------------------------------------------------------------------
 4.2522e+01  1.1639e+00  9.9852e+01 +/- 0.0000e+00 0.0000e+00 0.0000e+00 [bar]
 1.1639e+00  6.5028e+01  1.0810e+02 +/- 0.0000e+00 0.0000e+00 0.0000e+00 [bar]
 9.9852e+01  1.0810e+02  4.4836e+01 +/- 0.0000e+00 0.0000e+00 0.0000e+00 [bar]
Ideal-gas pressure:   4.888757e+02 +/ 0.000000e+00 [bar]
Excess pressure:     -4.380801e+02 +/ 0.000000e+00 [bar]
Pressure:             5.079556e+01 +/ 0.000000e+00 [bar]

Total potential energy/kʙ  -1.487506e+05 (-1.488775e+05 +/- 0.000000e+00) [K]
-------------------------------------------------------------------------------
ExternalField-molecule
    Van der Waals/kʙ        0.000000e+00 ( 0.000000e+00 +/- 0.000000e+00) [K]
Framework-molecule
    Van der Waals/kʙ        0.000000e+00 ( 0.000000e+00 +/- 0.000000e+00) [K]
    Van der Waals (Tail)/kʙ 0.000000e+00 ( 0.000000e+00 +/- 0.000000e+00) [K]
    Coulombic Real/kʙ       0.000000e+00 ( 0.000000e+00 +/- 0.000000e+00) [K]
    Coulombic Fourier/kʙ    0.000000e+00 ( 0.000000e+00 +/- 0.000000e+00) [K]
Molecule-molecule
    Van der Waals/kʙ       -1.032812e+05 (-1.059183e+05 +/- 0.000000e+00) [K]
    Van der Waals (Tail)/kʙ-4.551137e+03 (-4.543569e+03 +/- 0.000000e+00) [K]
    Coulombic Real/kʙ      -3.285663e+04 (-3.080014e+04 +/- 0.000000e+00) [K]
    Coulombic Fourier/kʙ   -8.061672e+03 (-7.615537e+03 +/- 0.000000e+00) [K]
    Molecule Intra/kʙ       0.000000e+00 ( 0.000000e+00 +/- 0.000000e+00) [K]

Current cycle: 900 out of 5000
===============================================================================

Box:      19.18169   0.00000   0.00000  Average:  19.17718   0.00000   0.00000
           0.00000  19.18169   0.00000             0.00000  19.17718   0.00000
           0.00000   0.00000  19.18169             0.00000   0.00000  19.17718
Lengths:  19.18169  19.18169  19.18169  Average:  19.17718  19.17718  19.17718
Angles:   90.00000  90.00000  90.00000  Average:  90.00000  90.00000  90.00000
Rectangular boundary conditions

net charge:   0.00000000

component 0 (CO2) lambda:  0 occupancy:  1 (1.000000)
    net charge:   0.00000000 [e]

Amount of molecules per component :
-------------------------------------------------------------------------------
Component 0 (CO2)
    molecules:      1.000000e+02 molecules  (1.000000e+02 +/- 0.000000e+00)
    number density: 1.416902e-02 molec./A^3 (1.418457e-02 +/- 0.000000e+00)
    density:        1.035213e+03 kg/m^3     (1.036349e+03 +/- 0.000000e+00)

Average pressure tensor: 
-------------------------------------------------------------------------------
 5.4784e+00 -5.8565e+00  9.0625e+01 +/- 0.0000e+00 0.0000e+00 0.0000e+00 [bar]
-5.8565e+00  1.1183e+02  7.0537e+01 +/- 0.0000e+00 0.0000e+00 0.0000e+00 [bar]
 9.0625e+01  7.0537e+01  5.8417e+01 +/- 0.0000e+00 0.0000e+00 0.0000e+00 [bar]
Ideal-gas pressure:   4.895983e+02 +/ 0.000000e+00 [bar]
Excess pressure:     -4.310241e+02 +/ 0.000000e+00 [bar]
Pressure:             5.857427e+01 +/ 0.000000e+00 [bar]

Total potential energy/kʙ  -1.472098e+05 (-1.491065e+05 +/- 0.000000e+00) [K]
-------------------------------------------------------------------------------
ExternalField-molecule
    Van der Waals/kʙ        0.000000e+00 ( 0.000000e+00 +/- 0.000000e+00) [K]
Framework-molecule
    Van der Waals/kʙ        0.000000e+00 ( 0.000000e+00 +/- 0.000000e+00) [K]
    Van der Waals (Tail)/kʙ 0.000000e+00 ( 0.000000e+00 +/- 0.000000e+00) [K]
    Coulombic Real/kʙ       0.000000e+00 ( 0.000000e+00 +/- 0.000000e+00) [K]
    Coulombic Fourier/kʙ    0.000000e+00 ( 0.000000e+00 +/- 0.000000e+00) [K]
Molecule-molecule
    Van der Waals/kʙ       -1.064256e+05 (-1.059586e+05 +/- 0.000000e+00) [K]
    Van der Waals (Tail)/kʙ-4.546199e+03 (-4.549002e+03 +/- 0.000000e+00) [K]
    Coulombic Real/kʙ      -2.951923e+04 (-3.095762e+04 +/- 0.000000e+00) [K]
    Coulombic Fourier/kʙ   -6.718847e+03 (-7.641231e+03 +/- 0.000000e+00) [K]
    Molecule Intra/kʙ       0.000000e+00 ( 0.000000e+00 +/- 0.000000e+00) [K]

Current cycle: 1000 out of 5000
===============================================================================

Box:      18.79974   0.00000   0.00000  Average:  19.16692   0.00000   0.00000
           0.00000  18.79974   0.00000             0.00000  19.16692   0.00000
           0.00000   0.00000  18.79974             0.00000   0.00000  19.16692
Lengths:  18.79974  18.79974  18.79974  Average:  19.16692  19.16692  19.16692
Angles:   90.00000  90.00000  90.00000  Average:  90.00000  90.00000  90.00000
Rectangular boundary conditions

net charge:   0.00000000

component 0 (CO2) lambda:  0 occupancy:  1 (1.000000)
    net charge:   0.00000000 [e]

Amount of molecules per component :
-------------------------------------------------------------------------------
Component 0 (CO2)
    molecules:      1.000000e+02 molecules  (1.000000e+02 +/- 0.000000e+00)
    number density: 1.505028e-02 molec./A^3 (1.420757e-02 +/- 0.000000e+00)
    density:        1.099599e+03 kg/m^3     (1.038030e+03 +/- 0.000000e+00)

Average pressure tensor: 
-------------------------------------------------------------------------------
 2.3490e+00 -1.7045e+01  8.6454e+01 +/- 0.0000e+00 0.0000e+00 0.0000e+00 [bar]
-1.7045e+01  1.7399e+02  2.8679e+01 +/- 0.0000e+00 0.0000e+00 0.0000e+00 [bar]
 8.6454e+01  2.8679e+01  2.7920e+01 +/- 0.0000e+00 0.0000e+00 0.0000e+00 [bar]
Ideal-gas pressure:   4.903923e+02 +/ 0.000000e+00 [bar]
Excess pressure:     -4.223054e+02 +/ 0.000000e+00 [bar]
Pressure:             6.808687e+01 +/ 0.000000e+00 [bar]

Total potential energy/kʙ  -1.583813e+05 (-1.494566e+05 +/- 0.000000e+00) [K]
-------------------------------------------------------------------------------
ExternalField-molecule
    Van der Waals/kʙ        0.000000e+00 ( 0.000000e+00 +/- 0.000000e+00) [K]
Framework-molecule
    Van der Waals/kʙ        0.000000e+00 ( 0.000000e+00 +/- 0.000000e+00) [K]
    Van der Waals (Tail)/kʙ 0.000000e+00 ( 0.000000e+00 +/- 0.000000e+00) [K]
    Coulombic Real/kʙ       0.000000e+00 ( 0.000000e+00 +/- 0.000000e+00) [K]
    Coulombic Fourier/kʙ    0.000000e+00 ( 0.000000e+00 +/- 0.000000e+00) [K]
Molecule-molecule
    Van der Waals/kʙ       -1.111686e+05 (-1.061732e+05 +/- 0.000000e+00) [K]
    Van der Waals (Tail)/kʙ-4.828956e+03 (-4.558173e+03 +/- 0.000000e+00) [K]
    Coulombic Real/kʙ      -3.453870e+04 (-3.104792e+04 +/- 0.000000e+00) [K]
    Coulombic Fourier/kʙ   -7.844993e+03 (-7.677336e+03 +/- 0.000000e+00) [K]
    Molecule Intra/kʙ       0.000000e+00 ( 0.000000e+00 +/- 0.000000e+00) [K]

Current cycle: 1100 out of 5000
===============================================================================

Box:      18.64396   0.00000   0.00000  Average:  19.12828   0.00000   0.00000
           0.00000  18.64396   0.00000             0.00000  19.12828   0.00000
           0.00000   0.00000  18.64396             0.00000   0.00000  19.12828
Lengths:  18.64396  18.64396  18.64396  Average:  19.12828  19.12828  19.12828
Angles:   90.00000  90.00000  90.00000  Average:  90.00000  90.00000  90.00000
Rectangular boundary conditions

net charge:   0.00000000

component 0 (CO2) lambda:  0 occupancy:  1 (1.000000)
    net charge:   0.00000000 [e]

Amount of molecules per component :
-------------------------------------------------------------------------------
Component 0 (CO2)
    molecules:      1.000000e+02 molecules  (1.000000e+02 +/- 0.000000e+00)
    number density: 1.543068e-02 molec./A^3 (1.429729e-02 +/- 0.000000e+00)
    density:        1.127392e+03 kg/m^3     (1.044584e+03 +/- 0.000000e+00)

Average pressure tensor: 
-------------------------------------------------------------------------------
 5.3418e+01 -4.3621e+01  6.7715e+01 +/- 0.0000e+00 0.0000e+00 0.0000e+00 [bar]
-4.3621e+01  2.1104e+02  6.9690e+00 +/- 0.0000e+00 0.0000e+00 0.0000e+00 [bar]
 6.7715e+01  6.9690e+00  5.4696e+01 +/- 0.0000e+00 0.0000e+00 0.0000e+00 [bar]
Ideal-gas pressure:   4.934889e+02 +/ 0.000000e+00 [bar]
Excess pressure:     -3.871037e+02 +/ 0.000000e+00 [bar]
Pressure:             1.063852e+02 +/ 0.000000e+00 [bar]

Total potential energy/kʙ  -1.668268e+05 (-1.507653e+05 +/- 0.000000e+00) [K]
-------------------------------------------------------------------------------
ExternalField-molecule
    Van der Waals/kʙ        0.000000e+00 ( 0.000000e+00 +/- 0.000000e+00) [K]
Framework-molecule
    Van der Waals/kʙ        0.000000e+00 ( 0.000000e+00 +/- 0.000000e+00) [K]
    Van der Waals (Tail)/kʙ 0.000000e+00 ( 0.000000e+00 +/- 0.000000e+00) [K]
    Coulombic Real/kʙ       0.000000e+00 ( 0.000000e+00 +/- 0.000000e+00) [K]
    Coulombic Fourier/kʙ    0.000000e+00 ( 0.000000e+00 +/- 0.000000e+00) [K]
Molecule-molecule
    Van der Waals/kʙ       -1.186721e+05 (-1.068796e+05 +/- 0.000000e+00) [K]
    Van der Waals (Tail)/kʙ-4.951011e+03 (-4.589832e+03 +/- 0.000000e+00) [K]
    Coulombic Real/kʙ      -3.475216e+04 (-3.156386e+04 +/- 0.000000e+00) [K]
    Coulombic Fourier/kʙ   -8.451486e+03 (-7.732008e+03 +/- 0.000000e+00) [K]
    Molecule Intra/kʙ       0.000000e+00 ( 0.000000e+00 +/- 0.000000e+00) [K]

Current cycle: 1200 out of 5000
===============================================================================

Box:      18.65297   0.00000   0.00000  Average:  19.08671   0.00000   0.00000
           0.00000  18.65297   0.00000             0.00000  19.08671   0.00000
           0.00000   0.00000  18.65297             0.00000   0.00000  19.08671
Lengths:  18.65297  18.65297  18.65297  Average:  19.08671  19.08671  19.08671
Angles:   90.00000  90.00000  90.00000  Average:  90.00000  90.00000  90.00000
Rectangular boundary conditions

net charge:   0.00000000

component 0 (CO2) lambda:  0 occupancy:  1 (1.000000)
    net charge:   0.00000000 [e]

Amount of molecules per component :
-------------------------------------------------------------------------------
Component 0 (CO2)
    molecules:      1.000000e+02 molecules  (1.000000e+02 +/- 0.000000e+00)
    number density: 1.540835e-02 molec./A^3 (1.439498e-02 +/- 0.000000e+00)
    density:        1.125760e+03 kg/m^3     (1.051722e+03 +/- 0.000000e+00)

Average pressure tensor: 
-------------------------------------------------------------------------------
 9.9688e+01 -4.6495e+01  5.3373e+01 +/- 0.0000e+00 0.0000e+00 0.0000e+00 [bar]
-4.6495e+01  2.1232e+02  3.7066e+01 +/- 0.0000e+00 0.0000e+00 0.0000e+00 [bar]
 5.3373e+01  3.7066e+01  3.5324e+01 +/- 0.0000e+00 0.0000e+00 0.0000e+00 [bar]
Ideal-gas pressure:   4.968607e+02 +/ 0.000000e+00 [bar]
Excess pressure:     -3.810844e+02 +/ 0.000000e+00 [bar]
Pressure:             1.157763e+02 +/ 0.000000e+00 [bar]

Total potential energy/kʙ  -1.691486e+05 (-1.522937e+05 +/- 0.000000e+00) [K]
-------------------------------------------------------------------------------
ExternalField-molecule
    Van der Waals/kʙ        0.000000e+00 ( 0.000000e+00 +/- 0.000000e+00) [K]
Framework-molecule
    Van der Waals/kʙ        0.000000e+00 ( 0.000000e+00 +/- 0.000000e+00) [K]
    Van der Waals (Tail)/kʙ 0.000000e+00 ( 0.000000e+00 +/- 0.000000e+00) [K]
    Coulombic Real/kʙ       0.000000e+00 ( 0.000000e+00 +/- 0.000000e+00) [K]
    Coulombic Fourier/kʙ    0.000000e+00 ( 0.000000e+00 +/- 0.000000e+00) [K]
Molecule-molecule
    Van der Waals/kʙ       -1.182011e+05 (-1.075895e+05 +/- 0.000000e+00) [K]
    Van der Waals (Tail)/kʙ-4.943845e+03 (-4.620533e+03 +/- 0.000000e+00) [K]
    Coulombic Real/kʙ      -3.758753e+04 (-3.225246e+04 +/- 0.000000e+00) [K]
    Coulombic Fourier/kʙ   -8.416121e+03 (-7.831161e+03 +/- 0.000000e+00) [K]
    Molecule Intra/kʙ       0.000000e+00 ( 0.000000e+00 +/- 0.000000e+00) [K]

Current cycle: 1300 out of 5000
===============================================================================

Box:      18.34825   0.00000   0.00000  Average:  19.03750   0.00000   0.00000
           0.00000  18.34825   0.00000             0.00000  19.03750   0.00000
           0.00000   0.00000  18.34825             0.00000   0.00000  19.03750
Lengths:  18.34825  18.34825  18.34825  Average:  19.03750  19.03750  19.03750
Angles:   90.00000  90.00000  90.00000  Average:  90.00000  90.00000  90.00000
Rectangular boundary conditions

net charge:   0.00000000

component 0 (CO2) lambda:  0 occupancy:  1 (1.000000)
    net charge:   0.00000000 [e]

Amount of molecules per component :
-------------------------------------------------------------------------------
Component 0 (CO2)
    molecules:      1.000000e+02 molecules  (1.000000e+02 +/- 0.000000e+00)
    number density: 1.618885e-02 molec./A^3 (1.451350e-02 +/- 0.000000e+00)
    density:        1.182785e+03 kg/m^3     (1.060381e+03 +/- 0.000000e+00)

Average pressure tensor: 
-------------------------------------------------------------------------------
 1.2188e+02 -3.9638e+01  6.0135e+01 +/- 0.0000e+00 0.0000e+00 0.0000e+00 [bar]
-3.9638e+01  2.2749e+02  4.5463e+01 +/- 0.0000e+00 0.0000e+00 0.0000e+00 [bar]
 6.0135e+01  4.5463e+01  7.4317e+01 +/- 0.0000e+00 0.0000e+00 0.0000e+00 [bar]
Ideal-gas pressure:   5.009517e+02 +/ 0.000000e+00 [bar]
Excess pressure:     -3.597202e+02 +/ 0.000000e+00 [bar]
Pressure:             1.412316e+02 +/ 0.000000e+00 [bar]

Total potential energy/kʙ  -1.692119e+05 (-1.538129e+05 +/- 0.000000e+00) [K]
-------------------------------------------------------------------------------
ExternalField-molecule
    Van der Waals/kʙ        0.000000e+00 ( 0.000000e+00 +/- 0.000000e+00) [K]
Framework-molecule
    Van der Waals/kʙ        0.000000e+00 ( 0.000000e+00 +/- 0.000000e+00) [K]
    Van der Waals (Tail)/kʙ 0.000000e+00 ( 0.000000e+00 +/- 0.000000e+00) [K]
    Coulombic Real/kʙ       0.000000e+00 ( 0.000000e+00 +/- 0.000000e+00) [K]
    Coulombic Fourier/kʙ    0.000000e+00 ( 0.000000e+00 +/- 0.000000e+00) [K]
Molecule-molecule
    Van der Waals/kʙ       -1.194011e+05 (-1.085090e+05 +/- 0.000000e+00) [K]
    Van der Waals (Tail)/kʙ-5.194272e+03 (-4.659963e+03 +/- 0.000000e+00) [K]
    Coulombic Real/kʙ      -3.592793e+04 (-3.274920e+04 +/- 0.000000e+00) [K]
    Coulombic Fourier/kʙ   -8.688619e+03 (-7.894746e+03 +/- 0.000000e+00) [K]
    Molecule Intra/kʙ       0.000000e+00 ( 0.000000e+00 +/- 0.000000e+00) [K]

Current cycle: 1400 out of 5000
===============================================================================

Box:      18.80936   0.00000   0.00000  Average:  19.00542   0.00000   0.00000
           0.00000  18.80936   0.00000             0.00000  19.00542   0.00000
           0.00000   0.00000  18.80936             0.00000   0.00000  19.00542
Lengths:  18.80936  18.80936  18.80936  Average:  19.00542  19.00542  19.00542
Angles:   90.00000  90.00000  90.00000  Average:  90.00000  90.00000  90.00000
Rectangular boundary conditions

net charge:   0.00000000

component 0 (CO2) lambda:  0 occupancy:  1 (1.000000)
    net charge:   0.00000000 [e]

Amount of molecules per component :
-------------------------------------------------------------------------------
Component 0 (CO2)
    molecules:      1.000000e+02 molecules  (1.000000e+02 +/- 0.000000e+00)
    number density: 1.502719e-02 molec./A^3 (1.458917e-02 +/- 0.000000e+00)
    density:        1.097912e+03 kg/m^3     (1.065910e+03 +/- 0.000000e+00)

Average pressure tensor: 
-------------------------------------------------------------------------------
 1.2026e+02 -2.9678e+01  6.5862e+01 +/- 0.0000e+00 0.0000e+00 0.0000e+00 [bar]
-2.9678e+01  2.5186e+02  4.6463e+01 +/- 0.0000e+00 0.0000e+00 0.0000e+00 [bar]
 6.5862e+01  4.6463e+01  8.4152e+01 +/- 0.0000e+00 0.0000e+00 0.0000e+00 [bar]
Ideal-gas pressure:   5.035637e+02 +/ 0.000000e+00 [bar]
Excess pressure:     -3.514718e+02 +/ 0.000000e+00 [bar]
Pressure:             1.520918e+02 +/ 0.000000e+00 [bar]

Total potential energy/kʙ  -1.567118e+05 (-1.545009e+05 +/- 0.000000e+00) [K]
-------------------------------------------------------------------------------
ExternalField-molecule
    Van der Waals/kʙ        0.000000e+00 ( 0.000000e+00 +/- 0.000000e+00) [K]
Framework-molecule
    Van der Waals/kʙ        0.000000e+00 ( 0.000000e+00 +/- 0.000000e+00) [K]
    Van der Waals (Tail)/kʙ 0.000000e+00 ( 0.000000e+00 +/- 0.000000e+00) [K]
    Coulombic Real/kʙ       0.000000e+00 ( 0.000000e+00 +/- 0.000000e+00) [K]
    Coulombic Fourier/kʙ    0.000000e+00 ( 0.000000e+00 +/- 0.000000e+00) [K]
Molecule-molecule
    Van der Waals/kʙ       -1.114655e+05 (-1.091031e+05 +/- 0.000000e+00) [K]
    Van der Waals (Tail)/kʙ-4.821547e+03 (-4.682806e+03 +/- 0.000000e+00) [K]
    Coulombic Real/kʙ      -3.193055e+04 (-3.279651e+04 +/- 0.000000e+00) [K]
    Coulombic Fourier/kʙ   -8.494192e+03 (-7.918475e+03 +/- 0.000000e+00) [K]
    Molecule Intra/kʙ       0.000000e+00 ( 0.000000e+00 +/- 0.000000e+00) [K]

Current cycle: 1500 out of 5000
===============================================================================

Box:      18.57529   0.00000   0.00000  Average:  18.99243   0.00000   0.00000
           0.00000  18.57529   0.00000             0.00000  18.99243   0.00000
           0.00000   0.00000  18.57529             0.00000   0.00000  18.99243
Lengths:  18.57529  18.57529  18.57529  Average:  18.99243  18.99243  18.99243
Angles:   90.00000  90.00000  90.00000  Average:  90.00000  90.00000  90.00000
Rectangular boundary conditions

net charge:   0.00000000

component 0 (CO2) lambda:  0 occupancy:  1 (1.000000)
    net charge:   0.00000000 [e]

Amount of molecules per component :
-------------------------------------------------------------------------------
Component 0 (CO2)
    molecules:      1.000000e+02 molecules  (1.000000e+02 +/- 0.000000e+00)
    number density: 1.560247e-02 molec./A^3 (1.461829e-02 +/- 0.000000e+00)
    density:        1.139943e+03 kg/m^3     (1.068038e+03 +/- 0.000000e+00)

Average pressure tensor: 
-------------------------------------------------------------------------------
 1.1028e+02 -2.5804e+01  5.8298e+01 +/- 0.0000e+00 0.0000e+00 0.0000e+00 [bar]
-2.5804e+01  2.4031e+02  5.2799e+01 +/- 0.0000e+00 0.0000e+00 0.0000e+00 [bar]
 5.8298e+01  5.2799e+01  5.7853e+01 +/- 0.0000e+00 0.0000e+00 0.0000e+00 [bar]
Ideal-gas pressure:   5.045688e+02 +/ 0.000000e+00 [bar]
Excess pressure:     -3.684199e+02 +/ 0.000000e+00 [bar]
Pressure:             1.361489e+02 +/ 0.000000e+00 [bar]

Total potential energy/kʙ  -1.690472e+05 (-1.548396e+05 +/- 0.000000e+00) [K]
-------------------------------------------------------------------------------
ExternalField-molecule
    Van der Waals/kʙ        0.000000e+00 ( 0.000000e+00 +/- 0.000000e+00) [K]
Framework-molecule
    Van der Waals/kʙ        0.000000e+00 ( 0.000000e+00 +/- 0.000000e+00) [K]
    Van der Waals (Tail)/kʙ 0.000000e+00 ( 0.000000e+00 +/- 0.000000e+00) [K]
    Coulombic Real/kʙ       0.000000e+00 ( 0.000000e+00 +/- 0.000000e+00) [K]
    Coulombic Fourier/kʙ    0.000000e+00 ( 0.000000e+00 +/- 0.000000e+00) [K]
Molecule-molecule
    Van der Waals/kʙ       -1.182007e+05 (-1.095017e+05 +/- 0.000000e+00) [K]
    Van der Waals (Tail)/kʙ-5.006130e+03 (-4.691516e+03 +/- 0.000000e+00) [K]
    Coulombic Real/kʙ      -3.735862e+04 (-3.273021e+04 +/- 0.000000e+00) [K]
    Coulombic Fourier/kʙ   -8.481746e+03 (-7.916203e+03 +/- 0.000000e+00) [K]
    Molecule Intra/kʙ       0.000000e+00 ( 0.000000e+00 +/- 0.000000e+00) [K]

Current cycle: 1600 out of 5000
===============================================================================

Box:      18.78396   0.00000   0.00000  Average:  18.96779   0.00000   0.00000
           0.00000  18.78396   0.00000             0.00000  18.96779   0.00000
           0.00000   0.00000  18.78396             0.00000   0.00000  18.96779
Lengths:  18.78396  18.78396  18.78396  Average:  18.96779  18.96779  18.96779
Angles:   90.00000  90.00000  90.00000  Average:  90.00000  90.00000  90.00000
Rectangular boundary conditions

net charge:   0.00000000

component 0 (CO2) lambda:  0 occupancy:  1 (1.000000)
    net charge:   0.00000000 [e]

Amount of molecules per component :
-------------------------------------------------------------------------------
Component 0 (CO2)
    molecules:      1.000000e+02 molecules  (1.000000e+02 +/- 0.000000e+00)
    number density: 1.508823e-02 molec./A^3 (1.467630e-02 +/- 0.000000e+00)
    density:        1.102372e+03 kg/m^3     (1.072276e+03 +/- 0.000000e+00)

Average pressure tensor: 
-------------------------------------------------------------------------------
 1.1283e+02 -2.9059e+01  5.3346e+01 +/- 0.0000e+00 0.0000e+00 0.0000e+00 [bar]
-2.9059e+01  2.3447e+02  4.9831e+01 +/- 0.0000e+00 0.0000e+00 0.0000e+00 [bar]
 5.3346e+01  4.9831e+01  7.4815e+01 +/- 0.0000e+00 0.0000e+00 0.0000e+00 [bar]
Ideal-gas pressure:   5.065710e+02 +/ 0.000000e+00 [bar]
Excess pressure:     -3.658670e+02 +/ 0.000000e+00 [bar]
Pressure:             1.407040e+02 +/ 0.000000e+00 [bar]

Total potential energy/kʙ  -1.638594e+05 (-1.556365e+05 +/- 0.000000e+00) [K]
-------------------------------------------------------------------------------
ExternalField-molecule
    Van der Waals/kʙ        0.000000e+00 ( 0.000000e+00 +/- 0.000000e+00) [K]
Framework-molecule
    Van der Waals/kʙ        0.000000e+00 ( 0.000000e+00 +/- 0.000000e+00) [K]
    Van der Waals (Tail)/kʙ 0.000000e+00 ( 0.000000e+00 +/- 0.000000e+00) [K]
    Coulombic Real/kʙ       0.000000e+00 ( 0.000000e+00 +/- 0.000000e+00) [K]
    Coulombic Fourier/kʙ    0.000000e+00 ( 0.000000e+00 +/- 0.000000e+00) [K]
Molecule-molecule
    Van der Waals/kʙ       -1.133769e+05 (-1.099375e+05 +/- 0.000000e+00) [K]
    Van der Waals (Tail)/kʙ-4.841132e+03 (-4.709936e+03 +/- 0.000000e+00) [K]
    Coulombic Real/kʙ      -3.675294e+04 (-3.303141e+04 +/- 0.000000e+00) [K]
    Coulombic Fourier/kʙ   -8.888425e+03 (-7.957580e+03 +/- 0.000000e+00) [K]
    Molecule Intra/kʙ       0.000000e+00 ( 0.000000e+00 +/- 0.000000e+00) [K]

Current cycle: 1700 out of 5000
===============================================================================

Box:      18.56906   0.00000   0.00000  Average:  18.95177   0.00000   0.00000
           0.00000  18.56906   0.00000             0.00000  18.95177   0.00000
           0.00000   0.00000  18.56906             0.00000   0.00000  18.95177
Lengths:  18.56906  18.56906  18.56906  Average:  18.95177  18.95177  18.95177
Angles:   90.00000  90.00000  90.00000  Average:  90.00000  90.00000  90.00000
Rectangular boundary conditions

net charge:   0.00000000

component 0 (CO2) lambda:  0 occupancy:  1 (1.000000)
    net charge:   0.00000000 [e]

Amount of molecules per component :
-------------------------------------------------------------------------------
Component 0 (CO2)
    molecules:      1.000000e+02 molecules  (1.000000e+02 +/- 0.000000e+00)
    number density: 1.561818e-02 molec./A^3 (1.471329e-02 +/- 0.000000e+00)
    density:        1.141091e+03 kg/m^3     (1.074978e+03 +/- 0.000000e+00)

Average pressure tensor: 
-------------------------------------------------------------------------------
 1.1638e+02 -2.9533e+01  5.2264e+01 +/- 0.0000e+00 0.0000e+00 0.0000e+00 [bar]
-2.9533e+01  2.2516e+02  4.7956e+01 +/- 0.0000e+00 0.0000e+00 0.0000e+00 [bar]
 5.2264e+01  4.7956e+01  7.3948e+01 +/- 0.0000e+00 0.0000e+00 0.0000e+00 [bar]
Ideal-gas pressure:   5.078479e+02 +/ 0.000000e+00 [bar]
Excess pressure:     -3.693541e+02 +/ 0.000000e+00 [bar]
Pressure:             1.384938e+02 +/ 0.000000e+00 [bar]

Total potential energy/kʙ  -1.638888e+05 (-1.560779e+05 +/- 0.000000e+00) [K]
-------------------------------------------------------------------------------
ExternalField-molecule
    Van der Waals/kʙ        0.000000e+00 ( 0.000000e+00 +/- 0.000000e+00) [K]
Framework-molecule
    Van der Waals/kʙ        0.000000e+00 ( 0.000000e+00 +/- 0.000000e+00) [K]
    Van der Waals (Tail)/kʙ 0.000000e+00 ( 0.000000e+00 +/- 0.000000e+00) [K]
    Coulombic Real/kʙ       0.000000e+00 ( 0.000000e+00 +/- 0.000000e+00) [K]
    Coulombic Fourier/kʙ    0.000000e+00 ( 0.000000e+00 +/- 0.000000e+00) [K]
Molecule-molecule
    Van der Waals/kʙ       -1.156371e+05 (-1.102317e+05 +/- 0.000000e+00) [K]
    Van der Waals (Tail)/kʙ-5.011171e+03 (-4.722549e+03 +/- 0.000000e+00) [K]
    Coulombic Real/kʙ      -3.448027e+04 (-3.312159e+04 +/- 0.000000e+00) [K]
    Coulombic Fourier/kʙ   -8.760218e+03 (-8.002050e+03 +/- 0.000000e+00) [K]
    Molecule Intra/kʙ       0.000000e+00 ( 0.000000e+00 +/- 0.000000e+00) [K]

Current cycle: 1800 out of 5000
===============================================================================

Box:      18.72534   0.00000   0.00000  Average:  18.93445   0.00000   0.00000
           0.00000  18.72534   0.00000             0.00000  18.93445   0.00000
           0.00000   0.00000  18.72534             0.00000   0.00000  18.93445
Lengths:  18.72534  18.72534  18.72534  Average:  18.93445  18.93445  18.93445
Angles:   90.00000  90.00000  90.00000  Average:  90.00000  90.00000  90.00000
Rectangular boundary conditions

net charge:   0.00000000

component 0 (CO2) lambda:  0 occupancy:  1 (1.000000)
    net charge:   0.00000000 [e]

Amount of molecules per component :
-------------------------------------------------------------------------------
Component 0 (CO2)
    molecules:      1.000000e+02 molecules  (1.000000e+02 +/- 0.000000e+00)
    number density: 1.523037e-02 molec./A^3 (1.475375e-02 +/- 0.000000e+00)
    density:        1.112757e+03 kg/m^3     (1.077934e+03 +/- 0.000000e+00)

Average pressure tensor: 
-------------------------------------------------------------------------------
 1.4541e+02 -4.2394e+01  6.2911e+01 +/- 0.0000e+00 0.0000e+00 0.0000e+00 [bar]
-4.2394e+01  2.3008e+02  4.7051e+01 +/- 0.0000e+00 0.0000e+00 0.0000e+00 [bar]
 6.2911e+01  4.7051e+01  7.3533e+01 +/- 0.0000e+00 0.0000e+00 0.0000e+00 [bar]
Ideal-gas pressure:   5.092443e+02 +/ 0.000000e+00 [bar]
Excess pressure:     -3.595682e+02 +/ 0.000000e+00 [bar]
Pressure:             1.496761e+02 +/ 0.000000e+00 [bar]

Total potential energy/kʙ  -1.657517e+05 (-1.564843e+05 +/- 0.000000e+00) [K]
-------------------------------------------------------------------------------
ExternalField-molecule
    Van der Waals/kʙ        0.000000e+00 ( 0.000000e+00 +/- 0.000000e+00) [K]
Framework-molecule
    Van der Waals/kʙ        0.000000e+00 ( 0.000000e+00 +/- 0.000000e+00) [K]
    Van der Waals (Tail)/kʙ 0.000000e+00 ( 0.000000e+00 +/- 0.000000e+00) [K]
    Coulombic Real/kʙ       0.000000e+00 ( 0.000000e+00 +/- 0.000000e+00) [K]
    Coulombic Fourier/kʙ    0.000000e+00 ( 0.000000e+00 +/- 0.000000e+00) [K]
Molecule-molecule
    Van der Waals/kʙ       -1.161385e+05 (-1.105078e+05 +/- 0.000000e+00) [K]
    Van der Waals (Tail)/kʙ-4.886740e+03 (-4.735826e+03 +/- 0.000000e+00) [K]
    Coulombic Real/kʙ      -3.633389e+04 (-3.320908e+04 +/- 0.000000e+00) [K]
    Coulombic Fourier/kʙ   -8.392548e+03 (-8.031612e+03 +/- 0.000000e+00) [K]
    Molecule Intra/kʙ       0.000000e+00 ( 0.000000e+00 +/- 0.000000e+00) [K]

Current cycle: 1900 out of 5000
===============================================================================

Box:      18.92821   0.00000   0.00000  Average:  18.92400   0.00000   0.00000
           0.00000  18.92821   0.00000             0.00000  18.92400   0.00000
           0.00000   0.00000  18.92821             0.00000   0.00000  18.92400
Lengths:  18.92821  18.92821  18.92821  Average:  18.92400  18.92400  18.92400
Angles:   90.00000  90.00000  90.00000  Average:  90.00000  90.00000  90.00000
Rectangular boundary conditions

net charge:   0.00000000

component 0 (CO2) lambda:  0 occupancy:  1 (1.000000)
    net charge:   0.00000000 [e]

Amount of molecules per component :
-------------------------------------------------------------------------------
Component 0 (CO2)
    molecules:      1.000000e+02 molecules  (1.000000e+02 +/- 0.000000e+00)
    number density: 1.474591e-02 molec./A^3 (1.477756e-02 +/- 0.000000e+00)
    density:        1.077362e+03 kg/m^3     (1.079674e+03 +/- 0.000000e+00)

Average pressure tensor: 
-------------------------------------------------------------------------------
 1.2904e+02 -4.2430e+01  6.6147e+01 +/- 0.0000e+00 0.0000e+00 0.0000e+00 [bar]
-4.2430e+01  2.3397e+02  4.7263e+01 +/- 0.0000e+00 0.0000e+00 0.0000e+00 [bar]
 6.6147e+01  4.7263e+01  7.3086e+01 +/- 0.0000e+00 0.0000e+00 0.0000e+00 [bar]
Ideal-gas pressure:   5.100662e+02 +/ 0.000000e+00 [bar]
Excess pressure:     -3.647012e+02 +/ 0.000000e+00 [bar]
Pressure:             1.453650e+02 +/ 0.000000e+00 [bar]

Total potential energy/kʙ  -1.587367e+05 (-1.567127e+05 +/- 0.000000e+00) [K]
-------------------------------------------------------------------------------
ExternalField-molecule
    Van der Waals/kʙ        0.000000e+00 ( 0.000000e+00 +/- 0.000000e+00) [K]
Framework-molecule
    Van der Waals/kʙ        0.000000e+00 ( 0.000000e+00 +/- 0.000000e+00) [K]
    Van der Waals (Tail)/kʙ 0.000000e+00 ( 0.000000e+00 +/- 0.000000e+00) [K]
    Coulombic Real/kʙ       0.000000e+00 ( 0.000000e+00 +/- 0.000000e+00) [K]
    Coulombic Fourier/kʙ    0.000000e+00 ( 0.000000e+00 +/- 0.000000e+00) [K]
Molecule-molecule
    Van der Waals/kʙ       -1.113378e+05 (-1.106607e+05 +/- 0.000000e+00) [K]
    Van der Waals (Tail)/kʙ-4.731299e+03 (-4.742899e+03 +/- 0.000000e+00) [K]
    Coulombic Real/kʙ      -3.400448e+04 (-3.324554e+04 +/- 0.000000e+00) [K]
    Coulombic Fourier/kʙ   -8.663031e+03 (-8.063576e+03 +/- 0.000000e+00) [K]
    Molecule Intra/kʙ       0.000000e+00 ( 0.000000e+00 +/- 0.000000e+00) [K]

Current cycle: 2000 out of 5000
===============================================================================

Box:      18.71979   0.00000   0.00000  Average:  18.90885   0.00000   0.00000
           0.00000  18.71979   0.00000             0.00000  18.90885   0.00000
           0.00000   0.00000  18.71979             0.00000   0.00000  18.90885
Lengths:  18.71979  18.71979  18.71979  Average:  18.90885  18.90885  18.90885
Angles:   90.00000  90.00000  90.00000  Average:  90.00000  90.00000  90.00000
Rectangular boundary conditions

net charge:   0.00000000

component 0 (CO2) lambda:  0 occupancy:  1 (1.000000)
    net charge:   0.00000000 [e]

Amount of molecules per component :
-------------------------------------------------------------------------------
Component 0 (CO2)
    molecules:      1.000000e+02 molecules  (1.000000e+02 +/- 0.000000e+00)
    number density: 1.524393e-02 molec./A^3 (1.481324e-02 +/- 0.000000e+00)
    density:        1.113748e+03 kg/m^3     (1.082281e+03 +/- 0.000000e+00)

Average pressure tensor: 
-------------------------------------------------------------------------------
 1.3309e+02 -5.3118e+01  5.8364e+01 +/- 0.0000e+00 0.0000e+00 0.0000e+00 [bar]
-5.3118e+01  2.3726e+02  4.4486e+01 +/- 0.0000e+00 0.0000e+00 0.0000e+00 [bar]
 5.8364e+01  4.4486e+01  8.0910e+01 +/- 0.0000e+00 0.0000e+00 0.0000e+00 [bar]
Ideal-gas pressure:   5.112978e+02 +/ 0.000000e+00 [bar]
Excess pressure:     -3.608761e+02 +/ 0.000000e+00 [bar]
Pressure:             1.504217e+02 +/ 0.000000e+00 [bar]

Total potential energy/kʙ  -1.636987e+05 (-1.570345e+05 +/- 0.000000e+00) [K]
-------------------------------------------------------------------------------
ExternalField-molecule
    Van der Waals/kʙ        0.000000e+00 ( 0.000000e+00 +/- 0.000000e+00) [K]
Framework-molecule
    Van der Waals/kʙ        0.000000e+00 ( 0.000000e+00 +/- 0.000000e+00) [K]
    Van der Waals (Tail)/kʙ 0.000000e+00 ( 0.000000e+00 +/- 0.000000e+00) [K]
    Coulombic Real/kʙ       0.000000e+00 ( 0.000000e+00 +/- 0.000000e+00) [K]
    Coulombic Fourier/kʙ    0.000000e+00 ( 0.000000e+00 +/- 0.000000e+00) [K]
Molecule-molecule
    Van der Waals/kʙ       -1.168086e+05 (-1.109502e+05 +/- 0.000000e+00) [K]
    Van der Waals (Tail)/kʙ-4.891089e+03 (-4.753909e+03 +/- 0.000000e+00) [K]
    Coulombic Real/kʙ      -3.348875e+04 (-3.327295e+04 +/- 0.000000e+00) [K]
    Coulombic Fourier/kʙ   -8.510238e+03 (-8.057432e+03 +/- 0.000000e+00) [K]
    Molecule Intra/kʙ       0.000000e+00 ( 0.000000e+00 +/- 0.000000e+00) [K]

Current cycle: 2100 out of 5000
===============================================================================

Box:      18.66636   0.00000   0.00000  Average:  18.89784   0.00000   0.00000
           0.00000  18.66636   0.00000             0.00000  18.89784   0.00000
           0.00000   0.00000  18.66636             0.00000   0.00000  18.89784
Lengths:  18.66636  18.66636  18.66636  Average:  18.89784  18.89784  18.89784
Angles:   90.00000  90.00000  90.00000  Average:  90.00000  90.00000  90.00000
Rectangular boundary conditions

net charge:   0.00000000

component 0 (CO2) lambda:  0 occupancy:  1 (1.000000)
    net charge:   0.00000000 [e]

Amount of molecules per component :
-------------------------------------------------------------------------------
Component 0 (CO2)
    molecules:      1.000000e+02 molecules  (1.000000e+02 +/- 0.000000e+00)
    number density: 1.537522e-02 molec./A^3 (1.483873e-02 +/- 0.000000e+00)
    density:        1.123340e+03 kg/m^3     (1.084143e+03 +/- 0.000000e+00)

Average pressure tensor: 
-------------------------------------------------------------------------------
 1.4572e+02 -5.7211e+01  5.4110e+01 +/- 0.0000e+00 0.0000e+00 0.0000e+00 [bar]
-5.7211e+01  2.3476e+02  4.0396e+01 +/- 0.0000e+00 0.0000e+00 0.0000e+00 [bar]
 5.4110e+01  4.0396e+01  5.9895e+01 +/- 0.0000e+00 0.0000e+00 0.0000e+00 [bar]
Ideal-gas pressure:   5.121776e+02 +/ 0.000000e+00 [bar]
Excess pressure:     -3.653859e+02 +/ 0.000000e+00 [bar]
Pressure:             1.467917e+02 +/ 0.000000e+00 [bar]

Total potential energy/kʙ  -1.598242e+05 (-1.572435e+05 +/- 0.000000e+00) [K]
-------------------------------------------------------------------------------
ExternalField-molecule
    Van der Waals/kʙ        0.000000e+00 ( 0.000000e+00 +/- 0.000000e+00) [K]
Framework-molecule
    Van der Waals/kʙ        0.000000e+00 ( 0.000000e+00 +/- 0.000000e+00) [K]
    Van der Waals (Tail)/kʙ 0.000000e+00 ( 0.000000e+00 +/- 0.000000e+00) [K]
[...]
    Coulombic Fourier/kʙ    0.000000e+00 ( 0.000000e+00 +/- 0.000000e+00) [K]
Molecule-molecule
    Van der Waals/kʙ       -1.130381e+05 (-1.120218e+05 +/- 4.763833e+03) [K]
    Van der Waals (Tail)/kʙ-4.805758e+03 (-4.798344e+03 +/- 1.942274e+02) [K]
    Coulombic Real/kʙ      -3.272578e+04 (-3.362600e+04 +/- 2.131897e+03) [K]
    Coulombic Fourier/kʙ   -7.831474e+03 (-8.103510e+03 +/- 3.425639e+02) [K]
    Molecule Intra/kʙ       0.000000e+00 ( 0.000000e+00 +/- 0.000000e+00) [K]

Current cycle: 4700 out of 5000
===============================================================================

Box:      18.68648   0.00000   0.00000  Average:  18.84877   0.00000   0.00000
           0.00000  18.68648   0.00000             0.00000  18.84877   0.00000
           0.00000   0.00000  18.68648             0.00000   0.00000  18.84877
Lengths:  18.68648  18.68648  18.68648  Average:  18.84877  18.84877  18.84877
Angles:   90.00000  90.00000  90.00000  Average:  90.00000  90.00000  90.00000
Rectangular boundary conditions

net charge:   0.00000000

component 0 (CO2) lambda:  0 occupancy:  1 (1.000000)
    net charge:   0.00000000 [e]

Amount of molecules per component :
-------------------------------------------------------------------------------
Component 0 (CO2)
    molecules:      1.000000e+02 molecules  (1.000000e+02 +/- 0.000000e+00)
    number density: 1.532559e-02 molec./A^3 (1.494768e-02 +/- 5.921351e-04)
    density:        1.119714e+03 kg/m^3     (1.092103e+03 +/- 4.326240e+01)

Average pressure tensor: 
-------------------------------------------------------------------------------
 1.8897e+02  8.4169e+00 -4.3648e-01 +/- 1.3513e+02 8.2541e+01 1.0709e+02 [bar]
 8.4169e+00  2.0582e+02  1.5006e+01 +/- 8.2541e+01 7.7419e+01 7.3807e+01 [bar]
-4.3648e-01  1.5006e+01  7.7919e+01 +/- 1.0709e+02 7.3807e+01 1.0966e+02 [bar]
Ideal-gas pressure:   5.159381e+02 +/ 2.043829e+01 [bar]
Excess pressure:     -3.583671e+02 +/ 6.366930e+01 [bar]
Pressure:             1.575710e+02 +/ 8.180835e+01 [bar]

Total potential energy/kʙ  -1.592810e+05 (-1.585099e+05 +/- 7.205321e+03) [K]
-------------------------------------------------------------------------------
ExternalField-molecule
    Van der Waals/kʙ        0.000000e+00 ( 0.000000e+00 +/- 0.000000e+00) [K]
Framework-molecule
    Van der Waals/kʙ        0.000000e+00 ( 0.000000e+00 +/- 0.000000e+00) [K]
    Van der Waals (Tail)/kʙ 0.000000e+00 ( 0.000000e+00 +/- 0.000000e+00) [K]
    Coulombic Real/kʙ       0.000000e+00 ( 0.000000e+00 +/- 0.000000e+00) [K]
    Coulombic Fourier/kʙ    0.000000e+00 ( 0.000000e+00 +/- 0.000000e+00) [K]
Molecule-molecule
    Van der Waals/kʙ       -1.129436e+05 (-1.120245e+05 +/- 4.757133e+03) [K]
    Van der Waals (Tail)/kʙ-4.917291e+03 (-4.798223e+03 +/- 1.934240e+02) [K]
    Coulombic Real/kʙ      -3.424151e+04 (-3.359949e+04 +/- 2.071379e+03) [K]
    Coulombic Fourier/kʙ   -7.178613e+03 (-8.087653e+03 +/- 3.418815e+02) [K]
    Molecule Intra/kʙ       0.000000e+00 ( 0.000000e+00 +/- 0.000000e+00) [K]

Current cycle: 4800 out of 5000
===============================================================================

Box:      18.90713   0.00000   0.00000  Average:  18.84771   0.00000   0.00000
           0.00000  18.90713   0.00000             0.00000  18.84771   0.00000
           0.00000   0.00000  18.90713             0.00000   0.00000  18.84771
Lengths:  18.90713  18.90713  18.90713  Average:  18.84771  18.84771  18.84771
Angles:   90.00000  90.00000  90.00000  Average:  90.00000  90.00000  90.00000
Rectangular boundary conditions

net charge:   0.00000000

component 0 (CO2) lambda:  0 occupancy:  1 (1.000000)
    net charge:   0.00000000 [e]

Amount of molecules per component :
-------------------------------------------------------------------------------
Component 0 (CO2)
    molecules:      1.000000e+02 molecules  (1.000000e+02 +/- 0.000000e+00)
    number density: 1.479529e-02 molec./A^3 (1.494999e-02 +/- 5.918793e-04)
    density:        1.080969e+03 kg/m^3     (1.092272e+03 +/- 4.324371e+01)

Average pressure tensor: 
-------------------------------------------------------------------------------
 1.8997e+02  4.9581e+00  2.2254e+00 +/- 1.3495e+02 8.2865e+01 1.0529e+02 [bar]
 4.9581e+00  2.0569e+02  1.3140e+01 +/- 8.2865e+01 7.6579e+01 7.3228e+01 [bar]
 2.2254e+00  1.3140e+01  8.1518e+01 +/- 1.0529e+02 7.3228e+01 1.1275e+02 [bar]
Ideal-gas pressure:   5.160177e+02 +/ 2.042946e+01 [bar]
Excess pressure:     -3.569600e+02 +/ 6.425626e+01 [bar]
Pressure:             1.590578e+02 +/ 8.228018e+01 [bar]

Total potential energy/kʙ  -1.540643e+05 (-1.585170e+05 +/- 7.192613e+03) [K]
-------------------------------------------------------------------------------
ExternalField-molecule
    Van der Waals/kʙ        0.000000e+00 ( 0.000000e+00 +/- 0.000000e+00) [K]
Framework-molecule
    Van der Waals/kʙ        0.000000e+00 ( 0.000000e+00 +/- 0.000000e+00) [K]
    Van der Waals (Tail)/kʙ 0.000000e+00 ( 0.000000e+00 +/- 0.000000e+00) [K]
    Coulombic Real/kʙ       0.000000e+00 ( 0.000000e+00 +/- 0.000000e+00) [K]
    Coulombic Fourier/kʙ    0.000000e+00 ( 0.000000e+00 +/- 0.000000e+00) [K]
Molecule-molecule
    Van der Waals/kʙ       -1.075648e+05 (-1.120493e+05 +/- 4.760151e+03) [K]
    Van der Waals (Tail)/kʙ-4.747141e+03 (-4.798718e+03 +/- 1.931882e+02) [K]
    Coulombic Real/kʙ      -3.353209e+04 (-3.359284e+04 +/- 2.050740e+03) [K]
    Coulombic Fourier/kʙ   -8.220324e+03 (-8.076112e+03 +/- 3.465307e+02) [K]
    Molecule Intra/kʙ       0.000000e+00 ( 0.000000e+00 +/- 0.000000e+00) [K]

Current cycle: 4900 out of 5000
===============================================================================

Box:      18.63511   0.00000   0.00000  Average:  18.84619   0.00000   0.00000
           0.00000  18.63511   0.00000             0.00000  18.84619   0.00000
           0.00000   0.00000  18.63511             0.00000   0.00000  18.84619
Lengths:  18.63511  18.63511  18.63511  Average:  18.84619  18.84619  18.84619
Angles:   90.00000  90.00000  90.00000  Average:  90.00000  90.00000  90.00000
Rectangular boundary conditions

net charge:   0.00000000

component 0 (CO2) lambda:  0 occupancy:  1 (1.000000)
    net charge:   0.00000000 [e]

Amount of molecules per component :
-------------------------------------------------------------------------------
Component 0 (CO2)
    molecules:      1.000000e+02 molecules  (1.000000e+02 +/- 0.000000e+00)
    number density: 1.545270e-02 molec./A^3 (1.495339e-02 +/- 5.922119e-04)
    density:        1.129000e+03 kg/m^3     (1.092521e+03 +/- 4.326801e+01)

Average pressure tensor: 
-------------------------------------------------------------------------------
 1.8888e+02  7.4018e+00  3.8591e+00 +/- 1.3336e+02 8.2456e+01 1.0482e+02 [bar]
 7.4018e+00  2.1229e+02  1.4725e+01 +/- 8.2456e+01 8.3150e+01 6.4447e+01 [bar]
 3.8591e+00  1.4725e+01  8.9405e+01 +/- 1.0482e+02 6.4447e+01 1.2274e+02 [bar]
Ideal-gas pressure:   5.161352e+02 +/ 2.044094e+01 [bar]
Excess pressure:     -3.526101e+02 +/ 6.996112e+01 [bar]
Pressure:             1.635251e+02 +/ 8.718428e+01 [bar]

Total potential energy/kʙ  -1.618722e+05 (-1.585368e+05 +/- 7.188600e+03) [K]
-------------------------------------------------------------------------------
ExternalField-molecule
    Van der Waals/kʙ        0.000000e+00 ( 0.000000e+00 +/- 0.000000e+00) [K]
Framework-molecule
    Van der Waals/kʙ        0.000000e+00 ( 0.000000e+00 +/- 0.000000e+00) [K]
    Van der Waals (Tail)/kʙ 0.000000e+00 ( 0.000000e+00 +/- 0.000000e+00) [K]
    Coulombic Real/kʙ       0.000000e+00 ( 0.000000e+00 +/- 0.000000e+00) [K]
    Coulombic Fourier/kʙ    0.000000e+00 ( 0.000000e+00 +/- 0.000000e+00) [K]
Molecule-molecule
    Van der Waals/kʙ       -1.135006e+05 (-1.120684e+05 +/- 4.761079e+03) [K]
    Van der Waals (Tail)/kʙ-4.958074e+03 (-4.800234e+03 +/- 1.934761e+02) [K]
    Coulombic Real/kʙ      -3.510636e+04 (-3.359220e+04 +/- 2.040536e+03) [K]
    Coulombic Fourier/kʙ   -8.307165e+03 (-8.075955e+03 +/- 3.455813e+02) [K]
    Molecule Intra/kʙ       0.000000e+00 ( 0.000000e+00 +/- 0.000000e+00) [K]


Energy statistics             |  Energy [K]   | Recomputed [K]|  Drift [K]    |
===============================================================================
Total potential energy/kʙ     | -1.622677e+05 | -1.622677e+05 |  8.094648e-11 |
    external field VDW/kʙ     |  0.000000e+00 |  0.000000e+00 |  0.000000e+00 |
    external field Real/kʙ    |  0.000000e+00 |  0.000000e+00 |  0.000000e+00 |
    framework-molecule VDW/kʙ |  0.000000e+00 |  0.000000e+00 |  0.000000e+00 |
    framework-molecule Real/kʙ|  0.000000e+00 |  0.000000e+00 |  0.000000e+00 |
    molecule-molecule VDW/kʙ  | -1.133531e+05 | -1.133531e+05 |  1.400155e-10 |
    molecule-molecule Real/kʙ | -3.522686e+04 | -3.522686e+04 | -4.813034e-11 |
    Van der Waals (Tail)/kʙ   | -4.840676e+03 | -4.840676e+03 |  0.000000e+00 |
    Ewald Fourier/kʙ          |  5.683841e+03 |  5.683841e+03 | -1.093871e-11 |
    Ewald self/kʙ             | -2.222923e+06 | -2.222923e+06 |  0.000000e+00 |
    Ewald exclusion/kʙ        |  2.208392e+06 |  2.208392e+06 |  0.000000e+00 |
    intra VDW/kʙ              |  0.000000e+00 |  0.000000e+00 |  0.000000e+00 |
    intra Coulombic/kʙ        |  0.000000e+00 |  0.000000e+00 |  0.000000e+00 |
    polarization/kʙ           |  0.000000e+00 |  0.000000e+00 |  0.000000e+00 |
    dU/dlambda VDW/kʙ         |  0.000000e+00 |  0.000000e+00 |  0.000000e+00 |
    dU/dlambda Real/kʙ        |  0.000000e+00 |  0.000000e+00 |  0.000000e+00 |
    dU/dlambda Ewald/kʙ       |  0.000000e+00 |  0.000000e+00 |  0.000000e+00 |
-------------------------------------------------------------------------------


Monte-Carlo moves statistics
===============================================================================

    Volume change        all:                3357
    Volume change        total:              3357
    Volume change        constructed:        3357
    Volume change        accepted:           2229
    Volume change        fraction:       0.663986
    Volume change        max-change:     0.025000

Component 0 [CO2]
    Reinsertion (CBMC)   all:              165877
    Reinsertion (CBMC)   total:            165877
    Reinsertion (CBMC)   constructed:      143268
    Reinsertion (CBMC)   accepted:           1995
    Reinsertion (CBMC)   fraction:       0.012027
    Reinsertion (CBMC)   max-change:     0.000000

    Translation          all:              165145
    Translation          total:             55093      55136      54916
    Translation          constructed:       55093      55136      54915
    Translation          accepted:          24337      27337      22488
    Translation          fraction:       0.441744   0.495810   0.409498
    Translation          max-change:     0.761905   0.636364   0.848485

    Rotation             all:              165621
    Rotation             total:             54993      55262      55366
    Rotation             constructed:       54958      55262      55363
    Rotation             accepted:          19956      25275      23007
    Rotation             fraction:       0.362883   0.457367   0.415544
    Rotation             max-change:     1.060606   0.750000   0.900000



Production run counting of the MC moves summed over systems and components
===============================================================================

Volume change                          3357 (0.6714 [%])
Reinsertion (CBMC)                   165877 (33.1754 [%])
Translation                          165145 (33.0290 [%])
Rotation                             165621 (33.1242 [%])

Production count MC-steps:           500000 [-]
               All summed:           500000 [-]
               difference:                0 [-]


Production run CPU timings of the MC moves
===============================================================================

Component 0 CO2

Rotation                             22.361831 [s]
    Ewald                            12.349721 [s]
    ExternalField-Molecule            0.006123 [s]
    Framework-Molecule                0.005581 [s]
    Molecule-Molecule                 9.097985 [s]
    Overhead                          0.902421 [s]

Reinsertion (CBMC)                   69.948574 [s]
    Ewald                            10.747791 [s]
    NonEwald                         59.041827 [s]
    Overhead                          0.158956 [s]

Translation                          22.356731 [s]
    Ewald                            12.319577 [s]
    ExternalField-Molecule            0.005409 [s]
    Framework-Molecule                0.010059 [s]
    Molecule-Molecule                 9.078590 [s]
    Overhead                          0.943096 [s]



Volume change                          9.603645 [s]
    Ewald                              4.726677 [s]
    NonEwald                           4.640581 [s]
    Tail                               0.150492 [s]

Property sampling                     0.229098 [s]
Energy/pressure sampling:             3.444994 [s]


Production run CPU timings of the MC moves summed over systems and components
===============================================================================


Translation                          22.356731 [s]
    Ewald                            12.319577 [s]
    ExternalField-Molecule            0.005409 [s]
    Framework-Molecule                0.010059 [s]
    Molecule-Molecule                 9.078590 [s]
    Overhead                          0.943096 [s]

Rotation                             22.361831 [s]
    Ewald                            12.349721 [s]
    ExternalField-Molecule            0.006123 [s]
    Framework-Molecule                0.005581 [s]
    Molecule-Molecule                 9.097985 [s]
    Overhead                          0.902421 [s]

Volume change                         9.603645 [s]
    Ewald                             4.726677 [s]
    NonEwald                          4.640581 [s]
    Tail                              0.150492 [s]
    Overhead                          0.085895 [s]

Reinsertion (CBMC)                   69.948574 [s]
    Ewald                            10.747791 [s]
    NonEwald                         59.041827 [s]
    Overhead                          0.158956 [s]

Property sampling:                    0.229098 [s]
Energy/pressure sampling:             3.444994 [s]

Production simulation time:         128.349954 [s]
                All summed:         127.944873 [s]
                  Overhead:           0.405081 [s]


Initalization simulation time:       23.714428 [s]
Equilibration simulation time:        0.000000 [s]
Production simulation time:         128.349954 [s]
Total simulation time:              152.064382 [s]


Energy averages and statistics:
===============================================================================

Framework-molecule energy:
-------------------------------------------------------------------------------



Framework-molecule energy contributions per energy type:
-------------------------------------------------------------------------------



Inter-molecular energy:
-------------------------------------------------------------------------------

    Inter-molecular energy/kʙ 0-0 [CO2-CO2]:
    ---------------------------------------------------------------------------
        Block[  0] -1.493674e+05
        Block[  1] -1.646350e+05
        Block[  2] -1.616100e+05
        Block[  3] -1.572937e+05
        Block[  4] -1.599011e+05
        -----------------------------------------------------------------------
        Average  -1.585615e+05 +/-  7.188563e+03 [K]



Inter-molecular energy contributions per energy type:
-------------------------------------------------------------------------------

    Van der Waals energy/kʙ 0-0 [CO2-CO2]:
    ---------------------------------------------------------------------------
        Block[  0] -1.061233e+05
        Block[  1] -1.157186e+05
        Block[  2] -1.148991e+05
        Block[  3] -1.108255e+05
        Block[  4] -1.128295e+05
        -----------------------------------------------------------------------
        Average  -1.120792e+05 +/-  4.760065e+03 [K]

    VDW Tail-Correction energy/kʙ 0-0 [CO2-CO2]:
    ---------------------------------------------------------------------------
        Block[  0] -4.555465e+03
        Block[  1] -4.950980e+03
        Block[  2] -4.901847e+03
        Block[  3] -4.752682e+03
        Block[  4] -4.843493e+03
        -----------------------------------------------------------------------
        Average  -4.800894e+03 +/-  1.934172e+02 [K]

    Coulomb Real energy/kʙ 0-0 [CO2-CO2]:
    ---------------------------------------------------------------------------
        Block[  0] -3.101301e+04
        Block[  1] -3.553073e+04
        Block[  2] -3.361531e+04
        Block[  3] -3.363889e+04
        Block[  4] -3.420680e+04
        -----------------------------------------------------------------------
        Average  -3.360095e+04 +/-  2.039006e+03 [K]

    Coulomb Fourier energy/kʙ 0-0 [CO2-CO2]:
    ---------------------------------------------------------------------------
        Block[  0] -7.675659e+03
        Block[  1] -8.434676e+03
        Block[  2] -8.193754e+03
        Block[  3] -8.076704e+03
        Block[  4] -8.021280e+03
        -----------------------------------------------------------------------
        Average  -8.080415e+03 +/-  3.431955e+02 [K]


Total energy/kʙ
-------------------------------------------------------------------------------
    Block[  0] -1.493674e+05
    Block[  1] -1.646350e+05
    Block[  2] -1.616100e+05
    Block[  3] -1.572937e+05
    Block[  4] -1.599011e+05
    ---------------------------------------------------------------------------
    Average  -1.585615e+05 +/-  7.188563e+03 [K]

Pressure averages and statistics:
===============================================================================

Average pressure tensor: 
-------------------------------------------------------------------------------
 1.8403e+02  6.2464e+00  3.1941e+00 +/- 1.3085e+02 8.2520e+01 1.0490e+02 [bar]
 6.2464e+00  2.2188e+02  1.2646e+01 +/- 8.2520e+01 9.6227e+01 6.5718e+01 [bar]
 3.1941e+00  1.2646e+01  8.7811e+01 +/- 1.0490e+02 6.5718e+01 1.1700e+02 [bar]

    Block[  0]  4.903632e+07
    Block[  1]  5.322175e+07
    Block[  2]  5.269389e+07
    Block[  3]  5.110718e+07
    Block[  4]  5.205344e+07
    ---------------------------------------------------------------------------
    Ideal gas pressure   5.162252e+07 +/-  1.231037e-01 [Pa]
                         5.162252e+02 +/-  2.044186e+01 [bar]


    Block[  0] -4.223015e+07
    Block[  1] -2.999912e+07
    Block[  2] -3.623999e+07
    Block[  3] -3.831001e+07
    Block[  4] -2.904768e+07
    ---------------------------------------------------------------------------
    Excess pressure  -3.516539e+07 +/-  6.941970e+06 [Pa]
                     -3.516539e+02 +/-  6.941970e+01 [bar]


    Block[  0]  6.806170e+06
    Block[  1]  2.322263e+07
    Block[  2]  1.645390e+07
    Block[  3]  1.279717e+07
    Block[  4]  2.300577e+07
    ---------------------------------------------------------------------------
    Pressure average   1.645713e+07 +/-  8.672344e+06 [Pa]
                       1.645713e+02 +/-  8.672344e+01 [bar]


Enthalpy of adsorption
===============================================================================

No fluctuating components present.


Densities
===============================================================================

Component 0 (CO2)
    Block[  0] 100
    Block[  1] 100
    Block[  2] 100
    Block[  3] 100
    Block[  4] 100
    -----------------------------------------------------------------------
    Density average   1.000000e+02 +/-  0.000000e+00 [molecules]
    Density average   1.495600e-02 +/-  5.922385e-04 [molec/A^3]
    Density average   1.092711e+03 +/-  4.326996e+01 [kg.m⁻³]

