Compiler and run-time data
===============================================================================
RASPA 3.0.4

Random seed: 743252806

Compiled as a 64-bits application
Compiler: gcc Ubuntu Clang 18.1.3 (1ubuntu1)
Compile Date = Mar 15 2025, Compile Time = 19:39:45

2025-06-02 13:48:15.161140
Simulation started on Mon, Jun 02
The start time was 13:48:00

Hostname:    c062
OS type:     Linux on x86_64
OS release:  6.8.0-58-generic
OS version:  #60-Ubuntu SMP PREEMPT_DYNAMIC Fri Mar 14 18:29:48 UTC 2025


Mutual consistent basic set of units:
===============================================================================

Unit of temperature: 1 [K]
Unit of length:      1e-10 [m]
Unit of time:        1e-12 [s]
Unit of mass:        1.6605402e-27 [kg]
Unit of charge:      1.60217733e-19 [C/particle]


Boltzmann constant (internal units):          0.8314464919307584 [-]
represents conversion from energy (internal units) to temperature (in Kelvin)

Derived units and their conversion factors:
===============================================================================

Unit of energy:                           1.6605402000000002e-23 [J]
Unit of energy:                           10.000008872307538 [J.mol⁻¹]
Unit of velocity:                         100 [m.s⁻¹]
Unit of force:                            1.6605402000000002e-13 [N]
Unit of diffusion:                        1.0000000000000002e-08 [m².s⁻¹]
Unit of acceleration:                     1.0000000000000002e-08 [m².s⁻¹]
Unit of torque:                           1.6605402000000002e-23 [N.m]
Unit of pressure:                         16605402 [Pa]
Unit of volume:                           1e-30 [m³]
Unit of density:                          1660.5402 [kg.m⁻³]
Unit of dynamic viscosity:                1.6605401999999997e-05 [N.s.m⁻²]
Unit of enthalpy:                         1.6605402000000002e-23 [J]
Unit of polarizability:                   1.5458657349975198e-35 [-]
Unit of Coulomb potential:                167101.08000665612 [K]
Unit of dielectric constant:              1.5458657349975193e-05 [s².C².kg⁻¹.m⁻³]
Unit of dipole moment:                    1.60217733e-29 [C.m]
Unit of Debye:                            4.803206799099162 [C.m]
Unit of electric potential:               0.00010364272224473431 [V]
Unit of electric field:                   1036427.222447343 [V.m⁻¹]
Unit of isothermal compressibility:       6.02213665167516e-08 [Pa⁻¹]
Unit of heat capacity:                    10.000008872307538 [J.mol⁻¹.K⁻¹]
Unit of volumetric expansion coefficient: 1 [K⁻¹]


Internal conversion factors:
===============================================================================

Energy (internal units) to Kelvin:      1.202724284692786 [-]
Kelvin to energy (internal units):      0.8314457542157567 [-]


System definitions
===============================================================================

Temperature:          250 [K]
Beta:                 0.0048108928702210625 [-]
Pressure:             1.6e+07 [Pa]
Helium void fraction: 1 [-]

Box:      30.00000   0.00000   0.00000
           0.00000  30.00000   0.00000
           0.00000   0.00000  30.00000
Lengths:  30.00000  30.00000  30.00000
Angles:   90.00000  90.00000  90.00000
Rectangular boundary conditions



Property measurement settings
===============================================================================




Pseudo-atoms
===============================================================================

  0 - C_co2    framework-atom: false
  1 - O_co2    framework-atom: false

  0 - C_co2    mass: 12.00000, charge:  0.70000
  1 - O_co2    mass: 15.99940, charge: -0.35000

  0 - C_co2    polarizability:  0.00000
  1 - O_co2    polarizability:  0.00000

  0 - J. J. Potoff et al., AIChE J. 2001, 47, 1676–1682.
  1 - J. J. Potoff et al., AIChE J. 2001, 47, 1676–1682.

Force field status
===============================================================================

Cutoff Framework-Molecule VDW:  10.00000 [Å]
Cutoff Molecule-Molecule VDW:   10.00000 [Å]
Cutoff Coulomb:                 10.00000 [Å]

Overlap-criteria VDW:           1.000000e+05 [K]

C_co2    - C_co2    Lennard-Jones p₀/kʙ:  27.00000 [K], p₁:  2.80000 [Å]
                                  shift:   0.00000 [K], tailcorrections: true
C_co2    - O_co2    Lennard-Jones p₀/kʙ:  46.18441 [K], p₁:  2.92500 [Å]
                                  shift:   0.00000 [K], tailcorrections: true
O_co2    - O_co2    Lennard-Jones p₀/kʙ:  79.00000 [K], p₁:  3.05000 [Å]
                                  shift:   0.00000 [K], tailcorrections: true

Ewald precision: 1e-06
Ewald alpha: 0.32079885109097883
Ewald k-vectors: 10 10 10


Component definitions
===============================================================================

Component 0 [CO2]

    Type: Adsorbate

    Critical temperature:  304.1282 [K]
    Critical pressure:     7377300 [Pa]
    Acentric factor:       0.22394 [-]

    Mol-fraction:                 1 [-]
    Swappable:                   false

    Mass:                         43.9988 [-]
    Bulk fluid density:           0 [-]
    Compressibility:              0 [-]
    Excess molecules:             0 [-]

    Number Of Atoms:    3
    CBMC starting bead: 0
      0: O_co2  position  0.00000 -0.00000  1.16000, charge -0.35000
      1: C_co2  position  0.00000 -0.00000  0.00000, charge  0.70000
      2: O_co2  position  0.00000 -0.00000 -1.16000, charge -0.35000
    Diagonalized inertia-vector:      43.05758528 43.05758528 0.00000000
    Translational degrees of freedom: 3
    Rotational degrees of freedom:    2
    Shape of the molecule is: 'Linear'
    Net-charge:        0.00000000 [e]

    Move probabilities:
    Translation:                   0.331126 [-]
    Random translation:            0.000000 [-]
    Rotation:                      0.331126 [-]
    Random rotation:               0.000000 [-]
    Volume change:                 0.006623 [-]
    Reinsertion (CBMC):            0.331126 [-]
    Identity change (CBMC):        0.000000 [-]
    Swap:                          0.000000 [-]
    Swap (CBMC):                   0.000000 [-]
    Swap (CFCMC):                  0.000000 [-]
    Swap (CB/CFCMC):               0.000000 [-]
    Gibbs volume:                  0.000000 [-]
    Gibbs swap (CBMC):             0.000000 [-]
    Gibbs swap (CFCMC):            0.000000 [-]
    Widom:                         0.000000 [-]
    Widom (CFCMC):                 0.000000 [-]
    Widom (CB/CFCMC):              0.000000 [-]
    Parallel tempering:            0.000000 [-]
    Hybrid MC:                     0.000000 [-]

    number of blocking-pockets: 0

    number of bonds: 0





Number of pseudo-atoms
===============================================================================

Component   0 (CO2)
-------------------------------------------------------------------------------
    index   0 (C_co2): 250 atoms
    index   1 (O_co2): 500 atoms

Total number of pseudo-atoms:
-------------------------------------------------------------------------------
    index   0 (C_co2): 250 atoms
    index   1 (O_co2): 500 atoms




Energy status Recomputed from scratch
===============================================================================

Total potential energy/kʙ       -5.911953e+04 [K]
    external field VDW/kʙ        0.000000e+00 [K]
    external field Real/kʙ       0.000000e+00 [K]
    framework-molecule VDW/kʙ    0.000000e+00 [K]
    framework-molecule Real/kʙ   0.000000e+00 [K]
    molecule-molecule VDW/kʙ    -2.933397e+04 [K]
    molecule-molecule Real/kʙ   -1.727783e+04 [K]
    Van der Waals (Tail)/kʙ     -7.427197e+03 [K]
    Ewald Fourier/kʙ             3.124661e+04 [K]
    Ewald self/kʙ               -5.557308e+06 [K]
    Ewald exclusion/kʙ           5.520981e+06 [K]
    intra VDW/kʙ                 0.000000e+00 [K]
    intra Coulombic/kʙ           0.000000e+00 [K]
    polarization/kʙ              0.000000e+00 [K]
    dU/dlambda VDW/kʙ            0.000000e+00 [K]
    dU/dlambda Real/kʙ           0.000000e+00 [K]
    dU/dlambda Ewald/kʙ          0.000000e+00 [K]





Initialization: Current cycle: 0 out of 1000
===============================================================================

Box:      30.29107   0.00000   0.00000
           0.00000  30.29107   0.00000
           0.00000   0.00000  30.29107
Lengths:  30.29107  30.29107  30.29107
Angles:   90.00000  90.00000  90.00000
Rectangular boundary conditions

net charge:   0.00000000

component   0 (CO2) lambda:  0 occupancy:  1 (1.000000)
    net charge:   0.00000000 [e]

Amount of molecules per component :
-------------------------------------------------------------------------------
Component 0 (CO2)
    molecules:         2.500000e+02 molecules
    number density:    8.994897e-03 molec/A^3
    density:           6.571825e+02 kg/m^3

Total potential energy/kʙ       -1.503440e+05 [K]
-------------------------------------------------------------------------------
    external field VDW/kʙ        0.000000e+00 [K]
    external field Real/kʙ       0.000000e+00 [K]
    framework-molecule VDW/kʙ    0.000000e+00 [K]
    framework-molecule Real/kʙ   0.000000e+00 [K]
    molecule-molecule VDW/kʙ    -1.156666e+05 [K]
    molecule-molecule Real/kʙ   -2.128958e+04 [K]
    Van der Waals (Tail)/kʙ     -7.215142e+03 [K]
    Ewald Fourier/kʙ             3.015448e+04 [K]
    Ewald self/kʙ               -5.557308e+06 [K]
    Ewald exclusion/kʙ           5.520981e+06 [K]
    intra VDW/kʙ                 0.000000e+00 [K]
    intra Coulombic/kʙ           0.000000e+00 [K]
    polarization/kʙ              0.000000e+00 [K]
    dU/dlambda VDW/kʙ            0.000000e+00 [K]
    dU/dlambda Real/kʙ           0.000000e+00 [K]
    dU/dlambda Ewald/kʙ          0.000000e+00 [K]


Initialization: Current cycle: 100 out of 1000
===============================================================================

Box:      27.48597   0.00000   0.00000
           0.00000  27.48597   0.00000
           0.00000   0.00000  27.48597
Lengths:  27.48597  27.48597  27.48597
Angles:   90.00000  90.00000  90.00000
Rectangular boundary conditions

net charge:   0.00000000

component   0 (CO2) lambda:  0 occupancy:  1 (1.000000)
    net charge:   0.00000000 [e]

Amount of molecules per component :
-------------------------------------------------------------------------------
Component 0 (CO2)
    molecules:         2.500000e+02 molecules
    number density:    1.203946e-02 molec/A^3
    density:           8.796236e+02 kg/m^3

Total potential energy/kʙ       -3.009644e+05 [K]
-------------------------------------------------------------------------------
    external field VDW/kʙ        0.000000e+00 [K]
    external field Real/kʙ       0.000000e+00 [K]
    framework-molecule VDW/kʙ    0.000000e+00 [K]
    framework-molecule Real/kʙ   0.000000e+00 [K]
    molecule-molecule VDW/kʙ    -2.148827e+05 [K]
    molecule-molecule Real/kʙ   -6.176808e+04 [K]
    Van der Waals (Tail)/kʙ     -9.657300e+03 [K]
    Ewald Fourier/kʙ             2.167078e+04 [K]
    Ewald self/kʙ               -5.557308e+06 [K]
    Ewald exclusion/kʙ           5.520981e+06 [K]
    intra VDW/kʙ                 0.000000e+00 [K]
    intra Coulombic/kʙ           0.000000e+00 [K]
    polarization/kʙ              0.000000e+00 [K]
    dU/dlambda VDW/kʙ            0.000000e+00 [K]
    dU/dlambda Real/kʙ           0.000000e+00 [K]
    dU/dlambda Ewald/kʙ          0.000000e+00 [K]


Initialization: Current cycle: 200 out of 1000
===============================================================================

Box:      26.57363   0.00000   0.00000
           0.00000  26.57363   0.00000
           0.00000   0.00000  26.57363
Lengths:  26.57363  26.57363  26.57363
Angles:   90.00000  90.00000  90.00000
Rectangular boundary conditions

net charge:   0.00000000

component   0 (CO2) lambda:  0 occupancy:  1 (1.000000)
    net charge:   0.00000000 [e]

Amount of molecules per component :
-------------------------------------------------------------------------------
Component 0 (CO2)
    molecules:         2.500000e+02 molecules
    number density:    1.332255e-02 molec/A^3
    density:           9.733684e+02 kg/m^3

Total potential energy/kʙ       -3.500733e+05 [K]
-------------------------------------------------------------------------------
    external field VDW/kʙ        0.000000e+00 [K]
    external field Real/kʙ       0.000000e+00 [K]
    framework-molecule VDW/kʙ    0.000000e+00 [K]
    framework-molecule Real/kʙ   0.000000e+00 [K]
    molecule-molecule VDW/kʙ    -2.507025e+05 [K]
    molecule-molecule Real/kʙ   -7.079159e+04 [K]
    Van der Waals (Tail)/kʙ     -1.068651e+04 [K]
    Ewald Fourier/kʙ             1.843436e+04 [K]
    Ewald self/kʙ               -5.557308e+06 [K]
    Ewald exclusion/kʙ           5.520981e+06 [K]
    intra VDW/kʙ                 0.000000e+00 [K]
    intra Coulombic/kʙ           0.000000e+00 [K]
    polarization/kʙ              0.000000e+00 [K]
    dU/dlambda VDW/kʙ            0.000000e+00 [K]
    dU/dlambda Real/kʙ           0.000000e+00 [K]
    dU/dlambda Ewald/kʙ          0.000000e+00 [K]


Initialization: Current cycle: 300 out of 1000
===============================================================================

Box:      26.12403   0.00000   0.00000
           0.00000  26.12403   0.00000
           0.00000   0.00000  26.12403
Lengths:  26.12403  26.12403  26.12403
Angles:   90.00000  90.00000  90.00000
Rectangular boundary conditions

net charge:   0.00000000

component   0 (CO2) lambda:  0 occupancy:  1 (1.000000)
    net charge:   0.00000000 [e]

Amount of molecules per component :
-------------------------------------------------------------------------------
Component 0 (CO2)
    molecules:         2.500000e+02 molecules
    number density:    1.402231e-02 molec/A^3
    density:           1.024494e+03 kg/m^3

Total potential energy/kʙ       -3.617867e+05 [K]
-------------------------------------------------------------------------------
    external field VDW/kʙ        0.000000e+00 [K]
    external field Real/kʙ       0.000000e+00 [K]
    framework-molecule VDW/kʙ    0.000000e+00 [K]
    framework-molecule Real/kʙ   0.000000e+00 [K]
    molecule-molecule VDW/kʙ    -2.598952e+05 [K]
    molecule-molecule Real/kʙ   -7.314059e+04 [K]
    Van der Waals (Tail)/kʙ     -1.124782e+04 [K]
    Ewald Fourier/kʙ             1.882402e+04 [K]
    Ewald self/kʙ               -5.557308e+06 [K]
    Ewald exclusion/kʙ           5.520981e+06 [K]
    intra VDW/kʙ                 0.000000e+00 [K]
    intra Coulombic/kʙ           0.000000e+00 [K]
    polarization/kʙ              0.000000e+00 [K]
    dU/dlambda VDW/kʙ            0.000000e+00 [K]
    dU/dlambda Real/kʙ           0.000000e+00 [K]
    dU/dlambda Ewald/kʙ          0.000000e+00 [K]


Initialization: Current cycle: 400 out of 1000
===============================================================================

Box:      25.87880   0.00000   0.00000
           0.00000  25.87880   0.00000
           0.00000   0.00000  25.87880
Lengths:  25.87880  25.87880  25.87880
Angles:   90.00000  90.00000  90.00000
Rectangular boundary conditions

net charge:   0.00000000

component   0 (CO2) lambda:  0 occupancy:  1 (1.000000)
    net charge:   0.00000000 [e]

Amount of molecules per component :
-------------------------------------------------------------------------------
Component 0 (CO2)
    molecules:         2.500000e+02 molecules
    number density:    1.442473e-02 molec/A^3
    density:           1.053896e+03 kg/m^3

Total potential energy/kʙ       -3.825729e+05 [K]
-------------------------------------------------------------------------------
    external field VDW/kʙ        0.000000e+00 [K]
    external field Real/kʙ       0.000000e+00 [K]
    framework-molecule VDW/kʙ    0.000000e+00 [K]
    framework-molecule Real/kʙ   0.000000e+00 [K]
    molecule-molecule VDW/kʙ    -2.723233e+05 [K]
    molecule-molecule Real/kʙ   -7.963968e+04 [K]
    Van der Waals (Tail)/kʙ     -1.157062e+04 [K]
    Ewald Fourier/kʙ             1.728788e+04 [K]
    Ewald self/kʙ               -5.557308e+06 [K]
    Ewald exclusion/kʙ           5.520981e+06 [K]
    intra VDW/kʙ                 0.000000e+00 [K]
    intra Coulombic/kʙ           0.000000e+00 [K]
    polarization/kʙ              0.000000e+00 [K]
    dU/dlambda VDW/kʙ            0.000000e+00 [K]
    dU/dlambda Real/kʙ           0.000000e+00 [K]
    dU/dlambda Ewald/kʙ          0.000000e+00 [K]


Initialization: Current cycle: 500 out of 1000
===============================================================================

Box:      25.60339   0.00000   0.00000
           0.00000  25.60339   0.00000
           0.00000   0.00000  25.60339
Lengths:  25.60339  25.60339  25.60339
Angles:   90.00000  90.00000  90.00000
Rectangular boundary conditions

net charge:   0.00000000

component   0 (CO2) lambda:  0 occupancy:  1 (1.000000)
    net charge:   0.00000000 [e]

Amount of molecules per component :
-------------------------------------------------------------------------------
Component 0 (CO2)
    molecules:         2.500000e+02 molecules
    number density:    1.489524e-02 molec/A^3
    density:           1.088272e+03 kg/m^3

Total potential energy/kʙ       -3.911321e+05 [K]
-------------------------------------------------------------------------------
    external field VDW/kʙ        0.000000e+00 [K]
    external field Real/kʙ       0.000000e+00 [K]
    framework-molecule VDW/kʙ    0.000000e+00 [K]
    framework-molecule Real/kʙ   0.000000e+00 [K]
    molecule-molecule VDW/kʙ    -2.733994e+05 [K]
    molecule-molecule Real/kʙ   -8.591208e+04 [K]
    Van der Waals (Tail)/kʙ     -1.194803e+04 [K]
    Ewald Fourier/kʙ             1.645453e+04 [K]
    Ewald self/kʙ               -5.557308e+06 [K]
    Ewald exclusion/kʙ           5.520981e+06 [K]
    intra VDW/kʙ                 0.000000e+00 [K]
    intra Coulombic/kʙ           0.000000e+00 [K]
    polarization/kʙ              0.000000e+00 [K]
    dU/dlambda VDW/kʙ            0.000000e+00 [K]
    dU/dlambda Real/kʙ           0.000000e+00 [K]
    dU/dlambda Ewald/kʙ          0.000000e+00 [K]


Initialization: Current cycle: 600 out of 1000
===============================================================================

Box:      25.72733   0.00000   0.00000
           0.00000  25.72733   0.00000
           0.00000   0.00000  25.72733
Lengths:  25.72733  25.72733  25.72733
Angles:   90.00000  90.00000  90.00000
Rectangular boundary conditions

net charge:   0.00000000

component   0 (CO2) lambda:  0 occupancy:  1 (1.000000)
    net charge:   0.00000000 [e]

Amount of molecules per component :
-------------------------------------------------------------------------------
Component 0 (CO2)
    molecules:         2.500000e+02 molecules
    number density:    1.468100e-02 molec/A^3
    density:           1.072619e+03 kg/m^3

Total potential energy/kʙ       -3.855916e+05 [K]
-------------------------------------------------------------------------------
    external field VDW/kʙ        0.000000e+00 [K]
    external field Real/kʙ       0.000000e+00 [K]
    framework-molecule VDW/kʙ    0.000000e+00 [K]
    framework-molecule Real/kʙ   0.000000e+00 [K]
    molecule-molecule VDW/kʙ    -2.750829e+05 [K]
    molecule-molecule Real/kʙ   -7.892659e+04 [K]
    Van der Waals (Tail)/kʙ     -1.177618e+04 [K]
    Ewald Fourier/kʙ             1.652116e+04 [K]
    Ewald self/kʙ               -5.557308e+06 [K]
    Ewald exclusion/kʙ           5.520981e+06 [K]
    intra VDW/kʙ                 0.000000e+00 [K]
    intra Coulombic/kʙ           0.000000e+00 [K]
    polarization/kʙ              0.000000e+00 [K]
    dU/dlambda VDW/kʙ            0.000000e+00 [K]
    dU/dlambda Real/kʙ           0.000000e+00 [K]
    dU/dlambda Ewald/kʙ          0.000000e+00 [K]


Initialization: Current cycle: 700 out of 1000
===============================================================================

Box:      25.77074   0.00000   0.00000
           0.00000  25.77074   0.00000
           0.00000   0.00000  25.77074
Lengths:  25.77074  25.77074  25.77074
Angles:   90.00000  90.00000  90.00000
Rectangular boundary conditions

net charge:   0.00000000

component   0 (CO2) lambda:  0 occupancy:  1 (1.000000)
    net charge:   0.00000000 [e]

Amount of molecules per component :
-------------------------------------------------------------------------------
Component 0 (CO2)
    molecules:         2.500000e+02 molecules
    number density:    1.460695e-02 molec/A^3
    density:           1.067209e+03 kg/m^3

Total potential energy/kʙ       -3.821116e+05 [K]
-------------------------------------------------------------------------------
    external field VDW/kʙ        0.000000e+00 [K]
    external field Real/kʙ       0.000000e+00 [K]
    framework-molecule VDW/kʙ    0.000000e+00 [K]
    framework-molecule Real/kʙ   0.000000e+00 [K]
    molecule-molecule VDW/kʙ    -2.735735e+05 [K]
    molecule-molecule Real/kʙ   -7.842834e+04 [K]
    Van der Waals (Tail)/kʙ     -1.171678e+04 [K]
    Ewald Fourier/kʙ             1.793420e+04 [K]
    Ewald self/kʙ               -5.557308e+06 [K]
    Ewald exclusion/kʙ           5.520981e+06 [K]
    intra VDW/kʙ                 0.000000e+00 [K]
    intra Coulombic/kʙ           0.000000e+00 [K]
    polarization/kʙ              0.000000e+00 [K]
    dU/dlambda VDW/kʙ            0.000000e+00 [K]
    dU/dlambda Real/kʙ           0.000000e+00 [K]
    dU/dlambda Ewald/kʙ          0.000000e+00 [K]


Initialization: Current cycle: 800 out of 1000
===============================================================================

Box:      25.94964   0.00000   0.00000
           0.00000  25.94964   0.00000
           0.00000   0.00000  25.94964
Lengths:  25.94964  25.94964  25.94964
Angles:   90.00000  90.00000  90.00000
Rectangular boundary conditions

net charge:   0.00000000

component   0 (CO2) lambda:  0 occupancy:  1 (1.000000)
    net charge:   0.00000000 [e]

Amount of molecules per component :
-------------------------------------------------------------------------------
Component 0 (CO2)
    molecules:         2.500000e+02 molecules
    number density:    1.430691e-02 molec/A^3
    density:           1.045287e+03 kg/m^3

Total potential energy/kʙ       -3.745144e+05 [K]
-------------------------------------------------------------------------------
    external field VDW/kʙ        0.000000e+00 [K]
    external field Real/kʙ       0.000000e+00 [K]
    framework-molecule VDW/kʙ    0.000000e+00 [K]
    framework-molecule Real/kʙ   0.000000e+00 [K]
    molecule-molecule VDW/kʙ    -2.713715e+05 [K]
    molecule-molecule Real/kʙ   -7.366826e+04 [K]
    Van der Waals (Tail)/kʙ     -1.147610e+04 [K]
    Ewald Fourier/kʙ             1.832859e+04 [K]
    Ewald self/kʙ               -5.557308e+06 [K]
    Ewald exclusion/kʙ           5.520981e+06 [K]
    intra VDW/kʙ                 0.000000e+00 [K]
    intra Coulombic/kʙ           0.000000e+00 [K]
    polarization/kʙ              0.000000e+00 [K]
    dU/dlambda VDW/kʙ            0.000000e+00 [K]
    dU/dlambda Real/kʙ           0.000000e+00 [K]
    dU/dlambda Ewald/kʙ          0.000000e+00 [K]


Initialization: Current cycle: 900 out of 1000
===============================================================================

Box:      25.78924   0.00000   0.00000
           0.00000  25.78924   0.00000
           0.00000   0.00000  25.78924
Lengths:  25.78924  25.78924  25.78924
Angles:   90.00000  90.00000  90.00000
Rectangular boundary conditions

net charge:   0.00000000

component   0 (CO2) lambda:  0 occupancy:  1 (1.000000)
    net charge:   0.00000000 [e]

Amount of molecules per component :
-------------------------------------------------------------------------------
Component 0 (CO2)
    molecules:         2.500000e+02 molecules
    number density:    1.457553e-02 molec/A^3
    density:           1.064913e+03 kg/m^3

Total potential energy/kʙ       -3.782511e+05 [K]
-------------------------------------------------------------------------------
    external field VDW/kʙ        0.000000e+00 [K]
    external field Real/kʙ       0.000000e+00 [K]
    framework-molecule VDW/kʙ    0.000000e+00 [K]
    framework-molecule Real/kʙ   0.000000e+00 [K]
    molecule-molecule VDW/kʙ    -2.670606e+05 [K]
    molecule-molecule Real/kʙ   -8.161632e+04 [K]
    Van der Waals (Tail)/kʙ     -1.169158e+04 [K]
    Ewald Fourier/kʙ             1.844452e+04 [K]
    Ewald self/kʙ               -5.557308e+06 [K]
    Ewald exclusion/kʙ           5.520981e+06 [K]
    intra VDW/kʙ                 0.000000e+00 [K]
    intra Coulombic/kʙ           0.000000e+00 [K]
    polarization/kʙ              0.000000e+00 [K]
    dU/dlambda VDW/kʙ            0.000000e+00 [K]
    dU/dlambda Real/kʙ           0.000000e+00 [K]
    dU/dlambda Ewald/kʙ          0.000000e+00 [K]


Current cycle: 0 out of 5000
===============================================================================

Box:      25.78404   0.00000   0.00000  Average:  25.78404   0.00000   0.00000
           0.00000  25.78404   0.00000             0.00000  25.78404   0.00000
           0.00000   0.00000  25.78404             0.00000   0.00000  25.78404
Lengths:  25.78404  25.78404  25.78404  Average:  25.78404  25.78404  25.78404
Angles:   90.00000  90.00000  90.00000  Average:  90.00000  90.00000  90.00000
Rectangular boundary conditions

net charge:   0.00000000

component 0 (CO2) lambda:  0 occupancy:  1 (1.000000)
    net charge:   0.00000000 [e]

Amount of molecules per component :
-------------------------------------------------------------------------------
Component 0 (CO2)
    molecules:      2.500000e+02 molecules  (2.500000e+02 +/- 0.000000e+00)
    number density: 1.458434e-02 molec./A^3 (1.458434e-02 +/- 0.000000e+00)
    density:        1.065557e+03 kg/m^3     (1.065557e+03 +/- 0.000000e+00)

Average pressure tensor: 
-------------------------------------------------------------------------------
 5.0340e+02  0.0000e+00  0.0000e+00 +/- 0.0000e+00 0.0000e+00 0.0000e+00 [bar]
 0.0000e+00  5.0340e+02  0.0000e+00 +/- 0.0000e+00 0.0000e+00 0.0000e+00 [bar]
 0.0000e+00  0.0000e+00  5.0340e+02 +/- 0.0000e+00 0.0000e+00 0.0000e+00 [bar]
Ideal-gas pressure:   5.033970e+02 +/ 0.000000e+00 [bar]
Excess pressure:      0.000000e+00 +/ 0.000000e+00 [bar]
Pressure:             5.033970e+02 +/ 0.000000e+00 [bar]

Total potential energy/kʙ  -3.820141e+05 (-3.820141e+05 +/- 0.000000e+00) [K]
-------------------------------------------------------------------------------
ExternalField-molecule
    Van der Waals/kʙ        0.000000e+00 ( 0.000000e+00 +/- 0.000000e+00) [K]
Framework-molecule
    Van der Waals/kʙ        0.000000e+00 ( 0.000000e+00 +/- 0.000000e+00) [K]
    Van der Waals (Tail)/kʙ 0.000000e+00 ( 0.000000e+00 +/- 0.000000e+00) [K]
    Coulombic Real/kʙ       0.000000e+00 ( 0.000000e+00 +/- 0.000000e+00) [K]
    Coulombic Fourier/kʙ    0.000000e+00 ( 0.000000e+00 +/- 0.000000e+00) [K]
Molecule-molecule
    Van der Waals/kʙ       -2.734253e+05 (-2.734253e+05 +/- 0.000000e+00) [K]
    Van der Waals (Tail)/kʙ-1.169865e+04 (-1.169865e+04 +/- 0.000000e+00) [K]
    Coulombic Real/kʙ      -7.767796e+04 (-7.767796e+04 +/- 0.000000e+00) [K]
    Coulombic Fourier/kʙ   -1.921219e+04 (-1.921219e+04 +/- 0.000000e+00) [K]
    Molecule Intra/kʙ       0.000000e+00 ( 0.000000e+00 +/- 0.000000e+00) [K]

Current cycle: 100 out of 5000
===============================================================================

Box:      25.64213   0.00000   0.00000  Average:  25.60444   0.00000   0.00000
           0.00000  25.64213   0.00000             0.00000  25.60444   0.00000
           0.00000   0.00000  25.64213             0.00000   0.00000  25.60444
Lengths:  25.64213  25.64213  25.64213  Average:  25.60444  25.60444  25.60444
Angles:   90.00000  90.00000  90.00000  Average:  90.00000  90.00000  90.00000
Rectangular boundary conditions

net charge:   0.00000000

component 0 (CO2) lambda:  0 occupancy:  1 (1.000000)
    net charge:   0.00000000 [e]

Amount of molecules per component :
-------------------------------------------------------------------------------
Component 0 (CO2)
    molecules:      2.500000e+02 molecules  (2.500000e+02 +/- 0.000000e+00)
    number density: 1.482783e-02 molec./A^3 (1.489510e-02 +/- 0.000000e+00)
    density:        1.083347e+03 kg/m^3     (1.088261e+03 +/- 0.000000e+00)

Average pressure tensor: 
-------------------------------------------------------------------------------
 1.9806e+02 -8.0137e+00  1.7648e+02 +/- 0.0000e+00 0.0000e+00 0.0000e+00 [bar]
-8.0137e+00  4.3942e+02  4.0533e+01 +/- 0.0000e+00 0.0000e+00 0.0000e+00 [bar]
 1.7648e+02  4.0533e+01  5.4352e+01 +/- 0.0000e+00 0.0000e+00 0.0000e+00 [bar]
Ideal-gas pressure:   5.141230e+02 +/ 0.000000e+00 [bar]
Excess pressure:     -2.835122e+02 +/ 0.000000e+00 [bar]
Pressure:             2.306108e+02 +/ 0.000000e+00 [bar]

Total potential energy/kʙ  -3.936609e+05 (-3.947525e+05 +/- 0.000000e+00) [K]
-------------------------------------------------------------------------------
ExternalField-molecule
    Van der Waals/kʙ        0.000000e+00 ( 0.000000e+00 +/- 0.000000e+00) [K]
Framework-molecule
    Van der Waals/kʙ        0.000000e+00 ( 0.000000e+00 +/- 0.000000e+00) [K]
    Van der Waals (Tail)/kʙ 0.000000e+00 ( 0.000000e+00 +/- 0.000000e+00) [K]
    Coulombic Real/kʙ       0.000000e+00 ( 0.000000e+00 +/- 0.000000e+00) [K]
    Coulombic Fourier/kʙ    0.000000e+00 ( 0.000000e+00 +/- 0.000000e+00) [K]
Molecule-molecule
    Van der Waals/kʙ       -2.815453e+05 (-2.791981e+05 +/- 0.000000e+00) [K]
    Van der Waals (Tail)/kʙ-1.189396e+04 (-1.196558e+04 +/- 0.000000e+00) [K]
    Coulombic Real/kʙ      -8.000154e+04 (-8.413648e+04 +/- 0.000000e+00) [K]
    Coulombic Fourier/kʙ   -2.022009e+04 (-1.945228e+04 +/- 0.000000e+00) [K]
    Molecule Intra/kʙ       0.000000e+00 ( 0.000000e+00 +/- 0.000000e+00) [K]

Current cycle: 200 out of 5000
===============================================================================

Box:      25.44510   0.00000   0.00000  Average:  25.56770   0.00000   0.00000
           0.00000  25.44510   0.00000             0.00000  25.56770   0.00000
           0.00000   0.00000  25.44510             0.00000   0.00000  25.56770
Lengths:  25.44510  25.44510  25.44510  Average:  25.56770  25.56770  25.56770
Angles:   90.00000  90.00000  90.00000  Average:  90.00000  90.00000  90.00000
Rectangular boundary conditions

net charge:   0.00000000

component 0 (CO2) lambda:  0 occupancy:  1 (1.000000)
    net charge:   0.00000000 [e]

Amount of molecules per component :
-------------------------------------------------------------------------------
Component 0 (CO2)
    molecules:      2.500000e+02 molecules  (2.500000e+02 +/- 0.000000e+00)
    number density: 1.517495e-02 molec./A^3 (1.496020e-02 +/- 0.000000e+00)
    density:        1.108708e+03 kg/m^3     (1.093017e+03 +/- 0.000000e+00)

Average pressure tensor: 
-------------------------------------------------------------------------------
 8.3376e+01 -3.1890e+00  7.1234e+01 +/- 0.0000e+00 0.0000e+00 0.0000e+00 [bar]
-3.1890e+00  2.5170e+02  6.5901e+01 +/- 0.0000e+00 0.0000e+00 0.0000e+00 [bar]
 7.1234e+01  6.5901e+01  1.4291e+02 +/- 0.0000e+00 0.0000e+00 0.0000e+00 [bar]
Ideal-gas pressure:   5.163700e+02 +/ 0.000000e+00 [bar]
Excess pressure:     -3.570402e+02 +/ 0.000000e+00 [bar]
Pressure:             1.593298e+02 +/ 0.000000e+00 [bar]

Total potential energy/kʙ  -3.971308e+05 (-3.956349e+05 +/- 0.000000e+00) [K]
-------------------------------------------------------------------------------
ExternalField-molecule
    Van der Waals/kʙ        0.000000e+00 ( 0.000000e+00 +/- 0.000000e+00) [K]
Framework-molecule
    Van der Waals/kʙ        0.000000e+00 ( 0.000000e+00 +/- 0.000000e+00) [K]
    Van der Waals (Tail)/kʙ 0.000000e+00 ( 0.000000e+00 +/- 0.000000e+00) [K]
    Coulombic Real/kʙ       0.000000e+00 ( 0.000000e+00 +/- 0.000000e+00) [K]
    Coulombic Fourier/kʙ    0.000000e+00 ( 0.000000e+00 +/- 0.000000e+00) [K]
Molecule-molecule
    Van der Waals/kʙ       -2.839808e+05 (-2.800260e+05 +/- 0.000000e+00) [K]
    Van der Waals (Tail)/kʙ-1.217240e+04 (-1.200018e+04 +/- 0.000000e+00) [K]
    Coulombic Real/kʙ      -8.156256e+04 (-8.384258e+04 +/- 0.000000e+00) [K]
    Coulombic Fourier/kʙ   -1.941507e+04 (-1.976614e+04 +/- 0.000000e+00) [K]
    Molecule Intra/kʙ       0.000000e+00 ( 0.000000e+00 +/- 0.000000e+00) [K]

Current cycle: 300 out of 5000
===============================================================================

Box:      25.41068   0.00000   0.00000  Average:  25.52598   0.00000   0.00000
           0.00000  25.41068   0.00000             0.00000  25.52598   0.00000
           0.00000   0.00000  25.41068             0.00000   0.00000  25.52598
Lengths:  25.41068  25.41068  25.41068  Average:  25.52598  25.52598  25.52598
Angles:   90.00000  90.00000  90.00000  Average:  90.00000  90.00000  90.00000
Rectangular boundary conditions

net charge:   0.00000000

component 0 (CO2) lambda:  0 occupancy:  1 (1.000000)
    net charge:   0.00000000 [e]

Amount of molecules per component :
-------------------------------------------------------------------------------
Component 0 (CO2)
    molecules:      2.500000e+02 molecules  (2.500000e+02 +/- 0.000000e+00)
    number density: 1.523671e-02 molec./A^3 (1.503368e-02 +/- 0.000000e+00)
    density:        1.113220e+03 kg/m^3     (1.098386e+03 +/- 0.000000e+00)

Average pressure tensor: 
-------------------------------------------------------------------------------
 7.0315e+01 -4.7733e+01  1.0700e+01 +/- 0.0000e+00 0.0000e+00 0.0000e+00 [bar]
-4.7733e+01  3.1590e+02  1.0555e+02 +/- 0.0000e+00 0.0000e+00 0.0000e+00 [bar]
 1.0700e+01  1.0555e+02  1.8219e+02 +/- 0.0000e+00 0.0000e+00 0.0000e+00 [bar]
Ideal-gas pressure:   5.189064e+02 +/ 0.000000e+00 [bar]
Excess pressure:     -3.294401e+02 +/ 0.000000e+00 [bar]
Pressure:             1.894663e+02 +/ 0.000000e+00 [bar]

Total potential energy/kʙ  -4.012359e+05 (-3.957971e+05 +/- 0.000000e+00) [K]
-------------------------------------------------------------------------------
ExternalField-molecule
    Van der Waals/kʙ        0.000000e+00 ( 0.000000e+00 +/- 0.000000e+00) [K]
Framework-molecule
    Van der Waals/kʙ        0.000000e+00 ( 0.000000e+00 +/- 0.000000e+00) [K]
    Van der Waals (Tail)/kʙ 0.000000e+00 ( 0.000000e+00 +/- 0.000000e+00) [K]
    Coulombic Real/kʙ       0.000000e+00 ( 0.000000e+00 +/- 0.000000e+00) [K]
    Coulombic Fourier/kʙ    0.000000e+00 ( 0.000000e+00 +/- 0.000000e+00) [K]
Molecule-molecule
    Van der Waals/kʙ       -2.849350e+05 (-2.813848e+05 +/- 0.000000e+00) [K]
    Van der Waals (Tail)/kʙ-1.222193e+04 (-1.206360e+04 +/- 0.000000e+00) [K]
    Coulombic Real/kʙ      -8.385055e+04 (-8.277164e+04 +/- 0.000000e+00) [K]
    Coulombic Fourier/kʙ   -2.022846e+04 (-1.957713e+04 +/- 0.000000e+00) [K]
    Molecule Intra/kʙ       0.000000e+00 ( 0.000000e+00 +/- 0.000000e+00) [K]

Current cycle: 400 out of 5000
===============================================================================

Box:      25.69760   0.00000   0.00000  Average:  25.50290   0.00000   0.00000
           0.00000  25.69760   0.00000             0.00000  25.50290   0.00000
           0.00000   0.00000  25.69760             0.00000   0.00000  25.50290
Lengths:  25.69760  25.69760  25.69760  Average:  25.50290  25.50290  25.50290
Angles:   90.00000  90.00000  90.00000  Average:  90.00000  90.00000  90.00000
Rectangular boundary conditions

net charge:   0.00000000

component 0 (CO2) lambda:  0 occupancy:  1 (1.000000)
    net charge:   0.00000000 [e]

Amount of molecules per component :
-------------------------------------------------------------------------------
Component 0 (CO2)
    molecules:      2.500000e+02 molecules  (2.500000e+02 +/- 0.000000e+00)
    number density: 1.473202e-02 molec./A^3 (1.507466e-02 +/- 0.000000e+00)
    density:        1.076347e+03 kg/m^3     (1.101381e+03 +/- 0.000000e+00)

Average pressure tensor: 
-------------------------------------------------------------------------------
 9.4959e+01 -4.6417e+01  3.2670e+01 +/- 0.0000e+00 0.0000e+00 0.0000e+00 [bar]
-4.6417e+01  2.5627e+02  1.0442e+02 +/- 0.0000e+00 0.0000e+00 0.0000e+00 [bar]
 3.2670e+01  1.0442e+02  1.3614e+02 +/- 0.0000e+00 0.0000e+00 0.0000e+00 [bar]
Ideal-gas pressure:   5.203209e+02 +/ 0.000000e+00 [bar]
Excess pressure:     -3.578635e+02 +/ 0.000000e+00 [bar]
Pressure:             1.624574e+02 +/ 0.000000e+00 [bar]

Total potential energy/kʙ  -3.904345e+05 (-3.973525e+05 +/- 0.000000e+00) [K]
-------------------------------------------------------------------------------
ExternalField-molecule
    Van der Waals/kʙ        0.000000e+00 ( 0.000000e+00 +/- 0.000000e+00) [K]
Framework-molecule
    Van der Waals/kʙ        0.000000e+00 ( 0.000000e+00 +/- 0.000000e+00) [K]
    Van der Waals (Tail)/kʙ 0.000000e+00 ( 0.000000e+00 +/- 0.000000e+00) [K]
    Coulombic Real/kʙ       0.000000e+00 ( 0.000000e+00 +/- 0.000000e+00) [K]
    Coulombic Fourier/kʙ    0.000000e+00 ( 0.000000e+00 +/- 0.000000e+00) [K]
Molecule-molecule
    Van der Waals/kʙ       -2.777754e+05 (-2.827525e+05 +/- 0.000000e+00) [K]
    Van der Waals (Tail)/kʙ-1.181711e+04 (-1.208773e+04 +/- 0.000000e+00) [K]
    Coulombic Real/kʙ      -8.194995e+04 (-8.303590e+04 +/- 0.000000e+00) [K]
    Coulombic Fourier/kʙ   -1.889198e+04 (-1.947636e+04 +/- 0.000000e+00) [K]
    Molecule Intra/kʙ       0.000000e+00 ( 0.000000e+00 +/- 0.000000e+00) [K]

Current cycle: 500 out of 5000
===============================================================================

Box:      25.65401   0.00000   0.00000  Average:  25.51612   0.00000   0.00000
           0.00000  25.65401   0.00000             0.00000  25.51612   0.00000
           0.00000   0.00000  25.65401             0.00000   0.00000  25.51612
Lengths:  25.65401  25.65401  25.65401  Average:  25.51612  25.51612  25.51612
Angles:   90.00000  90.00000  90.00000  Average:  90.00000  90.00000  90.00000
Rectangular boundary conditions

net charge:   0.00000000

component 0 (CO2) lambda:  0 occupancy:  1 (1.000000)
    net charge:   0.00000000 [e]

Amount of molecules per component :
-------------------------------------------------------------------------------
Component 0 (CO2)
    molecules:      2.500000e+02 molecules  (2.500000e+02 +/- 0.000000e+00)
    number density: 1.480724e-02 molec./A^3 (1.505111e-02 +/- 0.000000e+00)
    density:        1.081842e+03 kg/m^3     (1.099660e+03 +/- 0.000000e+00)

Average pressure tensor: 
-------------------------------------------------------------------------------
 9.7178e+01 -4.4680e+01  3.7839e+01 +/- 0.0000e+00 0.0000e+00 0.0000e+00 [bar]
-4.4680e+01  2.3109e+02  9.1783e+01 +/- 0.0000e+00 0.0000e+00 0.0000e+00 [bar]
 3.7839e+01  9.1783e+01  1.9789e+02 +/- 0.0000e+00 0.0000e+00 0.0000e+00 [bar]
Ideal-gas pressure:   5.195081e+02 +/ 0.000000e+00 [bar]
Excess pressure:     -3.441248e+02 +/ 0.000000e+00 [bar]
Pressure:             1.753833e+02 +/ 0.000000e+00 [bar]

Total potential energy/kʙ  -3.926471e+05 (-3.974998e+05 +/- 0.000000e+00) [K]
-------------------------------------------------------------------------------
ExternalField-molecule
    Van der Waals/kʙ        0.000000e+00 ( 0.000000e+00 +/- 0.000000e+00) [K]
Framework-molecule
    Van der Waals/kʙ        0.000000e+00 ( 0.000000e+00 +/- 0.000000e+00) [K]
    Van der Waals (Tail)/kʙ 0.000000e+00 ( 0.000000e+00 +/- 0.000000e+00) [K]
    Coulombic Real/kʙ       0.000000e+00 ( 0.000000e+00 +/- 0.000000e+00) [K]
    Coulombic Fourier/kʙ    0.000000e+00 ( 0.000000e+00 +/- 0.000000e+00) [K]
Molecule-molecule
    Van der Waals/kʙ       -2.698955e+05 (-2.820048e+05 +/- 0.000000e+00) [K]
    Van der Waals (Tail)/kʙ-1.187744e+04 (-1.207996e+04 +/- 0.000000e+00) [K]
    Coulombic Real/kʙ      -9.056773e+04 (-8.385630e+04 +/- 0.000000e+00) [K]
    Coulombic Fourier/kʙ   -2.030644e+04 (-1.955874e+04 +/- 0.000000e+00) [K]
    Molecule Intra/kʙ       0.000000e+00 ( 0.000000e+00 +/- 0.000000e+00) [K]

Current cycle: 600 out of 5000
===============================================================================

Box:      25.70148   0.00000   0.00000  Average:  25.53533   0.00000   0.00000
           0.00000  25.70148   0.00000             0.00000  25.53533   0.00000
           0.00000   0.00000  25.70148             0.00000   0.00000  25.53533
Lengths:  25.70148  25.70148  25.70148  Average:  25.53533  25.53533  25.53533
Angles:   90.00000  90.00000  90.00000  Average:  90.00000  90.00000  90.00000
Rectangular boundary conditions

net charge:   0.00000000

component 0 (CO2) lambda:  0 occupancy:  1 (1.000000)
    net charge:   0.00000000 [e]

Amount of molecules per component :
-------------------------------------------------------------------------------
Component 0 (CO2)
    molecules:      2.500000e+02 molecules  (2.500000e+02 +/- 0.000000e+00)
    number density: 1.472534e-02 molec./A^3 (1.501738e-02 +/- 0.000000e+00)
    density:        1.075859e+03 kg/m^3     (1.097196e+03 +/- 0.000000e+00)

Average pressure tensor: 
-------------------------------------------------------------------------------
 1.1978e+02 -4.0908e+01  5.2404e+01 +/- 0.0000e+00 0.0000e+00 0.0000e+00 [bar]
-4.0908e+01  2.0593e+02  9.0115e+01 +/- 0.0000e+00 0.0000e+00 0.0000e+00 [bar]
 5.2404e+01  9.0115e+01  1.7453e+02 +/- 0.0000e+00 0.0000e+00 0.0000e+00 [bar]
Ideal-gas pressure:   5.183439e+02 +/ 0.000000e+00 [bar]
Excess pressure:     -3.515961e+02 +/ 0.000000e+00 [bar]
Pressure:             1.667478e+02 +/ 0.000000e+00 [bar]

Total potential energy/kʙ  -3.872722e+05 (-3.967024e+05 +/- 0.000000e+00) [K]
-------------------------------------------------------------------------------
ExternalField-molecule
    Van der Waals/kʙ        0.000000e+00 ( 0.000000e+00 +/- 0.000000e+00) [K]
Framework-molecule
    Van der Waals/kʙ        0.000000e+00 ( 0.000000e+00 +/- 0.000000e+00) [K]
    Van der Waals (Tail)/kʙ 0.000000e+00 ( 0.000000e+00 +/- 0.000000e+00) [K]
    Coulombic Real/kʙ       0.000000e+00 ( 0.000000e+00 +/- 0.000000e+00) [K]
    Coulombic Fourier/kʙ    0.000000e+00 ( 0.000000e+00 +/- 0.000000e+00) [K]
Molecule-molecule
    Van der Waals/kʙ       -2.751747e+05 (-2.812904e+05 +/- 0.000000e+00) [K]
    Van der Waals (Tail)/kʙ-1.181175e+04 (-1.205102e+04 +/- 0.000000e+00) [K]
    Coulombic Real/kʙ      -7.964532e+04 (-8.365742e+04 +/- 0.000000e+00) [K]
    Coulombic Fourier/kʙ   -2.064041e+04 (-1.970352e+04 +/- 0.000000e+00) [K]
    Molecule Intra/kʙ       0.000000e+00 ( 0.000000e+00 +/- 0.000000e+00) [K]

Current cycle: 700 out of 5000
===============================================================================

Box:      25.46832   0.00000   0.00000  Average:  25.54190   0.00000   0.00000
           0.00000  25.46832   0.00000             0.00000  25.54190   0.00000
           0.00000   0.00000  25.46832             0.00000   0.00000  25.54190
Lengths:  25.46832  25.46832  25.46832  Average:  25.54190  25.54190  25.54190
Angles:   90.00000  90.00000  90.00000  Average:  90.00000  90.00000  90.00000
Rectangular boundary conditions

net charge:   0.00000000

component 0 (CO2) lambda:  0 occupancy:  1 (1.000000)
    net charge:   0.00000000 [e]

Amount of molecules per component :
-------------------------------------------------------------------------------
Component 0 (CO2)
    molecules:      2.500000e+02 molecules  (2.500000e+02 +/- 0.000000e+00)
    number density: 1.513350e-02 molec./A^3 (1.500564e-02 +/- 0.000000e+00)
    density:        1.105679e+03 kg/m^3     (1.096337e+03 +/- 0.000000e+00)

Average pressure tensor: 
-------------------------------------------------------------------------------
 1.3165e+02 -3.8377e+01  5.0869e+01 +/- 0.0000e+00 0.0000e+00 0.0000e+00 [bar]
-3.8377e+01  1.9497e+02  7.5603e+01 +/- 0.0000e+00 0.0000e+00 0.0000e+00 [bar]
 5.0869e+01  7.5603e+01  1.5730e+02 +/- 0.0000e+00 0.0000e+00 0.0000e+00 [bar]
Ideal-gas pressure:   5.179384e+02 +/ 0.000000e+00 [bar]
Excess pressure:     -3.566310e+02 +/ 0.000000e+00 [bar]
Pressure:             1.613075e+02 +/ 0.000000e+00 [bar]

Total potential energy/kʙ  -3.986254e+05 (-3.966723e+05 +/- 0.000000e+00) [K]
-------------------------------------------------------------------------------
ExternalField-molecule
    Van der Waals/kʙ        0.000000e+00 ( 0.000000e+00 +/- 0.000000e+00) [K]
Framework-molecule
    Van der Waals/kʙ        0.000000e+00 ( 0.000000e+00 +/- 0.000000e+00) [K]
    Van der Waals (Tail)/kʙ 0.000000e+00 ( 0.000000e+00 +/- 0.000000e+00) [K]
    Coulombic Real/kʙ       0.000000e+00 ( 0.000000e+00 +/- 0.000000e+00) [K]
    Coulombic Fourier/kʙ    0.000000e+00 ( 0.000000e+00 +/- 0.000000e+00) [K]
Molecule-molecule
    Van der Waals/kʙ       -2.838159e+05 (-2.813580e+05 +/- 0.000000e+00) [K]
    Van der Waals (Tail)/kʙ-1.213914e+04 (-1.204500e+04 +/- 0.000000e+00) [K]
    Coulombic Real/kʙ      -8.308048e+04 (-8.354284e+04 +/- 0.000000e+00) [K]
    Coulombic Fourier/kʙ   -1.958987e+04 (-1.972647e+04 +/- 0.000000e+00) [K]
    Molecule Intra/kʙ       0.000000e+00 ( 0.000000e+00 +/- 0.000000e+00) [K]

Current cycle: 800 out of 5000
===============================================================================

Box:      25.45797   0.00000   0.00000  Average:  25.54650   0.00000   0.00000
           0.00000  25.45797   0.00000             0.00000  25.54650   0.00000
           0.00000   0.00000  25.45797             0.00000   0.00000  25.54650
Lengths:  25.45797  25.45797  25.45797  Average:  25.54650  25.54650  25.54650
Angles:   90.00000  90.00000  90.00000  Average:  90.00000  90.00000  90.00000
Rectangular boundary conditions

net charge:   0.00000000

component 0 (CO2) lambda:  0 occupancy:  1 (1.000000)
    net charge:   0.00000000 [e]

Amount of molecules per component :
-------------------------------------------------------------------------------
Component 0 (CO2)
    molecules:      2.500000e+02 molecules  (2.500000e+02 +/- 0.000000e+00)
    number density: 1.515195e-02 molec./A^3 (1.499737e-02 +/- 0.000000e+00)
    density:        1.107027e+03 kg/m^3     (1.095733e+03 +/- 0.000000e+00)

Average pressure tensor: 
-------------------------------------------------------------------------------
 1.5784e+02 -2.5567e+01  5.7175e+01 +/- 0.0000e+00 0.0000e+00 0.0000e+00 [bar]
-2.5567e+01  1.5399e+02  6.9614e+01 +/- 0.0000e+00 0.0000e+00 0.0000e+00 [bar]
 5.7175e+01  6.9614e+01  1.5685e+02 +/- 0.0000e+00 0.0000e+00 0.0000e+00 [bar]
Ideal-gas pressure:   5.176530e+02 +/ 0.000000e+00 [bar]
Excess pressure:     -3.614284e+02 +/ 0.000000e+00 [bar]
Pressure:             1.562246e+02 +/ 0.000000e+00 [bar]

Total potential energy/kʙ  -4.047710e+05 (-3.966731e+05 +/- 0.000000e+00) [K]
-------------------------------------------------------------------------------
ExternalField-molecule
    Van der Waals/kʙ        0.000000e+00 ( 0.000000e+00 +/- 0.000000e+00) [K]
Framework-molecule
    Van der Waals/kʙ        0.000000e+00 ( 0.000000e+00 +/- 0.000000e+00) [K]
    Van der Waals (Tail)/kʙ 0.000000e+00 ( 0.000000e+00 +/- 0.000000e+00) [K]
    Coulombic Real/kʙ       0.000000e+00 ( 0.000000e+00 +/- 0.000000e+00) [K]
    Coulombic Fourier/kʙ    0.000000e+00 ( 0.000000e+00 +/- 0.000000e+00) [K]
Molecule-molecule
    Van der Waals/kʙ       -2.788579e+05 (-2.808559e+05 +/- 0.000000e+00) [K]
    Van der Waals (Tail)/kʙ-1.215394e+04 (-1.203547e+04 +/- 0.000000e+00) [K]
    Coulombic Real/kʙ      -9.250545e+04 (-8.402367e+04 +/- 0.000000e+00) [K]
    Coulombic Fourier/kʙ   -2.125367e+04 (-1.975813e+04 +/- 0.000000e+00) [K]
    Molecule Intra/kʙ       0.000000e+00 ( 0.000000e+00 +/- 0.000000e+00) [K]

Current cycle: 900 out of 5000
===============================================================================

Box:      25.82356   0.00000   0.00000  Average:  25.55333   0.00000   0.00000
           0.00000  25.82356   0.00000             0.00000  25.55333   0.00000
           0.00000   0.00000  25.82356             0.00000   0.00000  25.55333
Lengths:  25.82356  25.82356  25.82356  Average:  25.55333  25.55333  25.55333
Angles:   90.00000  90.00000  90.00000  Average:  90.00000  90.00000  90.00000
Rectangular boundary conditions

net charge:   0.00000000

component 0 (CO2) lambda:  0 occupancy:  1 (1.000000)
    net charge:   0.00000000 [e]

Amount of molecules per component :
-------------------------------------------------------------------------------
Component 0 (CO2)
    molecules:      2.500000e+02 molecules  (2.500000e+02 +/- 0.000000e+00)
    number density: 1.451750e-02 molec./A^3 (1.498541e-02 +/- 0.000000e+00)
    density:        1.060673e+03 kg/m^3     (1.094860e+03 +/- 0.000000e+00)

Average pressure tensor: 
-------------------------------------------------------------------------------
 1.5666e+02 -2.6128e+01  5.3429e+01 +/- 0.0000e+00 0.0000e+00 0.0000e+00 [bar]
-2.6128e+01  1.4663e+02  5.6709e+01 +/- 0.0000e+00 0.0000e+00 0.0000e+00 [bar]
 5.3429e+01  5.6709e+01  1.8171e+02 +/- 0.0000e+00 0.0000e+00 0.0000e+00 [bar]
Ideal-gas pressure:   5.172403e+02 +/ 0.000000e+00 [bar]
Excess pressure:     -3.555739e+02 +/ 0.000000e+00 [bar]
Pressure:             1.616664e+02 +/ 0.000000e+00 [bar]

Total potential energy/kʙ  -3.808846e+05 (-3.962264e+05 +/- 0.000000e+00) [K]
-------------------------------------------------------------------------------
ExternalField-molecule
    Van der Waals/kʙ        0.000000e+00 ( 0.000000e+00 +/- 0.000000e+00) [K]
Framework-molecule
    Van der Waals/kʙ        0.000000e+00 ( 0.000000e+00 +/- 0.000000e+00) [K]
    Van der Waals (Tail)/kʙ 0.000000e+00 ( 0.000000e+00 +/- 0.000000e+00) [K]
    Coulombic Real/kʙ       0.000000e+00 ( 0.000000e+00 +/- 0.000000e+00) [K]
    Coulombic Fourier/kʙ    0.000000e+00 ( 0.000000e+00 +/- 0.000000e+00) [K]
Molecule-molecule
    Van der Waals/kʙ       -2.685669e+05 (-2.805588e+05 +/- 0.000000e+00) [K]
    Van der Waals (Tail)/kʙ-1.164502e+04 (-1.202325e+04 +/- 0.000000e+00) [K]
    Coulombic Real/kʙ      -8.256553e+04 (-8.392382e+04 +/- 0.000000e+00) [K]
    Coulombic Fourier/kʙ   -1.810720e+04 (-1.972057e+04 +/- 0.000000e+00) [K]
    Molecule Intra/kʙ       0.000000e+00 ( 0.000000e+00 +/- 0.000000e+00) [K]

Current cycle: 1000 out of 5000
===============================================================================

Box:      25.53248   0.00000   0.00000  Average:  25.56030   0.00000   0.00000
           0.00000  25.53248   0.00000             0.00000  25.56030   0.00000
           0.00000   0.00000  25.53248             0.00000   0.00000  25.56030
Lengths:  25.53248  25.53248  25.53248  Average:  25.56030  25.56030  25.56030
Angles:   90.00000  90.00000  90.00000  Average:  90.00000  90.00000  90.00000
Rectangular boundary conditions

net charge:   0.00000000

component 0 (CO2) lambda:  0 occupancy:  1 (1.000000)
    net charge:   0.00000000 [e]

Amount of molecules per component :
-------------------------------------------------------------------------------
Component 0 (CO2)
    molecules:      2.500000e+02 molecules  (2.500000e+02 +/- 0.000000e+00)
    number density: 1.501970e-02 molec./A^3 (1.497314e-02 +/- 0.000000e+00)
    density:        1.097365e+03 kg/m^3     (1.093963e+03 +/- 0.000000e+00)

Average pressure tensor: 
-------------------------------------------------------------------------------
 1.5900e+02 -2.1372e+00  4.1200e+01 +/- 0.0000e+00 0.0000e+00 0.0000e+00 [bar]
-2.1372e+00  1.4351e+02  5.2896e+01 +/- 0.0000e+00 0.0000e+00 0.0000e+00 [bar]
 4.1200e+01  5.2896e+01  2.0568e+02 +/- 0.0000e+00 0.0000e+00 0.0000e+00 [bar]
Ideal-gas pressure:   5.168168e+02 +/ 0.000000e+00 [bar]
Excess pressure:     -3.474182e+02 +/ 0.000000e+00 [bar]
Pressure:             1.693986e+02 +/ 0.000000e+00 [bar]

Total potential energy/kʙ  -3.888737e+05 (-3.954629e+05 +/- 0.000000e+00) [K]
-------------------------------------------------------------------------------
ExternalField-molecule
    Van der Waals/kʙ        0.000000e+00 ( 0.000000e+00 +/- 0.000000e+00) [K]
Framework-molecule
    Van der Waals/kʙ        0.000000e+00 ( 0.000000e+00 +/- 0.000000e+00) [K]
    Van der Waals (Tail)/kʙ 0.000000e+00 ( 0.000000e+00 +/- 0.000000e+00) [K]
    Coulombic Real/kʙ       0.000000e+00 ( 0.000000e+00 +/- 0.000000e+00) [K]
    Coulombic Fourier/kʙ    0.000000e+00 ( 0.000000e+00 +/- 0.000000e+00) [K]
Molecule-molecule
    Van der Waals/kʙ       -2.766502e+05 (-2.802977e+05 +/- 0.000000e+00) [K]
    Van der Waals (Tail)/kʙ-1.204786e+04 (-1.201806e+04 +/- 0.000000e+00) [K]
    Coulombic Real/kʙ      -8.051716e+04 (-8.349188e+04 +/- 0.000000e+00) [K]
    Coulombic Fourier/kʙ   -1.965843e+04 (-1.965530e+04 +/- 0.000000e+00) [K]
    Molecule Intra/kʙ       0.000000e+00 ( 0.000000e+00 +/- 0.000000e+00) [K]

Current cycle: 1100 out of 5000
===============================================================================

Box:      25.56979   0.00000   0.00000  Average:  25.56199   0.00000   0.00000
           0.00000  25.56979   0.00000             0.00000  25.56199   0.00000
           0.00000   0.00000  25.56979             0.00000   0.00000  25.56199
Lengths:  25.56979  25.56979  25.56979  Average:  25.56199  25.56199  25.56199
Angles:   90.00000  90.00000  90.00000  Average:  90.00000  90.00000  90.00000
Rectangular boundary conditions

net charge:   0.00000000

component 0 (CO2) lambda:  0 occupancy:  1 (1.000000)
    net charge:   0.00000000 [e]

Amount of molecules per component :
-------------------------------------------------------------------------------
Component 0 (CO2)
    molecules:      2.500000e+02 molecules  (2.500000e+02 +/- 0.000000e+00)
    number density: 1.495404e-02 molec./A^3 (1.497001e-02 +/- 0.000000e+00)
    density:        1.092568e+03 kg/m^3     (1.093735e+03 +/- 0.000000e+00)

Average pressure tensor: 
-------------------------------------------------------------------------------
 1.7368e+02  1.1798e+01  3.9934e+01 +/- 0.0000e+00 0.0000e+00 0.0000e+00 [bar]
 1.1798e+01  1.5465e+02  4.1564e+01 +/- 0.0000e+00 0.0000e+00 0.0000e+00 [bar]
 3.9934e+01  4.1564e+01  1.8245e+02 +/- 0.0000e+00 0.0000e+00 0.0000e+00 [bar]
Ideal-gas pressure:   5.167088e+02 +/ 0.000000e+00 [bar]
Excess pressure:     -3.464494e+02 +/ 0.000000e+00 [bar]
Pressure:             1.702594e+02 +/ 0.000000e+00 [bar]

Total potential energy/kʙ  -3.867781e+05 (-3.949782e+05 +/- 0.000000e+00) [K]
-------------------------------------------------------------------------------
ExternalField-molecule
    Van der Waals/kʙ        0.000000e+00 ( 0.000000e+00 +/- 0.000000e+00) [K]
Framework-molecule
    Van der Waals/kʙ        0.000000e+00 ( 0.000000e+00 +/- 0.000000e+00) [K]
    Van der Waals (Tail)/kʙ 0.000000e+00 ( 0.000000e+00 +/- 0.000000e+00) [K]
    Coulombic Real/kʙ       0.000000e+00 ( 0.000000e+00 +/- 0.000000e+00) [K]
    Coulombic Fourier/kʙ    0.000000e+00 ( 0.000000e+00 +/- 0.000000e+00) [K]
Molecule-molecule
    Van der Waals/kʙ       -2.780183e+05 (-2.802676e+05 +/- 0.000000e+00) [K]
    Van der Waals (Tail)/kʙ-1.199520e+04 (-1.201455e+04 +/- 0.000000e+00) [K]
    Coulombic Real/kʙ      -7.808560e+04 (-8.309034e+04 +/- 0.000000e+00) [K]
    Coulombic Fourier/kʙ   -1.867899e+04 (-1.960573e+04 +/- 0.000000e+00) [K]
    Molecule Intra/kʙ       0.000000e+00 ( 0.000000e+00 +/- 0.000000e+00) [K]

Current cycle: 1200 out of 5000
===============================================================================

Box:      25.62261   0.00000   0.00000  Average:  25.55857   0.00000   0.00000
           0.00000  25.62261   0.00000             0.00000  25.55857   0.00000
           0.00000   0.00000  25.62261             0.00000   0.00000  25.55857
Lengths:  25.62261  25.62261  25.62261  Average:  25.55857  25.55857  25.55857
Angles:   90.00000  90.00000  90.00000  Average:  90.00000  90.00000  90.00000
Rectangular boundary conditions

net charge:   0.00000000

component 0 (CO2) lambda:  0 occupancy:  1 (1.000000)
    net charge:   0.00000000 [e]

Amount of molecules per component :
-------------------------------------------------------------------------------
Component 0 (CO2)
    molecules:      2.500000e+02 molecules  (2.500000e+02 +/- 0.000000e+00)
    number density: 1.486174e-02 molec./A^3 (1.497592e-02 +/- 0.000000e+00)
    density:        1.085824e+03 kg/m^3     (1.094166e+03 +/- 0.000000e+00)

Average pressure tensor: 
-------------------------------------------------------------------------------
 1.6788e+02  5.6255e+00  4.1965e+01 +/- 0.0000e+00 0.0000e+00 0.0000e+00 [bar]
 5.6255e+00  1.5240e+02  4.1598e+01 +/- 0.0000e+00 0.0000e+00 0.0000e+00 [bar]
 4.1965e+01  4.1598e+01  1.7092e+02 +/- 0.0000e+00 0.0000e+00 0.0000e+00 [bar]
Ideal-gas pressure:   5.169127e+02 +/ 0.000000e+00 [bar]
Excess pressure:     -3.531794e+02 +/ 0.000000e+00 [bar]
Pressure:             1.637333e+02 +/ 0.000000e+00 [bar]

Total potential energy/kʙ  -4.023176e+05 (-3.952178e+05 +/- 0.000000e+00) [K]
-------------------------------------------------------------------------------
ExternalField-molecule
    Van der Waals/kʙ        0.000000e+00 ( 0.000000e+00 +/- 0.000000e+00) [K]
Framework-molecule
    Van der Waals/kʙ        0.000000e+00 ( 0.000000e+00 +/- 0.000000e+00) [K]
    Van der Waals (Tail)/kʙ 0.000000e+00 ( 0.000000e+00 +/- 0.000000e+00) [K]
    Coulombic Real/kʙ       0.000000e+00 ( 0.000000e+00 +/- 0.000000e+00) [K]
    Coulombic Fourier/kʙ    0.000000e+00 ( 0.000000e+00 +/- 0.000000e+00) [K]
Molecule-molecule
    Van der Waals/kʙ       -2.859941e+05 (-2.806106e+05 +/- 0.000000e+00) [K]
    Van der Waals (Tail)/kʙ-1.192116e+04 (-1.201413e+04 +/- 0.000000e+00) [K]
    Coulombic Real/kʙ      -8.424857e+04 (-8.300411e+04 +/- 0.000000e+00) [K]
    Coulombic Fourier/kʙ   -2.015373e+04 (-1.958894e+04 +/- 0.000000e+00) [K]
    Molecule Intra/kʙ       0.000000e+00 ( 0.000000e+00 +/- 0.000000e+00) [K]

Current cycle: 1300 out of 5000
===============================================================================

Box:      25.31452   0.00000   0.00000  Average:  25.55706   0.00000   0.00000
           0.00000  25.31452   0.00000             0.00000  25.55706   0.00000
           0.00000   0.00000  25.31452             0.00000   0.00000  25.55706
Lengths:  25.31452  25.31452  25.31452  Average:  25.55706  25.55706  25.55706
Angles:   90.00000  90.00000  90.00000  Average:  90.00000  90.00000  90.00000
Rectangular boundary conditions

net charge:   0.00000000

component 0 (CO2) lambda:  0 occupancy:  1 (1.000000)
    net charge:   0.00000000 [e]

Amount of molecules per component :
-------------------------------------------------------------------------------
Component 0 (CO2)
    molecules:      2.500000e+02 molecules  (2.500000e+02 +/- 0.000000e+00)
    number density: 1.541100e-02 molec./A^3 (1.497855e-02 +/- 0.000000e+00)
    density:        1.125954e+03 kg/m^3     (1.094358e+03 +/- 0.000000e+00)

Average pressure tensor: 
-------------------------------------------------------------------------------
 1.5618e+02  9.7936e+00  4.4353e+01 +/- 0.0000e+00 0.0000e+00 0.0000e+00 [bar]
 9.7936e+00  1.4268e+02  4.7343e+01 +/- 0.0000e+00 0.0000e+00 0.0000e+00 [bar]
 4.4353e+01  4.7343e+01  1.5824e+02 +/- 0.0000e+00 0.0000e+00 0.0000e+00 [bar]
Ideal-gas pressure:   5.170033e+02 +/ 0.000000e+00 [bar]
Excess pressure:     -3.646364e+02 +/ 0.000000e+00 [bar]
Pressure:             1.523669e+02 +/ 0.000000e+00 [bar]

Total potential energy/kʙ  -4.048970e+05 (-3.953791e+05 +/- 0.000000e+00) [K]
-------------------------------------------------------------------------------
ExternalField-molecule
    Van der Waals/kʙ        0.000000e+00 ( 0.000000e+00 +/- 0.000000e+00) [K]
Framework-molecule
    Van der Waals/kʙ        0.000000e+00 ( 0.000000e+00 +/- 0.000000e+00) [K]
    Van der Waals (Tail)/kʙ 0.000000e+00 ( 0.000000e+00 +/- 0.000000e+00) [K]
    Coulombic Real/kʙ       0.000000e+00 ( 0.000000e+00 +/- 0.000000e+00) [K]
    Coulombic Fourier/kʙ    0.000000e+00 ( 0.000000e+00 +/- 0.000000e+00) [K]
Molecule-molecule
    Van der Waals/kʙ       -2.862780e+05 (-2.808349e+05 +/- 0.000000e+00) [K]
    Van der Waals (Tail)/kʙ-1.236174e+04 (-1.201618e+04 +/- 0.000000e+00) [K]
    Coulombic Real/kʙ      -8.557108e+04 (-8.291223e+04 +/- 0.000000e+00) [K]
    Coulombic Fourier/kʙ   -2.068624e+04 (-1.961578e+04 +/- 0.000000e+00) [K]
    Molecule Intra/kʙ       0.000000e+00 ( 0.000000e+00 +/- 0.000000e+00) [K]

Current cycle: 1400 out of 5000
===============================================================================

Box:      25.63287   0.00000   0.00000  Average:  25.54973   0.00000   0.00000
           0.00000  25.63287   0.00000             0.00000  25.54973   0.00000
           0.00000   0.00000  25.63287             0.00000   0.00000  25.54973
Lengths:  25.63287  25.63287  25.63287  Average:  25.54973  25.54973  25.54973
Angles:   90.00000  90.00000  90.00000  Average:  90.00000  90.00000  90.00000
Rectangular boundary conditions

net charge:   0.00000000

component 0 (CO2) lambda:  0 occupancy:  1 (1.000000)
    net charge:   0.00000000 [e]

Amount of molecules per component :
-------------------------------------------------------------------------------
Component 0 (CO2)
    molecules:      2.500000e+02 molecules  (2.500000e+02 +/- 0.000000e+00)
    number density: 1.484391e-02 molec./A^3 (1.499154e-02 +/- 0.000000e+00)
    density:        1.084521e+03 kg/m^3     (1.095308e+03 +/- 0.000000e+00)

Average pressure tensor: 
-------------------------------------------------------------------------------
 1.5581e+02 -2.1433e+00  4.4642e+01 +/- 0.0000e+00 0.0000e+00 0.0000e+00 [bar]
-2.1433e+00  1.2880e+02  4.0088e+01 +/- 0.0000e+00 0.0000e+00 0.0000e+00 [bar]
 4.4642e+01  4.0088e+01  1.4565e+02 +/- 0.0000e+00 0.0000e+00 0.0000e+00 [bar]
Ideal-gas pressure:   5.174520e+02 +/ 0.000000e+00 [bar]
Excess pressure:     -3.740282e+02 +/ 0.000000e+00 [bar]
Pressure:             1.434237e+02 +/ 0.000000e+00 [bar]

Total potential energy/kʙ  -3.979926e+05 (-3.957487e+05 +/- 0.000000e+00) [K]
-------------------------------------------------------------------------------
ExternalField-molecule
    Van der Waals/kʙ        0.000000e+00 ( 0.000000e+00 +/- 0.000000e+00) [K]
Framework-molecule
    Van der Waals/kʙ        0.000000e+00 ( 0.000000e+00 +/- 0.000000e+00) [K]
    Van der Waals (Tail)/kʙ 0.000000e+00 ( 0.000000e+00 +/- 0.000000e+00) [K]
    Coulombic Real/kʙ       0.000000e+00 ( 0.000000e+00 +/- 0.000000e+00) [K]
    Coulombic Fourier/kʙ    0.000000e+00 ( 0.000000e+00 +/- 0.000000e+00) [K]
Molecule-molecule
    Van der Waals/kʙ       -2.839035e+05 (-2.810593e+05 +/- 0.000000e+00) [K]
    Van der Waals (Tail)/kʙ-1.190685e+04 (-1.201919e+04 +/- 0.000000e+00) [K]
    Coulombic Real/kʙ      -8.147599e+04 (-8.299991e+04 +/- 0.000000e+00) [K]
    Coulombic Fourier/kʙ   -2.070629e+04 (-1.967036e+04 +/- 0.000000e+00) [K]
    Molecule Intra/kʙ       0.000000e+00 ( 0.000000e+00 +/- 0.000000e+00) [K]

Current cycle: 1500 out of 5000
===============================================================================

Box:      25.71074   0.00000   0.00000  Average:  25.54959   0.00000   0.00000
           0.00000  25.71074   0.00000             0.00000  25.54959   0.00000
           0.00000   0.00000  25.71074             0.00000   0.00000  25.54959
Lengths:  25.71074  25.71074  25.71074  Average:  25.54959  25.54959  25.54959
Angles:   90.00000  90.00000  90.00000  Average:  90.00000  90.00000  90.00000
Rectangular boundary conditions

net charge:   0.00000000

component 0 (CO2) lambda:  0 occupancy:  1 (1.000000)
    net charge:   0.00000000 [e]

Amount of molecules per component :
-------------------------------------------------------------------------------
Component 0 (CO2)
    molecules:      2.500000e+02 molecules  (2.500000e+02 +/- 0.000000e+00)
    number density: 1.470945e-02 molec./A^3 (1.499174e-02 +/- 0.000000e+00)
    density:        1.074698e+03 kg/m^3     (1.095322e+03 +/- 0.000000e+00)

Average pressure tensor: 
-------------------------------------------------------------------------------
 1.5581e+02  1.0773e+01  4.2323e+01 +/- 0.0000e+00 0.0000e+00 0.0000e+00 [bar]
 1.0773e+01  1.3127e+02  3.1756e+01 +/- 0.0000e+00 0.0000e+00 0.0000e+00 [bar]
 4.2323e+01  3.1756e+01  1.3686e+02 +/- 0.0000e+00 0.0000e+00 0.0000e+00 [bar]
Ideal-gas pressure:   5.174586e+02 +/ 0.000000e+00 [bar]
Excess pressure:     -3.761435e+02 +/ 0.000000e+00 [bar]
Pressure:             1.413151e+02 +/ 0.000000e+00 [bar]

Total potential energy/kʙ  -3.871194e+05 (-3.957338e+05 +/- 0.000000e+00) [K]
-------------------------------------------------------------------------------
ExternalField-molecule
    Van der Waals/kʙ        0.000000e+00 ( 0.000000e+00 +/- 0.000000e+00) [K]
Framework-molecule
    Van der Waals/kʙ        0.000000e+00 ( 0.000000e+00 +/- 0.000000e+00) [K]
    Van der Waals (Tail)/kʙ 0.000000e+00 ( 0.000000e+00 +/- 0.000000e+00) [K]
    Coulombic Real/kʙ       0.000000e+00 ( 0.000000e+00 +/- 0.000000e+00) [K]
    Coulombic Fourier/kʙ    0.000000e+00 ( 0.000000e+00 +/- 0.000000e+00) [K]
Molecule-molecule
    Van der Waals/kʙ       -2.775476e+05 (-2.810301e+05 +/- 0.000000e+00) [K]
    Van der Waals (Tail)/kʙ-1.179900e+04 (-1.201822e+04 +/- 0.000000e+00) [K]
    Coulombic Real/kʙ      -7.861545e+04 (-8.298990e+04 +/- 0.000000e+00) [K]
    Coulombic Fourier/kʙ   -1.915732e+04 (-1.969567e+04 +/- 0.000000e+00) [K]
    Molecule Intra/kʙ       0.000000e+00 ( 0.000000e+00 +/- 0.000000e+00) [K]

Current cycle: 1600 out of 5000
===============================================================================

Box:      25.36520   0.00000   0.00000  Average:  25.55079   0.00000   0.00000
           0.00000  25.36520   0.00000             0.00000  25.55079   0.00000
           0.00000   0.00000  25.36520             0.00000   0.00000  25.55079
Lengths:  25.36520  25.36520  25.36520  Average:  25.55079  25.55079  25.55079
Angles:   90.00000  90.00000  90.00000  Average:  90.00000  90.00000  90.00000
Rectangular boundary conditions

net charge:   0.00000000

component 0 (CO2) lambda:  0 occupancy:  1 (1.000000)
    net charge:   0.00000000 [e]

Amount of molecules per component :
-------------------------------------------------------------------------------
Component 0 (CO2)
    molecules:      2.500000e+02 molecules  (2.500000e+02 +/- 0.000000e+00)
    number density: 1.531880e-02 molec./A^3 (1.498958e-02 +/- 0.000000e+00)
    density:        1.119218e+03 kg/m^3     (1.095164e+03 +/- 0.000000e+00)

Average pressure tensor: 
-------------------------------------------------------------------------------
 1.4702e+02  1.3742e+01  5.3152e+01 +/- 0.0000e+00 0.0000e+00 0.0000e+00 [bar]
 1.3742e+01  1.2852e+02  3.8290e+01 +/- 0.0000e+00 0.0000e+00 0.0000e+00 [bar]
 5.3152e+01  3.8290e+01  1.2864e+02 +/- 0.0000e+00 0.0000e+00 0.0000e+00 [bar]
Ideal-gas pressure:   5.173841e+02 +/ 0.000000e+00 [bar]
Excess pressure:     -3.826597e+02 +/ 0.000000e+00 [bar]
Pressure:             1.347243e+02 +/ 0.000000e+00 [bar]

Total potential energy/kʙ  -4.044597e+05 (-3.954855e+05 +/- 0.000000e+00) [K]
-------------------------------------------------------------------------------
ExternalField-molecule
    Van der Waals/kʙ        0.000000e+00 ( 0.000000e+00 +/- 0.000000e+00) [K]
Framework-molecule
    Van der Waals/kʙ        0.000000e+00 ( 0.000000e+00 +/- 0.000000e+00) [K]
    Van der Waals (Tail)/kʙ 0.000000e+00 ( 0.000000e+00 +/- 0.000000e+00) [K]
    Coulombic Real/kʙ       0.000000e+00 ( 0.000000e+00 +/- 0.000000e+00) [K]
    Coulombic Fourier/kʙ    0.000000e+00 ( 0.000000e+00 +/- 0.000000e+00) [K]
Molecule-molecule
    Van der Waals/kʙ       -2.854728e+05 (-2.808947e+05 +/- 0.000000e+00) [K]
    Van der Waals (Tail)/kʙ-1.228778e+04 (-1.201548e+04 +/- 0.000000e+00) [K]
    Coulombic Real/kʙ      -8.678314e+04 (-8.288485e+04 +/- 0.000000e+00) [K]
    Coulombic Fourier/kʙ   -1.991600e+04 (-1.969041e+04 +/- 0.000000e+00) [K]
    Molecule Intra/kʙ       0.000000e+00 ( 0.000000e+00 +/- 0.000000e+00) [K]

Current cycle: 1700 out of 5000
===============================================================================

Box:      25.66274   0.00000   0.00000  Average:  25.54951   0.00000   0.00000
           0.00000  25.66274   0.00000             0.00000  25.54951   0.00000
           0.00000   0.00000  25.66274             0.00000   0.00000  25.54951
Lengths:  25.66274  25.66274  25.66274  Average:  25.54951  25.54951  25.54951
Angles:   90.00000  90.00000  90.00000  Average:  90.00000  90.00000  90.00000
Rectangular boundary conditions

net charge:   0.00000000

component 0 (CO2) lambda:  0 occupancy:  1 (1.000000)
    net charge:   0.00000000 [e]

Amount of molecules per component :
-------------------------------------------------------------------------------
Component 0 (CO2)
    molecules:      2.500000e+02 molecules  (2.500000e+02 +/- 0.000000e+00)
    number density: 1.479214e-02 molec./A^3 (1.499178e-02 +/- 0.000000e+00)
    density:        1.080739e+03 kg/m^3     (1.095325e+03 +/- 0.000000e+00)

Average pressure tensor: 
-------------------------------------------------------------------------------
 1.4991e+02  1.9438e+01  5.3167e+01 +/- 0.0000e+00 0.0000e+00 0.0000e+00 [bar]
 1.9438e+01  1.3808e+02  4.2487e+01 +/- 0.0000e+00 0.0000e+00 0.0000e+00 [bar]
 5.3167e+01  4.2487e+01  1.1988e+02 +/- 0.0000e+00 0.0000e+00 0.0000e+00 [bar]
Ideal-gas pressure:   5.174602e+02 +/ 0.000000e+00 [bar]
Excess pressure:     -3.815063e+02 +/ 0.000000e+00 [bar]
Pressure:             1.359540e+02 +/ 0.000000e+00 [bar]

Total potential energy/kʙ  -3.798480e+05 (-3.953074e+05 +/- 0.000000e+00) [K]
-------------------------------------------------------------------------------
ExternalField-molecule
    Van der Waals/kʙ        0.000000e+00 ( 0.000000e+00 +/- 0.000000e+00) [K]
Framework-molecule
    Van der Waals/kʙ        0.000000e+00 ( 0.000000e+00 +/- 0.000000e+00) [K]
    Van der Waals (Tail)/kʙ 0.000000e+00 ( 0.000000e+00 +/- 0.000000e+00) [K]
    Coulombic Real/kʙ       0.000000e+00 ( 0.000000e+00 +/- 0.000000e+00) [K]
    Coulombic Fourier/kʙ    0.000000e+00 ( 0.000000e+00 +/- 0.000000e+00) [K]
Molecule-molecule
    Van der Waals/kʙ       -2.765657e+05 (-2.809666e+05 +/- 0.000000e+00) [K]
    Van der Waals (Tail)/kʙ-1.186533e+04 (-1.201714e+04 +/- 0.000000e+00) [K]
    Coulombic Real/kʙ      -7.348484e+04 (-8.263286e+04 +/- 0.000000e+00) [K]
    Coulombic Fourier/kʙ   -1.793211e+04 (-1.969081e+04 +/- 0.000000e+00) [K]
    Molecule Intra/kʙ       0.000000e+00 ( 0.000000e+00 +/- 0.000000e+00) [K]

Current cycle: 1800 out of 5000
===============================================================================

Box:      25.82735   0.00000   0.00000  Average:  25.55835   0.00000   0.00000
           0.00000  25.82735   0.00000             0.00000  25.55835   0.00000
           0.00000   0.00000  25.82735             0.00000   0.00000  25.55835
Lengths:  25.82735  25.82735  25.82735  Average:  25.55835  25.55835  25.55835
Angles:   90.00000  90.00000  90.00000  Average:  90.00000  90.00000  90.00000
Rectangular boundary conditions

net charge:   0.00000000

component 0 (CO2) lambda:  0 occupancy:  1 (1.000000)
    net charge:   0.00000000 [e]

Amount of molecules per component :
-------------------------------------------------------------------------------
Component 0 (CO2)
    molecules:      2.500000e+02 molecules  (2.500000e+02 +/- 0.000000e+00)
    number density: 1.451110e-02 molec./A^3 (1.497634e-02 +/- 0.000000e+00)
    density:        1.060206e+03 kg/m^3     (1.094197e+03 +/- 0.000000e+00)

Average pressure tensor: 
-------------------------------------------------------------------------------
 1.5641e+02  1.9977e+01  4.8427e+01 +/- 0.0000e+00 0.0000e+00 0.0000e+00 [bar]
 1.9977e+01  1.5063e+02  3.3010e+01 +/- 0.0000e+00 0.0000e+00 0.0000e+00 [bar]
 4.8427e+01  3.3010e+01  1.2324e+02 +/- 0.0000e+00 0.0000e+00 0.0000e+00 [bar]
Ideal-gas pressure:   5.169272e+02 +/ 0.000000e+00 [bar]
Excess pressure:     -3.734997e+02 +/ 0.000000e+00 [bar]
Pressure:             1.434275e+02 +/ 0.000000e+00 [bar]

Total potential energy/kʙ  -3.863365e+05 (-3.946726e+05 +/- 0.000000e+00) [K]
-------------------------------------------------------------------------------
ExternalField-molecule
    Van der Waals/kʙ        0.000000e+00 ( 0.000000e+00 +/- 0.000000e+00) [K]
Framework-molecule
    Van der Waals/kʙ        0.000000e+00 ( 0.000000e+00 +/- 0.000000e+00) [K]
    Van der Waals (Tail)/kʙ 0.000000e+00 ( 0.000000e+00 +/- 0.000000e+00) [K]
    Coulombic Real/kʙ       0.000000e+00 ( 0.000000e+00 +/- 0.000000e+00) [K]
    Coulombic Fourier/kʙ    0.000000e+00 ( 0.000000e+00 +/- 0.000000e+00) [K]
Molecule-molecule
    Van der Waals/kʙ       -2.722553e+05 (-2.807179e+05 +/- 0.000000e+00) [K]
    Van der Waals (Tail)/kʙ-1.163990e+04 (-1.200662e+04 +/- 0.000000e+00) [K]
    Coulombic Real/kʙ      -8.381479e+04 (-8.230930e+04 +/- 0.000000e+00) [K]
    Coulombic Fourier/kʙ   -1.862648e+04 (-1.963876e+04 +/- 0.000000e+00) [K]
    Molecule Intra/kʙ       0.000000e+00 ( 0.000000e+00 +/- 0.000000e+00) [K]

Current cycle: 1900 out of 5000
===============================================================================

Box:      25.70009   0.00000   0.00000  Average:  25.57012   0.00000   0.00000
           0.00000  25.70009   0.00000             0.00000  25.57012   0.00000
           0.00000   0.00000  25.70009             0.00000   0.00000  25.57012
Lengths:  25.70009  25.70009  25.70009  Average:  25.57012  25.57012  25.57012
Angles:   90.00000  90.00000  90.00000  Average:  90.00000  90.00000  90.00000
Rectangular boundary conditions

net charge:   0.00000000

component 0 (CO2) lambda:  0 occupancy:  1 (1.000000)
    net charge:   0.00000000 [e]

Amount of molecules per component :
-------------------------------------------------------------------------------
Component 0 (CO2)
    molecules:      2.500000e+02 molecules  (2.500000e+02 +/- 0.000000e+00)
    number density: 1.472774e-02 molec./A^3 (1.495596e-02 +/- 0.000000e+00)
    density:        1.076034e+03 kg/m^3     (1.092708e+03 +/- 0.000000e+00)

Average pressure tensor: 
-------------------------------------------------------------------------------
 1.5646e+02  2.5153e+01  4.4735e+01 +/- 0.0000e+00 0.0000e+00 0.0000e+00 [bar]
 2.5153e+01  1.4558e+02  3.2091e+01 +/- 0.0000e+00 0.0000e+00 0.0000e+00 [bar]
 4.4735e+01  3.2091e+01  1.2158e+02 +/- 0.0000e+00 0.0000e+00 0.0000e+00 [bar]
Ideal-gas pressure:   5.162238e+02 +/ 0.000000e+00 [bar]
Excess pressure:     -3.750139e+02 +/ 0.000000e+00 [bar]
Pressure:             1.412099e+02 +/ 0.000000e+00 [bar]

Total potential energy/kʙ  -3.771125e+05 (-3.940566e+05 +/- 0.000000e+00) [K]
-------------------------------------------------------------------------------
ExternalField-molecule
    Van der Waals/kʙ        0.000000e+00 ( 0.000000e+00 +/- 0.000000e+00) [K]
Framework-molecule
    Van der Waals/kʙ        0.000000e+00 ( 0.000000e+00 +/- 0.000000e+00) [K]
    Van der Waals (Tail)/kʙ 0.000000e+00 ( 0.000000e+00 +/- 0.000000e+00) [K]
    Coulombic Real/kʙ       0.000000e+00 ( 0.000000e+00 +/- 0.000000e+00) [K]
    Coulombic Fourier/kʙ    0.000000e+00 ( 0.000000e+00 +/- 0.000000e+00) [K]
Molecule-molecule
    Van der Waals/kʙ       -2.756077e+05 (-2.803726e+05 +/- 0.000000e+00) [K]
    Van der Waals (Tail)/kʙ-1.181367e+04 (-1.199019e+04 +/- 0.000000e+00) [K]
    Coulombic Real/kʙ      -7.134831e+04 (-8.209737e+04 +/- 0.000000e+00) [K]
    Coulombic Fourier/kʙ   -1.834281e+04 (-1.959641e+04 +/- 0.000000e+00) [K]
    Molecule Intra/kʙ       0.000000e+00 ( 0.000000e+00 +/- 0.000000e+00) [K]

Current cycle: 2000 out of 5000
===============================================================================

Box:      25.62451   0.00000   0.00000  Average:  25.57009   0.00000   0.00000
           0.00000  25.62451   0.00000             0.00000  25.57009   0.00000
           0.00000   0.00000  25.62451             0.00000   0.00000  25.57009
Lengths:  25.62451  25.62451  25.62451  Average:  25.57009  25.57009  25.57009
Angles:   90.00000  90.00000  90.00000  Average:  90.00000  90.00000  90.00000
Rectangular boundary conditions

net charge:   0.00000000

component 0 (CO2) lambda:  0 occupancy:  1 (1.000000)
    net charge:   0.00000000 [e]

Amount of molecules per component :
-------------------------------------------------------------------------------
Component 0 (CO2)
    molecules:      2.500000e+02 molecules  (2.500000e+02 +/- 0.000000e+00)
    number density: 1.485844e-02 molec./A^3 (1.495594e-02 +/- 0.000000e+00)
    density:        1.085583e+03 kg/m^3     (1.092707e+03 +/- 0.000000e+00)

Average pressure tensor: 
-------------------------------------------------------------------------------
 1.7534e+02  1.5010e+01  3.4863e+01 +/- 0.0000e+00 0.0000e+00 0.0000e+00 [bar]
 1.5010e+01  1.4790e+02  3.2742e+01 +/- 0.0000e+00 0.0000e+00 0.0000e+00 [bar]
 3.4863e+01  3.2742e+01  1.1997e+02 +/- 0.0000e+00 0.0000e+00 0.0000e+00 [bar]
Ideal-gas pressure:   5.162232e+02 +/ 0.000000e+00 [bar]
Excess pressure:     -3.684845e+02 +/ 0.000000e+00 [bar]
Pressure:             1.477387e+02 +/ 0.000000e+00 [bar]

Total potential energy/kʙ  -3.859752e+05 (-3.938222e+05 +/- 0.000000e+00) [K]
-------------------------------------------------------------------------------
ExternalField-molecule
    Van der Waals/kʙ        0.000000e+00 ( 0.000000e+00 +/- 0.000000e+00) [K]
Framework-molecule
    Van der Waals/kʙ        0.000000e+00 ( 0.000000e+00 +/- 0.000000e+00) [K]
    Van der Waals (Tail)/kʙ 0.000000e+00 ( 0.000000e+00 +/- 0.000000e+00) [K]
    Coulombic Real/kʙ       0.000000e+00 ( 0.000000e+00 +/- 0.000000e+00) [K]
    Coulombic Fourier/kʙ    0.000000e+00 ( 0.000000e+00 +/- 0.000000e+00) [K]
Molecule-molecule
    Van der Waals/kʙ       -2.762900e+05 (-2.803527e+05 +/- 0.000000e+00) [K]
    Van der Waals (Tail)/kʙ-1.191851e+04 (-1.199161e+04 +/- 0.000000e+00) [K]
    Coulombic Real/kʙ      -7.847765e+04 (-8.192343e+04 +/- 0.000000e+00) [K]
    Coulombic Fourier/kʙ   -1.928900e+04 (-1.955440e+04 +/- 0.000000e+00) [K]
    Molecule Intra/kʙ       0.000000e+00 ( 0.000000e+00 +/- 0.000000e+00) [K]

Current cycle: 2100 out of 5000
===============================================================================

Box:      25.51357   0.00000   0.00000  Average:  25.57251   0.00000   0.00000
           0.00000  25.51357   0.00000             0.00000  25.57251   0.00000
           0.00000   0.00000  25.51357             0.00000   0.00000  25.57251
Lengths:  25.51357  25.51357  25.51357  Average:  25.57251  25.57251  25.57251
Angles:   90.00000  90.00000  90.00000  Average:  90.00000  90.00000  90.00000
Rectangular boundary conditions

net charge:   0.00000000

component 0 (CO2) lambda:  0 occupancy:  1 (1.000000)
    net charge:   0.00000000 [e]

Amount of molecules per component :
-------------------------------------------------------------------------------
Component 0 (CO2)
    molecules:      2.500000e+02 molecules  (2.500000e+02 +/- 0.000000e+00)
    number density: 1.505312e-02 molec./A^3 (1.495165e-02 +/- 0.000000e+00)
    density:        1.099807e+03 kg/m^3     (1.092393e+03 +/- 0.000000e+00)

Average pressure tensor: 
-------------------------------------------------------------------------------
 1.8568e+02  1.5523e+01  4.0919e+01 +/- 0.0000e+00 0.0000e+00 0.0000e+00 [bar]
 1.5523e+01  1.4625e+02  2.9634e+01 +/- 0.0000e+00 0.0000e+00 0.0000e+00 [bar]
 4.0919e+01  2.9634e+01  1.0907e+02 +/- 0.0000e+00 0.0000e+00 0.0000e+00 [bar]
Ideal-gas pressure:   5.160752e+02 +/ 0.000000e+00 [bar]
Excess pressure:     -3.690766e+02 +/ 0.000000e+00 [bar]
Pressure:             1.469985e+02 +/ 0.000000e+00 [bar]

Total potential energy/kʙ  -3.891967e+05 (-3.935900e+05 +/- 0.000000e+00) [K]
-------------------------------------------------------------------------------
ExternalField-molecule
    Van der Waals/kʙ        0.000000e+00 ( 0.000000e+00 +/- 0.000000e+00) [K]
Framework-molecule
    Van der Waals/kʙ        0.000000e+00 ( 0.000000e+00 +/- 0.000000e+00) [K]
    Van der Waals (Tail)/kʙ 0.000000e+00 ( 0.000000e+00 +/- 0.000000e+00) [K]
[...]
    Coulombic Fourier/kʙ    0.000000e+00 ( 0.000000e+00 +/- 0.000000e+00) [K]
Molecule-molecule
    Van der Waals/kʙ       -2.798723e+05 (-2.808643e+05 +/- 1.273205e+03) [K]
    Van der Waals (Tail)/kʙ-1.185170e+04 (-1.201518e+04 +/- 4.969708e+01) [K]
    Coulombic Real/kʙ      -7.623135e+04 (-8.225137e+04 +/- 1.623290e+03) [K]
    Coulombic Fourier/kʙ   -1.889544e+04 (-1.970707e+04 +/- 2.373795e+02) [K]
    Molecule Intra/kʙ       0.000000e+00 ( 0.000000e+00 +/- 0.000000e+00) [K]

Current cycle: 4700 out of 5000
===============================================================================

Box:      25.77640   0.00000   0.00000  Average:  25.56189   0.00000   0.00000
           0.00000  25.77640   0.00000             0.00000  25.56189   0.00000
           0.00000   0.00000  25.77640             0.00000   0.00000  25.56189
Lengths:  25.77640  25.77640  25.77640  Average:  25.56189  25.56189  25.56189
Angles:   90.00000  90.00000  90.00000  Average:  90.00000  90.00000  90.00000
Rectangular boundary conditions

net charge:   0.00000000

component 0 (CO2) lambda:  0 occupancy:  1 (1.000000)
    net charge:   0.00000000 [e]

Amount of molecules per component :
-------------------------------------------------------------------------------
Component 0 (CO2)
    molecules:      2.500000e+02 molecules  (2.500000e+02 +/- 3.944933e-14)
    number density: 1.459732e-02 molec./A^3 (1.497058e-02 +/- 3.366623e-05)
    density:        1.066505e+03 kg/m^3     (1.093776e+03 +/- 2.459712e+00)

Average pressure tensor: 
-------------------------------------------------------------------------------
 1.7805e+02  1.1564e+01 -1.4952e+01 +/- 3.6865e+01 2.1633e+01 8.2800e+01 [bar]
 1.1564e+01  1.5685e+02  9.3689e+00 +/- 2.1633e+01 4.8250e+01 5.3059e+01 [bar]
-1.4952e+01  9.3689e+00  1.6402e+02 +/- 8.2800e+01 5.3059e+01 1.1035e+02 [bar]
Ideal-gas pressure:   5.167283e+02 +/ 1.162032e+00 [bar]
Excess pressure:     -3.504238e+02 +/ 3.245490e+01 [bar]
Pressure:             1.663045e+02 +/ 3.282723e+01 [bar]

Total potential energy/kʙ  -3.882711e+05 (-3.947035e+05 +/- 2.365302e+03) [K]
-------------------------------------------------------------------------------
ExternalField-molecule
    Van der Waals/kʙ        0.000000e+00 ( 0.000000e+00 +/- 0.000000e+00) [K]
Framework-molecule
    Van der Waals/kʙ        0.000000e+00 ( 0.000000e+00 +/- 0.000000e+00) [K]
    Van der Waals (Tail)/kʙ 0.000000e+00 ( 0.000000e+00 +/- 0.000000e+00) [K]
    Coulombic Real/kʙ       0.000000e+00 ( 0.000000e+00 +/- 0.000000e+00) [K]
    Coulombic Fourier/kʙ    0.000000e+00 ( 0.000000e+00 +/- 0.000000e+00) [K]
Molecule-molecule
    Van der Waals/kʙ       -2.802048e+05 (-2.808112e+05 +/- 1.165612e+03) [K]
    Van der Waals (Tail)/kʙ-1.170905e+04 (-1.201092e+04 +/- 4.061230e+01) [K]
    Coulombic Real/kʙ      -7.794540e+04 (-8.219320e+04 +/- 1.673324e+03) [K]
    Coulombic Fourier/kʙ   -1.841183e+04 (-1.968816e+04 +/- 2.401845e+02) [K]
    Molecule Intra/kʙ       0.000000e+00 ( 0.000000e+00 +/- 0.000000e+00) [K]

Current cycle: 4800 out of 5000
===============================================================================

Box:      25.27935   0.00000   0.00000  Average:  25.56225   0.00000   0.00000
           0.00000  25.27935   0.00000             0.00000  25.56225   0.00000
           0.00000   0.00000  25.27935             0.00000   0.00000  25.56225
Lengths:  25.27935  25.27935  25.27935  Average:  25.56225  25.56225  25.56225
Angles:   90.00000  90.00000  90.00000  Average:  90.00000  90.00000  90.00000
Rectangular boundary conditions

net charge:   0.00000000

component 0 (CO2) lambda:  0 occupancy:  1 (1.000000)
    net charge:   0.00000000 [e]

Amount of molecules per component :
-------------------------------------------------------------------------------
Component 0 (CO2)
    molecules:      2.500000e+02 molecules  (2.500000e+02 +/- 0.000000e+00)
    number density: 1.547542e-02 molec./A^3 (1.496993e-02 +/- 3.316024e-05)
    density:        1.130661e+03 kg/m^3     (1.093729e+03 +/- 2.422744e+00)

Average pressure tensor: 
-------------------------------------------------------------------------------
 1.8108e+02  9.5403e+00 -1.6687e+01 +/- 2.8894e+01 2.5335e+01 8.1525e+01 [bar]
 9.5403e+00  1.5026e+02  7.5103e+00 +/- 2.5335e+01 5.3476e+01 5.4698e+01 [bar]
-1.6687e+01  7.5103e+00  1.6665e+02 +/- 8.1525e+01 5.4698e+01 1.1075e+02 [bar]
Ideal-gas pressure:   5.167060e+02 +/ 1.144567e+00 [bar]
Excess pressure:     -3.507078e+02 +/ 3.130038e+01 [bar]
Pressure:             1.659982e+02 +/ 3.162426e+01 [bar]

Total potential energy/kʙ  -4.090420e+05 (-3.946356e+05 +/- 2.396736e+03) [K]
-------------------------------------------------------------------------------
ExternalField-molecule
    Van der Waals/kʙ        0.000000e+00 ( 0.000000e+00 +/- 0.000000e+00) [K]
Framework-molecule
    Van der Waals/kʙ        0.000000e+00 ( 0.000000e+00 +/- 0.000000e+00) [K]
    Van der Waals (Tail)/kʙ 0.000000e+00 ( 0.000000e+00 +/- 0.000000e+00) [K]
    Coulombic Real/kʙ       0.000000e+00 ( 0.000000e+00 +/- 0.000000e+00) [K]
    Coulombic Fourier/kʙ    0.000000e+00 ( 0.000000e+00 +/- 0.000000e+00) [K]
Molecule-molecule
    Van der Waals/kʙ       -2.956871e+05 (-2.808250e+05 +/- 1.168155e+03) [K]
    Van der Waals (Tail)/kʙ-1.241341e+04 (-1.201070e+04 +/- 4.013267e+01) [K]
    Coulombic Real/kʙ      -8.237484e+04 (-8.214028e+04 +/- 1.715627e+03) [K]
    Coulombic Fourier/kʙ   -1.856665e+04 (-1.965958e+04 +/- 2.718931e+02) [K]
    Molecule Intra/kʙ       0.000000e+00 ( 0.000000e+00 +/- 0.000000e+00) [K]

Current cycle: 4900 out of 5000
===============================================================================

Box:      25.53386   0.00000   0.00000  Average:  25.56017   0.00000   0.00000
           0.00000  25.53386   0.00000             0.00000  25.56017   0.00000
           0.00000   0.00000  25.53386             0.00000   0.00000  25.56017
Lengths:  25.53386  25.53386  25.53386  Average:  25.56017  25.56017  25.56017
Angles:   90.00000  90.00000  90.00000  Average:  90.00000  90.00000  90.00000
Rectangular boundary conditions

net charge:   0.00000000

component 0 (CO2) lambda:  0 occupancy:  1 (1.000000)
    net charge:   0.00000000 [e]

Amount of molecules per component :
-------------------------------------------------------------------------------
Component 0 (CO2)
    molecules:      2.500000e+02 molecules  (2.500000e+02 +/- 0.000000e+00)
    number density: 1.501725e-02 molec./A^3 (1.497361e-02 +/- 3.613647e-05)
    density:        1.097186e+03 kg/m^3     (1.093998e+03 +/- 2.640193e+00)

Average pressure tensor: 
-------------------------------------------------------------------------------
 1.8620e+02  1.1192e+01 -1.4224e+01 +/- 2.5709e+01 2.0608e+01 7.1083e+01 [bar]
 1.1192e+01  1.4515e+02  6.6013e+00 +/- 2.0608e+01 6.0408e+01 5.4312e+01 [bar]
-1.4224e+01  6.6013e+00  1.6468e+02 +/- 7.1083e+01 5.4312e+01 1.0234e+02 [bar]
Ideal-gas pressure:   5.168331e+02 +/ 1.247296e+00 [bar]
Excess pressure:     -3.514928e+02 +/ 3.003482e+01 [bar]
Pressure:             1.653403e+02 +/ 3.046939e+01 [bar]

Total potential energy/kʙ  -3.891092e+05 (-3.946556e+05 +/- 2.377675e+03) [K]
-------------------------------------------------------------------------------
ExternalField-molecule
    Van der Waals/kʙ        0.000000e+00 ( 0.000000e+00 +/- 0.000000e+00) [K]
Framework-molecule
    Van der Waals/kʙ        0.000000e+00 ( 0.000000e+00 +/- 0.000000e+00) [K]
    Van der Waals (Tail)/kʙ 0.000000e+00 ( 0.000000e+00 +/- 0.000000e+00) [K]
    Coulombic Real/kʙ       0.000000e+00 ( 0.000000e+00 +/- 0.000000e+00) [K]
    Coulombic Fourier/kʙ    0.000000e+00 ( 0.000000e+00 +/- 0.000000e+00) [K]
Molecule-molecule
    Van der Waals/kʙ       -2.818441e+05 (-2.809602e+05 +/- 1.327643e+03) [K]
    Van der Waals (Tail)/kʙ-1.204590e+04 (-1.201326e+04 +/- 4.220337e+01) [K]
    Coulombic Real/kʙ      -7.736308e+04 (-8.205519e+04 +/- 1.801600e+03) [K]
    Coulombic Fourier/kʙ   -1.785611e+04 (-1.962694e+04 +/- 3.228790e+02) [K]
    Molecule Intra/kʙ       0.000000e+00 ( 0.000000e+00 +/- 0.000000e+00) [K]


Energy statistics             |  Energy [K]   | Recomputed [K]|  Drift [K]    |
===============================================================================
Total potential energy/kʙ     | -3.809178e+05 | -3.809178e+05 |  1.238262e-09 |
    external field VDW/kʙ     |  0.000000e+00 |  0.000000e+00 |  0.000000e+00 |
    external field Real/kʙ    |  0.000000e+00 |  0.000000e+00 |  0.000000e+00 |
    framework-molecule VDW/kʙ |  0.000000e+00 |  0.000000e+00 |  0.000000e+00 |
    framework-molecule Real/kʙ|  0.000000e+00 |  0.000000e+00 |  0.000000e+00 |
    molecule-molecule VDW/kʙ  | -2.723077e+05 | -2.723077e+05 |  9.101010e-10 |
    molecule-molecule Real/kʙ | -7.750998e+04 | -7.750998e+04 |  3.237859e-10 |
    Van der Waals (Tail)/kʙ   | -1.192000e+04 | -1.192000e+04 |  0.000000e+00 |
    Ewald Fourier/kʙ          |  1.714705e+04 |  1.714705e+04 |  4.375485e-12 |
    Ewald self/kʙ             | -5.557308e+06 | -5.557308e+06 |  0.000000e+00 |
    Ewald exclusion/kʙ        |  5.520981e+06 |  5.520981e+06 |  0.000000e+00 |
    intra VDW/kʙ              |  0.000000e+00 |  0.000000e+00 |  0.000000e+00 |
    intra Coulombic/kʙ        |  0.000000e+00 |  0.000000e+00 |  0.000000e+00 |
    polarization/kʙ           |  0.000000e+00 |  0.000000e+00 |  0.000000e+00 |
    dU/dlambda VDW/kʙ         |  0.000000e+00 |  0.000000e+00 |  0.000000e+00 |
    dU/dlambda Real/kʙ        |  0.000000e+00 |  0.000000e+00 |  0.000000e+00 |
    dU/dlambda Ewald/kʙ       |  0.000000e+00 |  0.000000e+00 |  0.000000e+00 |
-------------------------------------------------------------------------------


Monte-Carlo moves statistics
===============================================================================

    Volume change        all:                8275
    Volume change        total:              8275
    Volume change        constructed:        8275
    Volume change        accepted:           3280
    Volume change        fraction:       0.396375
    Volume change        max-change:     0.033333

Component 0 [CO2]
    Reinsertion (CBMC)   all:              413312
    Reinsertion (CBMC)   total:            413312
    Reinsertion (CBMC)   constructed:      354861
    Reinsertion (CBMC)   accepted:           3295
    Reinsertion (CBMC)   fraction:       0.007972
    Reinsertion (CBMC)   max-change:     0.000000

    Translation          all:              414002
    Translation          total:            137961     138061     137980
    Translation          constructed:      137961     138060     137980
    Translation          accepted:          69717      58858      59728
    Translation          fraction:       0.505338   0.426319   0.432874
    Translation          max-change:     0.629630   0.806723   0.782222

    Rotation             all:              414411
    Rotation             total:            138562     138193     137656
    Rotation             constructed:      138562     138193     137652
    Rotation             accepted:          77327      77566      57327
    Rotation             fraction:       0.558068   0.561287   0.416451
    Rotation             max-change:     0.557971   0.550000   0.881119



Production run counting of the MC moves summed over systems and components
===============================================================================

Volume change                          8275 (0.6620 [%])
Reinsertion (CBMC)                   413312 (33.0650 [%])
Translation                          414002 (33.1202 [%])
Rotation                             414411 (33.1529 [%])

Production count MC-steps:          1250000 [-]
               All summed:          1250000 [-]
               difference:                0 [-]


Production run CPU timings of the MC moves
===============================================================================

Component 0 CO2

Rotation                             65.556743 [s]
    Ewald                            33.297667 [s]
    ExternalField-Molecule            0.015723 [s]
    Framework-Molecule                0.023032 [s]
    Molecule-Molecule                29.556546 [s]
    Overhead                          2.663775 [s]

Reinsertion (CBMC)                  219.796970 [s]
    Ewald                            26.682854 [s]
    NonEwald                        192.709070 [s]
    Overhead                          0.405046 [s]

Translation                          62.934751 [s]
    Ewald                            31.013967 [s]
    ExternalField-Molecule            0.016737 [s]
    Framework-Molecule                0.028794 [s]
    Molecule-Molecule                29.479177 [s]
    Overhead                          2.396076 [s]



Volume change                         73.331507 [s]
    Ewald                             29.849195 [s]
    NonEwald                          40.719565 [s]
    Tail                               2.436962 [s]

Property sampling                     0.304365 [s]
Energy/pressure sampling:             8.971321 [s]


Production run CPU timings of the MC moves summed over systems and components
===============================================================================


Translation                          62.934751 [s]
    Ewald                            31.013967 [s]
    ExternalField-Molecule            0.016737 [s]
    Framework-Molecule                0.028794 [s]
    Molecule-Molecule                29.479177 [s]
    Overhead                          2.396076 [s]

Rotation                             65.556743 [s]
    Ewald                            33.297667 [s]
    ExternalField-Molecule            0.015723 [s]
    Framework-Molecule                0.023032 [s]
    Molecule-Molecule                29.556546 [s]
    Overhead                          2.663775 [s]

Volume change                        73.331507 [s]
    Ewald                            29.849195 [s]
    NonEwald                         40.719565 [s]
    Tail                              2.436962 [s]
    Overhead                          0.325785 [s]

Reinsertion (CBMC)                  219.796970 [s]
    Ewald                            26.682854 [s]
    NonEwald                        192.709070 [s]
    Overhead                          0.405046 [s]

Property sampling:                    0.304365 [s]
Energy/pressure sampling:             8.971321 [s]

Production simulation time:         431.928156 [s]
                All summed:         430.895657 [s]
                  Overhead:           1.032499 [s]


Initalization simulation time:       83.973898 [s]
Equilibration simulation time:        0.000000 [s]
Production simulation time:         431.928156 [s]
Total simulation time:              515.902054 [s]


Energy averages and statistics:
===============================================================================

Framework-molecule energy:
-------------------------------------------------------------------------------



Framework-molecule energy contributions per energy type:
-------------------------------------------------------------------------------



Inter-molecular energy:
-------------------------------------------------------------------------------

    Inter-molecular energy/kʙ 0-0 [CO2-CO2]:
    ---------------------------------------------------------------------------
        Block[  0] -3.955288e+05
        Block[  1] -3.921940e+05
        Block[  2] -3.940669e+05
        Block[  3] -3.973380e+05
        Block[  4] -3.935792e+05
        -----------------------------------------------------------------------
        Average  -3.945414e+05 +/-  2.440468e+03 [K]



Inter-molecular energy contributions per energy type:
-------------------------------------------------------------------------------

    Van der Waals energy/kʙ 0-0 [CO2-CO2]:
    ---------------------------------------------------------------------------
        Block[  0] -2.803341e+05
        Block[  1] -2.804119e+05
        Block[  2] -2.798956e+05
        Block[  3] -2.822382e+05
        Block[  4] -2.816096e+05
        -----------------------------------------------------------------------
        Average  -2.808979e+05 +/-  1.219806e+03 [K]

    VDW Tail-Correction energy/kʙ 0-0 [CO2-CO2]:
    ---------------------------------------------------------------------------
        Block[  0] -1.201777e+04
        Block[  1] -1.196619e+04
        Block[  2] -1.199554e+04
        Block[  3] -1.205240e+04
        Block[  4] -1.203215e+04
        -----------------------------------------------------------------------
        Average  -1.201281e+04 +/-  4.134979e+01 [K]

    Coulomb Real energy/kʙ 0-0 [CO2-CO2]:
    ---------------------------------------------------------------------------
        Block[  0] -8.352163e+04
        Block[  1] -8.035969e+04
        Block[  2] -8.218807e+04
        Block[  3] -8.334442e+04
        Block[  4] -8.063417e+04
        -----------------------------------------------------------------------
        Average  -8.200960e+04 +/-  1.832354e+03 [K]

    Coulomb Fourier energy/kʙ 0-0 [CO2-CO2]:
    ---------------------------------------------------------------------------
        Block[  0] -1.965527e+04
        Block[  1] -1.945619e+04
        Block[  2] -1.998773e+04
        Block[  3] -1.970299e+04
        Block[  4] -1.930322e+04
        -----------------------------------------------------------------------
        Average  -1.962108e+04 +/-  3.228571e+02 [K]


Total energy/kʙ
-------------------------------------------------------------------------------
    Block[  0] -3.955288e+05
    Block[  1] -3.921940e+05
    Block[  2] -3.940669e+05
    Block[  3] -3.973380e+05
    Block[  4] -3.935792e+05
    ---------------------------------------------------------------------------
    Average  -3.945414e+05 +/-  2.440468e+03 [K]

Pressure averages and statistics:
===============================================================================

Average pressure tensor: 
-------------------------------------------------------------------------------
 1.8590e+02  1.2128e+01 -1.1916e+01 +/- 2.5598e+01 1.8637e+01 6.3787e+01 [bar]
 1.2128e+01  1.4963e+02  8.0544e+00 +/- 1.8637e+01 5.2592e+01 5.0204e+01 [bar]
-1.1916e+01  8.0544e+00  1.6802e+02 +/- 6.3787e+01 5.0204e+01 1.0494e+02 [bar]

    Block[  0]  5.168152e+07
    Block[  1]  5.156347e+07
    Block[  2]  5.161287e+07
    Block[  3]  5.180694e+07
    Block[  4]  5.173020e+07
    ---------------------------------------------------------------------------
    Ideal gas pressure   5.167900e+07 +/-  7.162750e-03 [Pa]
                         5.167900e+02 +/-  1.189403e+00 [bar]


    Block[  0] -3.473750e+07
    Block[  1] -3.895433e+07
    Block[  2] -3.253944e+07
    Block[  3] -3.556732e+07
    Block[  4] -3.267166e+07
    ---------------------------------------------------------------------------
    Excess pressure  -3.489405e+07 +/-  3.252002e+06 [Pa]
                     -3.489405e+02 +/-  3.252002e+01 [bar]


    Block[  0]  1.694402e+07
    Block[  1]  1.260914e+07
    Block[  2]  1.907344e+07
    Block[  3]  1.623962e+07
    Block[  4]  1.905854e+07
    ---------------------------------------------------------------------------
    Pressure average   1.678495e+07 +/-  3.294355e+06 [Pa]
                       1.678495e+02 +/-  3.294355e+01 [bar]


Enthalpy of adsorption
===============================================================================

No fluctuating components present.


Densities
===============================================================================

Component 0 (CO2)
    Block[  0] 250
    Block[  1] 250
    Block[  2] 250
    Block[  3] 250
    Block[  4] 250
    -----------------------------------------------------------------------
    Density average   2.500000e+02 +/-  0.000000e+00 [molecules]
    Density average   1.497236e-02 +/-  3.445922e-05 [molec/A^3]
    Density average   1.093907e+03 +/-  2.517650e+00 [kg.m⁻³]

