Compiler and run-time data
===============================================================================
RASPA 3.0.4

Random seed: 3714167638

Compiled as a 64-bits application
Compiler: gcc Ubuntu Clang 18.1.3 (1ubuntu1)
Compile Date = Mar 15 2025, Compile Time = 19:39:45

2025-06-02 13:38:55.149811
Simulation started on Mon, Jun 02
The start time was 13:38:00

Hostname:    c062
OS type:     Linux on x86_64
OS release:  6.8.0-58-generic
OS version:  #60-Ubuntu SMP PREEMPT_DYNAMIC Fri Mar 14 18:29:48 UTC 2025


Mutual consistent basic set of units:
===============================================================================

Unit of temperature: 1 [K]
Unit of length:      1e-10 [m]
Unit of time:        1e-12 [s]
Unit of mass:        1.6605402e-27 [kg]
Unit of charge:      1.60217733e-19 [C/particle]


Boltzmann constant (internal units):          0.8314464919307584 [-]
represents conversion from energy (internal units) to temperature (in Kelvin)

Derived units and their conversion factors:
===============================================================================

Unit of energy:                           1.6605402000000002e-23 [J]
Unit of energy:                           10.000008872307538 [J.mol⁻¹]
Unit of velocity:                         100 [m.s⁻¹]
Unit of force:                            1.6605402000000002e-13 [N]
Unit of diffusion:                        1.0000000000000002e-08 [m².s⁻¹]
Unit of acceleration:                     1.0000000000000002e-08 [m².s⁻¹]
Unit of torque:                           1.6605402000000002e-23 [N.m]
Unit of pressure:                         16605402 [Pa]
Unit of volume:                           1e-30 [m³]
Unit of density:                          1660.5402 [kg.m⁻³]
Unit of dynamic viscosity:                1.6605401999999997e-05 [N.s.m⁻²]
Unit of enthalpy:                         1.6605402000000002e-23 [J]
Unit of polarizability:                   1.5458657349975198e-35 [-]
Unit of Coulomb potential:                167101.08000665612 [K]
Unit of dielectric constant:              1.5458657349975193e-05 [s².C².kg⁻¹.m⁻³]
Unit of dipole moment:                    1.60217733e-29 [C.m]
Unit of Debye:                            4.803206799099162 [C.m]
Unit of electric potential:               0.00010364272224473431 [V]
Unit of electric field:                   1036427.222447343 [V.m⁻¹]
Unit of isothermal compressibility:       6.02213665167516e-08 [Pa⁻¹]
Unit of heat capacity:                    10.000008872307538 [J.mol⁻¹.K⁻¹]
Unit of volumetric expansion coefficient: 1 [K⁻¹]


Internal conversion factors:
===============================================================================

Energy (internal units) to Kelvin:      1.202724284692786 [-]
Kelvin to energy (internal units):      0.8314457542157567 [-]


System definitions
===============================================================================

Temperature:          250 [K]
Beta:                 0.0048108928702210625 [-]
Pressure:             2e+07 [Pa]
Helium void fraction: 1 [-]

Box:      30.00000   0.00000   0.00000
           0.00000  30.00000   0.00000
           0.00000   0.00000  30.00000
Lengths:  30.00000  30.00000  30.00000
Angles:   90.00000  90.00000  90.00000
Rectangular boundary conditions



Property measurement settings
===============================================================================




Pseudo-atoms
===============================================================================

  0 - C_co2    framework-atom: false
  1 - O_co2    framework-atom: false

  0 - C_co2    mass: 12.00000, charge:  0.70000
  1 - O_co2    mass: 15.99940, charge: -0.35000

  0 - C_co2    polarizability:  0.00000
  1 - O_co2    polarizability:  0.00000

  0 - J. J. Potoff et al., AIChE J. 2001, 47, 1676–1682.
  1 - J. J. Potoff et al., AIChE J. 2001, 47, 1676–1682.

Force field status
===============================================================================

Cutoff Framework-Molecule VDW:  10.00000 [Å]
Cutoff Molecule-Molecule VDW:   10.00000 [Å]
Cutoff Coulomb:                 10.00000 [Å]

Overlap-criteria VDW:           1.000000e+05 [K]

C_co2    - C_co2    Lennard-Jones p₀/kʙ:  27.00000 [K], p₁:  2.80000 [Å]
                                  shift:   0.00000 [K], tailcorrections: true
C_co2    - O_co2    Lennard-Jones p₀/kʙ:  46.18441 [K], p₁:  2.92500 [Å]
                                  shift:   0.00000 [K], tailcorrections: true
O_co2    - O_co2    Lennard-Jones p₀/kʙ:  79.00000 [K], p₁:  3.05000 [Å]
                                  shift:   0.00000 [K], tailcorrections: true

Ewald precision: 1e-06
Ewald alpha: 0.32079885109097883
Ewald k-vectors: 10 10 10


Component definitions
===============================================================================

Component 0 [CO2]

    Type: Adsorbate

    Critical temperature:  304.1282 [K]
    Critical pressure:     7377300 [Pa]
    Acentric factor:       0.22394 [-]

    Mol-fraction:                 1 [-]
    Swappable:                   false

    Mass:                         43.9988 [-]
    Bulk fluid density:           0 [-]
    Compressibility:              0 [-]
    Excess molecules:             0 [-]

    Number Of Atoms:    3
    CBMC starting bead: 0
      0: O_co2  position  0.00000 -0.00000  1.16000, charge -0.35000
      1: C_co2  position  0.00000 -0.00000  0.00000, charge  0.70000
      2: O_co2  position  0.00000 -0.00000 -1.16000, charge -0.35000
    Diagonalized inertia-vector:      43.05758528 43.05758528 0.00000000
    Translational degrees of freedom: 3
    Rotational degrees of freedom:    2
    Shape of the molecule is: 'Linear'
    Net-charge:        0.00000000 [e]

    Move probabilities:
    Translation:                   0.331126 [-]
    Random translation:            0.000000 [-]
    Rotation:                      0.331126 [-]
    Random rotation:               0.000000 [-]
    Volume change:                 0.006623 [-]
    Reinsertion (CBMC):            0.331126 [-]
    Identity change (CBMC):        0.000000 [-]
    Swap:                          0.000000 [-]
    Swap (CBMC):                   0.000000 [-]
    Swap (CFCMC):                  0.000000 [-]
    Swap (CB/CFCMC):               0.000000 [-]
    Gibbs volume:                  0.000000 [-]
    Gibbs swap (CBMC):             0.000000 [-]
    Gibbs swap (CFCMC):            0.000000 [-]
    Widom:                         0.000000 [-]
    Widom (CFCMC):                 0.000000 [-]
    Widom (CB/CFCMC):              0.000000 [-]
    Parallel tempering:            0.000000 [-]
    Hybrid MC:                     0.000000 [-]

    number of blocking-pockets: 0

    number of bonds: 0





Number of pseudo-atoms
===============================================================================

Component   0 (CO2)
-------------------------------------------------------------------------------
    index   0 (C_co2): 200 atoms
    index   1 (O_co2): 400 atoms

Total number of pseudo-atoms:
-------------------------------------------------------------------------------
    index   0 (C_co2): 200 atoms
    index   1 (O_co2): 400 atoms




Energy status Recomputed from scratch
===============================================================================

Total potential energy/kʙ       -9.448652e+04 [K]
    external field VDW/kʙ        0.000000e+00 [K]
    external field Real/kʙ       0.000000e+00 [K]
    framework-molecule VDW/kʙ    0.000000e+00 [K]
    framework-molecule Real/kʙ   0.000000e+00 [K]
    molecule-molecule VDW/kʙ    -7.357158e+04 [K]
    molecule-molecule Real/kʙ   -1.358810e+04 [K]
    Van der Waals (Tail)/kʙ     -4.753406e+03 [K]
    Ewald Fourier/kʙ             2.648827e+04 [K]
    Ewald self/kʙ               -4.445846e+06 [K]
    Ewald exclusion/kʙ           4.416785e+06 [K]
    intra VDW/kʙ                 0.000000e+00 [K]
    intra Coulombic/kʙ           0.000000e+00 [K]
    polarization/kʙ              0.000000e+00 [K]
    dU/dlambda VDW/kʙ            0.000000e+00 [K]
    dU/dlambda Real/kʙ           0.000000e+00 [K]
    dU/dlambda Ewald/kʙ          0.000000e+00 [K]





Initialization: Current cycle: 0 out of 1000
===============================================================================

Box:      31.46503   0.00000   0.00000
           0.00000  31.46503   0.00000
           0.00000   0.00000  31.46503
Lengths:  31.46503  31.46503  31.46503
Angles:   90.00000  90.00000  90.00000
Rectangular boundary conditions

net charge:   0.00000000

component   0 (CO2) lambda:  0 occupancy:  1 (1.000000)
    net charge:   0.00000000 [e]

Amount of molecules per component :
-------------------------------------------------------------------------------
Component 0 (CO2)
    molecules:         2.000000e+02 molecules
    number density:    6.420158e-03 molec/A^3
    density:           4.690677e+02 kg/m^3

Total potential energy/kʙ       -1.065209e+05 [K]
-------------------------------------------------------------------------------
    external field VDW/kʙ        0.000000e+00 [K]
    external field Real/kʙ       0.000000e+00 [K]
    framework-molecule VDW/kʙ    0.000000e+00 [K]
    framework-molecule Real/kʙ   0.000000e+00 [K]
    molecule-molecule VDW/kʙ    -8.652813e+04 [K]
    molecule-molecule Real/kʙ   -1.158650e+04 [K]
    Van der Waals (Tail)/kʙ     -4.119878e+03 [K]
    Ewald Fourier/kʙ             2.477535e+04 [K]
    Ewald self/kʙ               -4.445846e+06 [K]
    Ewald exclusion/kʙ           4.416785e+06 [K]
    intra VDW/kʙ                 0.000000e+00 [K]
    intra Coulombic/kʙ           0.000000e+00 [K]
    polarization/kʙ              0.000000e+00 [K]
    dU/dlambda VDW/kʙ            0.000000e+00 [K]
    dU/dlambda Real/kʙ           0.000000e+00 [K]
    dU/dlambda Ewald/kʙ          0.000000e+00 [K]


Initialization: Current cycle: 100 out of 1000
===============================================================================

Box:      27.63072   0.00000   0.00000
           0.00000  27.63072   0.00000
           0.00000   0.00000  27.63072
Lengths:  27.63072  27.63072  27.63072
Angles:   90.00000  90.00000  90.00000
Rectangular boundary conditions

net charge:   0.00000000

component   0 (CO2) lambda:  0 occupancy:  1 (1.000000)
    net charge:   0.00000000 [e]

Amount of molecules per component :
-------------------------------------------------------------------------------
Component 0 (CO2)
    molecules:         2.000000e+02 molecules
    number density:    9.480985e-03 molec/A^3
    density:           6.926970e+02 kg/m^3

Total potential energy/kʙ       -2.173441e+05 [K]
-------------------------------------------------------------------------------
    external field VDW/kʙ        0.000000e+00 [K]
    external field Real/kʙ       0.000000e+00 [K]
    framework-molecule VDW/kʙ    0.000000e+00 [K]
    framework-molecule Real/kʙ   0.000000e+00 [K]
    molecule-molecule VDW/kʙ    -1.593799e+05 [K]
    molecule-molecule Real/kʙ   -4.127757e+04 [K]
    Van der Waals (Tail)/kʙ     -6.084041e+03 [K]
    Ewald Fourier/kʙ             1.845910e+04 [K]
    Ewald self/kʙ               -4.445846e+06 [K]
    Ewald exclusion/kʙ           4.416785e+06 [K]
    intra VDW/kʙ                 0.000000e+00 [K]
    intra Coulombic/kʙ           0.000000e+00 [K]
    polarization/kʙ              0.000000e+00 [K]
    dU/dlambda VDW/kʙ            0.000000e+00 [K]
    dU/dlambda Real/kʙ           0.000000e+00 [K]
    dU/dlambda Ewald/kʙ          0.000000e+00 [K]


Initialization: Current cycle: 200 out of 1000
===============================================================================

Box:      25.12270   0.00000   0.00000
           0.00000  25.12270   0.00000
           0.00000   0.00000  25.12270
Lengths:  25.12270  25.12270  25.12270
Angles:   90.00000  90.00000  90.00000
Rectangular boundary conditions

net charge:   0.00000000

component   0 (CO2) lambda:  0 occupancy:  1 (1.000000)
    net charge:   0.00000000 [e]

Amount of molecules per component :
-------------------------------------------------------------------------------
Component 0 (CO2)
    molecules:         2.000000e+02 molecules
    number density:    1.261338e-02 molec/A^3
    density:           9.215548e+02 kg/m^3

Total potential energy/kʙ       -2.651549e+05 [K]
-------------------------------------------------------------------------------
    external field VDW/kʙ        0.000000e+00 [K]
    external field Real/kʙ       0.000000e+00 [K]
    framework-molecule VDW/kʙ    0.000000e+00 [K]
    framework-molecule Real/kʙ   0.000000e+00 [K]
    molecule-molecule VDW/kʙ    -1.930217e+05 [K]
    molecule-molecule Real/kʙ   -5.147487e+04 [K]
    Van der Waals (Tail)/kʙ     -8.094127e+03 [K]
    Ewald Fourier/kʙ             1.649756e+04 [K]
    Ewald self/kʙ               -4.445846e+06 [K]
    Ewald exclusion/kʙ           4.416785e+06 [K]
    intra VDW/kʙ                 0.000000e+00 [K]
    intra Coulombic/kʙ           0.000000e+00 [K]
    polarization/kʙ              0.000000e+00 [K]
    dU/dlambda VDW/kʙ            0.000000e+00 [K]
    dU/dlambda Real/kʙ           0.000000e+00 [K]
    dU/dlambda Ewald/kʙ          0.000000e+00 [K]


Initialization: Current cycle: 300 out of 1000
===============================================================================

Box:      24.22997   0.00000   0.00000
           0.00000  24.22997   0.00000
           0.00000   0.00000  24.22997
Lengths:  24.22997  24.22997  24.22997
Angles:   90.00000  90.00000  90.00000
Rectangular boundary conditions

net charge:   0.00000000

component   0 (CO2) lambda:  0 occupancy:  1 (1.000000)
    net charge:   0.00000000 [e]

Amount of molecules per component :
-------------------------------------------------------------------------------
Component 0 (CO2)
    molecules:         2.000000e+02 molecules
    number density:    1.405954e-02 molec/A^3
    density:           1.027214e+03 kg/m^3

Total potential energy/kʙ       -2.942271e+05 [K]
-------------------------------------------------------------------------------
    external field VDW/kʙ        0.000000e+00 [K]
    external field Real/kʙ       0.000000e+00 [K]
    framework-molecule VDW/kʙ    0.000000e+00 [K]
    framework-molecule Real/kʙ   0.000000e+00 [K]
    molecule-molecule VDW/kʙ    -2.126380e+05 [K]
    molecule-molecule Real/kʙ   -5.790603e+04 [K]
    Van der Waals (Tail)/kʙ     -9.022146e+03 [K]
    Ewald Fourier/kʙ             1.440075e+04 [K]
    Ewald self/kʙ               -4.445846e+06 [K]
    Ewald exclusion/kʙ           4.416785e+06 [K]
    intra VDW/kʙ                 0.000000e+00 [K]
    intra Coulombic/kʙ           0.000000e+00 [K]
    polarization/kʙ              0.000000e+00 [K]
    dU/dlambda VDW/kʙ            0.000000e+00 [K]
    dU/dlambda Real/kʙ           0.000000e+00 [K]
    dU/dlambda Ewald/kʙ          0.000000e+00 [K]


Initialization: Current cycle: 400 out of 1000
===============================================================================

Box:      24.22660   0.00000   0.00000
           0.00000  24.22660   0.00000
           0.00000   0.00000  24.22660
Lengths:  24.22660  24.22660  24.22660
Angles:   90.00000  90.00000  90.00000
Rectangular boundary conditions

net charge:   0.00000000

component   0 (CO2) lambda:  0 occupancy:  1 (1.000000)
    net charge:   0.00000000 [e]

Amount of molecules per component :
-------------------------------------------------------------------------------
Component 0 (CO2)
    molecules:         2.000000e+02 molecules
    number density:    1.406542e-02 molec/A^3
    density:           1.027644e+03 kg/m^3

Total potential energy/kʙ       -2.946286e+05 [K]
-------------------------------------------------------------------------------
    external field VDW/kʙ        0.000000e+00 [K]
    external field Real/kʙ       0.000000e+00 [K]
    framework-molecule VDW/kʙ    0.000000e+00 [K]
    framework-molecule Real/kʙ   0.000000e+00 [K]
    molecule-molecule VDW/kʙ    -2.099175e+05 [K]
    molecule-molecule Real/kʙ   -6.012536e+04 [K]
    Van der Waals (Tail)/kʙ     -9.025917e+03 [K]
    Ewald Fourier/kʙ             1.350193e+04 [K]
    Ewald self/kʙ               -4.445846e+06 [K]
    Ewald exclusion/kʙ           4.416785e+06 [K]
    intra VDW/kʙ                 0.000000e+00 [K]
    intra Coulombic/kʙ           0.000000e+00 [K]
    polarization/kʙ              0.000000e+00 [K]
    dU/dlambda VDW/kʙ            0.000000e+00 [K]
    dU/dlambda Real/kʙ           0.000000e+00 [K]
    dU/dlambda Ewald/kʙ          0.000000e+00 [K]


Initialization: Current cycle: 500 out of 1000
===============================================================================

Box:      24.23665   0.00000   0.00000
           0.00000  24.23665   0.00000
           0.00000   0.00000  24.23665
Lengths:  24.23665  24.23665  24.23665
Angles:   90.00000  90.00000  90.00000
Rectangular boundary conditions

net charge:   0.00000000

component   0 (CO2) lambda:  0 occupancy:  1 (1.000000)
    net charge:   0.00000000 [e]

Amount of molecules per component :
-------------------------------------------------------------------------------
Component 0 (CO2)
    molecules:         2.000000e+02 molecules
    number density:    1.404793e-02 molec/A^3
    density:           1.026366e+03 kg/m^3

Total potential energy/kʙ       -2.946783e+05 [K]
-------------------------------------------------------------------------------
    external field VDW/kʙ        0.000000e+00 [K]
    external field Real/kʙ       0.000000e+00 [K]
    framework-molecule VDW/kʙ    0.000000e+00 [K]
    framework-molecule Real/kʙ   0.000000e+00 [K]
    molecule-molecule VDW/kʙ    -2.102212e+05 [K]
    molecule-molecule Real/kʙ   -6.050206e+04 [K]
    Van der Waals (Tail)/kʙ     -9.014697e+03 [K]
    Ewald Fourier/kʙ             1.412136e+04 [K]
    Ewald self/kʙ               -4.445846e+06 [K]
    Ewald exclusion/kʙ           4.416785e+06 [K]
    intra VDW/kʙ                 0.000000e+00 [K]
    intra Coulombic/kʙ           0.000000e+00 [K]
    polarization/kʙ              0.000000e+00 [K]
    dU/dlambda VDW/kʙ            0.000000e+00 [K]
    dU/dlambda Real/kʙ           0.000000e+00 [K]
    dU/dlambda Ewald/kʙ          0.000000e+00 [K]


Initialization: Current cycle: 600 out of 1000
===============================================================================

Box:      23.92095   0.00000   0.00000
           0.00000  23.92095   0.00000
           0.00000   0.00000  23.92095
Lengths:  23.92095  23.92095  23.92095
Angles:   90.00000  90.00000  90.00000
Rectangular boundary conditions

net charge:   0.00000000

component   0 (CO2) lambda:  0 occupancy:  1 (1.000000)
    net charge:   0.00000000 [e]

Amount of molecules per component :
-------------------------------------------------------------------------------
Component 0 (CO2)
    molecules:         2.000000e+02 molecules
    number density:    1.461149e-02 molec/A^3
    density:           1.067541e+03 kg/m^3

Total potential energy/kʙ       -3.084747e+05 [K]
-------------------------------------------------------------------------------
    external field VDW/kʙ        0.000000e+00 [K]
    external field Real/kʙ       0.000000e+00 [K]
    framework-molecule VDW/kʙ    0.000000e+00 [K]
    framework-molecule Real/kʙ   0.000000e+00 [K]
    molecule-molecule VDW/kʙ    -2.225513e+05 [K]
    molecule-molecule Real/kʙ   -6.081435e+04 [K]
    Van der Waals (Tail)/kʙ     -9.376338e+03 [K]
    Ewald Fourier/kʙ             1.332899e+04 [K]
    Ewald self/kʙ               -4.445846e+06 [K]
    Ewald exclusion/kʙ           4.416785e+06 [K]
    intra VDW/kʙ                 0.000000e+00 [K]
    intra Coulombic/kʙ           0.000000e+00 [K]
    polarization/kʙ              0.000000e+00 [K]
    dU/dlambda VDW/kʙ            0.000000e+00 [K]
    dU/dlambda Real/kʙ           0.000000e+00 [K]
    dU/dlambda Ewald/kʙ          0.000000e+00 [K]


Initialization: Current cycle: 700 out of 1000
===============================================================================

Box:      23.85131   0.00000   0.00000
           0.00000  23.85131   0.00000
           0.00000   0.00000  23.85131
Lengths:  23.85131  23.85131  23.85131
Angles:   90.00000  90.00000  90.00000
Rectangular boundary conditions

net charge:   0.00000000

component   0 (CO2) lambda:  0 occupancy:  1 (1.000000)
    net charge:   0.00000000 [e]

Amount of molecules per component :
-------------------------------------------------------------------------------
Component 0 (CO2)
    molecules:         2.000000e+02 molecules
    number density:    1.473986e-02 molec/A^3
    density:           1.076919e+03 kg/m^3

Total potential energy/kʙ       -3.125509e+05 [K]
-------------------------------------------------------------------------------
    external field VDW/kʙ        0.000000e+00 [K]
    external field Real/kʙ       0.000000e+00 [K]
    framework-molecule VDW/kʙ    0.000000e+00 [K]
    framework-molecule Real/kʙ   0.000000e+00 [K]
    molecule-molecule VDW/kʙ    -2.219498e+05 [K]
    molecule-molecule Real/kʙ   -6.536692e+04 [K]
    Van der Waals (Tail)/kʙ     -9.458711e+03 [K]
    Ewald Fourier/kʙ             1.328624e+04 [K]
    Ewald self/kʙ               -4.445846e+06 [K]
    Ewald exclusion/kʙ           4.416785e+06 [K]
    intra VDW/kʙ                 0.000000e+00 [K]
    intra Coulombic/kʙ           0.000000e+00 [K]
    polarization/kʙ              0.000000e+00 [K]
    dU/dlambda VDW/kʙ            0.000000e+00 [K]
    dU/dlambda Real/kʙ           0.000000e+00 [K]
    dU/dlambda Ewald/kʙ          0.000000e+00 [K]


Initialization: Current cycle: 800 out of 1000
===============================================================================

Box:      23.62203   0.00000   0.00000
           0.00000  23.62203   0.00000
           0.00000   0.00000  23.62203
Lengths:  23.62203  23.62203  23.62203
Angles:   90.00000  90.00000  90.00000
Rectangular boundary conditions

net charge:   0.00000000

component   0 (CO2) lambda:  0 occupancy:  1 (1.000000)
    net charge:   0.00000000 [e]

Amount of molecules per component :
-------------------------------------------------------------------------------
Component 0 (CO2)
    molecules:         2.000000e+02 molecules
    number density:    1.517324e-02 molec/A^3
    density:           1.108583e+03 kg/m^3

Total potential energy/kʙ       -3.190242e+05 [K]
-------------------------------------------------------------------------------
    external field VDW/kʙ        0.000000e+00 [K]
    external field Real/kʙ       0.000000e+00 [K]
    framework-molecule VDW/kʙ    0.000000e+00 [K]
    framework-molecule Real/kʙ   0.000000e+00 [K]
    molecule-molecule VDW/kʙ    -2.297951e+05 [K]
    molecule-molecule Real/kʙ   -6.364997e+04 [K]
    Van der Waals (Tail)/kʙ     -9.736815e+03 [K]
    Ewald Fourier/kʙ             1.321941e+04 [K]
    Ewald self/kʙ               -4.445846e+06 [K]
    Ewald exclusion/kʙ           4.416785e+06 [K]
    intra VDW/kʙ                 0.000000e+00 [K]
    intra Coulombic/kʙ           0.000000e+00 [K]
    polarization/kʙ              0.000000e+00 [K]
    dU/dlambda VDW/kʙ            0.000000e+00 [K]
    dU/dlambda Real/kʙ           0.000000e+00 [K]
    dU/dlambda Ewald/kʙ          0.000000e+00 [K]


Initialization: Current cycle: 900 out of 1000
===============================================================================

Box:      23.49171   0.00000   0.00000
           0.00000  23.49171   0.00000
           0.00000   0.00000  23.49171
Lengths:  23.49171  23.49171  23.49171
Angles:   90.00000  90.00000  90.00000
Rectangular boundary conditions

net charge:   0.00000000

component   0 (CO2) lambda:  0 occupancy:  1 (1.000000)
    net charge:   0.00000000 [e]

Amount of molecules per component :
-------------------------------------------------------------------------------
Component 0 (CO2)
    molecules:         2.000000e+02 molecules
    number density:    1.542717e-02 molec/A^3
    density:           1.127136e+03 kg/m^3

Total potential energy/kʙ       -3.304454e+05 [K]
-------------------------------------------------------------------------------
    external field VDW/kʙ        0.000000e+00 [K]
    external field Real/kʙ       0.000000e+00 [K]
    framework-molecule VDW/kʙ    0.000000e+00 [K]
    framework-molecule Real/kʙ   0.000000e+00 [K]
    molecule-molecule VDW/kʙ    -2.352807e+05 [K]
    molecule-molecule Real/kʙ   -6.821553e+04 [K]
    Van der Waals (Tail)/kʙ     -9.899768e+03 [K]
    Ewald Fourier/kʙ             1.201235e+04 [K]
    Ewald self/kʙ               -4.445846e+06 [K]
    Ewald exclusion/kʙ           4.416785e+06 [K]
    intra VDW/kʙ                 0.000000e+00 [K]
    intra Coulombic/kʙ           0.000000e+00 [K]
    polarization/kʙ              0.000000e+00 [K]
    dU/dlambda VDW/kʙ            0.000000e+00 [K]
    dU/dlambda Real/kʙ           0.000000e+00 [K]
    dU/dlambda Ewald/kʙ          0.000000e+00 [K]


Current cycle: 0 out of 5000
===============================================================================

Box:      23.49348   0.00000   0.00000  Average:  23.49348   0.00000   0.00000
           0.00000  23.49348   0.00000             0.00000  23.49348   0.00000
           0.00000   0.00000  23.49348             0.00000   0.00000  23.49348
Lengths:  23.49348  23.49348  23.49348  Average:  23.49348  23.49348  23.49348
Angles:   90.00000  90.00000  90.00000  Average:  90.00000  90.00000  90.00000
Rectangular boundary conditions

net charge:   0.00000000

component 0 (CO2) lambda:  0 occupancy:  1 (1.000000)
    net charge:   0.00000000 [e]

Amount of molecules per component :
-------------------------------------------------------------------------------
Component 0 (CO2)
    molecules:      2.000000e+02 molecules  (2.000000e+02 +/- 0.000000e+00)
    number density: 1.542367e-02 molec./A^3 (1.542367e-02 +/- 0.000000e+00)
    density:        1.126880e+03 kg/m^3     (1.126880e+03 +/- 0.000000e+00)

Average pressure tensor: 
-------------------------------------------------------------------------------
 5.3237e+02  0.0000e+00  0.0000e+00 +/- 0.0000e+00 0.0000e+00 0.0000e+00 [bar]
 0.0000e+00  5.3237e+02  0.0000e+00 +/- 0.0000e+00 0.0000e+00 0.0000e+00 [bar]
 0.0000e+00  0.0000e+00  5.3237e+02 +/- 0.0000e+00 0.0000e+00 0.0000e+00 [bar]
Ideal-gas pressure:   5.323675e+02 +/ 0.000000e+00 [bar]
Excess pressure:      0.000000e+00 +/ 0.000000e+00 [bar]
Pressure:             5.323675e+02 +/ 0.000000e+00 [bar]

Total potential energy/kʙ  -3.301962e+05 (-3.301962e+05 +/- 0.000000e+00) [K]
-------------------------------------------------------------------------------
ExternalField-molecule
    Van der Waals/kʙ        0.000000e+00 ( 0.000000e+00 +/- 0.000000e+00) [K]
Framework-molecule
    Van der Waals/kʙ        0.000000e+00 ( 0.000000e+00 +/- 0.000000e+00) [K]
    Van der Waals (Tail)/kʙ 0.000000e+00 ( 0.000000e+00 +/- 0.000000e+00) [K]
    Coulombic Real/kʙ       0.000000e+00 ( 0.000000e+00 +/- 0.000000e+00) [K]
    Coulombic Fourier/kʙ    0.000000e+00 ( 0.000000e+00 +/- 0.000000e+00) [K]
Molecule-molecule
    Van der Waals/kʙ       -2.357150e+05 (-2.357150e+05 +/- 0.000000e+00) [K]
    Van der Waals (Tail)/kʙ-9.897523e+03 (-9.897523e+03 +/- 0.000000e+00) [K]
    Coulombic Real/kʙ      -6.775973e+04 (-6.775973e+04 +/- 0.000000e+00) [K]
    Coulombic Fourier/kʙ   -1.682392e+04 (-1.682392e+04 +/- 0.000000e+00) [K]
    Molecule Intra/kʙ       0.000000e+00 ( 0.000000e+00 +/- 0.000000e+00) [K]

Current cycle: 100 out of 5000
===============================================================================

Box:      23.50059   0.00000   0.00000  Average:  23.48591   0.00000   0.00000
           0.00000  23.50059   0.00000             0.00000  23.48591   0.00000
           0.00000   0.00000  23.50059             0.00000   0.00000  23.48591
Lengths:  23.50059  23.50059  23.50059  Average:  23.48591  23.48591  23.48591
Angles:   90.00000  90.00000  90.00000  Average:  90.00000  90.00000  90.00000
Rectangular boundary conditions

net charge:   0.00000000

component 0 (CO2) lambda:  0 occupancy:  1 (1.000000)
    net charge:   0.00000000 [e]

Amount of molecules per component :
-------------------------------------------------------------------------------
Component 0 (CO2)
    molecules:      2.000000e+02 molecules  (2.000000e+02 +/- 0.000000e+00)
    number density: 1.540968e-02 molec./A^3 (1.544004e-02 +/- 0.000000e+00)
    density:        1.125858e+03 kg/m^3     (1.128076e+03 +/- 0.000000e+00)

Average pressure tensor: 
-------------------------------------------------------------------------------
 2.3270e+02  1.2227e+02 -9.8278e+01 +/- 0.0000e+00 0.0000e+00 0.0000e+00 [bar]
 1.2227e+02 -4.1804e+01 -1.0021e+01 +/- 0.0000e+00 0.0000e+00 0.0000e+00 [bar]
-9.8278e+01 -1.0021e+01  5.2958e+01 +/- 0.0000e+00 0.0000e+00 0.0000e+00 [bar]
Ideal-gas pressure:   5.329324e+02 +/ 0.000000e+00 [bar]
Excess pressure:     -4.516473e+02 +/ 0.000000e+00 [bar]
Pressure:             8.128502e+01 +/ 0.000000e+00 [bar]

Total potential energy/kʙ  -3.237451e+05 (-3.265773e+05 +/- 0.000000e+00) [K]
-------------------------------------------------------------------------------
ExternalField-molecule
    Van der Waals/kʙ        0.000000e+00 ( 0.000000e+00 +/- 0.000000e+00) [K]
Framework-molecule
    Van der Waals/kʙ        0.000000e+00 ( 0.000000e+00 +/- 0.000000e+00) [K]
    Van der Waals (Tail)/kʙ 0.000000e+00 ( 0.000000e+00 +/- 0.000000e+00) [K]
    Coulombic Real/kʙ       0.000000e+00 ( 0.000000e+00 +/- 0.000000e+00) [K]
    Coulombic Fourier/kʙ    0.000000e+00 ( 0.000000e+00 +/- 0.000000e+00) [K]
Molecule-molecule
    Van der Waals/kʙ       -2.284112e+05 (-2.330818e+05 +/- 0.000000e+00) [K]
    Van der Waals (Tail)/kʙ-9.888544e+03 (-9.870487e+03 +/- 0.000000e+00) [K]
    Coulombic Real/kʙ      -6.866481e+04 (-6.687470e+04 +/- 0.000000e+00) [K]
    Coulombic Fourier/kʙ   -1.678048e+04 (-1.675032e+04 +/- 0.000000e+00) [K]
    Molecule Intra/kʙ       0.000000e+00 ( 0.000000e+00 +/- 0.000000e+00) [K]

Current cycle: 200 out of 5000
===============================================================================

Box:      23.80112   0.00000   0.00000  Average:  23.55118   0.00000   0.00000
           0.00000  23.80112   0.00000             0.00000  23.55118   0.00000
           0.00000   0.00000  23.80112             0.00000   0.00000  23.55118
Lengths:  23.80112  23.80112  23.80112  Average:  23.55118  23.55118  23.55118
Angles:   90.00000  90.00000  90.00000  Average:  90.00000  90.00000  90.00000
Rectangular boundary conditions

net charge:   0.00000000

component 0 (CO2) lambda:  0 occupancy:  1 (1.000000)
    net charge:   0.00000000 [e]

Amount of molecules per component :
-------------------------------------------------------------------------------
Component 0 (CO2)
    molecules:      2.000000e+02 molecules  (2.000000e+02 +/- 0.000000e+00)
    number density: 1.483329e-02 molec./A^3 (1.531280e-02 +/- 0.000000e+00)
    density:        1.083746e+03 kg/m^3     (1.118779e+03 +/- 0.000000e+00)

Average pressure tensor: 
-------------------------------------------------------------------------------
 2.0759e+02  1.2591e+02 -2.8101e+01 +/- 0.0000e+00 0.0000e+00 0.0000e+00 [bar]
 1.2591e+02  1.6246e+02  6.1742e+01 +/- 0.0000e+00 0.0000e+00 0.0000e+00 [bar]
-2.8101e+01  6.1742e+01  5.5762e+01 +/- 0.0000e+00 0.0000e+00 0.0000e+00 [bar]
Ideal-gas pressure:   5.285406e+02 +/ 0.000000e+00 [bar]
Excess pressure:     -3.866024e+02 +/ 0.000000e+00 [bar]
Pressure:             1.419382e+02 +/ 0.000000e+00 [bar]

Total potential energy/kʙ  -3.174179e+05 (-3.240364e+05 +/- 0.000000e+00) [K]
-------------------------------------------------------------------------------
ExternalField-molecule
    Van der Waals/kʙ        0.000000e+00 ( 0.000000e+00 +/- 0.000000e+00) [K]
Framework-molecule
    Van der Waals/kʙ        0.000000e+00 ( 0.000000e+00 +/- 0.000000e+00) [K]
    Van der Waals (Tail)/kʙ 0.000000e+00 ( 0.000000e+00 +/- 0.000000e+00) [K]
    Coulombic Real/kʙ       0.000000e+00 ( 0.000000e+00 +/- 0.000000e+00) [K]
    Coulombic Fourier/kʙ    0.000000e+00 ( 0.000000e+00 +/- 0.000000e+00) [K]
Molecule-molecule
    Van der Waals/kʙ       -2.228090e+05 (-2.304231e+05 +/- 0.000000e+00) [K]
    Van der Waals (Tail)/kʙ-9.518671e+03 (-9.808864e+03 +/- 0.000000e+00) [K]
    Coulombic Real/kʙ      -6.824153e+04 (-6.710257e+04 +/- 0.000000e+00) [K]
    Coulombic Fourier/kʙ   -1.684863e+04 (-1.670182e+04 +/- 0.000000e+00) [K]
    Molecule Intra/kʙ       0.000000e+00 ( 0.000000e+00 +/- 0.000000e+00) [K]

Current cycle: 300 out of 5000
===============================================================================

Box:      23.82975   0.00000   0.00000  Average:  23.65318   0.00000   0.00000
           0.00000  23.82975   0.00000             0.00000  23.65318   0.00000
           0.00000   0.00000  23.82975             0.00000   0.00000  23.65318
Lengths:  23.82975  23.82975  23.82975  Average:  23.65318  23.65318  23.65318
Angles:   90.00000  90.00000  90.00000  Average:  90.00000  90.00000  90.00000
Rectangular boundary conditions

net charge:   0.00000000

component 0 (CO2) lambda:  0 occupancy:  1 (1.000000)
    net charge:   0.00000000 [e]

Amount of molecules per component :
-------------------------------------------------------------------------------
Component 0 (CO2)
    molecules:      2.000000e+02 molecules  (2.000000e+02 +/- 0.000000e+00)
    number density: 1.477989e-02 molec./A^3 (1.511888e-02 +/- 0.000000e+00)
    density:        1.079844e+03 kg/m^3     (1.104611e+03 +/- 0.000000e+00)

Average pressure tensor: 
-------------------------------------------------------------------------------
 2.0838e+02  1.1448e+02 -1.8601e+01 +/- 0.0000e+00 0.0000e+00 0.0000e+00 [bar]
 1.1448e+02  2.3576e+02  5.7265e+01 +/- 0.0000e+00 0.0000e+00 0.0000e+00 [bar]
-1.8601e+01  5.7265e+01  9.9060e+01 +/- 0.0000e+00 0.0000e+00 0.0000e+00 [bar]
Ideal-gas pressure:   5.218472e+02 +/ 0.000000e+00 [bar]
Excess pressure:     -3.407793e+02 +/ 0.000000e+00 [bar]
Pressure:             1.810679e+02 +/ 0.000000e+00 [bar]

Total potential energy/kʙ  -3.201347e+05 (-3.203932e+05 +/- 0.000000e+00) [K]
-------------------------------------------------------------------------------
ExternalField-molecule
    Van der Waals/kʙ        0.000000e+00 ( 0.000000e+00 +/- 0.000000e+00) [K]
Framework-molecule
    Van der Waals/kʙ        0.000000e+00 ( 0.000000e+00 +/- 0.000000e+00) [K]
    Van der Waals (Tail)/kʙ 0.000000e+00 ( 0.000000e+00 +/- 0.000000e+00) [K]
    Coulombic Real/kʙ       0.000000e+00 ( 0.000000e+00 +/- 0.000000e+00) [K]
    Coulombic Fourier/kʙ    0.000000e+00 ( 0.000000e+00 +/- 0.000000e+00) [K]
Molecule-molecule
    Van der Waals/kʙ       -2.237077e+05 (-2.269816e+05 +/- 0.000000e+00) [K]
    Van der Waals (Tail)/kʙ-9.484402e+03 (-9.711336e+03 +/- 0.000000e+00) [K]
    Coulombic Real/kʙ      -7.048259e+04 (-6.718434e+04 +/- 0.000000e+00) [K]
    Coulombic Fourier/kʙ   -1.646000e+04 (-1.651590e+04 +/- 0.000000e+00) [K]
    Molecule Intra/kʙ       0.000000e+00 ( 0.000000e+00 +/- 0.000000e+00) [K]

Current cycle: 400 out of 5000
===============================================================================

Box:      23.88275   0.00000   0.00000  Average:  23.67371   0.00000   0.00000
           0.00000  23.88275   0.00000             0.00000  23.67371   0.00000
           0.00000   0.00000  23.88275             0.00000   0.00000  23.67371
Lengths:  23.88275  23.88275  23.88275  Average:  23.67371  23.67371  23.67371
Angles:   90.00000  90.00000  90.00000  Average:  90.00000  90.00000  90.00000
Rectangular boundary conditions

net charge:   0.00000000

component 0 (CO2) lambda:  0 occupancy:  1 (1.000000)
    net charge:   0.00000000 [e]

Amount of molecules per component :
-------------------------------------------------------------------------------
Component 0 (CO2)
    molecules:      2.000000e+02 molecules  (2.000000e+02 +/- 0.000000e+00)
    number density: 1.468171e-02 molec./A^3 (1.507875e-02 +/- 0.000000e+00)
    density:        1.072671e+03 kg/m^3     (1.101679e+03 +/- 0.000000e+00)

Average pressure tensor: 
-------------------------------------------------------------------------------
 1.8921e+02  1.1739e+02  1.9400e+00 +/- 0.0000e+00 0.0000e+00 0.0000e+00 [bar]
 1.1739e+02  2.6385e+02  8.1376e+01 +/- 0.0000e+00 0.0000e+00 0.0000e+00 [bar]
 1.9400e+00  8.1376e+01  1.4038e+02 +/- 0.0000e+00 0.0000e+00 0.0000e+00 [bar]
Ideal-gas pressure:   5.204620e+02 +/ 0.000000e+00 [bar]
Excess pressure:     -3.226461e+02 +/ 0.000000e+00 [bar]
Pressure:             1.978159e+02 +/ 0.000000e+00 [bar]

Total potential energy/kʙ  -3.104276e+05 (-3.197932e+05 +/- 0.000000e+00) [K]
-------------------------------------------------------------------------------
ExternalField-molecule
    Van der Waals/kʙ        0.000000e+00 ( 0.000000e+00 +/- 0.000000e+00) [K]
Framework-molecule
    Van der Waals/kʙ        0.000000e+00 ( 0.000000e+00 +/- 0.000000e+00) [K]
    Van der Waals (Tail)/kʙ 0.000000e+00 ( 0.000000e+00 +/- 0.000000e+00) [K]
    Coulombic Real/kʙ       0.000000e+00 ( 0.000000e+00 +/- 0.000000e+00) [K]
    Coulombic Fourier/kʙ    0.000000e+00 ( 0.000000e+00 +/- 0.000000e+00) [K]
Molecule-molecule
    Van der Waals/kʙ       -2.259999e+05 (-2.262043e+05 +/- 0.000000e+00) [K]
    Van der Waals (Tail)/kʙ-9.421400e+03 (-9.685014e+03 +/- 0.000000e+00) [K]
    Coulombic Real/kʙ      -6.030864e+04 (-6.749202e+04 +/- 0.000000e+00) [K]
    Coulombic Fourier/kʙ   -1.469762e+04 (-1.641188e+04 +/- 0.000000e+00) [K]
    Molecule Intra/kʙ       0.000000e+00 ( 0.000000e+00 +/- 0.000000e+00) [K]

Current cycle: 500 out of 5000
===============================================================================

Box:      23.77750   0.00000   0.00000  Average:  23.72152   0.00000   0.00000
           0.00000  23.77750   0.00000             0.00000  23.72152   0.00000
           0.00000   0.00000  23.77750             0.00000   0.00000  23.72152
Lengths:  23.77750  23.77750  23.77750  Average:  23.72152  23.72152  23.72152
Angles:   90.00000  90.00000  90.00000  Average:  90.00000  90.00000  90.00000
Rectangular boundary conditions

net charge:   0.00000000

component 0 (CO2) lambda:  0 occupancy:  1 (1.000000)
    net charge:   0.00000000 [e]

Amount of molecules per component :
-------------------------------------------------------------------------------
Component 0 (CO2)
    molecules:      2.000000e+02 molecules  (2.000000e+02 +/- 0.000000e+00)
    number density: 1.487755e-02 molec./A^3 (1.498894e-02 +/- 0.000000e+00)
    density:        1.086979e+03 kg/m^3     (1.095117e+03 +/- 0.000000e+00)

Average pressure tensor: 
-------------------------------------------------------------------------------
 1.4025e+02  9.0747e+01  5.1974e+00 +/- 0.0000e+00 0.0000e+00 0.0000e+00 [bar]
 9.0747e+01  2.1471e+02  8.3030e+01 +/- 0.0000e+00 0.0000e+00 0.0000e+00 [bar]
 5.1974e+00  8.3030e+01  1.2571e+02 +/- 0.0000e+00 0.0000e+00 0.0000e+00 [bar]
Ideal-gas pressure:   5.173620e+02 +/ 0.000000e+00 [bar]
Excess pressure:     -3.571392e+02 +/ 0.000000e+00 [bar]
Pressure:             1.602228e+02 +/ 0.000000e+00 [bar]

Total potential energy/kʙ  -3.065926e+05 (-3.166763e+05 +/- 0.000000e+00) [K]
-------------------------------------------------------------------------------
ExternalField-molecule
    Van der Waals/kʙ        0.000000e+00 ( 0.000000e+00 +/- 0.000000e+00) [K]
Framework-molecule
    Van der Waals/kʙ        0.000000e+00 ( 0.000000e+00 +/- 0.000000e+00) [K]
    Van der Waals (Tail)/kʙ 0.000000e+00 ( 0.000000e+00 +/- 0.000000e+00) [K]
    Coulombic Real/kʙ       0.000000e+00 ( 0.000000e+00 +/- 0.000000e+00) [K]
    Coulombic Fourier/kʙ    0.000000e+00 ( 0.000000e+00 +/- 0.000000e+00) [K]
Molecule-molecule
    Van der Waals/kʙ       -2.234174e+05 (-2.249689e+05 +/- 0.000000e+00) [K]
    Van der Waals (Tail)/kʙ-9.547069e+03 (-9.621118e+03 +/- 0.000000e+00) [K]
    Coulombic Real/kʙ      -5.882826e+04 (-6.595310e+04 +/- 0.000000e+00) [K]
    Coulombic Fourier/kʙ   -1.479988e+04 (-1.613326e+04 +/- 0.000000e+00) [K]
    Molecule Intra/kʙ       0.000000e+00 ( 0.000000e+00 +/- 0.000000e+00) [K]

Current cycle: 600 out of 5000
===============================================================================

Box:      23.64486   0.00000   0.00000  Average:  23.70692   0.00000   0.00000
           0.00000  23.64486   0.00000             0.00000  23.70692   0.00000
           0.00000   0.00000  23.64486             0.00000   0.00000  23.70692
Lengths:  23.64486  23.64486  23.64486  Average:  23.70692  23.70692  23.70692
Angles:   90.00000  90.00000  90.00000  Average:  90.00000  90.00000  90.00000
Rectangular boundary conditions

net charge:   0.00000000

component 0 (CO2) lambda:  0 occupancy:  1 (1.000000)
    net charge:   0.00000000 [e]

Amount of molecules per component :
-------------------------------------------------------------------------------
Component 0 (CO2)
    molecules:      2.000000e+02 molecules  (2.000000e+02 +/- 0.000000e+00)
    number density: 1.512932e-02 molec./A^3 (1.501602e-02 +/- 0.000000e+00)
    density:        1.105374e+03 kg/m^3     (1.097096e+03 +/- 0.000000e+00)

Average pressure tensor: 
-------------------------------------------------------------------------------
 1.2262e+02  9.4491e+01 -3.7157e+00 +/- 0.0000e+00 0.0000e+00 0.0000e+00 [bar]
 9.4491e+01  1.8077e+02  1.2047e+02 +/- 0.0000e+00 0.0000e+00 0.0000e+00 [bar]
-3.7157e+00  1.2047e+02  1.6603e+02 +/- 0.0000e+00 0.0000e+00 0.0000e+00 [bar]
Ideal-gas pressure:   5.182970e+02 +/ 0.000000e+00 [bar]
Excess pressure:     -3.618234e+02 +/ 0.000000e+00 [bar]
Pressure:             1.564736e+02 +/ 0.000000e+00 [bar]

Total potential energy/kʙ  -3.217991e+05 (-3.170212e+05 +/- 0.000000e+00) [K]
-------------------------------------------------------------------------------
ExternalField-molecule
    Van der Waals/kʙ        0.000000e+00 ( 0.000000e+00 +/- 0.000000e+00) [K]
Framework-molecule
    Van der Waals/kʙ        0.000000e+00 ( 0.000000e+00 +/- 0.000000e+00) [K]
    Van der Waals (Tail)/kʙ 0.000000e+00 ( 0.000000e+00 +/- 0.000000e+00) [K]
    Coulombic Real/kʙ       0.000000e+00 ( 0.000000e+00 +/- 0.000000e+00) [K]
    Coulombic Fourier/kʙ    0.000000e+00 ( 0.000000e+00 +/- 0.000000e+00) [K]
Molecule-molecule
    Van der Waals/kʙ       -2.253019e+05 (-2.255410e+05 +/- 0.000000e+00) [K]
    Van der Waals (Tail)/kʙ-9.708636e+03 (-9.636188e+03 +/- 0.000000e+00) [K]
    Coulombic Real/kʙ      -7.092735e+04 (-6.585381e+04 +/- 0.000000e+00) [K]
    Coulombic Fourier/kʙ   -1.586121e+04 (-1.599021e+04 +/- 0.000000e+00) [K]
    Molecule Intra/kʙ       0.000000e+00 ( 0.000000e+00 +/- 0.000000e+00) [K]

Current cycle: 700 out of 5000
===============================================================================

Box:      23.38931   0.00000   0.00000  Average:  23.67559   0.00000   0.00000
           0.00000  23.38931   0.00000             0.00000  23.67559   0.00000
           0.00000   0.00000  23.38931             0.00000   0.00000  23.67559
Lengths:  23.38931  23.38931  23.38931  Average:  23.67559  23.67559  23.67559
Angles:   90.00000  90.00000  90.00000  Average:  90.00000  90.00000  90.00000
Rectangular boundary conditions

net charge:   0.00000000

component 0 (CO2) lambda:  0 occupancy:  1 (1.000000)
    net charge:   0.00000000 [e]

Amount of molecules per component :
-------------------------------------------------------------------------------
Component 0 (CO2)
    molecules:      2.000000e+02 molecules  (2.000000e+02 +/- 0.000000e+00)
    number density: 1.563067e-02 molec./A^3 (1.507645e-02 +/- 0.000000e+00)
    density:        1.142004e+03 kg/m^3     (1.101511e+03 +/- 0.000000e+00)

Average pressure tensor: 
-------------------------------------------------------------------------------
 1.5827e+02  7.3750e+01 -4.8170e+00 +/- 0.0000e+00 0.0000e+00 0.0000e+00 [bar]
 7.3750e+01  1.6222e+02  1.0726e+02 +/- 0.0000e+00 0.0000e+00 0.0000e+00 [bar]
-4.8170e+00  1.0726e+02  1.7379e+02 +/- 0.0000e+00 0.0000e+00 0.0000e+00 [bar]
Ideal-gas pressure:   5.203827e+02 +/ 0.000000e+00 [bar]
Excess pressure:     -3.556245e+02 +/ 0.000000e+00 [bar]
Pressure:             1.647583e+02 +/ 0.000000e+00 [bar]

Total potential energy/kʙ  -3.354521e+05 (-3.184837e+05 +/- 0.000000e+00) [K]
-------------------------------------------------------------------------------
ExternalField-molecule
    Van der Waals/kʙ        0.000000e+00 ( 0.000000e+00 +/- 0.000000e+00) [K]
Framework-molecule
    Van der Waals/kʙ        0.000000e+00 ( 0.000000e+00 +/- 0.000000e+00) [K]
    Van der Waals (Tail)/kʙ 0.000000e+00 ( 0.000000e+00 +/- 0.000000e+00) [K]
    Coulombic Real/kʙ       0.000000e+00 ( 0.000000e+00 +/- 0.000000e+00) [K]
    Coulombic Fourier/kʙ    0.000000e+00 ( 0.000000e+00 +/- 0.000000e+00) [K]
Molecule-molecule
    Van der Waals/kʙ       -2.402688e+05 (-2.265742e+05 +/- 0.000000e+00) [K]
    Van der Waals (Tail)/kʙ-1.003036e+04 (-9.679323e+03 +/- 0.000000e+00) [K]
    Coulombic Real/kʙ      -6.930120e+04 (-6.624911e+04 +/- 0.000000e+00) [K]
    Coulombic Fourier/kʙ   -1.585176e+04 (-1.598106e+04 +/- 0.000000e+00) [K]
    Molecule Intra/kʙ       0.000000e+00 ( 0.000000e+00 +/- 0.000000e+00) [K]

Current cycle: 800 out of 5000
===============================================================================

Box:      23.52664   0.00000   0.00000  Average:  23.64628   0.00000   0.00000
           0.00000  23.52664   0.00000             0.00000  23.64628   0.00000
           0.00000   0.00000  23.52664             0.00000   0.00000  23.64628
Lengths:  23.52664  23.52664  23.52664  Average:  23.64628  23.64628  23.64628
Angles:   90.00000  90.00000  90.00000  Average:  90.00000  90.00000  90.00000
Rectangular boundary conditions

net charge:   0.00000000

component 0 (CO2) lambda:  0 occupancy:  1 (1.000000)
    net charge:   0.00000000 [e]

Amount of molecules per component :
-------------------------------------------------------------------------------
Component 0 (CO2)
    molecules:      2.000000e+02 molecules  (2.000000e+02 +/- 0.000000e+00)
    number density: 1.535854e-02 molec./A^3 (1.513318e-02 +/- 0.000000e+00)
    density:        1.122121e+03 kg/m^3     (1.105656e+03 +/- 0.000000e+00)

Average pressure tensor: 
-------------------------------------------------------------------------------
 1.7104e+02  5.1969e+01  4.7523e+00 +/- 0.0000e+00 0.0000e+00 0.0000e+00 [bar]
 5.1969e+01  1.5836e+02  1.2106e+02 +/- 0.0000e+00 0.0000e+00 0.0000e+00 [bar]
 4.7523e+00  1.2106e+02  1.2863e+02 +/- 0.0000e+00 0.0000e+00 0.0000e+00 [bar]
Ideal-gas pressure:   5.223409e+02 +/ 0.000000e+00 [bar]
Excess pressure:     -3.696642e+02 +/ 0.000000e+00 [bar]
Pressure:             1.526766e+02 +/ 0.000000e+00 [bar]

Total potential energy/kʙ  -3.248758e+05 (-3.199740e+05 +/- 0.000000e+00) [K]
-------------------------------------------------------------------------------
ExternalField-molecule
    Van der Waals/kʙ        0.000000e+00 ( 0.000000e+00 +/- 0.000000e+00) [K]
Framework-molecule
    Van der Waals/kʙ        0.000000e+00 ( 0.000000e+00 +/- 0.000000e+00) [K]
    Van der Waals (Tail)/kʙ 0.000000e+00 ( 0.000000e+00 +/- 0.000000e+00) [K]
    Coulombic Real/kʙ       0.000000e+00 ( 0.000000e+00 +/- 0.000000e+00) [K]
    Coulombic Fourier/kʙ    0.000000e+00 ( 0.000000e+00 +/- 0.000000e+00) [K]
Molecule-molecule
    Van der Waals/kʙ       -2.316481e+05 (-2.275239e+05 +/- 0.000000e+00) [K]
    Van der Waals (Tail)/kʙ-9.855728e+03 (-9.710147e+03 +/- 0.000000e+00) [K]
    Coulombic Real/kʙ      -6.638477e+04 (-6.668687e+04 +/- 0.000000e+00) [K]
    Coulombic Fourier/kʙ   -1.698722e+04 (-1.605306e+04 +/- 0.000000e+00) [K]
    Molecule Intra/kʙ       0.000000e+00 ( 0.000000e+00 +/- 0.000000e+00) [K]

Current cycle: 900 out of 5000
===============================================================================

Box:      23.72590   0.00000   0.00000  Average:  23.62111   0.00000   0.00000
           0.00000  23.72590   0.00000             0.00000  23.62111   0.00000
           0.00000   0.00000  23.72590             0.00000   0.00000  23.62111
Lengths:  23.72590  23.72590  23.72590  Average:  23.62111  23.62111  23.62111
Angles:   90.00000  90.00000  90.00000  Average:  90.00000  90.00000  90.00000
Rectangular boundary conditions

net charge:   0.00000000

component 0 (CO2) lambda:  0 occupancy:  1 (1.000000)
    net charge:   0.00000000 [e]

Amount of molecules per component :
-------------------------------------------------------------------------------
Component 0 (CO2)
    molecules:      2.000000e+02 molecules  (2.000000e+02 +/- 0.000000e+00)
    number density: 1.497484e-02 molec./A^3 (1.518200e-02 +/- 0.000000e+00)
    density:        1.094087e+03 kg/m^3     (1.109223e+03 +/- 0.000000e+00)

Average pressure tensor: 
-------------------------------------------------------------------------------
 1.5262e+02  2.0377e+01 -3.3936e-01 +/- 0.0000e+00 0.0000e+00 0.0000e+00 [bar]
 2.0377e+01  1.6329e+02  1.0528e+02 +/- 0.0000e+00 0.0000e+00 0.0000e+00 [bar]
-3.3936e-01  1.0528e+02  1.6597e+02 +/- 0.0000e+00 0.0000e+00 0.0000e+00 [bar]
Ideal-gas pressure:   5.240257e+02 +/ 0.000000e+00 [bar]
Excess pressure:     -3.633978e+02 +/ 0.000000e+00 [bar]
Pressure:             1.606279e+02 +/ 0.000000e+00 [bar]

Total potential energy/kʙ  -3.223662e+05 (-3.214277e+05 +/- 0.000000e+00) [K]
-------------------------------------------------------------------------------
ExternalField-molecule
    Van der Waals/kʙ        0.000000e+00 ( 0.000000e+00 +/- 0.000000e+00) [K]
Framework-molecule
    Van der Waals/kʙ        0.000000e+00 ( 0.000000e+00 +/- 0.000000e+00) [K]
    Van der Waals (Tail)/kʙ 0.000000e+00 ( 0.000000e+00 +/- 0.000000e+00) [K]
    Coulombic Real/kʙ       0.000000e+00 ( 0.000000e+00 +/- 0.000000e+00) [K]
    Coulombic Fourier/kʙ    0.000000e+00 ( 0.000000e+00 +/- 0.000000e+00) [K]
Molecule-molecule
    Van der Waals/kʙ       -2.256403e+05 (-2.283305e+05 +/- 0.000000e+00) [K]
    Van der Waals (Tail)/kʙ-9.609501e+03 (-9.741236e+03 +/- 0.000000e+00) [K]
    Coulombic Real/kʙ      -7.038939e+04 (-6.723277e+04 +/- 0.000000e+00) [K]
    Coulombic Fourier/kʙ   -1.672704e+04 (-1.612323e+04 +/- 0.000000e+00) [K]
    Molecule Intra/kʙ       0.000000e+00 ( 0.000000e+00 +/- 0.000000e+00) [K]

Current cycle: 1000 out of 5000
===============================================================================

Box:      23.56856   0.00000   0.00000  Average:  23.61454   0.00000   0.00000
           0.00000  23.56856   0.00000             0.00000  23.61454   0.00000
           0.00000   0.00000  23.56856             0.00000   0.00000  23.61454
Lengths:  23.56856  23.56856  23.56856  Average:  23.61454  23.61454  23.61454
Angles:   90.00000  90.00000  90.00000  Average:  90.00000  90.00000  90.00000
Rectangular boundary conditions

net charge:   0.00000000

component 0 (CO2) lambda:  0 occupancy:  1 (1.000000)
    net charge:   0.00000000 [e]

Amount of molecules per component :
-------------------------------------------------------------------------------
Component 0 (CO2)
    molecules:      2.000000e+02 molecules  (2.000000e+02 +/- 0.000000e+00)
    number density: 1.527675e-02 molec./A^3 (1.519410e-02 +/- 0.000000e+00)
    density:        1.116145e+03 kg/m^3     (1.110107e+03 +/- 0.000000e+00)

Average pressure tensor: 
-------------------------------------------------------------------------------
 1.7089e+02 -1.0236e+00  2.2478e+01 +/- 0.0000e+00 0.0000e+00 0.0000e+00 [bar]
-1.0236e+00  1.6055e+02  8.7467e+01 +/- 0.0000e+00 0.0000e+00 0.0000e+00 [bar]
 2.2478e+01  8.7467e+01  1.5747e+02 +/- 0.0000e+00 0.0000e+00 0.0000e+00 [bar]
Ideal-gas pressure:   5.244436e+02 +/ 0.000000e+00 [bar]
Excess pressure:     -3.614766e+02 +/ 0.000000e+00 [bar]
Pressure:             1.629670e+02 +/ 0.000000e+00 [bar]

Total potential energy/kʙ  -3.217691e+05 (-3.217716e+05 +/- 0.000000e+00) [K]
-------------------------------------------------------------------------------
ExternalField-molecule
    Van der Waals/kʙ        0.000000e+00 ( 0.000000e+00 +/- 0.000000e+00) [K]
Framework-molecule
    Van der Waals/kʙ        0.000000e+00 ( 0.000000e+00 +/- 0.000000e+00) [K]
    Van der Waals (Tail)/kʙ 0.000000e+00 ( 0.000000e+00 +/- 0.000000e+00) [K]
    Coulombic Real/kʙ       0.000000e+00 ( 0.000000e+00 +/- 0.000000e+00) [K]
    Coulombic Fourier/kʙ    0.000000e+00 ( 0.000000e+00 +/- 0.000000e+00) [K]
Molecule-molecule
    Van der Waals/kʙ       -2.255732e+05 (-2.284083e+05 +/- 0.000000e+00) [K]
    Van der Waals (Tail)/kʙ-9.803239e+03 (-9.749589e+03 +/- 0.000000e+00) [K]
    Coulombic Real/kʙ      -6.888327e+04 (-6.745281e+04 +/- 0.000000e+00) [K]
    Coulombic Fourier/kʙ   -1.750936e+04 (-1.616088e+04 +/- 0.000000e+00) [K]
    Molecule Intra/kʙ       0.000000e+00 ( 0.000000e+00 +/- 0.000000e+00) [K]

Current cycle: 1100 out of 5000
===============================================================================

Box:      23.63492   0.00000   0.00000  Average:  23.59899   0.00000   0.00000
           0.00000  23.63492   0.00000             0.00000  23.59899   0.00000
           0.00000   0.00000  23.63492             0.00000   0.00000  23.59899
Lengths:  23.63492  23.63492  23.63492  Average:  23.59899  23.59899  23.59899
Angles:   90.00000  90.00000  90.00000  Average:  90.00000  90.00000  90.00000
Rectangular boundary conditions

net charge:   0.00000000

component 0 (CO2) lambda:  0 occupancy:  1 (1.000000)
    net charge:   0.00000000 [e]

Amount of molecules per component :
-------------------------------------------------------------------------------
Component 0 (CO2)
    molecules:      2.000000e+02 molecules  (2.000000e+02 +/- 0.000000e+00)
    number density: 1.514843e-02 molec./A^3 (1.522406e-02 +/- 0.000000e+00)
    density:        1.106770e+03 kg/m^3     (1.112296e+03 +/- 0.000000e+00)

Average pressure tensor: 
-------------------------------------------------------------------------------
 1.9696e+02  3.5377e+00  3.3456e+01 +/- 0.0000e+00 0.0000e+00 0.0000e+00 [bar]
 3.5377e+00  1.6600e+02  8.5865e+01 +/- 0.0000e+00 0.0000e+00 0.0000e+00 [bar]
 3.3456e+01  8.5865e+01  1.7156e+02 +/- 0.0000e+00 0.0000e+00 0.0000e+00 [bar]
Ideal-gas pressure:   5.254776e+02 +/ 0.000000e+00 [bar]
Excess pressure:     -3.473041e+02 +/ 0.000000e+00 [bar]
Pressure:             1.781735e+02 +/ 0.000000e+00 [bar]

Total potential energy/kʙ  -3.210124e+05 (-3.224039e+05 +/- 0.000000e+00) [K]
-------------------------------------------------------------------------------
ExternalField-molecule
    Van der Waals/kʙ        0.000000e+00 ( 0.000000e+00 +/- 0.000000e+00) [K]
Framework-molecule
    Van der Waals/kʙ        0.000000e+00 ( 0.000000e+00 +/- 0.000000e+00) [K]
    Van der Waals (Tail)/kʙ 0.000000e+00 ( 0.000000e+00 +/- 0.000000e+00) [K]
    Coulombic Real/kʙ       0.000000e+00 ( 0.000000e+00 +/- 0.000000e+00) [K]
    Coulombic Fourier/kʙ    0.000000e+00 ( 0.000000e+00 +/- 0.000000e+00) [K]
Molecule-molecule
    Van der Waals/kʙ       -2.332570e+05 (-2.288260e+05 +/- 0.000000e+00) [K]
    Van der Waals (Tail)/kʙ-9.720897e+03 (-9.769078e+03 +/- 0.000000e+00) [K]
    Coulombic Real/kʙ      -6.235942e+04 (-6.760083e+04 +/- 0.000000e+00) [K]
    Coulombic Fourier/kʙ   -1.567509e+04 (-1.620805e+04 +/- 0.000000e+00) [K]
    Molecule Intra/kʙ       0.000000e+00 ( 0.000000e+00 +/- 0.000000e+00) [K]

Current cycle: 1200 out of 5000
===============================================================================

Box:      23.51015   0.00000   0.00000  Average:  23.59824   0.00000   0.00000
           0.00000  23.51015   0.00000             0.00000  23.59824   0.00000
           0.00000   0.00000  23.51015             0.00000   0.00000  23.59824
Lengths:  23.51015  23.51015  23.51015  Average:  23.59824  23.59824  23.59824
Angles:   90.00000  90.00000  90.00000  Average:  90.00000  90.00000  90.00000
Rectangular boundary conditions

net charge:   0.00000000

component 0 (CO2) lambda:  0 occupancy:  1 (1.000000)
    net charge:   0.00000000 [e]

Amount of molecules per component :
-------------------------------------------------------------------------------
Component 0 (CO2)
    molecules:      2.000000e+02 molecules  (2.000000e+02 +/- 0.000000e+00)
    number density: 1.539089e-02 molec./A^3 (1.522504e-02 +/- 0.000000e+00)
    density:        1.124484e+03 kg/m^3     (1.112368e+03 +/- 0.000000e+00)

Average pressure tensor: 
-------------------------------------------------------------------------------
 2.0838e+02  8.6443e-01  2.5384e+01 +/- 0.0000e+00 0.0000e+00 0.0000e+00 [bar]
 8.6443e-01  1.6256e+02  7.6836e+01 +/- 0.0000e+00 0.0000e+00 0.0000e+00 [bar]
 2.5384e+01  7.6836e+01  1.7317e+02 +/- 0.0000e+00 0.0000e+00 0.0000e+00 [bar]
Ideal-gas pressure:   5.255115e+02 +/ 0.000000e+00 [bar]
Excess pressure:     -3.441434e+02 +/ 0.000000e+00 [bar]
Pressure:             1.813682e+02 +/ 0.000000e+00 [bar]

Total potential energy/kʙ  -3.225329e+05 (-3.222995e+05 +/- 0.000000e+00) [K]
-------------------------------------------------------------------------------
ExternalField-molecule
    Van der Waals/kʙ        0.000000e+00 ( 0.000000e+00 +/- 0.000000e+00) [K]
Framework-molecule
    Van der Waals/kʙ        0.000000e+00 ( 0.000000e+00 +/- 0.000000e+00) [K]
    Van der Waals (Tail)/kʙ 0.000000e+00 ( 0.000000e+00 +/- 0.000000e+00) [K]
    Coulombic Real/kʙ       0.000000e+00 ( 0.000000e+00 +/- 0.000000e+00) [K]
    Coulombic Fourier/kʙ    0.000000e+00 ( 0.000000e+00 +/- 0.000000e+00) [K]
Molecule-molecule
    Van der Waals/kʙ       -2.278177e+05 (-2.286277e+05 +/- 0.000000e+00) [K]
    Van der Waals (Tail)/kʙ-9.876483e+03 (-9.771269e+03 +/- 0.000000e+00) [K]
    Coulombic Real/kʙ      -6.831492e+04 (-6.771013e+04 +/- 0.000000e+00) [K]
    Coulombic Fourier/kʙ   -1.652375e+04 (-1.619046e+04 +/- 0.000000e+00) [K]
    Molecule Intra/kʙ       0.000000e+00 ( 0.000000e+00 +/- 0.000000e+00) [K]

Current cycle: 1300 out of 5000
===============================================================================

Box:      23.48690   0.00000   0.00000  Average:  23.59648   0.00000   0.00000
           0.00000  23.48690   0.00000             0.00000  23.59648   0.00000
           0.00000   0.00000  23.48690             0.00000   0.00000  23.59648
Lengths:  23.48690  23.48690  23.48690  Average:  23.59648  23.59648  23.59648
Angles:   90.00000  90.00000  90.00000  Average:  90.00000  90.00000  90.00000
Rectangular boundary conditions

net charge:   0.00000000

component 0 (CO2) lambda:  0 occupancy:  1 (1.000000)
    net charge:   0.00000000 [e]

Amount of molecules per component :
-------------------------------------------------------------------------------
Component 0 (CO2)
    molecules:      2.000000e+02 molecules  (2.000000e+02 +/- 0.000000e+00)
    number density: 1.543665e-02 molec./A^3 (1.522810e-02 +/- 0.000000e+00)
    density:        1.127828e+03 kg/m^3     (1.112591e+03 +/- 0.000000e+00)

Average pressure tensor: 
-------------------------------------------------------------------------------
 1.8448e+02  4.1582e+00  2.2972e+01 +/- 0.0000e+00 0.0000e+00 0.0000e+00 [bar]
 4.1582e+00  1.6727e+02  8.1742e+01 +/- 0.0000e+00 0.0000e+00 0.0000e+00 [bar]
 2.2972e+01  8.1742e+01  1.7943e+02 +/- 0.0000e+00 0.0000e+00 0.0000e+00 [bar]
Ideal-gas pressure:   5.256171e+02 +/ 0.000000e+00 [bar]
Excess pressure:     -3.485577e+02 +/ 0.000000e+00 [bar]
Pressure:             1.770594e+02 +/ 0.000000e+00 [bar]

Total potential energy/kʙ  -3.193983e+05 (-3.220377e+05 +/- 0.000000e+00) [K]
-------------------------------------------------------------------------------
ExternalField-molecule
    Van der Waals/kʙ        0.000000e+00 ( 0.000000e+00 +/- 0.000000e+00) [K]
Framework-molecule
    Van der Waals/kʙ        0.000000e+00 ( 0.000000e+00 +/- 0.000000e+00) [K]
    Van der Waals (Tail)/kʙ 0.000000e+00 ( 0.000000e+00 +/- 0.000000e+00) [K]
    Coulombic Real/kʙ       0.000000e+00 ( 0.000000e+00 +/- 0.000000e+00) [K]
    Coulombic Fourier/kʙ    0.000000e+00 ( 0.000000e+00 +/- 0.000000e+00) [K]
Molecule-molecule
    Van der Waals/kʙ       -2.268935e+05 (-2.286019e+05 +/- 0.000000e+00) [K]
    Van der Waals (Tail)/kʙ-9.905852e+03 (-9.771031e+03 +/- 0.000000e+00) [K]
    Coulombic Real/kʙ      -6.647532e+04 (-6.752685e+04 +/- 0.000000e+00) [K]
    Coulombic Fourier/kʙ   -1.612366e+04 (-1.613788e+04 +/- 0.000000e+00) [K]
    Molecule Intra/kʙ       0.000000e+00 ( 0.000000e+00 +/- 0.000000e+00) [K]

Current cycle: 1400 out of 5000
===============================================================================

Box:      23.58849   0.00000   0.00000  Average:  23.59598   0.00000   0.00000
           0.00000  23.58849   0.00000             0.00000  23.59598   0.00000
           0.00000   0.00000  23.58849             0.00000   0.00000  23.59598
Lengths:  23.58849  23.58849  23.58849  Average:  23.59598  23.59598  23.59598
Angles:   90.00000  90.00000  90.00000  Average:  90.00000  90.00000  90.00000
Rectangular boundary conditions

net charge:   0.00000000

component 0 (CO2) lambda:  0 occupancy:  1 (1.000000)
    net charge:   0.00000000 [e]

Amount of molecules per component :
-------------------------------------------------------------------------------
Component 0 (CO2)
    molecules:      2.000000e+02 molecules  (2.000000e+02 +/- 0.000000e+00)
    number density: 1.523805e-02 molec./A^3 (1.522873e-02 +/- 0.000000e+00)
    density:        1.113318e+03 kg/m^3     (1.112637e+03 +/- 0.000000e+00)

Average pressure tensor: 
-------------------------------------------------------------------------------
 1.8405e+02  9.6965e+00  2.7860e+01 +/- 0.0000e+00 0.0000e+00 0.0000e+00 [bar]
 9.6965e+00  1.4832e+02  8.2023e+01 +/- 0.0000e+00 0.0000e+00 0.0000e+00 [bar]
 2.7860e+01  8.2023e+01  1.9607e+02 +/- 0.0000e+00 0.0000e+00 0.0000e+00 [bar]
Ideal-gas pressure:   5.256388e+02 +/ 0.000000e+00 [bar]
Excess pressure:     -3.494937e+02 +/ 0.000000e+00 [bar]
Pressure:             1.761451e+02 +/ 0.000000e+00 [bar]

Total potential energy/kʙ  -3.235226e+05 (-3.218673e+05 +/- 0.000000e+00) [K]
-------------------------------------------------------------------------------
ExternalField-molecule
    Van der Waals/kʙ        0.000000e+00 ( 0.000000e+00 +/- 0.000000e+00) [K]
Framework-molecule
    Van der Waals/kʙ        0.000000e+00 ( 0.000000e+00 +/- 0.000000e+00) [K]
    Van der Waals (Tail)/kʙ 0.000000e+00 ( 0.000000e+00 +/- 0.000000e+00) [K]
    Coulombic Real/kʙ       0.000000e+00 ( 0.000000e+00 +/- 0.000000e+00) [K]
    Coulombic Fourier/kʙ    0.000000e+00 ( 0.000000e+00 +/- 0.000000e+00) [K]
Molecule-molecule
    Van der Waals/kʙ       -2.302559e+05 (-2.285936e+05 +/- 0.000000e+00) [K]
    Van der Waals (Tail)/kʙ-9.778406e+03 (-9.770120e+03 +/- 0.000000e+00) [K]
    Coulombic Real/kʙ      -6.768791e+04 (-6.738384e+04 +/- 0.000000e+00) [K]
    Coulombic Fourier/kʙ   -1.580036e+04 (-1.611979e+04 +/- 0.000000e+00) [K]
    Molecule Intra/kʙ       0.000000e+00 ( 0.000000e+00 +/- 0.000000e+00) [K]

Current cycle: 1500 out of 5000
===============================================================================

Box:      23.67941   0.00000   0.00000  Average:  23.59630   0.00000   0.00000
           0.00000  23.67941   0.00000             0.00000  23.59630   0.00000
           0.00000   0.00000  23.67941             0.00000   0.00000  23.59630
Lengths:  23.67941  23.67941  23.67941  Average:  23.59630  23.59630  23.59630
Angles:   90.00000  90.00000  90.00000  Average:  90.00000  90.00000  90.00000
Rectangular boundary conditions

net charge:   0.00000000

component 0 (CO2) lambda:  0 occupancy:  1 (1.000000)
    net charge:   0.00000000 [e]

Amount of molecules per component :
-------------------------------------------------------------------------------
Component 0 (CO2)
    molecules:      2.000000e+02 molecules  (2.000000e+02 +/- 0.000000e+00)
    number density: 1.506320e-02 molec./A^3 (1.522793e-02 +/- 0.000000e+00)
    density:        1.100543e+03 kg/m^3     (1.112578e+03 +/- 0.000000e+00)

Average pressure tensor: 
-------------------------------------------------------------------------------
 2.0393e+02  2.1136e+01  1.9995e+01 +/- 0.0000e+00 0.0000e+00 0.0000e+00 [bar]
 2.1136e+01  1.4014e+02  6.5570e+01 +/- 0.0000e+00 0.0000e+00 0.0000e+00 [bar]
 1.9995e+01  6.5570e+01  2.2458e+02 +/- 0.0000e+00 0.0000e+00 0.0000e+00 [bar]
Ideal-gas pressure:   5.256111e+02 +/ 0.000000e+00 [bar]
Excess pressure:     -3.360633e+02 +/ 0.000000e+00 [bar]
Pressure:             1.895478e+02 +/ 0.000000e+00 [bar]

Total potential energy/kʙ  -3.167278e+05 (-3.217786e+05 +/- 0.000000e+00) [K]
-------------------------------------------------------------------------------
ExternalField-molecule
    Van der Waals/kʙ        0.000000e+00 ( 0.000000e+00 +/- 0.000000e+00) [K]
Framework-molecule
    Van der Waals/kʙ        0.000000e+00 ( 0.000000e+00 +/- 0.000000e+00) [K]
    Van der Waals (Tail)/kʙ 0.000000e+00 ( 0.000000e+00 +/- 0.000000e+00) [K]
    Coulombic Real/kʙ       0.000000e+00 ( 0.000000e+00 +/- 0.000000e+00) [K]
    Coulombic Fourier/kʙ    0.000000e+00 ( 0.000000e+00 +/- 0.000000e+00) [K]
Molecule-molecule
    Van der Waals/kʙ       -2.265772e+05 (-2.285503e+05 +/- 0.000000e+00) [K]
    Van der Waals (Tail)/kʙ-9.666204e+03 (-9.771234e+03 +/- 0.000000e+00) [K]
    Coulombic Real/kʙ      -6.502096e+04 (-6.737939e+04 +/- 0.000000e+00) [K]
    Coulombic Fourier/kʙ   -1.546339e+04 (-1.607773e+04 +/- 0.000000e+00) [K]
    Molecule Intra/kʙ       0.000000e+00 ( 0.000000e+00 +/- 0.000000e+00) [K]

Current cycle: 1600 out of 5000
===============================================================================

Box:      23.27882   0.00000   0.00000  Average:  23.59069   0.00000   0.00000
           0.00000  23.27882   0.00000             0.00000  23.59069   0.00000
           0.00000   0.00000  23.27882             0.00000   0.00000  23.59069
Lengths:  23.27882  23.27882  23.27882  Average:  23.59069  23.59069  23.59069
Angles:   90.00000  90.00000  90.00000  Average:  90.00000  90.00000  90.00000
Rectangular boundary conditions

net charge:   0.00000000

component 0 (CO2) lambda:  0 occupancy:  1 (1.000000)
    net charge:   0.00000000 [e]

Amount of molecules per component :
-------------------------------------------------------------------------------
Component 0 (CO2)
    molecules:      2.000000e+02 molecules  (2.000000e+02 +/- 0.000000e+00)
    number density: 1.585430e-02 molec./A^3 (1.523870e-02 +/- 0.000000e+00)
    density:        1.158342e+03 kg/m^3     (1.113366e+03 +/- 0.000000e+00)

Average pressure tensor: 
-------------------------------------------------------------------------------
 2.0115e+02  2.5422e+01  2.3064e+01 +/- 0.0000e+00 0.0000e+00 0.0000e+00 [bar]
 2.5422e+01  1.4479e+02  5.9449e+01 +/- 0.0000e+00 0.0000e+00 0.0000e+00 [bar]
 2.3064e+01  5.9449e+01  2.3851e+02 +/- 0.0000e+00 0.0000e+00 0.0000e+00 [bar]
Ideal-gas pressure:   5.259830e+02 +/ 0.000000e+00 [bar]
Excess pressure:     -3.311683e+02 +/ 0.000000e+00 [bar]
Pressure:             1.948147e+02 +/ 0.000000e+00 [bar]

Total potential energy/kʙ  -3.322624e+05 (-3.219334e+05 +/- 0.000000e+00) [K]
-------------------------------------------------------------------------------
ExternalField-molecule
    Van der Waals/kʙ        0.000000e+00 ( 0.000000e+00 +/- 0.000000e+00) [K]
Framework-molecule
    Van der Waals/kʙ        0.000000e+00 ( 0.000000e+00 +/- 0.000000e+00) [K]
    Van der Waals (Tail)/kʙ 0.000000e+00 ( 0.000000e+00 +/- 0.000000e+00) [K]
    Coulombic Real/kʙ       0.000000e+00 ( 0.000000e+00 +/- 0.000000e+00) [K]
    Coulombic Fourier/kʙ    0.000000e+00 ( 0.000000e+00 +/- 0.000000e+00) [K]
Molecule-molecule
    Van der Waals/kʙ       -2.377877e+05 (-2.288087e+05 +/- 0.000000e+00) [K]
    Van der Waals (Tail)/kʙ-1.017386e+04 (-9.779771e+03 +/- 0.000000e+00) [K]
    Coulombic Real/kʙ      -6.886180e+04 (-6.728175e+04 +/- 0.000000e+00) [K]
    Coulombic Fourier/kʙ   -1.543904e+04 (-1.606318e+04 +/- 0.000000e+00) [K]
    Molecule Intra/kʙ       0.000000e+00 ( 0.000000e+00 +/- 0.000000e+00) [K]

Current cycle: 1700 out of 5000
===============================================================================

Box:      23.67689   0.00000   0.00000  Average:  23.58768   0.00000   0.00000
           0.00000  23.67689   0.00000             0.00000  23.58768   0.00000
           0.00000   0.00000  23.67689             0.00000   0.00000  23.58768
Lengths:  23.67689  23.67689  23.67689  Average:  23.58768  23.58768  23.58768
Angles:   90.00000  90.00000  90.00000  Average:  90.00000  90.00000  90.00000
Rectangular boundary conditions

net charge:   0.00000000

component 0 (CO2) lambda:  0 occupancy:  1 (1.000000)
    net charge:   0.00000000 [e]

Amount of molecules per component :
-------------------------------------------------------------------------------
Component 0 (CO2)
    molecules:      2.000000e+02 molecules  (2.000000e+02 +/- 0.000000e+00)
    number density: 1.506801e-02 molec./A^3 (1.524448e-02 +/- 0.000000e+00)
    density:        1.100895e+03 kg/m^3     (1.113788e+03 +/- 0.000000e+00)

Average pressure tensor: 
-------------------------------------------------------------------------------
 1.9159e+02  2.6665e+01  2.4436e+01 +/- 0.0000e+00 0.0000e+00 0.0000e+00 [bar]
 2.6665e+01  1.7231e+02  4.8694e+01 +/- 0.0000e+00 0.0000e+00 0.0000e+00 [bar]
 2.4436e+01  4.8694e+01  2.3645e+02 +/- 0.0000e+00 0.0000e+00 0.0000e+00 [bar]
Ideal-gas pressure:   5.261823e+02 +/ 0.000000e+00 [bar]
Excess pressure:     -3.260640e+02 +/ 0.000000e+00 [bar]
Pressure:             2.001182e+02 +/ 0.000000e+00 [bar]

Total potential energy/kʙ  -3.111781e+05 (-3.218187e+05 +/- 0.000000e+00) [K]
-------------------------------------------------------------------------------
ExternalField-molecule
    Van der Waals/kʙ        0.000000e+00 ( 0.000000e+00 +/- 0.000000e+00) [K]
Framework-molecule
    Van der Waals/kʙ        0.000000e+00 ( 0.000000e+00 +/- 0.000000e+00) [K]
    Van der Waals (Tail)/kʙ 0.000000e+00 ( 0.000000e+00 +/- 0.000000e+00) [K]
    Coulombic Real/kʙ       0.000000e+00 ( 0.000000e+00 +/- 0.000000e+00) [K]
    Coulombic Fourier/kʙ    0.000000e+00 ( 0.000000e+00 +/- 0.000000e+00) [K]
Molecule-molecule
    Van der Waals/kʙ       -2.214371e+05 (-2.289047e+05 +/- 0.000000e+00) [K]
    Van der Waals (Tail)/kʙ-9.669290e+03 (-9.782890e+03 +/- 0.000000e+00) [K]
    Coulombic Real/kʙ      -6.452571e+04 (-6.712080e+04 +/- 0.000000e+00) [K]
    Coulombic Fourier/kʙ   -1.554604e+04 (-1.601033e+04 +/- 0.000000e+00) [K]
    Molecule Intra/kʙ       0.000000e+00 ( 0.000000e+00 +/- 0.000000e+00) [K]

Current cycle: 1800 out of 5000
===============================================================================

Box:      23.59563   0.00000   0.00000  Average:  23.58955   0.00000   0.00000
           0.00000  23.59563   0.00000             0.00000  23.58955   0.00000
           0.00000   0.00000  23.59563             0.00000   0.00000  23.58955
Lengths:  23.59563  23.59563  23.59563  Average:  23.58955  23.58955  23.58955
Angles:   90.00000  90.00000  90.00000  Average:  90.00000  90.00000  90.00000
Rectangular boundary conditions

net charge:   0.00000000

component 0 (CO2) lambda:  0 occupancy:  1 (1.000000)
    net charge:   0.00000000 [e]

Amount of molecules per component :
-------------------------------------------------------------------------------
Component 0 (CO2)
    molecules:      2.000000e+02 molecules  (2.000000e+02 +/- 0.000000e+00)
    number density: 1.522422e-02 molec./A^3 (1.524071e-02 +/- 0.000000e+00)
    density:        1.112308e+03 kg/m^3     (1.113512e+03 +/- 0.000000e+00)

Average pressure tensor: 
-------------------------------------------------------------------------------
 1.8488e+02  2.4229e+01  2.4549e+01 +/- 0.0000e+00 0.0000e+00 0.0000e+00 [bar]
 2.4229e+01  1.8477e+02  3.6548e+01 +/- 0.0000e+00 0.0000e+00 0.0000e+00 [bar]
 2.4549e+01  3.6548e+01  2.4965e+02 +/- 0.0000e+00 0.0000e+00 0.0000e+00 [bar]
Ideal-gas pressure:   5.260523e+02 +/ 0.000000e+00 [bar]
Excess pressure:     -3.196205e+02 +/ 0.000000e+00 [bar]
Pressure:             2.064318e+02 +/ 0.000000e+00 [bar]

Total potential energy/kʙ  -3.318590e+05 (-3.216999e+05 +/- 0.000000e+00) [K]
-------------------------------------------------------------------------------
ExternalField-molecule
    Van der Waals/kʙ        0.000000e+00 ( 0.000000e+00 +/- 0.000000e+00) [K]
Framework-molecule
    Van der Waals/kʙ        0.000000e+00 ( 0.000000e+00 +/- 0.000000e+00) [K]
    Van der Waals (Tail)/kʙ 0.000000e+00 ( 0.000000e+00 +/- 0.000000e+00) [K]
    Coulombic Real/kʙ       0.000000e+00 ( 0.000000e+00 +/- 0.000000e+00) [K]
    Coulombic Fourier/kʙ    0.000000e+00 ( 0.000000e+00 +/- 0.000000e+00) [K]
Molecule-molecule
    Van der Waals/kʙ       -2.326518e+05 (-2.288836e+05 +/- 0.000000e+00) [K]
    Van der Waals (Tail)/kʙ-9.769532e+03 (-9.780546e+03 +/- 0.000000e+00) [K]
    Coulombic Real/kʙ      -7.333563e+04 (-6.706938e+04 +/- 0.000000e+00) [K]
    Coulombic Fourier/kʙ   -1.610200e+04 (-1.596635e+04 +/- 0.000000e+00) [K]
    Molecule Intra/kʙ       0.000000e+00 ( 0.000000e+00 +/- 0.000000e+00) [K]

Current cycle: 1900 out of 5000
===============================================================================

Box:      23.69529   0.00000   0.00000  Average:  23.58835   0.00000   0.00000
           0.00000  23.69529   0.00000             0.00000  23.58835   0.00000
           0.00000   0.00000  23.69529             0.00000   0.00000  23.58835
Lengths:  23.69529  23.69529  23.69529  Average:  23.58835  23.58835  23.58835
Angles:   90.00000  90.00000  90.00000  Average:  90.00000  90.00000  90.00000
Rectangular boundary conditions

net charge:   0.00000000

component 0 (CO2) lambda:  0 occupancy:  1 (1.000000)
    net charge:   0.00000000 [e]

Amount of molecules per component :
-------------------------------------------------------------------------------
Component 0 (CO2)
    molecules:      2.000000e+02 molecules  (2.000000e+02 +/- 0.000000e+00)
    number density: 1.503294e-02 molec./A^3 (1.524283e-02 +/- 0.000000e+00)
    density:        1.098333e+03 kg/m^3     (1.113667e+03 +/- 0.000000e+00)

Average pressure tensor: 
-------------------------------------------------------------------------------
 1.7845e+02  2.9210e+01  2.1660e+01 +/- 0.0000e+00 0.0000e+00 0.0000e+00 [bar]
 2.9210e+01  1.8284e+02  3.8375e+01 +/- 0.0000e+00 0.0000e+00 0.0000e+00 [bar]
 2.1660e+01  3.8375e+01  2.6155e+02 +/- 0.0000e+00 0.0000e+00 0.0000e+00 [bar]
Ideal-gas pressure:   5.261255e+02 +/ 0.000000e+00 [bar]
Excess pressure:     -3.185116e+02 +/ 0.000000e+00 [bar]
Pressure:             2.076140e+02 +/ 0.000000e+00 [bar]

Total potential energy/kʙ  -3.200070e+05 (-3.218868e+05 +/- 0.000000e+00) [K]
-------------------------------------------------------------------------------
ExternalField-molecule
    Van der Waals/kʙ        0.000000e+00 ( 0.000000e+00 +/- 0.000000e+00) [K]
Framework-molecule
    Van der Waals/kʙ        0.000000e+00 ( 0.000000e+00 +/- 0.000000e+00) [K]
    Van der Waals (Tail)/kʙ 0.000000e+00 ( 0.000000e+00 +/- 0.000000e+00) [K]
    Coulombic Real/kʙ       0.000000e+00 ( 0.000000e+00 +/- 0.000000e+00) [K]
    Coulombic Fourier/kʙ    0.000000e+00 ( 0.000000e+00 +/- 0.000000e+00) [K]
Molecule-molecule
    Van der Waals/kʙ       -2.296445e+05 (-2.288777e+05 +/- 0.000000e+00) [K]
    Van der Waals (Tail)/kʙ-9.646788e+03 (-9.782198e+03 +/- 0.000000e+00) [K]
    Coulombic Real/kʙ      -6.414623e+04 (-6.721644e+04 +/- 0.000000e+00) [K]
    Coulombic Fourier/kʙ   -1.656947e+04 (-1.601048e+04 +/- 0.000000e+00) [K]
    Molecule Intra/kʙ       0.000000e+00 ( 0.000000e+00 +/- 0.000000e+00) [K]

Current cycle: 2000 out of 5000
===============================================================================

Box:      23.74767   0.00000   0.00000  Average:  23.59353   0.00000   0.00000
           0.00000  23.74767   0.00000             0.00000  23.59353   0.00000
           0.00000   0.00000  23.74767             0.00000   0.00000  23.59353
Lengths:  23.74767  23.74767  23.74767  Average:  23.59353  23.59353  23.59353
Angles:   90.00000  90.00000  90.00000  Average:  90.00000  90.00000  90.00000
Rectangular boundary conditions

net charge:   0.00000000

component 0 (CO2) lambda:  0 occupancy:  1 (1.000000)
    net charge:   0.00000000 [e]

Amount of molecules per component :
-------------------------------------------------------------------------------
Component 0 (CO2)
    molecules:      2.000000e+02 molecules  (2.000000e+02 +/- 0.000000e+00)
    number density: 1.493369e-02 molec./A^3 (1.523272e-02 +/- 0.000000e+00)
    density:        1.091081e+03 kg/m^3     (1.112928e+03 +/- 0.000000e+00)

Average pressure tensor: 
-------------------------------------------------------------------------------
 1.7130e+02  2.7763e+01  1.1936e+01 +/- 0.0000e+00 0.0000e+00 0.0000e+00 [bar]
 2.7763e+01  1.8223e+02  3.4666e+01 +/- 0.0000e+00 0.0000e+00 0.0000e+00 [bar]
 1.1936e+01  3.4666e+01  2.7306e+02 +/- 0.0000e+00 0.0000e+00 0.0000e+00 [bar]
Ideal-gas pressure:   5.257764e+02 +/ 0.000000e+00 [bar]
Excess pressure:     -3.169132e+02 +/ 0.000000e+00 [bar]
Pressure:             2.088632e+02 +/ 0.000000e+00 [bar]

Total potential energy/kʙ  -3.123814e+05 (-3.216709e+05 +/- 0.000000e+00) [K]
-------------------------------------------------------------------------------
ExternalField-molecule
    Van der Waals/kʙ        0.000000e+00 ( 0.000000e+00 +/- 0.000000e+00) [K]
Framework-molecule
    Van der Waals/kʙ        0.000000e+00 ( 0.000000e+00 +/- 0.000000e+00) [K]
    Van der Waals (Tail)/kʙ 0.000000e+00 ( 0.000000e+00 +/- 0.000000e+00) [K]
    Coulombic Real/kʙ       0.000000e+00 ( 0.000000e+00 +/- 0.000000e+00) [K]
    Coulombic Fourier/kʙ    0.000000e+00 ( 0.000000e+00 +/- 0.000000e+00) [K]
Molecule-molecule
    Van der Waals/kʙ       -2.229087e+05 (-2.286472e+05 +/- 0.000000e+00) [K]
    Van der Waals (Tail)/kʙ-9.583093e+03 (-9.776023e+03 +/- 0.000000e+00) [K]
    Coulombic Real/kʙ      -6.417120e+04 (-6.721953e+04 +/- 0.000000e+00) [K]
    Coulombic Fourier/kʙ   -1.571834e+04 (-1.602814e+04 +/- 0.000000e+00) [K]
    Molecule Intra/kʙ       0.000000e+00 ( 0.000000e+00 +/- 0.000000e+00) [K]

Current cycle: 2100 out of 5000
===============================================================================

Box:      23.63615   0.00000   0.00000  Average:  23.59714   0.00000   0.00000
           0.00000  23.63615   0.00000             0.00000  23.59714   0.00000
           0.00000   0.00000  23.63615             0.00000   0.00000  23.59714
Lengths:  23.63615  23.63615  23.63615  Average:  23.59714  23.59714  23.59714
Angles:   90.00000  90.00000  90.00000  Average:  90.00000  90.00000  90.00000
Rectangular boundary conditions

net charge:   0.00000000

component 0 (CO2) lambda:  0 occupancy:  1 (1.000000)
    net charge:   0.00000000 [e]

Amount of molecules per component :
-------------------------------------------------------------------------------
Component 0 (CO2)
    molecules:      2.000000e+02 molecules  (2.000000e+02 +/- 0.000000e+00)
    number density: 1.514606e-02 molec./A^3 (1.522565e-02 +/- 0.000000e+00)
    density:        1.106597e+03 kg/m^3     (1.112412e+03 +/- 0.000000e+00)

Average pressure tensor: 
-------------------------------------------------------------------------------
 1.7276e+02  2.1599e+01  9.6139e+00 +/- 0.0000e+00 0.0000e+00 0.0000e+00 [bar]
 2.1599e+01  1.7841e+02  2.8799e+01 +/- 0.0000e+00 0.0000e+00 0.0000e+00 [bar]
 9.6139e+00  2.8799e+01  2.7481e+02 +/- 0.0000e+00 0.0000e+00 0.0000e+00 [bar]
Ideal-gas pressure:   5.255324e+02 +/ 0.000000e+00 [bar]
Excess pressure:     -3.168722e+02 +/ 0.000000e+00 [bar]
Pressure:             2.086602e+02 +/ 0.000000e+00 [bar]

Total potential energy/kʙ  -3.125186e+05 (-3.214756e+05 +/- 0.000000e+00) [K]
-------------------------------------------------------------------------------
ExternalField-molecule
    Van der Waals/kʙ        0.000000e+00 ( 0.000000e+00 +/- 0.000000e+00) [K]
Framework-molecule
    Van der Waals/kʙ        0.000000e+00 ( 0.000000e+00 +/- 0.000000e+00) [K]
    Van der Waals (Tail)/kʙ 0.000000e+00 ( 0.000000e+00 +/- 0.000000e+00) [K]
[...]
    Coulombic Fourier/kʙ    0.000000e+00 ( 0.000000e+00 +/- 0.000000e+00) [K]
Molecule-molecule
    Van der Waals/kʙ       -2.316486e+05 (-2.257953e+05 +/- 3.775877e+03) [K]
    Van der Waals (Tail)/kʙ-9.963902e+03 (-9.666688e+03 +/- 1.443720e+02) [K]
    Coulombic Real/kʙ      -7.379304e+04 (-6.613432e+04 +/- 1.636272e+03) [K]
    Coulombic Fourier/kʙ   -1.685693e+04 (-1.585337e+04 +/- 4.543748e+02) [K]
    Molecule Intra/kʙ       0.000000e+00 ( 0.000000e+00 +/- 0.000000e+00) [K]

Current cycle: 4700 out of 5000
===============================================================================

Box:      23.54588   0.00000   0.00000  Average:  23.67738   0.00000   0.00000
           0.00000  23.54588   0.00000             0.00000  23.67738   0.00000
           0.00000   0.00000  23.54588             0.00000   0.00000  23.67738
Lengths:  23.54588  23.54588  23.54588  Average:  23.67738  23.67738  23.67738
Angles:   90.00000  90.00000  90.00000  Average:  90.00000  90.00000  90.00000
Rectangular boundary conditions

net charge:   0.00000000

component 0 (CO2) lambda:  0 occupancy:  1 (1.000000)
    net charge:   0.00000000 [e]

Amount of molecules per component :
-------------------------------------------------------------------------------
Component 0 (CO2)
    molecules:      2.000000e+02 molecules  (2.000000e+02 +/- 0.000000e+00)
    number density: 1.532094e-02 molec./A^3 (1.507182e-02 +/- 2.212884e-04)
    density:        1.119374e+03 kg/m^3     (1.101173e+03 +/- 1.616771e+01)

Average pressure tensor: 
-------------------------------------------------------------------------------
 1.9112e+02  4.2363e+00  2.1414e+01 +/- 3.9886e+01 5.9003e+01 8.0635e+01 [bar]
 4.2363e+00  2.1788e+02 -1.2950e+01 +/- 5.9003e+01 6.7715e+01 8.5285e+01 [bar]
 2.1414e+01 -1.2950e+01  2.2728e+02 +/- 8.0635e+01 8.5285e+01 1.2862e+02 [bar]
Ideal-gas pressure:   5.202229e+02 +/ 7.638049e+00 [bar]
Excess pressure:     -3.081275e+02 +/ 4.093310e+01 [bar]
Pressure:             2.120954e+02 +/ 4.143506e+01 [bar]

Total potential energy/kʙ  -3.233907e+05 (-3.176590e+05 +/- 5.991031e+03) [K]
-------------------------------------------------------------------------------
ExternalField-molecule
    Van der Waals/kʙ        0.000000e+00 ( 0.000000e+00 +/- 0.000000e+00) [K]
Framework-molecule
    Van der Waals/kʙ        0.000000e+00 ( 0.000000e+00 +/- 0.000000e+00) [K]
    Van der Waals (Tail)/kʙ 0.000000e+00 ( 0.000000e+00 +/- 0.000000e+00) [K]
    Coulombic Real/kʙ       0.000000e+00 ( 0.000000e+00 +/- 0.000000e+00) [K]
    Coulombic Fourier/kʙ    0.000000e+00 ( 0.000000e+00 +/- 0.000000e+00) [K]
Molecule-molecule
    Van der Waals/kʙ       -2.278900e+05 (-2.258959e+05 +/- 3.829977e+03) [K]
    Van der Waals (Tail)/kʙ-9.831599e+03 (-9.671342e+03 +/- 1.466963e+02) [K]
    Coulombic Real/kʙ      -6.952661e+04 (-6.622966e+04 +/- 1.744688e+03) [K]
    Coulombic Fourier/kʙ   -1.614244e+04 (-1.586202e+04 +/- 4.511572e+02) [K]
    Molecule Intra/kʙ       0.000000e+00 ( 0.000000e+00 +/- 0.000000e+00) [K]

Current cycle: 4800 out of 5000
===============================================================================

Box:      23.44021   0.00000   0.00000  Average:  23.67549   0.00000   0.00000
           0.00000  23.44021   0.00000             0.00000  23.67549   0.00000
           0.00000   0.00000  23.44021             0.00000   0.00000  23.67549
Lengths:  23.44021  23.44021  23.44021  Average:  23.67549  23.67549  23.67549
Angles:   90.00000  90.00000  90.00000  Average:  90.00000  90.00000  90.00000
Rectangular boundary conditions

net charge:   0.00000000

component 0 (CO2) lambda:  0 occupancy:  1 (1.000000)
    net charge:   0.00000000 [e]

Amount of molecules per component :
-------------------------------------------------------------------------------
Component 0 (CO2)
    molecules:      2.000000e+02 molecules  (2.000000e+02 +/- 0.000000e+00)
    number density: 1.552907e-02 molec./A^3 (1.507540e-02 +/- 2.227921e-04)
    density:        1.134580e+03 kg/m^3     (1.101434e+03 +/- 1.627757e+01)

Average pressure tensor: 
-------------------------------------------------------------------------------
 1.9252e+02  7.5103e+00  2.1968e+01 +/- 4.0527e+01 4.4986e+01 7.4698e+01 [bar]
 7.5103e+00  2.1758e+02 -8.6844e+00 +/- 4.4986e+01 6.4159e+01 8.9234e+01 [bar]
 2.1968e+01 -8.6844e+00  2.2886e+02 +/- 7.4698e+01 8.9234e+01 1.2430e+02 [bar]
Ideal-gas pressure:   5.203464e+02 +/ 7.689949e+00 [bar]
Excess pressure:     -3.073582e+02 +/ 4.127726e+01 [bar]
Pressure:             2.129882e+02 +/ 4.189980e+01 [bar]

Total potential energy/kʙ  -3.138754e+05 (-3.177008e+05 +/- 5.969204e+03) [K]
-------------------------------------------------------------------------------
ExternalField-molecule
    Van der Waals/kʙ        0.000000e+00 ( 0.000000e+00 +/- 0.000000e+00) [K]
Framework-molecule
    Van der Waals/kʙ        0.000000e+00 ( 0.000000e+00 +/- 0.000000e+00) [K]
    Van der Waals (Tail)/kʙ 0.000000e+00 ( 0.000000e+00 +/- 0.000000e+00) [K]
    Coulombic Real/kʙ       0.000000e+00 ( 0.000000e+00 +/- 0.000000e+00) [K]
    Coulombic Fourier/kʙ    0.000000e+00 ( 0.000000e+00 +/- 0.000000e+00) [K]
Molecule-molecule
    Van der Waals/kʙ       -2.253136e+05 (-2.259167e+05 +/- 3.825532e+03) [K]
    Van der Waals (Tail)/kʙ-9.965154e+03 (-9.674251e+03 +/- 1.481200e+02) [K]
    Coulombic Real/kʙ      -6.240533e+04 (-6.623744e+04 +/- 1.719605e+03) [K]
    Coulombic Fourier/kʙ   -1.619132e+04 (-1.587242e+04 +/- 4.532989e+02) [K]
    Molecule Intra/kʙ       0.000000e+00 ( 0.000000e+00 +/- 0.000000e+00) [K]

Current cycle: 4900 out of 5000
===============================================================================

Box:      23.75786   0.00000   0.00000  Average:  23.67433   0.00000   0.00000
           0.00000  23.75786   0.00000             0.00000  23.67433   0.00000
           0.00000   0.00000  23.75786             0.00000   0.00000  23.67433
Lengths:  23.75786  23.75786  23.75786  Average:  23.67433  23.67433  23.67433
Angles:   90.00000  90.00000  90.00000  Average:  90.00000  90.00000  90.00000
Rectangular boundary conditions

net charge:   0.00000000

component 0 (CO2) lambda:  0 occupancy:  1 (1.000000)
    net charge:   0.00000000 [e]

Amount of molecules per component :
-------------------------------------------------------------------------------
Component 0 (CO2)
    molecules:      2.000000e+02 molecules  (2.000000e+02 +/- 0.000000e+00)
    number density: 1.491448e-02 molec./A^3 (1.507754e-02 +/- 2.231975e-04)
    density:        1.089677e+03 kg/m^3     (1.101591e+03 +/- 1.630719e+01)

Average pressure tensor: 
-------------------------------------------------------------------------------
 1.9617e+02  1.1874e+01  2.1526e+01 +/- 4.7481e+01 3.3571e+01 6.7577e+01 [bar]
 1.1874e+01  2.2171e+02 -8.5925e+00 +/- 3.3571e+01 6.9755e+01 8.8052e+01 [bar]
 2.1526e+01 -8.5925e+00  2.2575e+02 +/- 6.7577e+01 8.8052e+01 1.2624e+02 [bar]
Ideal-gas pressure:   5.204203e+02 +/ 7.703942e+00 [bar]
Excess pressure:     -3.058743e+02 +/ 4.220360e+01 [bar]
Pressure:             2.145460e+02 +/ 4.297799e+01 [bar]

Total potential energy/kʙ  -3.187517e+05 (-3.176947e+05 +/- 5.913153e+03) [K]
-------------------------------------------------------------------------------
ExternalField-molecule
    Van der Waals/kʙ        0.000000e+00 ( 0.000000e+00 +/- 0.000000e+00) [K]
Framework-molecule
    Van der Waals/kʙ        0.000000e+00 ( 0.000000e+00 +/- 0.000000e+00) [K]
    Van der Waals (Tail)/kʙ 0.000000e+00 ( 0.000000e+00 +/- 0.000000e+00) [K]
    Coulombic Real/kʙ       0.000000e+00 ( 0.000000e+00 +/- 0.000000e+00) [K]
    Coulombic Fourier/kʙ    0.000000e+00 ( 0.000000e+00 +/- 0.000000e+00) [K]
Molecule-molecule
    Van der Waals/kʙ       -2.274721e+05 (-2.259544e+05 +/- 3.833694e+03) [K]
    Van der Waals (Tail)/kʙ-9.570768e+03 (-9.675673e+03 +/- 1.483400e+02) [K]
    Coulombic Real/kʙ      -6.516442e+04 (-6.618586e+04 +/- 1.639942e+03) [K]
    Coulombic Fourier/kʙ   -1.654436e+04 (-1.587873e+04 +/- 4.481648e+02) [K]
    Molecule Intra/kʙ       0.000000e+00 ( 0.000000e+00 +/- 0.000000e+00) [K]


Energy statistics             |  Energy [K]   | Recomputed [K]|  Drift [K]    |
===============================================================================
Total potential energy/kʙ     | -3.116907e+05 | -3.116907e+05 |  1.010737e-09 |
    external field VDW/kʙ     |  0.000000e+00 |  0.000000e+00 |  0.000000e+00 |
    external field Real/kʙ    |  0.000000e+00 |  0.000000e+00 |  0.000000e+00 |
    framework-molecule VDW/kʙ |  0.000000e+00 |  0.000000e+00 |  0.000000e+00 |
    framework-molecule Real/kʙ|  0.000000e+00 |  0.000000e+00 |  0.000000e+00 |
    molecule-molecule VDW/kʙ  | -2.144094e+05 | -2.144094e+05 |  8.400932e-10 |
    molecule-molecule Real/kʙ | -7.104275e+04 | -7.104275e+04 |  2.625291e-10 |
    Van der Waals (Tail)/kʙ   | -9.361958e+03 | -9.361958e+03 |  0.000000e+00 |
    Ewald Fourier/kʙ          |  1.218514e+04 |  1.218514e+04 | -9.188519e-11 |
    Ewald self/kʙ             | -4.445846e+06 | -4.445846e+06 |  0.000000e+00 |
    Ewald exclusion/kʙ        |  4.416785e+06 |  4.416785e+06 |  0.000000e+00 |
    intra VDW/kʙ              |  0.000000e+00 |  0.000000e+00 |  0.000000e+00 |
    intra Coulombic/kʙ        |  0.000000e+00 |  0.000000e+00 |  0.000000e+00 |
    polarization/kʙ           |  0.000000e+00 |  0.000000e+00 |  0.000000e+00 |
    dU/dlambda VDW/kʙ         |  0.000000e+00 |  0.000000e+00 |  0.000000e+00 |
    dU/dlambda Real/kʙ        |  0.000000e+00 |  0.000000e+00 |  0.000000e+00 |
    dU/dlambda Ewald/kʙ       |  0.000000e+00 |  0.000000e+00 |  0.000000e+00 |
-------------------------------------------------------------------------------


Monte-Carlo moves statistics
===============================================================================

    Volume change        all:                6662
    Volume change        total:              6662
    Volume change        constructed:        6662
    Volume change        accepted:           1998
    Volume change        fraction:       0.299910
    Volume change        max-change:     0.050000

Component 0 [CO2]
    Reinsertion (CBMC)   all:              330335
    Reinsertion (CBMC)   total:            330335
    Reinsertion (CBMC)   constructed:      280699
    Reinsertion (CBMC)   accepted:           2608
    Reinsertion (CBMC)   fraction:       0.007895
    Reinsertion (CBMC)   max-change:     0.000000

    Translation          all:              331175
    Translation          total:            109889     110699     110587
    Translation          constructed:      109340     110698     110587
    Translation          accepted:          32606      48700      54859
    Translation          fraction:       0.296718   0.439932   0.496071
    Translation          max-change:     1.223529   0.761905   0.640000

    Rotation             all:              331828
    Rotation             total:            110310     110830     110688
    Rotation             constructed:      110310     110539     110639
    Rotation             accepted:          61005      35485      40575
    Rotation             fraction:       0.553032   0.320175   0.366571
    Rotation             max-change:     0.557276   1.258741   1.030303



Production run counting of the MC moves summed over systems and components
===============================================================================

Volume change                          6662 (0.6662 [%])
Reinsertion (CBMC)                   330335 (33.0335 [%])
Translation                          331175 (33.1175 [%])
Rotation                             331828 (33.1828 [%])

Production count MC-steps:          1000000 [-]
               All summed:          1000000 [-]
               difference:                0 [-]


Production run CPU timings of the MC moves
===============================================================================

Component 0 CO2

Rotation                             48.715195 [s]
    Ewald                            24.797593 [s]
    ExternalField-Molecule            0.011806 [s]
    Framework-Molecule                0.010520 [s]
    Molecule-Molecule                22.065682 [s]
    Overhead                          1.829594 [s]

Reinsertion (CBMC)                  166.372764 [s]
    Ewald                            21.105350 [s]
    NonEwald                        144.968680 [s]
    Overhead                          0.298734 [s]

Translation                          48.575382 [s]
    Ewald                            24.730398 [s]
    ExternalField-Molecule            0.011277 [s]
    Framework-Molecule                0.016307 [s]
    Molecule-Molecule                22.049173 [s]
    Overhead                          1.768227 [s]



Volume change                         42.101927 [s]
    Ewald                             18.342779 [s]
    NonEwald                          22.284722 [s]
    Tail                               1.255561 [s]

Property sampling                     0.287050 [s]
Energy/pressure sampling:             7.053320 [s]


Production run CPU timings of the MC moves summed over systems and components
===============================================================================


Translation                          48.575382 [s]
    Ewald                            24.730398 [s]
    ExternalField-Molecule            0.011277 [s]
    Framework-Molecule                0.016307 [s]
    Molecule-Molecule                22.049173 [s]
    Overhead                          1.768227 [s]

Rotation                             48.715195 [s]
    Ewald                            24.797593 [s]
    ExternalField-Molecule            0.011806 [s]
    Framework-Molecule                0.010520 [s]
    Molecule-Molecule                22.065682 [s]
    Overhead                          1.829594 [s]

Volume change                        42.101927 [s]
    Ewald                            18.342779 [s]
    NonEwald                         22.284722 [s]
    Tail                              1.255561 [s]
    Overhead                          0.218865 [s]

Reinsertion (CBMC)                  166.372764 [s]
    Ewald                            21.105350 [s]
    NonEwald                        144.968680 [s]
    Overhead                          0.298734 [s]

Property sampling:                    0.287050 [s]
Energy/pressure sampling:             7.053320 [s]

Production simulation time:         313.877902 [s]
                All summed:         313.105638 [s]
                  Overhead:           0.772264 [s]


Initalization simulation time:       60.318917 [s]
Equilibration simulation time:        0.000000 [s]
Production simulation time:         313.877902 [s]
Total simulation time:              374.196819 [s]


Energy averages and statistics:
===============================================================================

Framework-molecule energy:
-------------------------------------------------------------------------------



Framework-molecule energy contributions per energy type:
-------------------------------------------------------------------------------



Inter-molecular energy:
-------------------------------------------------------------------------------

    Inter-molecular energy/kʙ 0-0 [CO2-CO2]:
    ---------------------------------------------------------------------------
        Block[  0] -3.217716e+05
        Block[  1] -3.216631e+05
        Block[  2] -3.125539e+05
        Block[  3] -3.125870e+05
        Block[  4] -3.195187e+05
        -----------------------------------------------------------------------
        Average  -3.176189e+05 +/-  5.829062e+03 [K]



Inter-molecular energy contributions per energy type:
-------------------------------------------------------------------------------

    Van der Waals energy/kʙ 0-0 [CO2-CO2]:
    ---------------------------------------------------------------------------
        Block[  0] -2.284367e+05
        Block[  1] -2.289152e+05
        Block[  2] -2.223945e+05
        Block[  3] -2.229502e+05
        Block[  4] -2.267532e+05
        -----------------------------------------------------------------------
        Average  -2.258900e+05 +/-  3.788168e+03 [K]

    VDW Tail-Correction energy/kʙ 0-0 [CO2-CO2]:
    ---------------------------------------------------------------------------
        Block[  0] -9.749053e+03
        Block[  1] -9.804923e+03
        Block[  2] -9.536087e+03
        Block[  3] -9.563391e+03
        Block[  4] -9.710934e+03
        -----------------------------------------------------------------------
        Average  -9.672877e+03 +/-  1.460845e+02 [K]

    Coulomb Real energy/kʙ 0-0 [CO2-CO2]:
    ---------------------------------------------------------------------------
        Block[  0] -6.743851e+04
        Block[  1] -6.703103e+04
        Block[  2] -6.524094e+04
        Block[  3] -6.437470e+04
        Block[  4] -6.676809e+04
        -----------------------------------------------------------------------
        Average  -6.617065e+04 +/-  1.618011e+03 [K]

    Coulomb Fourier energy/kʙ 0-0 [CO2-CO2]:
    ---------------------------------------------------------------------------
        Block[  0] -1.614739e+04
        Block[  1] -1.591199e+04
        Block[  2] -1.538243e+04
        Block[  3] -1.569870e+04
        Block[  4] -1.628641e+04
        -----------------------------------------------------------------------
        Average  -1.588538e+04 +/-  4.467533e+02 [K]


Total energy/kʙ
-------------------------------------------------------------------------------
    Block[  0] -3.217716e+05
    Block[  1] -3.216631e+05
    Block[  2] -3.125539e+05
    Block[  3] -3.125870e+05
    Block[  4] -3.195187e+05
    ---------------------------------------------------------------------------
    Average  -3.176189e+05 +/-  5.829062e+03 [K]

Pressure averages and statistics:
===============================================================================

Average pressure tensor: 
-------------------------------------------------------------------------------
 1.9208e+02  1.1490e+01  2.1971e+01 +/- 3.3979e+01 3.3311e+01 6.4257e+01 [bar]
 1.1490e+01  2.1792e+02 -1.0680e+01 +/- 3.3311e+01 6.1149e+01 8.5308e+01 [bar]
 2.1971e+01 -1.0680e+01  2.2744e+02 +/- 6.4257e+01 8.5308e+01 1.2321e+02 [bar]

    Block[  0]  5.244407e+07
    Block[  1]  5.271225e+07
    Block[  2]  5.131685e+07
    Block[  3]  5.146180e+07
    Block[  4]  5.220856e+07
    ---------------------------------------------------------------------------
    Ideal gas pressure   5.202871e+07 +/-  4.578609e-02 [Pa]
                         5.202871e+02 +/-  7.602964e+00 [bar]


    Block[  0] -3.616060e+07
    Block[  1] -2.720609e+07
    Block[  2] -2.995136e+07
    Block[  3] -3.067356e+07
    Block[  4] -2.991319e+07
    ---------------------------------------------------------------------------
    Excess pressure  -3.078096e+07 +/-  4.078596e+06 [Pa]
                     -3.078096e+02 +/-  4.078596e+01 [bar]


    Block[  0]  1.628347e+07
    Block[  1]  2.550615e+07
    Block[  2]  2.136549e+07
    Block[  3]  2.078824e+07
    Block[  4]  2.229537e+07
    ---------------------------------------------------------------------------
    Pressure average   2.124775e+07 +/-  4.122176e+06 [Pa]
                       2.124775e+02 +/-  4.122176e+01 [bar]


Enthalpy of adsorption
===============================================================================

No fluctuating components present.


Densities
===============================================================================

Component 0 (CO2)
    Block[  0] 200
    Block[  1] 200
    Block[  2] 200
    Block[  3] 200
    Block[  4] 200
    -----------------------------------------------------------------------
    Density average   2.000000e+02 +/-  0.000000e+00 [molecules]
    Density average   1.507368e-02 +/-  2.202720e-04 [molec/A^3]
    Density average   1.101309e+03 +/-  1.609345e+01 [kg.m⁻³]

