Compiler and run-time data
===============================================================================
RASPA 3.0.4

Random seed: 1129889082

Compiled as a 64-bits application
Compiler: gcc Clang 18.1.8
Compile Date = Mar 15 2025, Compile Time = 19:38:51

2025-06-03 15:04:43.469312
Simulation started on Tue, Jun 03
The start time was 15:04:00

Hostname:    1NNMVV3
OS type:     Linux on x86_64
OS release:  5.15.167.4-microsoft-standard-WSL2
OS version:  #1 SMP Tue Nov 5 00:21:55 UTC 2024


Mutual consistent basic set of units:
===============================================================================

Unit of temperature: 1 [K]
Unit of length:      1e-10 [m]
Unit of time:        1e-12 [s]
Unit of mass:        1.6605402e-27 [kg]
Unit of charge:      1.60217733e-19 [C/particle]


Boltzmann constant (internal units):          0.8314464919307584 [-]
represents conversion from energy (internal units) to temperature (in Kelvin)

Derived units and their conversion factors:
===============================================================================

Unit of energy:                           1.6605402000000002e-23 [J]
Unit of energy:                           10.000008872307538 [J.mol⁻¹]
Unit of velocity:                         100 [m.s⁻¹]
Unit of force:                            1.6605402000000002e-13 [N]
Unit of diffusion:                        1.0000000000000002e-08 [m².s⁻¹]
Unit of acceleration:                     1.0000000000000002e-08 [m².s⁻¹]
Unit of torque:                           1.6605402000000002e-23 [N.m]
Unit of pressure:                         16605402 [Pa]
Unit of volume:                           1e-30 [m³]
Unit of density:                          1660.5402 [kg.m⁻³]
Unit of dynamic viscosity:                1.6605401999999997e-05 [N.s.m⁻²]
Unit of enthalpy:                         1.6605402000000002e-23 [J]
Unit of polarizability:                   1.5458657349975198e-35 [-]
Unit of Coulomb potential:                167101.08000665612 [K]
Unit of dielectric constant:              1.5458657349975193e-05 [s².C².kg⁻¹.m⁻³]
Unit of dipole moment:                    1.60217733e-29 [C.m]
Unit of Debye:                            4.803206799099162 [C.m]
Unit of electric potential:               0.00010364272224473431 [V]
Unit of electric field:                   1036427.222447343 [V.m⁻¹]
Unit of isothermal compressibility:       6.02213665167516e-08 [Pa⁻¹]
Unit of heat capacity:                    10.000008872307538 [J.mol⁻¹.K⁻¹]
Unit of volumetric expansion coefficient: 1 [K⁻¹]


Internal conversion factors:
===============================================================================

Energy (internal units) to Kelvin:      1.202724284692786 [-]
Kelvin to energy (internal units):      0.8314457542157567 [-]


System definitions
===============================================================================

Temperature:          250 [K]
Beta:                 0.0048108928702210625 [-]
Pressure:             2e+07 [Pa]
Helium void fraction: 1 [-]

Box:      30.00000   0.00000   0.00000
           0.00000  30.00000   0.00000
           0.00000   0.00000  30.00000
Lengths:  30.00000  30.00000  30.00000
Angles:   90.00000  90.00000  90.00000
Rectangular boundary conditions



Property measurement settings
===============================================================================




Pseudo-atoms
===============================================================================

  0 - C_co2    framework-atom: false
  1 - O_co2    framework-atom: false

  0 - C_co2    mass: 12.00000, charge:  0.70000
  1 - O_co2    mass: 15.99940, charge: -0.35000

  0 - C_co2    polarizability:  0.00000
  1 - O_co2    polarizability:  0.00000

  0 - J. J. Potoff et al., AIChE J. 2001, 47, 1676–1682.
  1 - J. J. Potoff et al., AIChE J. 2001, 47, 1676–1682.

Force field status
===============================================================================

Cutoff Framework-Molecule VDW:  10.00000 [Å]
Cutoff Molecule-Molecule VDW:   10.00000 [Å]
Cutoff Coulomb:                 10.00000 [Å]

Overlap-criteria VDW:           1.000000e+05 [K]

C_co2    - C_co2    Lennard-Jones p₀/kʙ:  27.00000 [K], p₁:  2.80000 [Å]
                                  shift:   0.00000 [K], tailcorrections: true
C_co2    - O_co2    Lennard-Jones p₀/kʙ:  46.18441 [K], p₁:  2.92500 [Å]
                                  shift:   0.00000 [K], tailcorrections: true
O_co2    - O_co2    Lennard-Jones p₀/kʙ:  79.00000 [K], p₁:  3.05000 [Å]
                                  shift:   0.00000 [K], tailcorrections: true

Ewald precision: 1e-06
Ewald alpha: 0.32079885109097883
Ewald k-vectors: 10 10 10


Component definitions
===============================================================================

Component 0 [CO2]

    Type: Adsorbate

    Critical temperature:  304.1282 [K]
    Critical pressure:     7377300 [Pa]
    Acentric factor:       0.22394 [-]

    Mol-fraction:                 1 [-]
    Swappable:                   false

    Mass:                         43.9988 [-]
    Bulk fluid density:           0 [-]
    Compressibility:              0 [-]
    Excess molecules:             0 [-]

    Number Of Atoms:    3
    CBMC starting bead: 0
      0: O_co2  position  0.00000 -0.00000  1.16000, charge -0.35000
      1: C_co2  position  0.00000 -0.00000  0.00000, charge  0.70000
      2: O_co2  position  0.00000 -0.00000 -1.16000, charge -0.35000
    Diagonalized inertia-vector:      43.05758528 43.05758528 0.00000000
    Translational degrees of freedom: 3
    Rotational degrees of freedom:    2
    Shape of the molecule is: 'Linear'
    Net-charge:        0.00000000 [e]

    Move probabilities:
    Translation:                   0.331126 [-]
    Random translation:            0.000000 [-]
    Rotation:                      0.331126 [-]
    Random rotation:               0.000000 [-]
    Volume change:                 0.006623 [-]
    Reinsertion (CBMC):            0.331126 [-]
    Identity change (CBMC):        0.000000 [-]
    Swap:                          0.000000 [-]
    Swap (CBMC):                   0.000000 [-]
    Swap (CFCMC):                  0.000000 [-]
    Swap (CB/CFCMC):               0.000000 [-]
    Gibbs volume:                  0.000000 [-]
    Gibbs swap (CBMC):             0.000000 [-]
    Gibbs swap (CFCMC):            0.000000 [-]
    Widom:                         0.000000 [-]
    Widom (CFCMC):                 0.000000 [-]
    Widom (CB/CFCMC):              0.000000 [-]
    Parallel tempering:            0.000000 [-]
    Hybrid MC:                     0.000000 [-]

    number of blocking-pockets: 0

    number of bonds: 0





Number of pseudo-atoms
===============================================================================

Component   0 (CO2)
-------------------------------------------------------------------------------
    index   0 (C_co2): 200 atoms
    index   1 (O_co2): 400 atoms

Total number of pseudo-atoms:
-------------------------------------------------------------------------------
    index   0 (C_co2): 200 atoms
    index   1 (O_co2): 400 atoms




Energy status Recomputed from scratch
===============================================================================

Total potential energy/kʙ       -9.448652e+04 [K]
    external field VDW/kʙ        0.000000e+00 [K]
    external field Real/kʙ       0.000000e+00 [K]
    framework-molecule VDW/kʙ    0.000000e+00 [K]
    framework-molecule Real/kʙ   0.000000e+00 [K]
    molecule-molecule VDW/kʙ    -7.357158e+04 [K]
    molecule-molecule Real/kʙ   -1.358810e+04 [K]
    Van der Waals (Tail)/kʙ     -4.753406e+03 [K]
    Ewald Fourier/kʙ             2.648827e+04 [K]
    Ewald self/kʙ               -4.445846e+06 [K]
    Ewald exclusion/kʙ           4.416785e+06 [K]
    intra VDW/kʙ                 0.000000e+00 [K]
    intra Coulombic/kʙ           0.000000e+00 [K]
    polarization/kʙ              0.000000e+00 [K]
    dU/dlambda VDW/kʙ            0.000000e+00 [K]
    dU/dlambda Real/kʙ           0.000000e+00 [K]
    dU/dlambda Ewald/kʙ          0.000000e+00 [K]





Initialization: Current cycle: 0 out of 1000
===============================================================================

Box:      30.04018   0.00000   0.00000
           0.00000  30.04018   0.00000
           0.00000   0.00000  30.04018
Lengths:  30.04018  30.04018  30.04018
Angles:   90.00000  90.00000  90.00000
Rectangular boundary conditions

net charge:   0.00000000

component   0 (CO2) lambda:  0 occupancy:  1 (1.000000)
    net charge:   0.00000000 [e]

Amount of molecules per component :
-------------------------------------------------------------------------------
Component 0 (CO2)
    molecules:         2.000000e+02 molecules
    number density:    7.377726e-03 molec/A^3
    density:           5.390293e+02 kg/m^3

Total potential energy/kʙ       -1.052349e+05 [K]
-------------------------------------------------------------------------------
    external field VDW/kʙ        0.000000e+00 [K]
    external field Real/kʙ       0.000000e+00 [K]
    framework-molecule VDW/kʙ    0.000000e+00 [K]
    framework-molecule Real/kʙ   0.000000e+00 [K]
    molecule-molecule VDW/kʙ    -7.607612e+04 [K]
    molecule-molecule Real/kʙ   -1.884670e+04 [K]
    Van der Waals (Tail)/kʙ     -4.734359e+03 [K]
    Ewald Fourier/kʙ             2.348399e+04 [K]
    Ewald self/kʙ               -4.445846e+06 [K]
    Ewald exclusion/kʙ           4.416785e+06 [K]
    intra VDW/kʙ                 0.000000e+00 [K]
    intra Coulombic/kʙ           0.000000e+00 [K]
    polarization/kʙ              0.000000e+00 [K]
    dU/dlambda VDW/kʙ            0.000000e+00 [K]
    dU/dlambda Real/kʙ           0.000000e+00 [K]
    dU/dlambda Ewald/kʙ          0.000000e+00 [K]


Initialization: Current cycle: 100 out of 1000
===============================================================================

Box:      25.98537   0.00000   0.00000
           0.00000  25.98537   0.00000
           0.00000   0.00000  25.98537
Lengths:  25.98537  25.98537  25.98537
Angles:   90.00000  90.00000  90.00000
Rectangular boundary conditions

net charge:   0.00000000

component   0 (CO2) lambda:  0 occupancy:  1 (1.000000)
    net charge:   0.00000000 [e]

Amount of molecules per component :
-------------------------------------------------------------------------------
Component 0 (CO2)
    molecules:         2.000000e+02 molecules
    number density:    1.139839e-02 molec/A^3
    density:           8.327859e+02 kg/m^3

Total potential energy/kʙ       -2.375689e+05 [K]
-------------------------------------------------------------------------------
    external field VDW/kʙ        0.000000e+00 [K]
    external field Real/kʙ       0.000000e+00 [K]
    framework-molecule VDW/kʙ    0.000000e+00 [K]
    framework-molecule Real/kʙ   0.000000e+00 [K]
    molecule-molecule VDW/kʙ    -1.664184e+05 [K]
    molecule-molecule Real/kʙ   -5.142012e+04 [K]
    Van der Waals (Tail)/kʙ     -7.314459e+03 [K]
    Ewald Fourier/kʙ             1.664571e+04 [K]
    Ewald self/kʙ               -4.445846e+06 [K]
    Ewald exclusion/kʙ           4.416785e+06 [K]
    intra VDW/kʙ                 0.000000e+00 [K]
    intra Coulombic/kʙ           0.000000e+00 [K]
    polarization/kʙ              0.000000e+00 [K]
    dU/dlambda VDW/kʙ            0.000000e+00 [K]
    dU/dlambda Real/kʙ           0.000000e+00 [K]
    dU/dlambda Ewald/kʙ          0.000000e+00 [K]


Initialization: Current cycle: 200 out of 1000
===============================================================================

Box:      24.94337   0.00000   0.00000
           0.00000  24.94337   0.00000
           0.00000   0.00000  24.94337
Lengths:  24.94337  24.94337  24.94337
Angles:   90.00000  90.00000  90.00000
Rectangular boundary conditions

net charge:   0.00000000

component   0 (CO2) lambda:  0 occupancy:  1 (1.000000)
    net charge:   0.00000000 [e]

Amount of molecules per component :
-------------------------------------------------------------------------------
Component 0 (CO2)
    molecules:         2.000000e+02 molecules
    number density:    1.288739e-02 molec/A^3
    density:           9.415744e+02 kg/m^3

Total potential energy/kʙ       -2.695883e+05 [K]
-------------------------------------------------------------------------------
    external field VDW/kʙ        0.000000e+00 [K]
    external field Real/kʙ       0.000000e+00 [K]
    framework-molecule VDW/kʙ    0.000000e+00 [K]
    framework-molecule Real/kʙ   0.000000e+00 [K]
    molecule-molecule VDW/kʙ    -1.946921e+05 [K]
    molecule-molecule Real/kʙ   -5.242292e+04 [K]
    Van der Waals (Tail)/kʙ     -8.269962e+03 [K]
    Ewald Fourier/kʙ             1.485840e+04 [K]
    Ewald self/kʙ               -4.445846e+06 [K]
    Ewald exclusion/kʙ           4.416785e+06 [K]
    intra VDW/kʙ                 0.000000e+00 [K]
    intra Coulombic/kʙ           0.000000e+00 [K]
    polarization/kʙ              0.000000e+00 [K]
    dU/dlambda VDW/kʙ            0.000000e+00 [K]
    dU/dlambda Real/kʙ           0.000000e+00 [K]
    dU/dlambda Ewald/kʙ          0.000000e+00 [K]


Initialization: Current cycle: 300 out of 1000
===============================================================================

Box:      24.14752   0.00000   0.00000
           0.00000  24.14752   0.00000
           0.00000   0.00000  24.14752
Lengths:  24.14752  24.14752  24.14752
Angles:   90.00000  90.00000  90.00000
Rectangular boundary conditions

net charge:   0.00000000

component   0 (CO2) lambda:  0 occupancy:  1 (1.000000)
    net charge:   0.00000000 [e]

Amount of molecules per component :
-------------------------------------------------------------------------------
Component 0 (CO2)
    molecules:         2.000000e+02 molecules
    number density:    1.420406e-02 molec/A^3
    density:           1.037773e+03 kg/m^3

Total potential energy/kʙ       -2.958749e+05 [K]
-------------------------------------------------------------------------------
    external field VDW/kʙ        0.000000e+00 [K]
    external field Real/kʙ       0.000000e+00 [K]
    framework-molecule VDW/kʙ    0.000000e+00 [K]
    framework-molecule Real/kʙ   0.000000e+00 [K]
    molecule-molecule VDW/kʙ    -2.103937e+05 [K]
    molecule-molecule Real/kʙ   -6.127877e+04 [K]
    Van der Waals (Tail)/kʙ     -9.114887e+03 [K]
    Ewald Fourier/kʙ             1.397409e+04 [K]
    Ewald self/kʙ               -4.445846e+06 [K]
    Ewald exclusion/kʙ           4.416785e+06 [K]
    intra VDW/kʙ                 0.000000e+00 [K]
    intra Coulombic/kʙ           0.000000e+00 [K]
    polarization/kʙ              0.000000e+00 [K]
    dU/dlambda VDW/kʙ            0.000000e+00 [K]
    dU/dlambda Real/kʙ           0.000000e+00 [K]
    dU/dlambda Ewald/kʙ          0.000000e+00 [K]


Initialization: Current cycle: 400 out of 1000
===============================================================================

Box:      23.98550   0.00000   0.00000
           0.00000  23.98550   0.00000
           0.00000   0.00000  23.98550
Lengths:  23.98550  23.98550  23.98550
Angles:   90.00000  90.00000  90.00000
Rectangular boundary conditions

net charge:   0.00000000

component   0 (CO2) lambda:  0 occupancy:  1 (1.000000)
    net charge:   0.00000000 [e]

Amount of molecules per component :
-------------------------------------------------------------------------------
Component 0 (CO2)
    molecules:         2.000000e+02 molecules
    number density:    1.449385e-02 molec/A^3
    density:           1.058945e+03 kg/m^3

Total potential energy/kʙ       -3.045077e+05 [K]
-------------------------------------------------------------------------------
    external field VDW/kʙ        0.000000e+00 [K]
    external field Real/kʙ       0.000000e+00 [K]
    framework-molecule VDW/kʙ    0.000000e+00 [K]
    framework-molecule Real/kʙ   0.000000e+00 [K]
    molecule-molecule VDW/kʙ    -2.147183e+05 [K]
    molecule-molecule Real/kʙ   -6.546457e+04 [K]
    Van der Waals (Tail)/kʙ     -9.300844e+03 [K]
    Ewald Fourier/kʙ             1.403770e+04 [K]
    Ewald self/kʙ               -4.445846e+06 [K]
    Ewald exclusion/kʙ           4.416785e+06 [K]
    intra VDW/kʙ                 0.000000e+00 [K]
    intra Coulombic/kʙ           0.000000e+00 [K]
    polarization/kʙ              0.000000e+00 [K]
    dU/dlambda VDW/kʙ            0.000000e+00 [K]
    dU/dlambda Real/kʙ           0.000000e+00 [K]
    dU/dlambda Ewald/kʙ          0.000000e+00 [K]


Initialization: Current cycle: 500 out of 1000
===============================================================================

Box:      23.95619   0.00000   0.00000
           0.00000  23.95619   0.00000
           0.00000   0.00000  23.95619
Lengths:  23.95619  23.95619  23.95619
Angles:   90.00000  90.00000  90.00000
Rectangular boundary conditions

net charge:   0.00000000

component   0 (CO2) lambda:  0 occupancy:  1 (1.000000)
    net charge:   0.00000000 [e]

Amount of molecules per component :
-------------------------------------------------------------------------------
Component 0 (CO2)
    molecules:         2.000000e+02 molecules
    number density:    1.454711e-02 molec/A^3
    density:           1.062837e+03 kg/m^3

Total potential energy/kʙ       -3.091482e+05 [K]
-------------------------------------------------------------------------------
    external field VDW/kʙ        0.000000e+00 [K]
    external field Real/kʙ       0.000000e+00 [K]
    framework-molecule VDW/kʙ    0.000000e+00 [K]
    framework-molecule Real/kʙ   0.000000e+00 [K]
    molecule-molecule VDW/kʙ    -2.210699e+05 [K]
    molecule-molecule Real/kʙ   -6.359781e+04 [K]
    Van der Waals (Tail)/kʙ     -9.335026e+03 [K]
    Ewald Fourier/kʙ             1.391617e+04 [K]
    Ewald self/kʙ               -4.445846e+06 [K]
    Ewald exclusion/kʙ           4.416785e+06 [K]
    intra VDW/kʙ                 0.000000e+00 [K]
    intra Coulombic/kʙ           0.000000e+00 [K]
    polarization/kʙ              0.000000e+00 [K]
    dU/dlambda VDW/kʙ            0.000000e+00 [K]
    dU/dlambda Real/kʙ           0.000000e+00 [K]
    dU/dlambda Ewald/kʙ          0.000000e+00 [K]


Initialization: Current cycle: 600 out of 1000
===============================================================================

Box:      24.05663   0.00000   0.00000
           0.00000  24.05663   0.00000
           0.00000   0.00000  24.05663
Lengths:  24.05663  24.05663  24.05663
Angles:   90.00000  90.00000  90.00000
Rectangular boundary conditions

net charge:   0.00000000

component   0 (CO2) lambda:  0 occupancy:  1 (1.000000)
    net charge:   0.00000000 [e]

Amount of molecules per component :
-------------------------------------------------------------------------------
Component 0 (CO2)
    molecules:         2.000000e+02 molecules
    number density:    1.436566e-02 molec/A^3
    density:           1.049579e+03 kg/m^3

Total potential energy/kʙ       -3.038619e+05 [K]
-------------------------------------------------------------------------------
    external field VDW/kʙ        0.000000e+00 [K]
    external field Real/kʙ       0.000000e+00 [K]
    framework-molecule VDW/kʙ    0.000000e+00 [K]
    framework-molecule Real/kʙ   0.000000e+00 [K]
    molecule-molecule VDW/kʙ    -2.136131e+05 [K]
    molecule-molecule Real/kʙ   -6.510320e+04 [K]
    Van der Waals (Tail)/kʙ     -9.218582e+03 [K]
    Ewald Fourier/kʙ             1.313463e+04 [K]
    Ewald self/kʙ               -4.445846e+06 [K]
    Ewald exclusion/kʙ           4.416785e+06 [K]
    intra VDW/kʙ                 0.000000e+00 [K]
    intra Coulombic/kʙ           0.000000e+00 [K]
    polarization/kʙ              0.000000e+00 [K]
    dU/dlambda VDW/kʙ            0.000000e+00 [K]
    dU/dlambda Real/kʙ           0.000000e+00 [K]
    dU/dlambda Ewald/kʙ          0.000000e+00 [K]


Initialization: Current cycle: 700 out of 1000
===============================================================================

Box:      23.76858   0.00000   0.00000
           0.00000  23.76858   0.00000
           0.00000   0.00000  23.76858
Lengths:  23.76858  23.76858  23.76858
Angles:   90.00000  90.00000  90.00000
Rectangular boundary conditions

net charge:   0.00000000

component   0 (CO2) lambda:  0 occupancy:  1 (1.000000)
    net charge:   0.00000000 [e]

Amount of molecules per component :
-------------------------------------------------------------------------------
Component 0 (CO2)
    molecules:         2.000000e+02 molecules
    number density:    1.489430e-02 molec/A^3
    density:           1.088203e+03 kg/m^3

Total potential energy/kʙ       -3.210365e+05 [K]
-------------------------------------------------------------------------------
    external field VDW/kʙ        0.000000e+00 [K]
    external field Real/kʙ       0.000000e+00 [K]
    framework-molecule VDW/kʙ    0.000000e+00 [K]
    framework-molecule Real/kʙ   0.000000e+00 [K]
    molecule-molecule VDW/kʙ    -2.194452e+05 [K]
    molecule-molecule Real/kʙ   -7.587321e+04 [K]
    Van der Waals (Tail)/kʙ     -9.557818e+03 [K]
    Ewald Fourier/kʙ             1.290136e+04 [K]
    Ewald self/kʙ               -4.445846e+06 [K]
    Ewald exclusion/kʙ           4.416785e+06 [K]
    intra VDW/kʙ                 0.000000e+00 [K]
    intra Coulombic/kʙ           0.000000e+00 [K]
    polarization/kʙ              0.000000e+00 [K]
    dU/dlambda VDW/kʙ            0.000000e+00 [K]
    dU/dlambda Real/kʙ           0.000000e+00 [K]
    dU/dlambda Ewald/kʙ          0.000000e+00 [K]


Initialization: Current cycle: 800 out of 1000
===============================================================================

Box:      23.85830   0.00000   0.00000
           0.00000  23.85830   0.00000
           0.00000   0.00000  23.85830
Lengths:  23.85830  23.85830  23.85830
Angles:   90.00000  90.00000  90.00000
Rectangular boundary conditions

net charge:   0.00000000

component   0 (CO2) lambda:  0 occupancy:  1 (1.000000)
    net charge:   0.00000000 [e]

Amount of molecules per component :
-------------------------------------------------------------------------------
Component 0 (CO2)
    molecules:         2.000000e+02 molecules
    number density:    1.472690e-02 molec/A^3
    density:           1.075973e+03 kg/m^3

Total potential energy/kʙ       -3.106176e+05 [K]
-------------------------------------------------------------------------------
    external field VDW/kʙ        0.000000e+00 [K]
    external field Real/kʙ       0.000000e+00 [K]
    framework-molecule VDW/kʙ    0.000000e+00 [K]
    framework-molecule Real/kʙ   0.000000e+00 [K]
    molecule-molecule VDW/kʙ    -2.168165e+05 [K]
    molecule-molecule Real/kʙ   -6.868922e+04 [K]
    Van der Waals (Tail)/kʙ     -9.450399e+03 [K]
    Ewald Fourier/kʙ             1.340029e+04 [K]
    Ewald self/kʙ               -4.445846e+06 [K]
    Ewald exclusion/kʙ           4.416785e+06 [K]
    intra VDW/kʙ                 0.000000e+00 [K]
    intra Coulombic/kʙ           0.000000e+00 [K]
    polarization/kʙ              0.000000e+00 [K]
    dU/dlambda VDW/kʙ            0.000000e+00 [K]
    dU/dlambda Real/kʙ           0.000000e+00 [K]
    dU/dlambda Ewald/kʙ          0.000000e+00 [K]


Initialization: Current cycle: 900 out of 1000
===============================================================================

Box:      23.83524   0.00000   0.00000
           0.00000  23.83524   0.00000
           0.00000   0.00000  23.83524
Lengths:  23.83524  23.83524  23.83524
Angles:   90.00000  90.00000  90.00000
Rectangular boundary conditions

net charge:   0.00000000

component   0 (CO2) lambda:  0 occupancy:  1 (1.000000)
    net charge:   0.00000000 [e]

Amount of molecules per component :
-------------------------------------------------------------------------------
Component 0 (CO2)
    molecules:         2.000000e+02 molecules
    number density:    1.476969e-02 molec/A^3
    density:           1.079099e+03 kg/m^3

Total potential energy/kʙ       -3.090938e+05 [K]
-------------------------------------------------------------------------------
    external field VDW/kʙ        0.000000e+00 [K]
    external field Real/kʙ       0.000000e+00 [K]
    framework-molecule VDW/kʙ    0.000000e+00 [K]
    framework-molecule Real/kʙ   0.000000e+00 [K]
    molecule-molecule VDW/kʙ    -2.170499e+05 [K]
    molecule-molecule Real/kʙ   -6.702310e+04 [K]
    Van der Waals (Tail)/kʙ     -9.477856e+03 [K]
    Ewald Fourier/kʙ             1.351879e+04 [K]
    Ewald self/kʙ               -4.445846e+06 [K]
    Ewald exclusion/kʙ           4.416785e+06 [K]
    intra VDW/kʙ                 0.000000e+00 [K]
    intra Coulombic/kʙ           0.000000e+00 [K]
    polarization/kʙ              0.000000e+00 [K]
    dU/dlambda VDW/kʙ            0.000000e+00 [K]
    dU/dlambda Real/kʙ           0.000000e+00 [K]
    dU/dlambda Ewald/kʙ          0.000000e+00 [K]


Current cycle: 0 out of 5000
===============================================================================

Box:      24.03404   0.00000   0.00000  Average:  24.03404   0.00000   0.00000
           0.00000  24.03404   0.00000             0.00000  24.03404   0.00000
           0.00000   0.00000  24.03404             0.00000   0.00000  24.03404
Lengths:  24.03404  24.03404  24.03404  Average:  24.03404  24.03404  24.03404
Angles:   90.00000  90.00000  90.00000  Average:  90.00000  90.00000  90.00000
Rectangular boundary conditions

net charge:   0.00000000

component 0 (CO2) lambda:  0 occupancy:  1 (1.000000)
    net charge:   0.00000000 [e]

Amount of molecules per component :
-------------------------------------------------------------------------------
Component 0 (CO2)
    molecules:      2.000000e+02 molecules  (2.000000e+02 +/- 0.000000e+00)
    number density: 1.440620e-02 molec./A^3 (1.440620e-02 +/- 0.000000e+00)
    density:        1.052542e+03 kg/m^3     (1.052542e+03 +/- 0.000000e+00)

Average pressure tensor: 
-------------------------------------------------------------------------------
 4.9725e+02  0.0000e+00  0.0000e+00 +/- 0.0000e+00 0.0000e+00 0.0000e+00 [bar]
 0.0000e+00  4.9725e+02  0.0000e+00 +/- 0.0000e+00 0.0000e+00 0.0000e+00 [bar]
 0.0000e+00  0.0000e+00  4.9725e+02 +/- 0.0000e+00 0.0000e+00 0.0000e+00 [bar]
Ideal-gas pressure:   4.972483e+02 +/ 0.000000e+00 [bar]
Excess pressure:      0.000000e+00 +/ 0.000000e+00 [bar]
Pressure:             4.972483e+02 +/ 0.000000e+00 [bar]

Total potential energy/kʙ  -3.009410e+05 (-3.009410e+05 +/- 0.000000e+00) [K]
-------------------------------------------------------------------------------
ExternalField-molecule
    Van der Waals/kʙ        0.000000e+00 ( 0.000000e+00 +/- 0.000000e+00) [K]
Framework-molecule
    Van der Waals/kʙ        0.000000e+00 ( 0.000000e+00 +/- 0.000000e+00) [K]
    Van der Waals (Tail)/kʙ 0.000000e+00 ( 0.000000e+00 +/- 0.000000e+00) [K]
    Coulombic Real/kʙ       0.000000e+00 ( 0.000000e+00 +/- 0.000000e+00) [K]
    Coulombic Fourier/kʙ    0.000000e+00 ( 0.000000e+00 +/- 0.000000e+00) [K]
Molecule-molecule
    Van der Waals/kʙ       -2.183192e+05 (-2.183192e+05 +/- 0.000000e+00) [K]
    Van der Waals (Tail)/kʙ-9.244602e+03 (-9.244602e+03 +/- 0.000000e+00) [K]
    Coulombic Real/kʙ      -5.865003e+04 (-5.865003e+04 +/- 0.000000e+00) [K]
    Coulombic Fourier/kʙ   -1.472723e+04 (-1.472723e+04 +/- 0.000000e+00) [K]
    Molecule Intra/kʙ       0.000000e+00 ( 0.000000e+00 +/- 0.000000e+00) [K]

Current cycle: 100 out of 5000
===============================================================================

Box:      24.07674   0.00000   0.00000  Average:  23.95920   0.00000   0.00000
           0.00000  24.07674   0.00000             0.00000  23.95920   0.00000
           0.00000   0.00000  24.07674             0.00000   0.00000  23.95920
Lengths:  24.07674  24.07674  24.07674  Average:  23.95920  23.95920  23.95920
Angles:   90.00000  90.00000  90.00000  Average:  90.00000  90.00000  90.00000
Rectangular boundary conditions

net charge:   0.00000000

component 0 (CO2) lambda:  0 occupancy:  1 (1.000000)
    net charge:   0.00000000 [e]

Amount of molecules per component :
-------------------------------------------------------------------------------
Component 0 (CO2)
    molecules:      2.000000e+02 molecules  (2.000000e+02 +/- 0.000000e+00)
    number density: 1.432970e-02 molec./A^3 (1.454295e-02 +/- 0.000000e+00)
    density:        1.046952e+03 kg/m^3     (1.062533e+03 +/- 0.000000e+00)

Average pressure tensor: 
-------------------------------------------------------------------------------
 3.3456e+02  5.2396e+01  1.7407e+02 +/- 0.0000e+00 0.0000e+00 0.0000e+00 [bar]
 5.2396e+01  5.6049e+01 -1.2464e+02 +/- 0.0000e+00 0.0000e+00 0.0000e+00 [bar]
 1.7407e+02 -1.2464e+02  2.1847e+02 +/- 0.0000e+00 0.0000e+00 0.0000e+00 [bar]
Ideal-gas pressure:   5.019682e+02 +/ 0.000000e+00 [bar]
Excess pressure:     -2.989424e+02 +/ 0.000000e+00 [bar]
Pressure:             2.030257e+02 +/ 0.000000e+00 [bar]

Total potential energy/kʙ  -3.073266e+05 (-3.055758e+05 +/- 0.000000e+00) [K]
-------------------------------------------------------------------------------
ExternalField-molecule
    Van der Waals/kʙ        0.000000e+00 ( 0.000000e+00 +/- 0.000000e+00) [K]
Framework-molecule
    Van der Waals/kʙ        0.000000e+00 ( 0.000000e+00 +/- 0.000000e+00) [K]
    Van der Waals (Tail)/kʙ 0.000000e+00 ( 0.000000e+00 +/- 0.000000e+00) [K]
    Coulombic Real/kʙ       0.000000e+00 ( 0.000000e+00 +/- 0.000000e+00) [K]
    Coulombic Fourier/kʙ    0.000000e+00 ( 0.000000e+00 +/- 0.000000e+00) [K]
Molecule-molecule
    Van der Waals/kʙ       -2.134621e+05 (-2.177424e+05 +/- 0.000000e+00) [K]
    Van der Waals (Tail)/kʙ-9.195508e+03 (-9.325519e+03 +/- 0.000000e+00) [K]
    Coulombic Real/kʙ      -6.940001e+04 (-6.356322e+04 +/- 0.000000e+00) [K]
    Coulombic Fourier/kʙ   -1.526901e+04 (-1.494469e+04 +/- 0.000000e+00) [K]
    Molecule Intra/kʙ       0.000000e+00 ( 0.000000e+00 +/- 0.000000e+00) [K]

Current cycle: 200 out of 5000
===============================================================================

Box:      23.92262   0.00000   0.00000  Average:  24.04218   0.00000   0.00000
           0.00000  23.92262   0.00000             0.00000  24.04218   0.00000
           0.00000   0.00000  23.92262             0.00000   0.00000  24.04218
Lengths:  23.92262  23.92262  23.92262  Average:  24.04218  24.04218  24.04218
Angles:   90.00000  90.00000  90.00000  Average:  90.00000  90.00000  90.00000
Rectangular boundary conditions

net charge:   0.00000000

component 0 (CO2) lambda:  0 occupancy:  1 (1.000000)
    net charge:   0.00000000 [e]

Amount of molecules per component :
-------------------------------------------------------------------------------
Component 0 (CO2)
    molecules:      2.000000e+02 molecules  (2.000000e+02 +/- 0.000000e+00)
    number density: 1.460844e-02 molec./A^3 (1.439433e-02 +/- 0.000000e+00)
    density:        1.067318e+03 kg/m^3     (1.051674e+03 +/- 0.000000e+00)

Average pressure tensor: 
-------------------------------------------------------------------------------
 2.3587e+02  2.1033e+01  1.7151e+02 +/- 0.0000e+00 0.0000e+00 0.0000e+00 [bar]
 2.1033e+01  1.8526e+02 -5.0063e+01 +/- 0.0000e+00 0.0000e+00 0.0000e+00 [bar]
 1.7151e+02 -5.0063e+01  2.4690e+02 +/- 0.0000e+00 0.0000e+00 0.0000e+00 [bar]
Ideal-gas pressure:   4.968385e+02 +/ 0.000000e+00 [bar]
Excess pressure:     -2.741638e+02 +/ 0.000000e+00 [bar]
Pressure:             2.226746e+02 +/ 0.000000e+00 [bar]

Total potential energy/kʙ  -2.975723e+05 (-3.035815e+05 +/- 0.000000e+00) [K]
-------------------------------------------------------------------------------
ExternalField-molecule
    Van der Waals/kʙ        0.000000e+00 ( 0.000000e+00 +/- 0.000000e+00) [K]
Framework-molecule
    Van der Waals/kʙ        0.000000e+00 ( 0.000000e+00 +/- 0.000000e+00) [K]
    Van der Waals (Tail)/kʙ 0.000000e+00 ( 0.000000e+00 +/- 0.000000e+00) [K]
    Coulombic Real/kʙ       0.000000e+00 ( 0.000000e+00 +/- 0.000000e+00) [K]
    Coulombic Fourier/kʙ    0.000000e+00 ( 0.000000e+00 +/- 0.000000e+00) [K]
Molecule-molecule
    Van der Waals/kʙ       -2.146410e+05 (-2.150160e+05 +/- 0.000000e+00) [K]
    Van der Waals (Tail)/kʙ-9.374378e+03 (-9.260824e+03 +/- 0.000000e+00) [K]
    Coulombic Real/kʙ      -5.939827e+04 (-6.439430e+04 +/- 0.000000e+00) [K]
    Coulombic Fourier/kʙ   -1.415866e+04 (-1.491034e+04 +/- 0.000000e+00) [K]
    Molecule Intra/kʙ       0.000000e+00 ( 0.000000e+00 +/- 0.000000e+00) [K]

Current cycle: 300 out of 5000
===============================================================================

Box:      23.82304   0.00000   0.00000  Average:  23.98082   0.00000   0.00000
           0.00000  23.82304   0.00000             0.00000  23.98082   0.00000
           0.00000   0.00000  23.82304             0.00000   0.00000  23.98082
Lengths:  23.82304  23.82304  23.82304  Average:  23.98082  23.98082  23.98082
Angles:   90.00000  90.00000  90.00000  Average:  90.00000  90.00000  90.00000
Rectangular boundary conditions

net charge:   0.00000000

component 0 (CO2) lambda:  0 occupancy:  1 (1.000000)
    net charge:   0.00000000 [e]

Amount of molecules per component :
-------------------------------------------------------------------------------
Component 0 (CO2)
    molecules:      2.000000e+02 molecules  (2.000000e+02 +/- 0.000000e+00)
    number density: 1.479239e-02 molec./A^3 (1.450586e-02 +/- 0.000000e+00)
    density:        1.080757e+03 kg/m^3     (1.059823e+03 +/- 0.000000e+00)

Average pressure tensor: 
-------------------------------------------------------------------------------
 2.3713e+02 -4.7989e+01  1.9210e+02 +/- 0.0000e+00 0.0000e+00 0.0000e+00 [bar]
-4.7989e+01  1.7499e+02 -7.8484e+00 +/- 0.0000e+00 0.0000e+00 0.0000e+00 [bar]
 1.9210e+02 -7.8484e+00  2.2092e+02 +/- 0.0000e+00 0.0000e+00 0.0000e+00 [bar]
Ideal-gas pressure:   5.006881e+02 +/ 0.000000e+00 [bar]
Excess pressure:     -2.896768e+02 +/ 0.000000e+00 [bar]
Pressure:             2.110113e+02 +/ 0.000000e+00 [bar]

Total potential energy/kʙ  -3.120477e+05 (-3.050309e+05 +/- 0.000000e+00) [K]
-------------------------------------------------------------------------------
ExternalField-molecule
    Van der Waals/kʙ        0.000000e+00 ( 0.000000e+00 +/- 0.000000e+00) [K]
Framework-molecule
    Van der Waals/kʙ        0.000000e+00 ( 0.000000e+00 +/- 0.000000e+00) [K]
    Van der Waals (Tail)/kʙ 0.000000e+00 ( 0.000000e+00 +/- 0.000000e+00) [K]
    Coulombic Real/kʙ       0.000000e+00 ( 0.000000e+00 +/- 0.000000e+00) [K]
    Coulombic Fourier/kʙ    0.000000e+00 ( 0.000000e+00 +/- 0.000000e+00) [K]
Molecule-molecule
    Van der Waals/kʙ       -2.221323e+05 (-2.171215e+05 +/- 0.000000e+00) [K]
    Van der Waals (Tail)/kʙ-9.492420e+03 (-9.315844e+03 +/- 0.000000e+00) [K]
    Coulombic Real/kʙ      -6.454066e+04 (-6.369745e+04 +/- 0.000000e+00) [K]
    Coulombic Fourier/kʙ   -1.588241e+04 (-1.489612e+04 +/- 0.000000e+00) [K]
    Molecule Intra/kʙ       0.000000e+00 ( 0.000000e+00 +/- 0.000000e+00) [K]

Current cycle: 400 out of 5000
===============================================================================

Box:      23.82621   0.00000   0.00000  Average:  23.92158   0.00000   0.00000
           0.00000  23.82621   0.00000             0.00000  23.92158   0.00000
           0.00000   0.00000  23.82621             0.00000   0.00000  23.92158
Lengths:  23.82621  23.82621  23.82621  Average:  23.92158  23.92158  23.92158
Angles:   90.00000  90.00000  90.00000  Average:  90.00000  90.00000  90.00000
Rectangular boundary conditions

net charge:   0.00000000

component 0 (CO2) lambda:  0 occupancy:  1 (1.000000)
    net charge:   0.00000000 [e]

Amount of molecules per component :
-------------------------------------------------------------------------------
Component 0 (CO2)
    molecules:      2.000000e+02 molecules  (2.000000e+02 +/- 0.000000e+00)
    number density: 1.478650e-02 molec./A^3 (1.461497e-02 +/- 0.000000e+00)
    density:        1.080327e+03 kg/m^3     (1.067795e+03 +/- 0.000000e+00)

Average pressure tensor: 
-------------------------------------------------------------------------------
 2.2222e+02 -1.0093e+02  1.6849e+02 +/- 0.0000e+00 0.0000e+00 0.0000e+00 [bar]
-1.0093e+02  1.5703e+02 -1.7241e+01 +/- 0.0000e+00 0.0000e+00 0.0000e+00 [bar]
 1.6849e+02 -1.7241e+01  2.1853e+02 +/- 0.0000e+00 0.0000e+00 0.0000e+00 [bar]
Ideal-gas pressure:   5.044540e+02 +/ 0.000000e+00 [bar]
Excess pressure:     -3.051935e+02 +/ 0.000000e+00 [bar]
Pressure:             1.992605e+02 +/ 0.000000e+00 [bar]

Total potential energy/kʙ  -3.122460e+05 (-3.074763e+05 +/- 0.000000e+00) [K]
-------------------------------------------------------------------------------
ExternalField-molecule
    Van der Waals/kʙ        0.000000e+00 ( 0.000000e+00 +/- 0.000000e+00) [K]
Framework-molecule
    Van der Waals/kʙ        0.000000e+00 ( 0.000000e+00 +/- 0.000000e+00) [K]
    Van der Waals (Tail)/kʙ 0.000000e+00 ( 0.000000e+00 +/- 0.000000e+00) [K]
    Coulombic Real/kʙ       0.000000e+00 ( 0.000000e+00 +/- 0.000000e+00) [K]
    Coulombic Fourier/kʙ    0.000000e+00 ( 0.000000e+00 +/- 0.000000e+00) [K]
Molecule-molecule
    Van der Waals/kʙ       -2.210772e+05 (-2.186839e+05 +/- 0.000000e+00) [K]
    Van der Waals (Tail)/kʙ-9.488642e+03 (-9.381967e+03 +/- 0.000000e+00) [K]
    Coulombic Real/kʙ      -6.590893e+04 (-6.432862e+04 +/- 0.000000e+00) [K]
    Coulombic Fourier/kʙ   -1.577128e+04 (-1.508182e+04 +/- 0.000000e+00) [K]
    Molecule Intra/kʙ       0.000000e+00 ( 0.000000e+00 +/- 0.000000e+00) [K]

Current cycle: 500 out of 5000
===============================================================================

Box:      23.74413   0.00000   0.00000  Average:  23.87504   0.00000   0.00000
           0.00000  23.74413   0.00000             0.00000  23.87504   0.00000
           0.00000   0.00000  23.74413             0.00000   0.00000  23.87504
Lengths:  23.74413  23.74413  23.74413  Average:  23.87504  23.87504  23.87504
Angles:   90.00000  90.00000  90.00000  Average:  90.00000  90.00000  90.00000
Rectangular boundary conditions

net charge:   0.00000000

component 0 (CO2) lambda:  0 occupancy:  1 (1.000000)
    net charge:   0.00000000 [e]

Amount of molecules per component :
-------------------------------------------------------------------------------
Component 0 (CO2)
    molecules:      2.000000e+02 molecules  (2.000000e+02 +/- 0.000000e+00)
    number density: 1.494036e-02 molec./A^3 (1.470142e-02 +/- 0.000000e+00)
    density:        1.091568e+03 kg/m^3     (1.074111e+03 +/- 0.000000e+00)

Average pressure tensor: 
-------------------------------------------------------------------------------
 2.1897e+02 -5.2887e+01  1.2387e+02 +/- 0.0000e+00 0.0000e+00 0.0000e+00 [bar]
-5.2887e+01  1.3925e+02  3.4297e+00 +/- 0.0000e+00 0.0000e+00 0.0000e+00 [bar]
 1.2387e+02  3.4297e+00  2.5210e+02 +/- 0.0000e+00 0.0000e+00 0.0000e+00 [bar]
Ideal-gas pressure:   5.074380e+02 +/ 0.000000e+00 [bar]
Excess pressure:     -3.039971e+02 +/ 0.000000e+00 [bar]
Pressure:             2.034409e+02 +/ 0.000000e+00 [bar]

Total potential energy/kʙ  -3.108838e+05 (-3.084389e+05 +/- 0.000000e+00) [K]
-------------------------------------------------------------------------------
ExternalField-molecule
    Van der Waals/kʙ        0.000000e+00 ( 0.000000e+00 +/- 0.000000e+00) [K]
Framework-molecule
    Van der Waals/kʙ        0.000000e+00 ( 0.000000e+00 +/- 0.000000e+00) [K]
    Van der Waals (Tail)/kʙ 0.000000e+00 ( 0.000000e+00 +/- 0.000000e+00) [K]
    Coulombic Real/kʙ       0.000000e+00 ( 0.000000e+00 +/- 0.000000e+00) [K]
    Coulombic Fourier/kʙ    0.000000e+00 ( 0.000000e+00 +/- 0.000000e+00) [K]
Molecule-molecule
    Van der Waals/kʙ       -2.231334e+05 (-2.199407e+05 +/- 0.000000e+00) [K]
    Van der Waals (Tail)/kʙ-9.587375e+03 (-9.431682e+03 +/- 0.000000e+00) [K]
    Coulombic Real/kʙ      -6.306589e+04 (-6.394200e+04 +/- 0.000000e+00) [K]
    Coulombic Fourier/kʙ   -1.509712e+04 (-1.512445e+04 +/- 0.000000e+00) [K]
    Molecule Intra/kʙ       0.000000e+00 ( 0.000000e+00 +/- 0.000000e+00) [K]

Current cycle: 600 out of 5000
===============================================================================

Box:      23.81671   0.00000   0.00000  Average:  23.85196   0.00000   0.00000
           0.00000  23.81671   0.00000             0.00000  23.85196   0.00000
           0.00000   0.00000  23.81671             0.00000   0.00000  23.85196
Lengths:  23.81671  23.81671  23.81671  Average:  23.85196  23.85196  23.85196
Angles:   90.00000  90.00000  90.00000  Average:  90.00000  90.00000  90.00000
Rectangular boundary conditions

net charge:   0.00000000

component 0 (CO2) lambda:  0 occupancy:  1 (1.000000)
    net charge:   0.00000000 [e]

Amount of molecules per component :
-------------------------------------------------------------------------------
Component 0 (CO2)
    molecules:      2.000000e+02 molecules  (2.000000e+02 +/- 0.000000e+00)
    number density: 1.480419e-02 molec./A^3 (1.474387e-02 +/- 0.000000e+00)
    density:        1.081619e+03 kg/m^3     (1.077213e+03 +/- 0.000000e+00)

Average pressure tensor: 
-------------------------------------------------------------------------------
 2.3377e+02 -2.6348e+01  1.0439e+02 +/- 0.0000e+00 0.0000e+00 0.0000e+00 [bar]
-2.6348e+01  1.5725e+02  3.2727e+01 +/- 0.0000e+00 0.0000e+00 0.0000e+00 [bar]
 1.0439e+02  3.2727e+01  2.8690e+02 +/- 0.0000e+00 0.0000e+00 0.0000e+00 [bar]
Ideal-gas pressure:   5.089033e+02 +/ 0.000000e+00 [bar]
Excess pressure:     -2.829283e+02 +/ 0.000000e+00 [bar]
Pressure:             2.259751e+02 +/ 0.000000e+00 [bar]

Total potential energy/kʙ  -3.136199e+05 (-3.092420e+05 +/- 0.000000e+00) [K]
-------------------------------------------------------------------------------
ExternalField-molecule
    Van der Waals/kʙ        0.000000e+00 ( 0.000000e+00 +/- 0.000000e+00) [K]
Framework-molecule
    Van der Waals/kʙ        0.000000e+00 ( 0.000000e+00 +/- 0.000000e+00) [K]
    Van der Waals (Tail)/kʙ 0.000000e+00 ( 0.000000e+00 +/- 0.000000e+00) [K]
    Coulombic Real/kʙ       0.000000e+00 ( 0.000000e+00 +/- 0.000000e+00) [K]
    Coulombic Fourier/kʙ    0.000000e+00 ( 0.000000e+00 +/- 0.000000e+00) [K]
Molecule-molecule
    Van der Waals/kʙ       -2.228869e+05 (-2.205885e+05 +/- 0.000000e+00) [K]
    Van der Waals (Tail)/kʙ-9.499994e+03 (-9.463234e+03 +/- 0.000000e+00) [K]
    Coulombic Real/kʙ      -6.659107e+04 (-6.418458e+04 +/- 0.000000e+00) [K]
    Coulombic Fourier/kʙ   -1.464194e+04 (-1.500571e+04 +/- 0.000000e+00) [K]
    Molecule Intra/kʙ       0.000000e+00 ( 0.000000e+00 +/- 0.000000e+00) [K]

Current cycle: 700 out of 5000
===============================================================================

Box:      23.63995   0.00000   0.00000  Average:  23.82657   0.00000   0.00000
           0.00000  23.63995   0.00000             0.00000  23.82657   0.00000
           0.00000   0.00000  23.63995             0.00000   0.00000  23.82657
Lengths:  23.63995  23.63995  23.63995  Average:  23.82657  23.82657  23.82657
Angles:   90.00000  90.00000  90.00000  Average:  90.00000  90.00000  90.00000
Rectangular boundary conditions

net charge:   0.00000000

component 0 (CO2) lambda:  0 occupancy:  1 (1.000000)
    net charge:   0.00000000 [e]

Amount of molecules per component :
-------------------------------------------------------------------------------
Component 0 (CO2)
    molecules:      2.000000e+02 molecules  (2.000000e+02 +/- 0.000000e+00)
    number density: 1.513876e-02 molec./A^3 (1.479106e-02 +/- 0.000000e+00)
    density:        1.106064e+03 kg/m^3     (1.080660e+03 +/- 0.000000e+00)

Average pressure tensor: 
-------------------------------------------------------------------------------
 1.9636e+02 -3.4596e+01  9.9227e+01 +/- 0.0000e+00 0.0000e+00 0.0000e+00 [bar]
-3.4596e+01  1.9488e+02  7.6242e+01 +/- 0.0000e+00 0.0000e+00 0.0000e+00 [bar]
 9.9227e+01  7.6242e+01  2.7550e+02 +/- 0.0000e+00 0.0000e+00 0.0000e+00 [bar]
Ideal-gas pressure:   5.105319e+02 +/ 0.000000e+00 [bar]
Excess pressure:     -2.882858e+02 +/ 0.000000e+00 [bar]
Pressure:             2.222461e+02 +/ 0.000000e+00 [bar]

Total potential energy/kʙ  -3.187002e+05 (-3.102609e+05 +/- 0.000000e+00) [K]
-------------------------------------------------------------------------------
ExternalField-molecule
    Van der Waals/kʙ        0.000000e+00 ( 0.000000e+00 +/- 0.000000e+00) [K]
Framework-molecule
    Van der Waals/kʙ        0.000000e+00 ( 0.000000e+00 +/- 0.000000e+00) [K]
    Van der Waals (Tail)/kʙ 0.000000e+00 ( 0.000000e+00 +/- 0.000000e+00) [K]
    Coulombic Real/kʙ       0.000000e+00 ( 0.000000e+00 +/- 0.000000e+00) [K]
    Coulombic Fourier/kʙ    0.000000e+00 ( 0.000000e+00 +/- 0.000000e+00) [K]
Molecule-molecule
    Van der Waals/kʙ       -2.270329e+05 (-2.213865e+05 +/- 0.000000e+00) [K]
    Van der Waals (Tail)/kʙ-9.714690e+03 (-9.493152e+03 +/- 0.000000e+00) [K]
    Coulombic Real/kʙ      -6.572402e+04 (-6.434687e+04 +/- 0.000000e+00) [K]
    Coulombic Fourier/kʙ   -1.622854e+04 (-1.503434e+04 +/- 0.000000e+00) [K]
    Molecule Intra/kʙ       0.000000e+00 ( 0.000000e+00 +/- 0.000000e+00) [K]

Current cycle: 800 out of 5000
===============================================================================

Box:      23.70413   0.00000   0.00000  Average:  23.79885   0.00000   0.00000
           0.00000  23.70413   0.00000             0.00000  23.79885   0.00000
           0.00000   0.00000  23.70413             0.00000   0.00000  23.79885
Lengths:  23.70413  23.70413  23.70413  Average:  23.79885  23.79885  23.79885
Angles:   90.00000  90.00000  90.00000  Average:  90.00000  90.00000  90.00000
Rectangular boundary conditions

net charge:   0.00000000

component 0 (CO2) lambda:  0 occupancy:  1 (1.000000)
    net charge:   0.00000000 [e]

Amount of molecules per component :
-------------------------------------------------------------------------------
Component 0 (CO2)
    molecules:      2.000000e+02 molecules  (2.000000e+02 +/- 0.000000e+00)
    number density: 1.501612e-02 molec./A^3 (1.484312e-02 +/- 0.000000e+00)
    density:        1.097104e+03 kg/m^3     (1.084464e+03 +/- 0.000000e+00)

Average pressure tensor: 
-------------------------------------------------------------------------------
 2.0834e+02 -3.6496e+01  9.0784e+01 +/- 0.0000e+00 0.0000e+00 0.0000e+00 [bar]
-3.6496e+01  1.9943e+02  7.7847e+01 +/- 0.0000e+00 0.0000e+00 0.0000e+00 [bar]
 9.0784e+01  7.7847e+01  2.8635e+02 +/- 0.0000e+00 0.0000e+00 0.0000e+00 [bar]
Ideal-gas pressure:   5.123289e+02 +/ 0.000000e+00 [bar]
Excess pressure:     -2.809530e+02 +/ 0.000000e+00 [bar]
Pressure:             2.313759e+02 +/ 0.000000e+00 [bar]

Total potential energy/kʙ  -3.143968e+05 (-3.117467e+05 +/- 0.000000e+00) [K]
-------------------------------------------------------------------------------
ExternalField-molecule
    Van der Waals/kʙ        0.000000e+00 ( 0.000000e+00 +/- 0.000000e+00) [K]
Framework-molecule
    Van der Waals/kʙ        0.000000e+00 ( 0.000000e+00 +/- 0.000000e+00) [K]
    Van der Waals (Tail)/kʙ 0.000000e+00 ( 0.000000e+00 +/- 0.000000e+00) [K]
    Coulombic Real/kʙ       0.000000e+00 ( 0.000000e+00 +/- 0.000000e+00) [K]
    Coulombic Fourier/kʙ    0.000000e+00 ( 0.000000e+00 +/- 0.000000e+00) [K]
Molecule-molecule
    Van der Waals/kʙ       -2.239684e+05 (-2.221221e+05 +/- 0.000000e+00) [K]
    Van der Waals (Tail)/kʙ-9.635994e+03 (-9.528906e+03 +/- 0.000000e+00) [K]
    Coulombic Real/kʙ      -6.476899e+04 (-6.488225e+04 +/- 0.000000e+00) [K]
    Coulombic Fourier/kʙ   -1.602333e+04 (-1.521342e+04 +/- 0.000000e+00) [K]
    Molecule Intra/kʙ       0.000000e+00 ( 0.000000e+00 +/- 0.000000e+00) [K]

Current cycle: 900 out of 5000
===============================================================================

Box:      23.55690   0.00000   0.00000  Average:  23.78106   0.00000   0.00000
           0.00000  23.55690   0.00000             0.00000  23.78106   0.00000
           0.00000   0.00000  23.55690             0.00000   0.00000  23.78106
Lengths:  23.55690  23.55690  23.55690  Average:  23.78106  23.78106  23.78106
Angles:   90.00000  90.00000  90.00000  Average:  90.00000  90.00000  90.00000
Rectangular boundary conditions

net charge:   0.00000000

component 0 (CO2) lambda:  0 occupancy:  1 (1.000000)
    net charge:   0.00000000 [e]

Amount of molecules per component :
-------------------------------------------------------------------------------
Component 0 (CO2)
    molecules:      2.000000e+02 molecules  (2.000000e+02 +/- 0.000000e+00)
    number density: 1.529943e-02 molec./A^3 (1.487649e-02 +/- 0.000000e+00)
    density:        1.117803e+03 kg/m^3     (1.086902e+03 +/- 0.000000e+00)

Average pressure tensor: 
-------------------------------------------------------------------------------
 1.9129e+02 -1.9069e+01  6.8573e+01 +/- 0.0000e+00 0.0000e+00 0.0000e+00 [bar]
-1.9069e+01  1.7376e+02  7.8795e+01 +/- 0.0000e+00 0.0000e+00 0.0000e+00 [bar]
 6.8573e+01  7.8795e+01  2.7482e+02 +/- 0.0000e+00 0.0000e+00 0.0000e+00 [bar]
Ideal-gas pressure:   5.134809e+02 +/ 0.000000e+00 [bar]
Excess pressure:     -3.001903e+02 +/ 0.000000e+00 [bar]
Pressure:             2.132906e+02 +/ 0.000000e+00 [bar]

Total potential energy/kʙ  -3.190235e+05 (-3.129681e+05 +/- 0.000000e+00) [K]
-------------------------------------------------------------------------------
ExternalField-molecule
    Van der Waals/kʙ        0.000000e+00 ( 0.000000e+00 +/- 0.000000e+00) [K]
Framework-molecule
    Van der Waals/kʙ        0.000000e+00 ( 0.000000e+00 +/- 0.000000e+00) [K]
    Van der Waals (Tail)/kʙ 0.000000e+00 ( 0.000000e+00 +/- 0.000000e+00) [K]
    Coulombic Real/kʙ       0.000000e+00 ( 0.000000e+00 +/- 0.000000e+00) [K]
    Coulombic Fourier/kʙ    0.000000e+00 ( 0.000000e+00 +/- 0.000000e+00) [K]
Molecule-molecule
    Van der Waals/kʙ       -2.225553e+05 (-2.227701e+05 +/- 0.000000e+00) [K]
    Van der Waals (Tail)/kʙ-9.817797e+03 (-9.548533e+03 +/- 0.000000e+00) [K]
    Coulombic Real/kʙ      -7.150251e+04 (-6.532628e+04 +/- 0.000000e+00) [K]
    Coulombic Fourier/kʙ   -1.514793e+04 (-1.532325e+04 +/- 0.000000e+00) [K]
    Molecule Intra/kʙ       0.000000e+00 ( 0.000000e+00 +/- 0.000000e+00) [K]

Current cycle: 1000 out of 5000
===============================================================================

Box:      23.50026   0.00000   0.00000  Average:  23.76995   0.00000   0.00000
           0.00000  23.50026   0.00000             0.00000  23.76995   0.00000
           0.00000   0.00000  23.50026             0.00000   0.00000  23.76995
Lengths:  23.50026  23.50026  23.50026  Average:  23.76995  23.76995  23.76995
Angles:   90.00000  90.00000  90.00000  Average:  90.00000  90.00000  90.00000
Rectangular boundary conditions

net charge:   0.00000000

component 0 (CO2) lambda:  0 occupancy:  1 (1.000000)
    net charge:   0.00000000 [e]

Amount of molecules per component :
-------------------------------------------------------------------------------
Component 0 (CO2)
    molecules:      2.000000e+02 molecules  (2.000000e+02 +/- 0.000000e+00)
    number density: 1.541033e-02 molec./A^3 (1.489709e-02 +/- 0.000000e+00)
    density:        1.125905e+03 kg/m^3     (1.088407e+03 +/- 0.000000e+00)

Average pressure tensor: 
-------------------------------------------------------------------------------
 2.0264e+02 -1.9894e+01  8.6136e+01 +/- 0.0000e+00 0.0000e+00 0.0000e+00 [bar]
-1.9894e+01  1.9271e+02  7.3448e+01 +/- 0.0000e+00 0.0000e+00 0.0000e+00 [bar]
 8.6136e+01  7.3448e+01  2.7652e+02 +/- 0.0000e+00 0.0000e+00 0.0000e+00 [bar]
Ideal-gas pressure:   5.141918e+02 +/ 0.000000e+00 [bar]
Excess pressure:     -2.902365e+02 +/ 0.000000e+00 [bar]
Pressure:             2.239553e+02 +/ 0.000000e+00 [bar]

Total potential energy/kʙ  -3.179953e+05 (-3.135497e+05 +/- 0.000000e+00) [K]
-------------------------------------------------------------------------------
ExternalField-molecule
    Van der Waals/kʙ        0.000000e+00 ( 0.000000e+00 +/- 0.000000e+00) [K]
Framework-molecule
    Van der Waals/kʙ        0.000000e+00 ( 0.000000e+00 +/- 0.000000e+00) [K]
    Van der Waals (Tail)/kʙ 0.000000e+00 ( 0.000000e+00 +/- 0.000000e+00) [K]
    Coulombic Real/kʙ       0.000000e+00 ( 0.000000e+00 +/- 0.000000e+00) [K]
    Coulombic Fourier/kʙ    0.000000e+00 ( 0.000000e+00 +/- 0.000000e+00) [K]
Molecule-molecule
    Van der Waals/kʙ       -2.208974e+05 (-2.229080e+05 +/- 0.000000e+00) [K]
    Van der Waals (Tail)/kʙ-9.888962e+03 (-9.564620e+03 +/- 0.000000e+00) [K]
    Coulombic Real/kʙ      -7.080239e+04 (-6.567149e+04 +/- 0.000000e+00) [K]
    Coulombic Fourier/kʙ   -1.640654e+04 (-1.540564e+04 +/- 0.000000e+00) [K]
    Molecule Intra/kʙ       0.000000e+00 ( 0.000000e+00 +/- 0.000000e+00) [K]

Current cycle: 1100 out of 5000
===============================================================================

Box:      23.61942   0.00000   0.00000  Average:  23.74923   0.00000   0.00000
           0.00000  23.61942   0.00000             0.00000  23.74923   0.00000
           0.00000   0.00000  23.61942             0.00000   0.00000  23.74923
Lengths:  23.61942  23.61942  23.61942  Average:  23.74923  23.74923  23.74923
Angles:   90.00000  90.00000  90.00000  Average:  90.00000  90.00000  90.00000
Rectangular boundary conditions

net charge:   0.00000000

component 0 (CO2) lambda:  0 occupancy:  1 (1.000000)
    net charge:   0.00000000 [e]

Amount of molecules per component :
-------------------------------------------------------------------------------
Component 0 (CO2)
    molecules:      2.000000e+02 molecules  (2.000000e+02 +/- 0.000000e+00)
    number density: 1.517827e-02 molec./A^3 (1.493645e-02 +/- 0.000000e+00)
    density:        1.108951e+03 kg/m^3     (1.091282e+03 +/- 0.000000e+00)

Average pressure tensor: 
-------------------------------------------------------------------------------
 2.5932e+02 -1.8347e+01  9.0293e+01 +/- 0.0000e+00 0.0000e+00 0.0000e+00 [bar]
-1.8347e+01  2.0776e+02  7.0024e+01 +/- 0.0000e+00 0.0000e+00 0.0000e+00 [bar]
 9.0293e+01  7.0024e+01  2.8378e+02 +/- 0.0000e+00 0.0000e+00 0.0000e+00 [bar]
Ideal-gas pressure:   5.155503e+02 +/ 0.000000e+00 [bar]
Excess pressure:     -2.652631e+02 +/ 0.000000e+00 [bar]
Pressure:             2.502872e+02 +/ 0.000000e+00 [bar]

Total potential energy/kʙ  -3.193771e+05 (-3.143102e+05 +/- 0.000000e+00) [K]
-------------------------------------------------------------------------------
ExternalField-molecule
    Van der Waals/kʙ        0.000000e+00 ( 0.000000e+00 +/- 0.000000e+00) [K]
Framework-molecule
    Van der Waals/kʙ        0.000000e+00 ( 0.000000e+00 +/- 0.000000e+00) [K]
    Van der Waals (Tail)/kʙ 0.000000e+00 ( 0.000000e+00 +/- 0.000000e+00) [K]
    Coulombic Real/kʙ       0.000000e+00 ( 0.000000e+00 +/- 0.000000e+00) [K]
    Coulombic Fourier/kʙ    0.000000e+00 ( 0.000000e+00 +/- 0.000000e+00) [K]
Molecule-molecule
    Van der Waals/kʙ       -2.306620e+05 (-2.235560e+05 +/- 0.000000e+00) [K]
    Van der Waals (Tail)/kʙ-9.740046e+03 (-9.594032e+03 +/- 0.000000e+00) [K]
    Coulombic Real/kʙ      -6.280742e+04 (-6.570820e+04 +/- 0.000000e+00) [K]
    Coulombic Fourier/kʙ   -1.616765e+04 (-1.545188e+04 +/- 0.000000e+00) [K]
    Molecule Intra/kʙ       0.000000e+00 ( 0.000000e+00 +/- 0.000000e+00) [K]

Current cycle: 1200 out of 5000
===============================================================================

Box:      23.75160   0.00000   0.00000  Average:  23.73886   0.00000   0.00000
           0.00000  23.75160   0.00000             0.00000  23.73886   0.00000
           0.00000   0.00000  23.75160             0.00000   0.00000  23.73886
Lengths:  23.75160  23.75160  23.75160  Average:  23.73886  23.73886  23.73886
Angles:   90.00000  90.00000  90.00000  Average:  90.00000  90.00000  90.00000
Rectangular boundary conditions

net charge:   0.00000000

component 0 (CO2) lambda:  0 occupancy:  1 (1.000000)
    net charge:   0.00000000 [e]

Amount of molecules per component :
-------------------------------------------------------------------------------
Component 0 (CO2)
    molecules:      2.000000e+02 molecules  (2.000000e+02 +/- 0.000000e+00)
    number density: 1.492627e-02 molec./A^3 (1.495578e-02 +/- 0.000000e+00)
    density:        1.090539e+03 kg/m^3     (1.092695e+03 +/- 0.000000e+00)

Average pressure tensor: 
-------------------------------------------------------------------------------
 2.3942e+02 -9.0748e+00  9.1604e+01 +/- 0.0000e+00 0.0000e+00 0.0000e+00 [bar]
-9.0748e+00  2.1915e+02  7.5499e+01 +/- 0.0000e+00 0.0000e+00 0.0000e+00 [bar]
 9.1604e+01  7.5499e+01  2.8417e+02 +/- 0.0000e+00 0.0000e+00 0.0000e+00 [bar]
Ideal-gas pressure:   5.162175e+02 +/ 0.000000e+00 [bar]
Excess pressure:     -2.686379e+02 +/ 0.000000e+00 [bar]
Pressure:             2.475796e+02 +/ 0.000000e+00 [bar]

Total potential energy/kʙ  -3.084524e+05 (-3.148469e+05 +/- 0.000000e+00) [K]
-------------------------------------------------------------------------------
ExternalField-molecule
    Van der Waals/kʙ        0.000000e+00 ( 0.000000e+00 +/- 0.000000e+00) [K]
Framework-molecule
    Van der Waals/kʙ        0.000000e+00 ( 0.000000e+00 +/- 0.000000e+00) [K]
    Van der Waals (Tail)/kʙ 0.000000e+00 ( 0.000000e+00 +/- 0.000000e+00) [K]
    Coulombic Real/kʙ       0.000000e+00 ( 0.000000e+00 +/- 0.000000e+00) [K]
    Coulombic Fourier/kʙ    0.000000e+00 ( 0.000000e+00 +/- 0.000000e+00) [K]
Molecule-molecule
    Van der Waals/kʙ       -2.206334e+05 (-2.239922e+05 +/- 0.000000e+00) [K]
    Van der Waals (Tail)/kʙ-9.578337e+03 (-9.605550e+03 +/- 0.000000e+00) [K]
    Coulombic Real/kʙ      -6.247488e+04 (-6.573992e+04 +/- 0.000000e+00) [K]
    Coulombic Fourier/kʙ   -1.576578e+04 (-1.550928e+04 +/- 0.000000e+00) [K]
    Molecule Intra/kʙ       0.000000e+00 ( 0.000000e+00 +/- 0.000000e+00) [K]

Current cycle: 1300 out of 5000
===============================================================================

Box:      23.68055   0.00000   0.00000  Average:  23.73850   0.00000   0.00000
           0.00000  23.68055   0.00000             0.00000  23.73850   0.00000
           0.00000   0.00000  23.68055             0.00000   0.00000  23.73850
Lengths:  23.68055  23.68055  23.68055  Average:  23.73850  23.73850  23.73850
Angles:   90.00000  90.00000  90.00000  Average:  90.00000  90.00000  90.00000
Rectangular boundary conditions

net charge:   0.00000000

component 0 (CO2) lambda:  0 occupancy:  1 (1.000000)
    net charge:   0.00000000 [e]

Amount of molecules per component :
-------------------------------------------------------------------------------
Component 0 (CO2)
    molecules:      2.000000e+02 molecules  (2.000000e+02 +/- 0.000000e+00)
    number density: 1.506104e-02 molec./A^3 (1.495613e-02 +/- 0.000000e+00)
    density:        1.100385e+03 kg/m^3     (1.092720e+03 +/- 0.000000e+00)

Average pressure tensor: 
-------------------------------------------------------------------------------
 2.4799e+02  1.5033e+00  9.0164e+01 +/- 0.0000e+00 0.0000e+00 0.0000e+00 [bar]
 1.5033e+00  2.2608e+02  6.8009e+01 +/- 0.0000e+00 0.0000e+00 0.0000e+00 [bar]
 9.0164e+01  6.8009e+01  2.7775e+02 +/- 0.0000e+00 0.0000e+00 0.0000e+00 [bar]
Ideal-gas pressure:   5.162295e+02 +/ 0.000000e+00 [bar]
Excess pressure:     -2.656228e+02 +/ 0.000000e+00 [bar]
Pressure:             2.506067e+02 +/ 0.000000e+00 [bar]

Total potential energy/kʙ  -3.170582e+05 (-3.149522e+05 +/- 0.000000e+00) [K]
-------------------------------------------------------------------------------
ExternalField-molecule
    Van der Waals/kʙ        0.000000e+00 ( 0.000000e+00 +/- 0.000000e+00) [K]
Framework-molecule
    Van der Waals/kʙ        0.000000e+00 ( 0.000000e+00 +/- 0.000000e+00) [K]
    Van der Waals (Tail)/kʙ 0.000000e+00 ( 0.000000e+00 +/- 0.000000e+00) [K]
    Coulombic Real/kʙ       0.000000e+00 ( 0.000000e+00 +/- 0.000000e+00) [K]
    Coulombic Fourier/kʙ    0.000000e+00 ( 0.000000e+00 +/- 0.000000e+00) [K]
Molecule-molecule
    Van der Waals/kʙ       -2.266066e+05 (-2.239515e+05 +/- 0.000000e+00) [K]
    Van der Waals (Tail)/kʙ-9.664814e+03 (-9.606566e+03 +/- 0.000000e+00) [K]
    Coulombic Real/kʙ      -6.488748e+04 (-6.582907e+04 +/- 0.000000e+00) [K]
    Coulombic Fourier/kʙ   -1.589922e+04 (-1.556514e+04 +/- 0.000000e+00) [K]
    Molecule Intra/kʙ       0.000000e+00 ( 0.000000e+00 +/- 0.000000e+00) [K]

Current cycle: 1400 out of 5000
===============================================================================

Box:      23.50478   0.00000   0.00000  Average:  23.73548   0.00000   0.00000
           0.00000  23.50478   0.00000             0.00000  23.73548   0.00000
           0.00000   0.00000  23.50478             0.00000   0.00000  23.73548
Lengths:  23.50478  23.50478  23.50478  Average:  23.73548  23.73548  23.73548
Angles:   90.00000  90.00000  90.00000  Average:  90.00000  90.00000  90.00000
Rectangular boundary conditions

net charge:   0.00000000

component 0 (CO2) lambda:  0 occupancy:  1 (1.000000)
    net charge:   0.00000000 [e]

Amount of molecules per component :
-------------------------------------------------------------------------------
Component 0 (CO2)
    molecules:      2.000000e+02 molecules  (2.000000e+02 +/- 0.000000e+00)
    number density: 1.540145e-02 molec./A^3 (1.496158e-02 +/- 0.000000e+00)
    density:        1.125256e+03 kg/m^3     (1.093119e+03 +/- 0.000000e+00)

Average pressure tensor: 
-------------------------------------------------------------------------------
 2.4327e+02  4.5140e+00  8.3407e+01 +/- 0.0000e+00 0.0000e+00 0.0000e+00 [bar]
 4.5140e+00  2.0975e+02  6.9010e+01 +/- 0.0000e+00 0.0000e+00 0.0000e+00 [bar]
 8.3407e+01  6.9010e+01  2.7700e+02 +/- 0.0000e+00 0.0000e+00 0.0000e+00 [bar]
Ideal-gas pressure:   5.164178e+02 +/ 0.000000e+00 [bar]
Excess pressure:     -2.730783e+02 +/ 0.000000e+00 [bar]
Pressure:             2.433395e+02 +/ 0.000000e+00 [bar]

Total potential energy/kʙ  -3.253868e+05 (-3.152546e+05 +/- 0.000000e+00) [K]
-------------------------------------------------------------------------------
ExternalField-molecule
    Van der Waals/kʙ        0.000000e+00 ( 0.000000e+00 +/- 0.000000e+00) [K]
Framework-molecule
    Van der Waals/kʙ        0.000000e+00 ( 0.000000e+00 +/- 0.000000e+00) [K]
    Van der Waals (Tail)/kʙ 0.000000e+00 ( 0.000000e+00 +/- 0.000000e+00) [K]
    Coulombic Real/kʙ       0.000000e+00 ( 0.000000e+00 +/- 0.000000e+00) [K]
    Coulombic Fourier/kʙ    0.000000e+00 ( 0.000000e+00 +/- 0.000000e+00) [K]
Molecule-molecule
    Van der Waals/kʙ       -2.267308e+05 (-2.239050e+05 +/- 0.000000e+00) [K]
    Van der Waals (Tail)/kʙ-9.883262e+03 (-9.608540e+03 +/- 0.000000e+00) [K]
    Coulombic Real/kʙ      -7.124532e+04 (-6.608460e+04 +/- 0.000000e+00) [K]
    Coulombic Fourier/kʙ   -1.752740e+04 (-1.565643e+04 +/- 0.000000e+00) [K]
    Molecule Intra/kʙ       0.000000e+00 ( 0.000000e+00 +/- 0.000000e+00) [K]

Current cycle: 1500 out of 5000
===============================================================================

Box:      23.62083   0.00000   0.00000  Average:  23.72857   0.00000   0.00000
           0.00000  23.62083   0.00000             0.00000  23.72857   0.00000
           0.00000   0.00000  23.62083             0.00000   0.00000  23.72857
Lengths:  23.62083  23.62083  23.62083  Average:  23.72857  23.72857  23.72857
Angles:   90.00000  90.00000  90.00000  Average:  90.00000  90.00000  90.00000
Rectangular boundary conditions

net charge:   0.00000000

component 0 (CO2) lambda:  0 occupancy:  1 (1.000000)
    net charge:   0.00000000 [e]

Amount of molecules per component :
-------------------------------------------------------------------------------
Component 0 (CO2)
    molecules:      2.000000e+02 molecules  (2.000000e+02 +/- 0.000000e+00)
    number density: 1.517555e-02 molec./A^3 (1.497454e-02 +/- 0.000000e+00)
    density:        1.108752e+03 kg/m^3     (1.094066e+03 +/- 0.000000e+00)

Average pressure tensor: 
-------------------------------------------------------------------------------
 2.5235e+02  1.0517e+01  5.8395e+01 +/- 0.0000e+00 0.0000e+00 0.0000e+00 [bar]
 1.0517e+01  2.0608e+02  7.2524e+01 +/- 0.0000e+00 0.0000e+00 0.0000e+00 [bar]
 5.8395e+01  7.2524e+01  2.7081e+02 +/- 0.0000e+00 0.0000e+00 0.0000e+00 [bar]
Ideal-gas pressure:   5.168652e+02 +/ 0.000000e+00 [bar]
Excess pressure:     -2.737846e+02 +/ 0.000000e+00 [bar]
Pressure:             2.430805e+02 +/ 0.000000e+00 [bar]

Total potential energy/kʙ  -3.211304e+05 (-3.158846e+05 +/- 0.000000e+00) [K]
-------------------------------------------------------------------------------
ExternalField-molecule
    Van der Waals/kʙ        0.000000e+00 ( 0.000000e+00 +/- 0.000000e+00) [K]
Framework-molecule
    Van der Waals/kʙ        0.000000e+00 ( 0.000000e+00 +/- 0.000000e+00) [K]
    Van der Waals (Tail)/kʙ 0.000000e+00 ( 0.000000e+00 +/- 0.000000e+00) [K]
    Coulombic Real/kʙ       0.000000e+00 ( 0.000000e+00 +/- 0.000000e+00) [K]
    Coulombic Fourier/kʙ    0.000000e+00 ( 0.000000e+00 +/- 0.000000e+00) [K]
Molecule-molecule
    Van der Waals/kʙ       -2.256608e+05 (-2.241857e+05 +/- 0.000000e+00) [K]
    Van der Waals (Tail)/kʙ-9.738302e+03 (-9.616687e+03 +/- 0.000000e+00) [K]
    Coulombic Real/kʙ      -6.986258e+04 (-6.635592e+04 +/- 0.000000e+00) [K]
    Coulombic Fourier/kʙ   -1.586867e+04 (-1.572628e+04 +/- 0.000000e+00) [K]
    Molecule Intra/kʙ       0.000000e+00 ( 0.000000e+00 +/- 0.000000e+00) [K]

Current cycle: 1600 out of 5000
===============================================================================

Box:      23.41832   0.00000   0.00000  Average:  23.71340   0.00000   0.00000
           0.00000  23.41832   0.00000             0.00000  23.71340   0.00000
           0.00000   0.00000  23.41832             0.00000   0.00000  23.71340
Lengths:  23.41832  23.41832  23.41832  Average:  23.71340  23.71340  23.71340
Angles:   90.00000  90.00000  90.00000  Average:  90.00000  90.00000  90.00000
Rectangular boundary conditions

net charge:   0.00000000

component 0 (CO2) lambda:  0 occupancy:  1 (1.000000)
    net charge:   0.00000000 [e]

Amount of molecules per component :
-------------------------------------------------------------------------------
Component 0 (CO2)
    molecules:      2.000000e+02 molecules  (2.000000e+02 +/- 0.000000e+00)
    number density: 1.557265e-02 molec./A^3 (1.500360e-02 +/- 0.000000e+00)
    density:        1.137765e+03 kg/m^3     (1.096189e+03 +/- 0.000000e+00)

Average pressure tensor: 
-------------------------------------------------------------------------------
 2.4427e+02  2.0491e+01  6.2162e+01 +/- 0.0000e+00 0.0000e+00 0.0000e+00 [bar]
 2.0491e+01  1.9827e+02  7.7864e+01 +/- 0.0000e+00 0.0000e+00 0.0000e+00 [bar]
 6.2162e+01  7.7864e+01  2.6698e+02 +/- 0.0000e+00 0.0000e+00 0.0000e+00 [bar]
Ideal-gas pressure:   5.178682e+02 +/ 0.000000e+00 [bar]
Excess pressure:     -2.813621e+02 +/ 0.000000e+00 [bar]
Pressure:             2.365062e+02 +/ 0.000000e+00 [bar]

Total potential energy/kʙ  -3.252725e+05 (-3.167960e+05 +/- 0.000000e+00) [K]
-------------------------------------------------------------------------------
ExternalField-molecule
    Van der Waals/kʙ        0.000000e+00 ( 0.000000e+00 +/- 0.000000e+00) [K]
Framework-molecule
    Van der Waals/kʙ        0.000000e+00 ( 0.000000e+00 +/- 0.000000e+00) [K]
    Van der Waals (Tail)/kʙ 0.000000e+00 ( 0.000000e+00 +/- 0.000000e+00) [K]
    Coulombic Real/kʙ       0.000000e+00 ( 0.000000e+00 +/- 0.000000e+00) [K]
    Coulombic Fourier/kʙ    0.000000e+00 ( 0.000000e+00 +/- 0.000000e+00) [K]
Molecule-molecule
    Van der Waals/kʙ       -2.331625e+05 (-2.247632e+05 +/- 0.000000e+00) [K]
    Van der Waals (Tail)/kʙ-9.993125e+03 (-9.636279e+03 +/- 0.000000e+00) [K]
    Coulombic Real/kʙ      -6.709122e+04 (-6.660641e+04 +/- 0.000000e+00) [K]
    Coulombic Fourier/kʙ   -1.502570e+04 (-1.579011e+04 +/- 0.000000e+00) [K]
    Molecule Intra/kʙ       0.000000e+00 ( 0.000000e+00 +/- 0.000000e+00) [K]

Current cycle: 1700 out of 5000
===============================================================================

Box:      23.32238   0.00000   0.00000  Average:  23.69473   0.00000   0.00000
           0.00000  23.32238   0.00000             0.00000  23.69473   0.00000
           0.00000   0.00000  23.32238             0.00000   0.00000  23.69473
Lengths:  23.32238  23.32238  23.32238  Average:  23.69473  23.69473  23.69473
Angles:   90.00000  90.00000  90.00000  Average:  90.00000  90.00000  90.00000
Rectangular boundary conditions

net charge:   0.00000000

component 0 (CO2) lambda:  0 occupancy:  1 (1.000000)
    net charge:   0.00000000 [e]

Amount of molecules per component :
-------------------------------------------------------------------------------
Component 0 (CO2)
    molecules:      2.000000e+02 molecules  (2.000000e+02 +/- 0.000000e+00)
    number density: 1.576564e-02 molec./A^3 (1.503975e-02 +/- 0.000000e+00)
    density:        1.151865e+03 kg/m^3     (1.098830e+03 +/- 0.000000e+00)

Average pressure tensor: 
-------------------------------------------------------------------------------
 2.4307e+02  3.0199e+01  6.3225e+01 +/- 0.0000e+00 0.0000e+00 0.0000e+00 [bar]
 3.0199e+01  2.1075e+02  9.6170e+01 +/- 0.0000e+00 0.0000e+00 0.0000e+00 [bar]
 6.3225e+01  9.6170e+01  2.6895e+02 +/- 0.0000e+00 0.0000e+00 0.0000e+00 [bar]
Ideal-gas pressure:   5.191160e+02 +/ 0.000000e+00 [bar]
Excess pressure:     -2.781919e+02 +/ 0.000000e+00 [bar]
Pressure:             2.409240e+02 +/ 0.000000e+00 [bar]

Total potential energy/kʙ  -3.379749e+05 (-3.176558e+05 +/- 0.000000e+00) [K]
-------------------------------------------------------------------------------
ExternalField-molecule
    Van der Waals/kʙ        0.000000e+00 ( 0.000000e+00 +/- 0.000000e+00) [K]
Framework-molecule
    Van der Waals/kʙ        0.000000e+00 ( 0.000000e+00 +/- 0.000000e+00) [K]
    Van der Waals (Tail)/kʙ 0.000000e+00 ( 0.000000e+00 +/- 0.000000e+00) [K]
    Coulombic Real/kʙ       0.000000e+00 ( 0.000000e+00 +/- 0.000000e+00) [K]
    Coulombic Fourier/kʙ    0.000000e+00 ( 0.000000e+00 +/- 0.000000e+00) [K]
Molecule-molecule
    Van der Waals/kʙ       -2.413096e+05 (-2.254896e+05 +/- 0.000000e+00) [K]
    Van der Waals (Tail)/kʙ-1.011697e+04 (-9.660351e+03 +/- 0.000000e+00) [K]
    Coulombic Real/kʙ      -7.040297e+04 (-6.673606e+04 +/- 0.000000e+00) [K]
    Coulombic Fourier/kʙ   -1.614540e+04 (-1.576981e+04 +/- 0.000000e+00) [K]
    Molecule Intra/kʙ       0.000000e+00 ( 0.000000e+00 +/- 0.000000e+00) [K]

Current cycle: 1800 out of 5000
===============================================================================

Box:      23.32458   0.00000   0.00000  Average:  23.67865   0.00000   0.00000
           0.00000  23.32458   0.00000             0.00000  23.67865   0.00000
           0.00000   0.00000  23.32458             0.00000   0.00000  23.67865
Lengths:  23.32458  23.32458  23.32458  Average:  23.67865  23.67865  23.67865
Angles:   90.00000  90.00000  90.00000  Average:  90.00000  90.00000  90.00000
Rectangular boundary conditions

net charge:   0.00000000

component 0 (CO2) lambda:  0 occupancy:  1 (1.000000)
    net charge:   0.00000000 [e]

Amount of molecules per component :
-------------------------------------------------------------------------------
Component 0 (CO2)
    molecules:      2.000000e+02 molecules  (2.000000e+02 +/- 0.000000e+00)
    number density: 1.576117e-02 molec./A^3 (1.507086e-02 +/- 0.000000e+00)
    density:        1.151538e+03 kg/m^3     (1.101102e+03 +/- 0.000000e+00)

Average pressure tensor: 
-------------------------------------------------------------------------------
 2.4076e+02  3.4799e+01  6.0530e+01 +/- 0.0000e+00 0.0000e+00 0.0000e+00 [bar]
 3.4799e+01  1.9431e+02  1.0147e+02 +/- 0.0000e+00 0.0000e+00 0.0000e+00 [bar]
 6.0530e+01  1.0147e+02  2.6248e+02 +/- 0.0000e+00 0.0000e+00 0.0000e+00 [bar]
Ideal-gas pressure:   5.201895e+02 +/ 0.000000e+00 [bar]
Excess pressure:     -2.876741e+02 +/ 0.000000e+00 [bar]
Pressure:             2.325154e+02 +/ 0.000000e+00 [bar]

Total potential energy/kʙ  -3.297752e+05 (-3.184539e+05 +/- 0.000000e+00) [K]
-------------------------------------------------------------------------------
ExternalField-molecule
    Van der Waals/kʙ        0.000000e+00 ( 0.000000e+00 +/- 0.000000e+00) [K]
Framework-molecule
    Van der Waals/kʙ        0.000000e+00 ( 0.000000e+00 +/- 0.000000e+00) [K]
    Van der Waals (Tail)/kʙ 0.000000e+00 ( 0.000000e+00 +/- 0.000000e+00) [K]
    Coulombic Real/kʙ       0.000000e+00 ( 0.000000e+00 +/- 0.000000e+00) [K]
    Coulombic Fourier/kʙ    0.000000e+00 ( 0.000000e+00 +/- 0.000000e+00) [K]
Molecule-molecule
    Van der Waals/kʙ       -2.374726e+05 (-2.261989e+05 +/- 0.000000e+00) [K]
    Van der Waals (Tail)/kʙ-1.011410e+04 (-9.680717e+03 +/- 0.000000e+00) [K]
    Coulombic Real/kʙ      -6.470563e+04 (-6.675182e+04 +/- 0.000000e+00) [K]
    Coulombic Fourier/kʙ   -1.748284e+04 (-1.582244e+04 +/- 0.000000e+00) [K]
    Molecule Intra/kʙ       0.000000e+00 ( 0.000000e+00 +/- 0.000000e+00) [K]

Current cycle: 1900 out of 5000
===============================================================================

Box:      23.49507   0.00000   0.00000  Average:  23.66595   0.00000   0.00000
           0.00000  23.49507   0.00000             0.00000  23.66595   0.00000
           0.00000   0.00000  23.49507             0.00000   0.00000  23.66595
Lengths:  23.49507  23.49507  23.49507  Average:  23.66595  23.66595  23.66595
Angles:   90.00000  90.00000  90.00000  Average:  90.00000  90.00000  90.00000
Rectangular boundary conditions

net charge:   0.00000000

component 0 (CO2) lambda:  0 occupancy:  1 (1.000000)
    net charge:   0.00000000 [e]

Amount of molecules per component :
-------------------------------------------------------------------------------
Component 0 (CO2)
    molecules:      2.000000e+02 molecules  (2.000000e+02 +/- 0.000000e+00)
    number density: 1.542054e-02 molec./A^3 (1.509533e-02 +/- 0.000000e+00)
    density:        1.126651e+03 kg/m^3     (1.102891e+03 +/- 0.000000e+00)

Average pressure tensor: 
-------------------------------------------------------------------------------
 2.6389e+02  4.1084e+01  5.9951e+01 +/- 0.0000e+00 0.0000e+00 0.0000e+00 [bar]
 4.1084e+01  1.8744e+02  1.0284e+02 +/- 0.0000e+00 0.0000e+00 0.0000e+00 [bar]
 5.9951e+01  1.0284e+02  2.5770e+02 +/- 0.0000e+00 0.0000e+00 0.0000e+00 [bar]
Ideal-gas pressure:   5.210343e+02 +/ 0.000000e+00 [bar]
Excess pressure:     -2.846905e+02 +/ 0.000000e+00 [bar]
Pressure:             2.363438e+02 +/ 0.000000e+00 [bar]

Total potential energy/kʙ  -3.258305e+05 (-3.189773e+05 +/- 0.000000e+00) [K]
-------------------------------------------------------------------------------
ExternalField-molecule
    Van der Waals/kʙ        0.000000e+00 ( 0.000000e+00 +/- 0.000000e+00) [K]
Framework-molecule
    Van der Waals/kʙ        0.000000e+00 ( 0.000000e+00 +/- 0.000000e+00) [K]
    Van der Waals (Tail)/kʙ 0.000000e+00 ( 0.000000e+00 +/- 0.000000e+00) [K]
    Coulombic Real/kʙ       0.000000e+00 ( 0.000000e+00 +/- 0.000000e+00) [K]
    Coulombic Fourier/kʙ    0.000000e+00 ( 0.000000e+00 +/- 0.000000e+00) [K]
Molecule-molecule
    Van der Waals/kʙ       -2.301907e+05 (-2.265880e+05 +/- 0.000000e+00) [K]
    Van der Waals (Tail)/kʙ-9.895512e+03 (-9.695292e+03 +/- 0.000000e+00) [K]
    Coulombic Real/kʙ      -7.021273e+04 (-6.684904e+04 +/- 0.000000e+00) [K]
    Coulombic Fourier/kʙ   -1.553148e+04 (-1.584501e+04 +/- 0.000000e+00) [K]
    Molecule Intra/kʙ       0.000000e+00 ( 0.000000e+00 +/- 0.000000e+00) [K]

Current cycle: 2000 out of 5000
===============================================================================

Box:      23.55530   0.00000   0.00000  Average:  23.65805   0.00000   0.00000
           0.00000  23.55530   0.00000             0.00000  23.65805   0.00000
           0.00000   0.00000  23.55530             0.00000   0.00000  23.65805
Lengths:  23.55530  23.55530  23.55530  Average:  23.65805  23.65805  23.65805
Angles:   90.00000  90.00000  90.00000  Average:  90.00000  90.00000  90.00000
Rectangular boundary conditions

net charge:   0.00000000

component 0 (CO2) lambda:  0 occupancy:  1 (1.000000)
    net charge:   0.00000000 [e]

Amount of molecules per component :
-------------------------------------------------------------------------------
Component 0 (CO2)
    molecules:      2.000000e+02 molecules  (2.000000e+02 +/- 0.000000e+00)
    number density: 1.530255e-02 molec./A^3 (1.511036e-02 +/- 0.000000e+00)
    density:        1.118031e+03 kg/m^3     (1.103989e+03 +/- 0.000000e+00)

Average pressure tensor: 
-------------------------------------------------------------------------------
 2.8829e+02  4.1526e+01  5.9207e+01 +/- 0.0000e+00 0.0000e+00 0.0000e+00 [bar]
 4.1526e+01  1.8100e+02  1.0749e+02 +/- 0.0000e+00 0.0000e+00 0.0000e+00 [bar]
 5.9207e+01  1.0749e+02  2.6147e+02 +/- 0.0000e+00 0.0000e+00 0.0000e+00 [bar]
Ideal-gas pressure:   5.215531e+02 +/ 0.000000e+00 [bar]
Excess pressure:     -2.779656e+02 +/ 0.000000e+00 [bar]
Pressure:             2.435875e+02 +/ 0.000000e+00 [bar]

Total potential energy/kʙ  -3.302560e+05 (-3.194311e+05 +/- 0.000000e+00) [K]
-------------------------------------------------------------------------------
ExternalField-molecule
    Van der Waals/kʙ        0.000000e+00 ( 0.000000e+00 +/- 0.000000e+00) [K]
Framework-molecule
    Van der Waals/kʙ        0.000000e+00 ( 0.000000e+00 +/- 0.000000e+00) [K]
    Van der Waals (Tail)/kʙ 0.000000e+00 ( 0.000000e+00 +/- 0.000000e+00) [K]
    Coulombic Real/kʙ       0.000000e+00 ( 0.000000e+00 +/- 0.000000e+00) [K]
    Coulombic Fourier/kʙ    0.000000e+00 ( 0.000000e+00 +/- 0.000000e+00) [K]
Molecule-molecule
    Van der Waals/kʙ       -2.312027e+05 (-2.268660e+05 +/- 0.000000e+00) [K]
    Van der Waals (Tail)/kʙ-9.819800e+03 (-9.704690e+03 +/- 0.000000e+00) [K]
    Coulombic Real/kʙ      -7.176912e+04 (-6.698577e+04 +/- 0.000000e+00) [K]
    Coulombic Fourier/kʙ   -1.746432e+04 (-1.587468e+04 +/- 0.000000e+00) [K]
    Molecule Intra/kʙ       0.000000e+00 ( 0.000000e+00 +/- 0.000000e+00) [K]

Current cycle: 2100 out of 5000
===============================================================================

Box:      23.55277   0.00000   0.00000  Average:  23.65350   0.00000   0.00000
           0.00000  23.55277   0.00000             0.00000  23.65350   0.00000
           0.00000   0.00000  23.55277             0.00000   0.00000  23.65350
Lengths:  23.55277  23.55277  23.55277  Average:  23.65350  23.65350  23.65350
Angles:   90.00000  90.00000  90.00000  Average:  90.00000  90.00000  90.00000
Rectangular boundary conditions

net charge:   0.00000000

component 0 (CO2) lambda:  0 occupancy:  1 (1.000000)
    net charge:   0.00000000 [e]

Amount of molecules per component :
-------------------------------------------------------------------------------
Component 0 (CO2)
    molecules:      2.000000e+02 molecules  (2.000000e+02 +/- 0.000000e+00)
    number density: 1.530750e-02 molec./A^3 (1.511889e-02 +/- 0.000000e+00)
    density:        1.118392e+03 kg/m^3     (1.104612e+03 +/- 0.000000e+00)

Average pressure tensor: 
-------------------------------------------------------------------------------
 2.8958e+02  4.2733e+01  4.7559e+01 +/- 0.0000e+00 0.0000e+00 0.0000e+00 [bar]
 4.2733e+01  1.7514e+02  1.0921e+02 +/- 0.0000e+00 0.0000e+00 0.0000e+00 [bar]
 4.7559e+01  1.0921e+02  2.4912e+02 +/- 0.0000e+00 0.0000e+00 0.0000e+00 [bar]
Ideal-gas pressure:   5.218473e+02 +/ 0.000000e+00 [bar]
Excess pressure:     -2.839026e+02 +/ 0.000000e+00 [bar]
Pressure:             2.379447e+02 +/ 0.000000e+00 [bar]

Total potential energy/kʙ  -3.241042e+05 (-3.196739e+05 +/- 0.000000e+00) [K]
-------------------------------------------------------------------------------
ExternalField-molecule
    Van der Waals/kʙ        0.000000e+00 ( 0.000000e+00 +/- 0.000000e+00) [K]
Framework-molecule
    Van der Waals/kʙ        0.000000e+00 ( 0.000000e+00 +/- 0.000000e+00) [K]
    Van der Waals (Tail)/kʙ 0.000000e+00 ( 0.000000e+00 +/- 0.000000e+00) [K]
[...]
    Coulombic Fourier/kʙ    0.000000e+00 ( 0.000000e+00 +/- 0.000000e+00) [K]
Molecule-molecule
    Van der Waals/kʙ       -2.284285e+05 (-2.272413e+05 +/- 3.807583e+03) [K]
    Van der Waals (Tail)/kʙ-1.011690e+04 (-9.714201e+03 +/- 1.440697e+02) [K]
    Coulombic Real/kʙ      -7.291807e+04 (-6.823217e+04 +/- 2.062341e+03) [K]
    Coulombic Fourier/kʙ   -1.662797e+04 (-1.610785e+04 +/- 6.364830e+02) [K]
    Molecule Intra/kʙ       0.000000e+00 ( 0.000000e+00 +/- 0.000000e+00) [K]

Current cycle: 4700 out of 5000
===============================================================================

Box:      23.39029   0.00000   0.00000  Average:  23.64004   0.00000   0.00000
           0.00000  23.39029   0.00000             0.00000  23.64004   0.00000
           0.00000   0.00000  23.39029             0.00000   0.00000  23.64004
Lengths:  23.39029  23.39029  23.39029  Average:  23.64004  23.64004  23.64004
Angles:   90.00000  90.00000  90.00000  Average:  90.00000  90.00000  90.00000
Rectangular boundary conditions

net charge:   0.00000000

component 0 (CO2) lambda:  0 occupancy:  1 (1.000000)
    net charge:   0.00000000 [e]

Amount of molecules per component :
-------------------------------------------------------------------------------
Component 0 (CO2)
    molecules:      2.000000e+02 molecules  (2.000000e+02 +/- 0.000000e+00)
    number density: 1.562872e-02 molec./A^3 (1.514393e-02 +/- 2.195650e-04)
    density:        1.141861e+03 kg/m^3     (1.106442e+03 +/- 1.604179e+01)

Average pressure tensor: 
-------------------------------------------------------------------------------
 2.6234e+02  3.9348e+01  4.4752e+00 +/- 1.3469e+02 9.3136e+01 1.4891e+02 [bar]
 3.9348e+01  1.8505e+02  6.3553e+01 +/- 9.3136e+01 6.7491e+01 6.8089e+01 [bar]
 4.4752e+00  6.3553e+01  2.0690e+02 +/- 1.4891e+02 6.8089e+01 7.1084e+01 [bar]
Ideal-gas pressure:   5.227119e+02 +/ 7.578561e+00 [bar]
Excess pressure:     -3.046154e+02 +/ 4.918016e+01 [bar]
Pressure:             2.180964e+02 +/ 4.993245e+01 [bar]

Total potential energy/kʙ  -3.252210e+05 (-3.214487e+05 +/- 6.314569e+03) [K]
-------------------------------------------------------------------------------
ExternalField-molecule
    Van der Waals/kʙ        0.000000e+00 ( 0.000000e+00 +/- 0.000000e+00) [K]
Framework-molecule
    Van der Waals/kʙ        0.000000e+00 ( 0.000000e+00 +/- 0.000000e+00) [K]
    Van der Waals (Tail)/kʙ 0.000000e+00 ( 0.000000e+00 +/- 0.000000e+00) [K]
    Coulombic Real/kʙ       0.000000e+00 ( 0.000000e+00 +/- 0.000000e+00) [K]
    Coulombic Fourier/kʙ    0.000000e+00 ( 0.000000e+00 +/- 0.000000e+00) [K]
Molecule-molecule
    Van der Waals/kʙ       -2.242344e+05 (-2.273995e+05 +/- 3.934702e+03) [K]
    Van der Waals (Tail)/kʙ-1.002910e+04 (-9.719974e+03 +/- 1.475127e+02) [K]
    Coulombic Real/kʙ      -7.374405e+04 (-6.820690e+04 +/- 1.953466e+03) [K]
    Coulombic Fourier/kʙ   -1.721336e+04 (-1.612224e+04 +/- 6.344171e+02) [K]
    Molecule Intra/kʙ       0.000000e+00 ( 0.000000e+00 +/- 0.000000e+00) [K]

Current cycle: 4800 out of 5000
===============================================================================

Box:      23.48435   0.00000   0.00000  Average:  23.63574   0.00000   0.00000
           0.00000  23.48435   0.00000             0.00000  23.63574   0.00000
           0.00000   0.00000  23.48435             0.00000   0.00000  23.63574
Lengths:  23.48435  23.48435  23.48435  Average:  23.63574  23.63574  23.63574
Angles:   90.00000  90.00000  90.00000  Average:  90.00000  90.00000  90.00000
Rectangular boundary conditions

net charge:   0.00000000

component 0 (CO2) lambda:  0 occupancy:  1 (1.000000)
    net charge:   0.00000000 [e]

Amount of molecules per component :
-------------------------------------------------------------------------------
Component 0 (CO2)
    molecules:      2.000000e+02 molecules  (2.000000e+02 +/- 0.000000e+00)
    number density: 1.544168e-02 molec./A^3 (1.515226e-02 +/- 2.261534e-04)
    density:        1.128196e+03 kg/m^3     (1.107050e+03 +/- 1.652315e+01)

Average pressure tensor: 
-------------------------------------------------------------------------------
 2.6328e+02  4.0020e+01  7.8966e+00 +/- 1.2219e+02 8.7427e+01 1.5068e+02 [bar]
 4.0020e+01  1.8634e+02  6.0387e+01 +/- 8.7427e+01 6.6973e+01 7.0176e+01 [bar]
 7.8966e+00  6.0387e+01  2.1770e+02 +/- 1.5068e+02 7.0176e+01 7.9331e+01 [bar]
Ideal-gas pressure:   5.229995e+02 +/ 7.805967e+00 [bar]
Excess pressure:     -3.005583e+02 +/ 3.462532e+01 [bar]
Pressure:             2.224412e+02 +/ 3.624356e+01 [bar]

Total potential energy/kʙ  -3.277978e+05 (-3.216191e+05 +/- 6.435445e+03) [K]
-------------------------------------------------------------------------------
ExternalField-molecule
    Van der Waals/kʙ        0.000000e+00 ( 0.000000e+00 +/- 0.000000e+00) [K]
Framework-molecule
    Van der Waals/kʙ        0.000000e+00 ( 0.000000e+00 +/- 0.000000e+00) [K]
    Van der Waals (Tail)/kʙ 0.000000e+00 ( 0.000000e+00 +/- 0.000000e+00) [K]
    Coulombic Real/kʙ       0.000000e+00 ( 0.000000e+00 +/- 0.000000e+00) [K]
    Coulombic Fourier/kʙ    0.000000e+00 ( 0.000000e+00 +/- 0.000000e+00) [K]
Molecule-molecule
    Van der Waals/kʙ       -2.327685e+05 (-2.275012e+05 +/- 4.002766e+03) [K]
    Van der Waals (Tail)/kʙ-9.909079e+03 (-9.725453e+03 +/- 1.515846e+02) [K]
    Coulombic Real/kʙ      -6.792534e+04 (-6.825594e+04 +/- 1.985016e+03) [K]
    Coulombic Fourier/kʙ   -1.719488e+04 (-1.613651e+04 +/- 6.341081e+02) [K]
    Molecule Intra/kʙ       0.000000e+00 ( 0.000000e+00 +/- 0.000000e+00) [K]

Current cycle: 4900 out of 5000
===============================================================================

Box:      23.78834   0.00000   0.00000  Average:  23.63898   0.00000   0.00000
           0.00000  23.78834   0.00000             0.00000  23.63898   0.00000
           0.00000   0.00000  23.78834             0.00000   0.00000  23.63898
Lengths:  23.78834  23.78834  23.78834  Average:  23.63898  23.63898  23.63898
Angles:   90.00000  90.00000  90.00000  Average:  90.00000  90.00000  90.00000
Rectangular boundary conditions

net charge:   0.00000000

component 0 (CO2) lambda:  0 occupancy:  1 (1.000000)
    net charge:   0.00000000 [e]

Amount of molecules per component :
-------------------------------------------------------------------------------
Component 0 (CO2)
    molecules:      2.000000e+02 molecules  (2.000000e+02 +/- 0.000000e+00)
    number density: 1.485721e-02 molec./A^3 (1.514604e-02 +/- 2.183412e-04)
    density:        1.085493e+03 kg/m^3     (1.106596e+03 +/- 1.595238e+01)

Average pressure tensor: 
-------------------------------------------------------------------------------
 2.6366e+02  3.8044e+01  8.6639e+00 +/- 1.1429e+02 8.8025e+01 1.5043e+02 [bar]
 3.8044e+01  1.8305e+02  6.2024e+01 +/- 8.8025e+01 6.8202e+01 6.8533e+01 [bar]
 8.6639e+00  6.2024e+01  2.2063e+02 +/- 1.5043e+02 6.8533e+01 8.1929e+01 [bar]
Ideal-gas pressure:   5.227847e+02 +/ 7.536323e+00 [bar]
Excess pressure:     -3.003389e+02 +/ 3.260961e+01 [bar]
Pressure:             2.224458e+02 +/ 3.505590e+01 [bar]

Total potential energy/kʙ  -3.132326e+05 (-3.214447e+05 +/- 6.127978e+03) [K]
-------------------------------------------------------------------------------
ExternalField-molecule
    Van der Waals/kʙ        0.000000e+00 ( 0.000000e+00 +/- 0.000000e+00) [K]
Framework-molecule
    Van der Waals/kʙ        0.000000e+00 ( 0.000000e+00 +/- 0.000000e+00) [K]
    Van der Waals (Tail)/kʙ 0.000000e+00 ( 0.000000e+00 +/- 0.000000e+00) [K]
    Coulombic Real/kʙ       0.000000e+00 ( 0.000000e+00 +/- 0.000000e+00) [K]
    Coulombic Fourier/kʙ    0.000000e+00 ( 0.000000e+00 +/- 0.000000e+00) [K]
Molecule-molecule
    Van der Waals/kʙ       -2.182574e+05 (-2.273452e+05 +/- 3.825939e+03) [K]
    Van der Waals (Tail)/kʙ-9.534019e+03 (-9.721306e+03 +/- 1.468490e+02) [K]
    Coulombic Real/kʙ      -6.838202e+04 (-6.823341e+04 +/- 1.920224e+03) [K]
    Coulombic Fourier/kʙ   -1.705918e+04 (-1.614477e+04 +/- 6.230595e+02) [K]
    Molecule Intra/kʙ       0.000000e+00 ( 0.000000e+00 +/- 0.000000e+00) [K]


Energy statistics             |  Energy [K]   | Recomputed [K]|  Drift [K]    |
===============================================================================
Total potential energy/kʙ     | -3.040934e+05 | -3.040934e+05 |  1.555485e-09 |
    external field VDW/kʙ     |  0.000000e+00 |  0.000000e+00 |  0.000000e+00 |
    external field Real/kʙ    |  0.000000e+00 |  0.000000e+00 |  0.000000e+00 |
    framework-molecule VDW/kʙ |  0.000000e+00 |  0.000000e+00 |  0.000000e+00 |
    framework-molecule Real/kʙ|  0.000000e+00 |  0.000000e+00 |  0.000000e+00 |
    molecule-molecule VDW/kʙ  | -2.179617e+05 | -2.179617e+05 |  1.785198e-09 |
    molecule-molecule Real/kʙ | -6.192346e+04 | -6.192346e+04 | -2.537782e-10 |
    Van der Waals (Tail)/kʙ   | -9.277999e+03 | -9.277999e+03 |  0.000000e+00 |
    Ewald Fourier/kʙ          |  1.413155e+04 |  1.413155e+04 |  2.406517e-11 |
    Ewald self/kʙ             | -4.445846e+06 | -4.445846e+06 |  0.000000e+00 |
    Ewald exclusion/kʙ        |  4.416785e+06 |  4.416785e+06 |  0.000000e+00 |
    intra VDW/kʙ              |  0.000000e+00 |  0.000000e+00 |  0.000000e+00 |
    intra Coulombic/kʙ        |  0.000000e+00 |  0.000000e+00 |  0.000000e+00 |
    polarization/kʙ           |  0.000000e+00 |  0.000000e+00 |  0.000000e+00 |
    dU/dlambda VDW/kʙ         |  0.000000e+00 |  0.000000e+00 |  0.000000e+00 |
    dU/dlambda Real/kʙ        |  0.000000e+00 |  0.000000e+00 |  0.000000e+00 |
    dU/dlambda Ewald/kʙ       |  0.000000e+00 |  0.000000e+00 |  0.000000e+00 |
-------------------------------------------------------------------------------


Monte-Carlo moves statistics
===============================================================================

    Volume change        all:                6520
    Volume change        total:              6520
    Volume change        constructed:        6520
    Volume change        accepted:           1862
    Volume change        fraction:       0.285583
    Volume change        max-change:     0.050000

Component 0 [CO2]
    Reinsertion (CBMC)   all:              331014
    Reinsertion (CBMC)   total:            331014
    Reinsertion (CBMC)   constructed:      280316
    Reinsertion (CBMC)   accepted:           2572
    Reinsertion (CBMC)   fraction:       0.007770
    Reinsertion (CBMC)   max-change:     0.000000

    Translation          all:              330766
    Translation          total:            110758     110339     109669
    Translation          constructed:      110758     110339     109669
    Translation          accepted:          45018      53932      59197
    Translation          fraction:       0.406454   0.488785   0.539779
    Translation          max-change:     0.828235   0.654971   0.555556

    Rotation             all:              331700
    Rotation             total:            110815     110299     110586
    Rotation             constructed:      110815     110299     110586
    Rotation             accepted:          52411      61337      58228
    Rotation             fraction:       0.472959   0.556098   0.526540
    Rotation             max-change:     0.717949   0.547009   0.610022



Production run counting of the MC moves summed over systems and components
===============================================================================

Volume change                          6520 (0.6520 [%])
Reinsertion (CBMC)                   331014 (33.1014 [%])
Translation                          330766 (33.0766 [%])
Rotation                             331700 (33.1700 [%])

Production count MC-steps:          1000000 [-]
               All summed:          1000000 [-]
               difference:                0 [-]


Production run CPU timings of the MC moves
===============================================================================

Component 0 CO2

Rotation                             29.604163 [s]
    Ewald                            13.442561 [s]
    ExternalField-Molecule            0.009663 [s]
    Framework-Molecule                0.012869 [s]
    Molecule-Molecule                15.305087 [s]
    Overhead                          0.833983 [s]

Reinsertion (CBMC)                  112.514380 [s]
    Ewald                            11.518255 [s]
    NonEwald                        100.829260 [s]
    Overhead                          0.166865 [s]

Translation                          29.504906 [s]
    Ewald                            13.386039 [s]
    ExternalField-Molecule            0.009878 [s]
    Framework-Molecule                0.015643 [s]
    Molecule-Molecule                15.330571 [s]
    Overhead                          0.762775 [s]



Volume change                         28.076065 [s]
    Ewald                             10.941566 [s]
    NonEwald                          16.162099 [s]
    Tail                               0.819453 [s]

Property sampling                     0.602184 [s]
Energy/pressure sampling:             4.475076 [s]


Production run CPU timings of the MC moves summed over systems and components
===============================================================================


Translation                          29.504906 [s]
    Ewald                            13.386039 [s]
    ExternalField-Molecule            0.009878 [s]
    Framework-Molecule                0.015643 [s]
    Molecule-Molecule                15.330571 [s]
    Overhead                          0.762775 [s]

Rotation                             29.604163 [s]
    Ewald                            13.442561 [s]
    ExternalField-Molecule            0.009663 [s]
    Framework-Molecule                0.012869 [s]
    Molecule-Molecule                15.305087 [s]
    Overhead                          0.833983 [s]

Volume change                        28.076065 [s]
    Ewald                            10.941566 [s]
    NonEwald                         16.162099 [s]
    Tail                              0.819453 [s]
    Overhead                          0.152947 [s]

Reinsertion (CBMC)                  112.514380 [s]
    Ewald                            11.518255 [s]
    NonEwald                        100.829260 [s]
    Overhead                          0.166865 [s]

Property sampling:                    0.602184 [s]
Energy/pressure sampling:             4.475076 [s]

Production simulation time:         205.339544 [s]
                All summed:         204.776774 [s]
                  Overhead:           0.562770 [s]


Initalization simulation time:       36.361795 [s]
Equilibration simulation time:        0.000000 [s]
Production simulation time:         205.339544 [s]
Total simulation time:              241.701339 [s]


Energy averages and statistics:
===============================================================================

Framework-molecule energy:
-------------------------------------------------------------------------------



Framework-molecule energy contributions per energy type:
-------------------------------------------------------------------------------



Inter-molecular energy:
-------------------------------------------------------------------------------

    Inter-molecular energy/kʙ 0-0 [CO2-CO2]:
    ---------------------------------------------------------------------------
        Block[  0] -3.135053e+05
        Block[  1] -3.252487e+05
        Block[  2] -3.243684e+05
        Block[  3] -3.199157e+05
        Block[  4] -3.230215e+05
        -----------------------------------------------------------------------
        Average  -3.212119e+05 +/-  5.908560e+03 [K]



Inter-molecular energy contributions per energy type:
-------------------------------------------------------------------------------

    Van der Waals energy/kʙ 0-0 [CO2-CO2]:
    ---------------------------------------------------------------------------
        Block[  0] -2.229281e+05
        Block[  1] -2.307605e+05
        Block[  2] -2.289049e+05
        Block[  3] -2.256587e+05
        Block[  4] -2.278441e+05
        -----------------------------------------------------------------------
        Average  -2.272192e+05 +/-  3.756393e+03 [K]

    VDW Tail-Correction energy/kʙ 0-0 [CO2-CO2]:
    ---------------------------------------------------------------------------
        Block[  0] -9.561376e+03
        Block[  1] -9.846853e+03
        Block[  2] -9.794974e+03
        Block[  3] -9.638291e+03
        Block[  4] -9.735957e+03
        -----------------------------------------------------------------------
        Average  -9.715490e+03 +/-  1.438489e+02 [K]

    Coulomb Real energy/kʙ 0-0 [CO2-CO2]:
    ---------------------------------------------------------------------------
        Block[  0] -6.562018e+04
        Block[  1] -6.830353e+04
        Block[  2] -6.940938e+04
        Block[  3] -6.859436e+04
        Block[  4] -6.883325e+04
        -----------------------------------------------------------------------
        Average  -6.815214e+04 +/-  1.828144e+03 [K]

    Coulomb Fourier energy/kʙ 0-0 [CO2-CO2]:
    ---------------------------------------------------------------------------
        Block[  0] -1.539563e+04
        Block[  1] -1.633784e+04
        Block[  2] -1.625918e+04
        Block[  3] -1.602441e+04
        Block[  4] -1.660813e+04
        -----------------------------------------------------------------------
        Average  -1.612504e+04 +/-  5.685120e+02 [K]


Total energy/kʙ
-------------------------------------------------------------------------------
    Block[  0] -3.135053e+05
    Block[  1] -3.252487e+05
    Block[  2] -3.243684e+05
    Block[  3] -3.199157e+05
    Block[  4] -3.230215e+05
    ---------------------------------------------------------------------------
    Average  -3.212119e+05 +/-  5.908560e+03 [K]

Pressure averages and statistics:
===============================================================================

Average pressure tensor: 
-------------------------------------------------------------------------------
 2.6108e+02  3.9583e+01  8.7786e+00 +/- 1.1443e+02 8.3059e+01 1.4987e+02 [bar]
 3.9583e+01  1.8050e+02  6.4291e+01 +/- 8.3059e+01 6.9627e+01 6.7502e+01 [bar]
 8.7786e+00  6.4291e+01  2.2462e+02 +/- 1.4987e+02 6.7502e+01 8.6043e+01 [bar]

    Block[  0]  5.141741e+07
    Block[  1]  5.289254e+07
    Block[  2]  5.265797e+07
    Block[  3]  5.190463e+07
    Block[  4]  5.234001e+07
    ---------------------------------------------------------------------------
    Ideal gas pressure   5.224251e+07 +/-  4.422408e-02 [Pa]
                         5.224251e+02 +/-  7.343587e+00 [bar]


    Block[  0] -2.904069e+07
    Block[  1] -2.655970e+07
    Block[  2] -2.955824e+07
    Block[  3] -3.215242e+07
    Block[  4] -3.286963e+07
    ---------------------------------------------------------------------------
    Excess pressure  -3.003614e+07 +/-  3.153681e+06 [Pa]
                     -3.003614e+02 +/-  3.153681e+01 [bar]


    Block[  0]  2.237672e+07
    Block[  1]  2.633285e+07
    Block[  2]  2.309973e+07
    Block[  3]  1.975221e+07
    Block[  4]  1.947037e+07
    ---------------------------------------------------------------------------
    Pressure average   2.220638e+07 +/-  3.476297e+06 [Pa]
                       2.220638e+02 +/-  3.476297e+01 [bar]


Enthalpy of adsorption
===============================================================================

No fluctuating components present.


Densities
===============================================================================

Component 0 (CO2)
    Block[  0] 200
    Block[  1] 200
    Block[  2] 200
    Block[  3] 200
    Block[  4] 200
    -----------------------------------------------------------------------
    Density average   2.000000e+02 +/-  0.000000e+00 [molecules]
    Density average   1.513562e-02 +/-  2.127573e-04 [molec/A^3]
    Density average   1.105835e+03 +/-  1.554441e+01 [kg.m⁻³]

