Compiler and run-time data
===============================================================================
RASPA 3.0.4

Random seed: 167841708

Compiled as a 64-bits application
Compiler: gcc Ubuntu Clang 18.1.3 (1ubuntu1)
Compile Date = Mar 15 2025, Compile Time = 19:39:45

2025-06-02 14:17:00.120594
Simulation started on Mon, Jun 02
The start time was 14:17:00

Hostname:    c062
OS type:     Linux on x86_64
OS release:  6.8.0-58-generic
OS version:  #60-Ubuntu SMP PREEMPT_DYNAMIC Fri Mar 14 18:29:48 UTC 2025


Mutual consistent basic set of units:
===============================================================================

Unit of temperature: 1 [K]
Unit of length:      1e-10 [m]
Unit of time:        1e-12 [s]
Unit of mass:        1.6605402e-27 [kg]
Unit of charge:      1.60217733e-19 [C/particle]


Boltzmann constant (internal units):          0.8314464919307584 [-]
represents conversion from energy (internal units) to temperature (in Kelvin)

Derived units and their conversion factors:
===============================================================================

Unit of energy:                           1.6605402000000002e-23 [J]
Unit of energy:                           10.000008872307538 [J.mol⁻¹]
Unit of velocity:                         100 [m.s⁻¹]
Unit of force:                            1.6605402000000002e-13 [N]
Unit of diffusion:                        1.0000000000000002e-08 [m².s⁻¹]
Unit of acceleration:                     1.0000000000000002e-08 [m².s⁻¹]
Unit of torque:                           1.6605402000000002e-23 [N.m]
Unit of pressure:                         16605402 [Pa]
Unit of volume:                           1e-30 [m³]
Unit of density:                          1660.5402 [kg.m⁻³]
Unit of dynamic viscosity:                1.6605401999999997e-05 [N.s.m⁻²]
Unit of enthalpy:                         1.6605402000000002e-23 [J]
Unit of polarizability:                   1.5458657349975198e-35 [-]
Unit of Coulomb potential:                167101.08000665612 [K]
Unit of dielectric constant:              1.5458657349975193e-05 [s².C².kg⁻¹.m⁻³]
Unit of dipole moment:                    1.60217733e-29 [C.m]
Unit of Debye:                            4.803206799099162 [C.m]
Unit of electric potential:               0.00010364272224473431 [V]
Unit of electric field:                   1036427.222447343 [V.m⁻¹]
Unit of isothermal compressibility:       6.02213665167516e-08 [Pa⁻¹]
Unit of heat capacity:                    10.000008872307538 [J.mol⁻¹.K⁻¹]
Unit of volumetric expansion coefficient: 1 [K⁻¹]


Internal conversion factors:
===============================================================================

Energy (internal units) to Kelvin:      1.202724284692786 [-]
Kelvin to energy (internal units):      0.8314457542157567 [-]


System definitions
===============================================================================

Temperature:          250 [K]
Beta:                 0.0048108928702210625 [-]
Pressure:             1.6e+07 [Pa]
Helium void fraction: 1 [-]

Box:      30.00000   0.00000   0.00000
           0.00000  30.00000   0.00000
           0.00000   0.00000  30.00000
Lengths:  30.00000  30.00000  30.00000
Angles:   90.00000  90.00000  90.00000
Rectangular boundary conditions



Property measurement settings
===============================================================================




Pseudo-atoms
===============================================================================

  0 - C_co2    framework-atom: false
  1 - O_co2    framework-atom: false

  0 - C_co2    mass: 12.00000, charge:  0.70000
  1 - O_co2    mass: 15.99940, charge: -0.35000

  0 - C_co2    polarizability:  0.00000
  1 - O_co2    polarizability:  0.00000

  0 - J. J. Potoff et al., AIChE J. 2001, 47, 1676–1682.
  1 - J. J. Potoff et al., AIChE J. 2001, 47, 1676–1682.

Force field status
===============================================================================

Cutoff Framework-Molecule VDW:  10.00000 [Å]
Cutoff Molecule-Molecule VDW:   10.00000 [Å]
Cutoff Coulomb:                 10.00000 [Å]

Overlap-criteria VDW:           1.000000e+05 [K]

C_co2    - C_co2    Lennard-Jones p₀/kʙ:  27.00000 [K], p₁:  2.80000 [Å]
                                  shift:   0.00000 [K], tailcorrections: true
C_co2    - O_co2    Lennard-Jones p₀/kʙ:  46.18441 [K], p₁:  2.92500 [Å]
                                  shift:   0.00000 [K], tailcorrections: true
O_co2    - O_co2    Lennard-Jones p₀/kʙ:  79.00000 [K], p₁:  3.05000 [Å]
                                  shift:   0.00000 [K], tailcorrections: true

Ewald precision: 1e-06
Ewald alpha: 0.32079885109097883
Ewald k-vectors: 10 10 10


Component definitions
===============================================================================

Component 0 [CO2]

    Type: Adsorbate

    Critical temperature:  304.1282 [K]
    Critical pressure:     7377300 [Pa]
    Acentric factor:       0.22394 [-]

    Mol-fraction:                 1 [-]
    Swappable:                   false

    Mass:                         43.9988 [-]
    Bulk fluid density:           0 [-]
    Compressibility:              0 [-]
    Excess molecules:             0 [-]

    Number Of Atoms:    3
    CBMC starting bead: 0
      0: O_co2  position  0.00000 -0.00000  1.16000, charge -0.35000
      1: C_co2  position  0.00000 -0.00000  0.00000, charge  0.70000
      2: O_co2  position  0.00000 -0.00000 -1.16000, charge -0.35000
    Diagonalized inertia-vector:      43.05758528 43.05758528 0.00000000
    Translational degrees of freedom: 3
    Rotational degrees of freedom:    2
    Shape of the molecule is: 'Linear'
    Net-charge:        0.00000000 [e]

    Move probabilities:
    Translation:                   0.331126 [-]
    Random translation:            0.000000 [-]
    Rotation:                      0.331126 [-]
    Random rotation:               0.000000 [-]
    Volume change:                 0.006623 [-]
    Reinsertion (CBMC):            0.331126 [-]
    Identity change (CBMC):        0.000000 [-]
    Swap:                          0.000000 [-]
    Swap (CBMC):                   0.000000 [-]
    Swap (CFCMC):                  0.000000 [-]
    Swap (CB/CFCMC):               0.000000 [-]
    Gibbs volume:                  0.000000 [-]
    Gibbs swap (CBMC):             0.000000 [-]
    Gibbs swap (CFCMC):            0.000000 [-]
    Widom:                         0.000000 [-]
    Widom (CFCMC):                 0.000000 [-]
    Widom (CB/CFCMC):              0.000000 [-]
    Parallel tempering:            0.000000 [-]
    Hybrid MC:                     0.000000 [-]

    number of blocking-pockets: 0

    number of bonds: 0





Number of pseudo-atoms
===============================================================================

Component   0 (CO2)
-------------------------------------------------------------------------------
    index   0 (C_co2): 100 atoms
    index   1 (O_co2): 200 atoms

Total number of pseudo-atoms:
-------------------------------------------------------------------------------
    index   0 (C_co2): 100 atoms
    index   1 (O_co2): 200 atoms




Energy status Recomputed from scratch
===============================================================================

Total potential energy/kʙ       -4.134792e+03 [K]
    external field VDW/kʙ        0.000000e+00 [K]
    external field Real/kʙ       0.000000e+00 [K]
    framework-molecule VDW/kʙ    0.000000e+00 [K]
    framework-molecule Real/kʙ   0.000000e+00 [K]
    molecule-molecule VDW/kʙ    -5.412412e+02 [K]
    molecule-molecule Real/kʙ   -2.528339e+03 [K]
    Van der Waals (Tail)/kʙ     -1.188352e+03 [K]
    Ewald Fourier/kʙ             1.465399e+04 [K]
    Ewald self/kʙ               -2.222923e+06 [K]
    Ewald exclusion/kʙ           2.208392e+06 [K]
    intra VDW/kʙ                 0.000000e+00 [K]
    intra Coulombic/kʙ           0.000000e+00 [K]
    polarization/kʙ              0.000000e+00 [K]
    dU/dlambda VDW/kʙ            0.000000e+00 [K]
    dU/dlambda Real/kʙ           0.000000e+00 [K]
    dU/dlambda Ewald/kʙ          0.000000e+00 [K]





Initialization: Current cycle: 0 out of 1000
===============================================================================

Box:      30.00000   0.00000   0.00000
           0.00000  30.00000   0.00000
           0.00000   0.00000  30.00000
Lengths:  30.00000  30.00000  30.00000
Angles:   90.00000  90.00000  90.00000
Rectangular boundary conditions

net charge:   0.00000000

component   0 (CO2) lambda:  0 occupancy:  1 (1.000000)
    net charge:   0.00000000 [e]

Amount of molecules per component :
-------------------------------------------------------------------------------
Component 0 (CO2)
    molecules:         1.000000e+02 molecules
    number density:    3.703704e-03 molec/A^3
    density:           2.705989e+02 kg/m^3

Total potential energy/kʙ       -3.625055e+04 [K]
-------------------------------------------------------------------------------
    external field VDW/kʙ        0.000000e+00 [K]
    external field Real/kʙ       0.000000e+00 [K]
    framework-molecule VDW/kʙ    0.000000e+00 [K]
    framework-molecule Real/kʙ   0.000000e+00 [K]
    molecule-molecule VDW/kʙ    -2.971920e+04 [K]
    molecule-molecule Real/kʙ   -4.803593e+03 [K]
    Van der Waals (Tail)/kʙ     -1.188352e+03 [K]
    Ewald Fourier/kʙ             1.399145e+04 [K]
    Ewald self/kʙ               -2.222923e+06 [K]
    Ewald exclusion/kʙ           2.208392e+06 [K]
    intra VDW/kʙ                 0.000000e+00 [K]
    intra Coulombic/kʙ           0.000000e+00 [K]
    polarization/kʙ              0.000000e+00 [K]
    dU/dlambda VDW/kʙ            0.000000e+00 [K]
    dU/dlambda Real/kʙ           0.000000e+00 [K]
    dU/dlambda Ewald/kʙ          0.000000e+00 [K]


Initialization: Current cycle: 100 out of 1000
===============================================================================

Box:      25.21621   0.00000   0.00000
           0.00000  25.21621   0.00000
           0.00000   0.00000  25.21621
Lengths:  25.21621  25.21621  25.21621
Angles:   90.00000  90.00000  90.00000
Rectangular boundary conditions

net charge:   0.00000000

component   0 (CO2) lambda:  0 occupancy:  1 (1.000000)
    net charge:   0.00000000 [e]

Amount of molecules per component :
-------------------------------------------------------------------------------
Component 0 (CO2)
    molecules:         1.000000e+02 molecules
    number density:    6.236780e-03 molec/A^3
    density:           4.556698e+02 kg/m^3

Total potential energy/kʙ       -8.069898e+04 [K]
-------------------------------------------------------------------------------
    external field VDW/kʙ        0.000000e+00 [K]
    external field Real/kʙ       0.000000e+00 [K]
    framework-molecule VDW/kʙ    0.000000e+00 [K]
    framework-molecule Real/kʙ   0.000000e+00 [K]
    molecule-molecule VDW/kʙ    -5.702122e+04 [K]
    molecule-molecule Real/kʙ   -1.758096e+04 [K]
    Van der Waals (Tail)/kʙ     -2.001101e+03 [K]
    Ewald Fourier/kʙ             1.043514e+04 [K]
    Ewald self/kʙ               -2.222923e+06 [K]
    Ewald exclusion/kʙ           2.208392e+06 [K]
    intra VDW/kʙ                 0.000000e+00 [K]
    intra Coulombic/kʙ           0.000000e+00 [K]
    polarization/kʙ              0.000000e+00 [K]
    dU/dlambda VDW/kʙ            0.000000e+00 [K]
    dU/dlambda Real/kʙ           0.000000e+00 [K]
    dU/dlambda Ewald/kʙ          0.000000e+00 [K]


Initialization: Current cycle: 200 out of 1000
===============================================================================

Box:      24.16568   0.00000   0.00000
           0.00000  24.16568   0.00000
           0.00000   0.00000  24.16568
Lengths:  24.16568  24.16568  24.16568
Angles:   90.00000  90.00000  90.00000
Rectangular boundary conditions

net charge:   0.00000000

component   0 (CO2) lambda:  0 occupancy:  1 (1.000000)
    net charge:   0.00000000 [e]

Amount of molecules per component :
-------------------------------------------------------------------------------
Component 0 (CO2)
    molecules:         1.000000e+02 molecules
    number density:    7.086025e-03 molec/A^3
    density:           5.177171e+02 kg/m^3

Total potential energy/kʙ       -8.929132e+04 [K]
-------------------------------------------------------------------------------
    external field VDW/kʙ        0.000000e+00 [K]
    external field Real/kʙ       0.000000e+00 [K]
    framework-molecule VDW/kʙ    0.000000e+00 [K]
    framework-molecule Real/kʙ   0.000000e+00 [K]
    molecule-molecule VDW/kʙ    -6.280771e+04 [K]
    molecule-molecule Real/kʙ   -1.889081e+04 [K]
    Van der Waals (Tail)/kʙ     -2.273586e+03 [K]
    Ewald Fourier/kʙ             9.211642e+03 [K]
    Ewald self/kʙ               -2.222923e+06 [K]
    Ewald exclusion/kʙ           2.208392e+06 [K]
    intra VDW/kʙ                 0.000000e+00 [K]
    intra Coulombic/kʙ           0.000000e+00 [K]
    polarization/kʙ              0.000000e+00 [K]
    dU/dlambda VDW/kʙ            0.000000e+00 [K]
    dU/dlambda Real/kʙ           0.000000e+00 [K]
    dU/dlambda Ewald/kʙ          0.000000e+00 [K]


Initialization: Current cycle: 300 out of 1000
===============================================================================

Box:      23.00751   0.00000   0.00000
           0.00000  23.00751   0.00000
           0.00000   0.00000  23.00751
Lengths:  23.00751  23.00751  23.00751
Angles:   90.00000  90.00000  90.00000
Rectangular boundary conditions

net charge:   0.00000000

component   0 (CO2) lambda:  0 occupancy:  1 (1.000000)
    net charge:   0.00000000 [e]

Amount of molecules per component :
-------------------------------------------------------------------------------
Component 0 (CO2)
    molecules:         1.000000e+02 molecules
    number density:    8.210902e-03 molec/A^3
    density:           5.999025e+02 kg/m^3

Total potential energy/kʙ       -9.829922e+04 [K]
-------------------------------------------------------------------------------
    external field VDW/kʙ        0.000000e+00 [K]
    external field Real/kʙ       0.000000e+00 [K]
    framework-molecule VDW/kʙ    0.000000e+00 [K]
    framework-molecule Real/kʙ   0.000000e+00 [K]
    molecule-molecule VDW/kʙ    -7.308918e+04 [K]
    molecule-molecule Real/kʙ   -1.676289e+04 [K]
    Van der Waals (Tail)/kʙ     -2.634508e+03 [K]
    Ewald Fourier/kʙ             8.718208e+03 [K]
    Ewald self/kʙ               -2.222923e+06 [K]
    Ewald exclusion/kʙ           2.208392e+06 [K]
    intra VDW/kʙ                 0.000000e+00 [K]
    intra Coulombic/kʙ           0.000000e+00 [K]
    polarization/kʙ              0.000000e+00 [K]
    dU/dlambda VDW/kʙ            0.000000e+00 [K]
    dU/dlambda Real/kʙ           0.000000e+00 [K]
    dU/dlambda Ewald/kʙ          0.000000e+00 [K]


Initialization: Current cycle: 400 out of 1000
===============================================================================

Box:      20.93548   0.00000   0.00000
           0.00000  20.93548   0.00000
           0.00000   0.00000  20.93548
Lengths:  20.93548  20.93548  20.93548
Angles:   90.00000  90.00000  90.00000
Rectangular boundary conditions

net charge:   0.00000000

component   0 (CO2) lambda:  0 occupancy:  1 (1.000000)
    net charge:   0.00000000 [e]

Amount of molecules per component :
-------------------------------------------------------------------------------
Component 0 (CO2)
    molecules:         1.000000e+02 molecules
    number density:    1.089812e-02 molec/A^3
    density:           7.962350e+02 kg/m^3

Total potential energy/kʙ       -1.110562e+05 [K]
-------------------------------------------------------------------------------
    external field VDW/kʙ        0.000000e+00 [K]
    external field Real/kʙ       0.000000e+00 [K]
    framework-molecule VDW/kʙ    0.000000e+00 [K]
    framework-molecule Real/kʙ   0.000000e+00 [K]
    molecule-molecule VDW/kʙ    -8.349339e+04 [K]
    molecule-molecule Real/kʙ   -1.819117e+04 [K]
    Van der Waals (Tail)/kʙ     -3.496714e+03 [K]
    Ewald Fourier/kʙ             8.655883e+03 [K]
    Ewald self/kʙ               -2.222923e+06 [K]
    Ewald exclusion/kʙ           2.208392e+06 [K]
    intra VDW/kʙ                 0.000000e+00 [K]
    intra Coulombic/kʙ           0.000000e+00 [K]
    polarization/kʙ              0.000000e+00 [K]
    dU/dlambda VDW/kʙ            0.000000e+00 [K]
    dU/dlambda Real/kʙ           0.000000e+00 [K]
    dU/dlambda Ewald/kʙ          0.000000e+00 [K]


Initialization: Current cycle: 500 out of 1000
===============================================================================

Box:      20.06199   0.00000   0.00000
           0.00000  20.06199   0.00000
           0.00000   0.00000  20.06199
Lengths:  20.06199  20.06199  20.06199
Angles:   90.00000  90.00000  90.00000
Rectangular boundary conditions

net charge:   0.00000000

component   0 (CO2) lambda:  0 occupancy:  1 (1.000000)
    net charge:   0.00000000 [e]

Amount of molecules per component :
-------------------------------------------------------------------------------
Component 0 (CO2)
    molecules:         1.000000e+02 molecules
    number density:    1.238449e-02 molec/A^3
    density:           9.048319e+02 kg/m^3

Total potential energy/kʙ       -1.323714e+05 [K]
-------------------------------------------------------------------------------
    external field VDW/kʙ        0.000000e+00 [K]
    external field Real/kʙ       0.000000e+00 [K]
    framework-molecule VDW/kʙ    0.000000e+00 [K]
    framework-molecule Real/kʙ   0.000000e+00 [K]
    molecule-molecule VDW/kʙ    -9.418948e+04 [K]
    molecule-molecule Real/kʙ   -2.739570e+04 [K]
    Van der Waals (Tail)/kʙ     -3.973624e+03 [K]
    Ewald Fourier/kʙ             7.718249e+03 [K]
    Ewald self/kʙ               -2.222923e+06 [K]
    Ewald exclusion/kʙ           2.208392e+06 [K]
    intra VDW/kʙ                 0.000000e+00 [K]
    intra Coulombic/kʙ           0.000000e+00 [K]
    polarization/kʙ              0.000000e+00 [K]
    dU/dlambda VDW/kʙ            0.000000e+00 [K]
    dU/dlambda Real/kʙ           0.000000e+00 [K]
    dU/dlambda Ewald/kʙ          0.000000e+00 [K]


Initialization: Current cycle: 600 out of 1000
===============================================================================

Box:      19.06637   0.00000   0.00000
           0.00000  19.06637   0.00000
           0.00000   0.00000  19.06637
Lengths:  19.06637  19.06637  19.06637
Angles:   90.00000  90.00000  90.00000
Rectangular boundary conditions

net charge:   0.00000000

component   0 (CO2) lambda:  0 occupancy:  1 (1.000000)
    net charge:   0.00000000 [e]

Amount of molecules per component :
-------------------------------------------------------------------------------
Component 0 (CO2)
    molecules:         1.000000e+02 molecules
    number density:    1.442766e-02 molec/A^3
    density:           1.054110e+03 kg/m^3

Total potential energy/kʙ       -1.480800e+05 [K]
-------------------------------------------------------------------------------
    external field VDW/kʙ        0.000000e+00 [K]
    external field Real/kʙ       0.000000e+00 [K]
    framework-molecule VDW/kʙ    0.000000e+00 [K]
    framework-molecule Real/kʙ   0.000000e+00 [K]
    molecule-molecule VDW/kʙ    -1.036838e+05 [K]
    molecule-molecule Real/kʙ   -3.177497e+04 [K]
    Van der Waals (Tail)/kʙ     -4.629186e+03 [K]
    Ewald Fourier/kʙ             6.538771e+03 [K]
    Ewald self/kʙ               -2.222923e+06 [K]
    Ewald exclusion/kʙ           2.208392e+06 [K]
    intra VDW/kʙ                 0.000000e+00 [K]
    intra Coulombic/kʙ           0.000000e+00 [K]
    polarization/kʙ              0.000000e+00 [K]
    dU/dlambda VDW/kʙ            0.000000e+00 [K]
    dU/dlambda Real/kʙ           0.000000e+00 [K]
    dU/dlambda Ewald/kʙ          0.000000e+00 [K]


Initialization: Current cycle: 700 out of 1000
===============================================================================

Box:      18.81495   0.00000   0.00000
           0.00000  18.81495   0.00000
           0.00000   0.00000  18.81495
Lengths:  18.81495  18.81495  18.81495
Angles:   90.00000  90.00000  90.00000
Rectangular boundary conditions

net charge:   0.00000000

component   0 (CO2) lambda:  0 occupancy:  1 (1.000000)
    net charge:   0.00000000 [e]

Amount of molecules per component :
-------------------------------------------------------------------------------
Component 0 (CO2)
    molecules:         1.000000e+02 molecules
    number density:    1.501380e-02 molec/A^3
    density:           1.096934e+03 kg/m^3

Total potential energy/kʙ       -1.456306e+05 [K]
-------------------------------------------------------------------------------
    external field VDW/kʙ        0.000000e+00 [K]
    external field Real/kʙ       0.000000e+00 [K]
    framework-molecule VDW/kʙ    0.000000e+00 [K]
    framework-molecule Real/kʙ   0.000000e+00 [K]
    molecule-molecule VDW/kʙ    -1.103007e+05 [K]
    molecule-molecule Real/kʙ   -2.327244e+04 [K]
    Van der Waals (Tail)/kʙ     -4.817251e+03 [K]
    Ewald Fourier/kʙ             7.290641e+03 [K]
    Ewald self/kʙ               -2.222923e+06 [K]
    Ewald exclusion/kʙ           2.208392e+06 [K]
    intra VDW/kʙ                 0.000000e+00 [K]
    intra Coulombic/kʙ           0.000000e+00 [K]
    polarization/kʙ              0.000000e+00 [K]
    dU/dlambda VDW/kʙ            0.000000e+00 [K]
    dU/dlambda Real/kʙ           0.000000e+00 [K]
    dU/dlambda Ewald/kʙ          0.000000e+00 [K]


Initialization: Current cycle: 800 out of 1000
===============================================================================

Box:      19.15502   0.00000   0.00000
           0.00000  19.15502   0.00000
           0.00000   0.00000  19.15502
Lengths:  19.15502  19.15502  19.15502
Angles:   90.00000  90.00000  90.00000
Rectangular boundary conditions

net charge:   0.00000000

component   0 (CO2) lambda:  0 occupancy:  1 (1.000000)
    net charge:   0.00000000 [e]

Amount of molecules per component :
-------------------------------------------------------------------------------
Component 0 (CO2)
    molecules:         1.000000e+02 molecules
    number density:    1.422826e-02 molec/A^3
    density:           1.039541e+03 kg/m^3

Total potential energy/kʙ       -1.485324e+05 [K]
-------------------------------------------------------------------------------
    external field VDW/kʙ        0.000000e+00 [K]
    external field Real/kʙ       0.000000e+00 [K]
    framework-molecule VDW/kʙ    0.000000e+00 [K]
    framework-molecule Real/kʙ   0.000000e+00 [K]
    molecule-molecule VDW/kʙ    -1.074590e+05 [K]
    molecule-molecule Real/kʙ   -2.945937e+04 [K]
    Van der Waals (Tail)/kʙ     -4.565208e+03 [K]
    Ewald Fourier/kʙ             7.482057e+03 [K]
    Ewald self/kʙ               -2.222923e+06 [K]
    Ewald exclusion/kʙ           2.208392e+06 [K]
    intra VDW/kʙ                 0.000000e+00 [K]
    intra Coulombic/kʙ           0.000000e+00 [K]
    polarization/kʙ              0.000000e+00 [K]
    dU/dlambda VDW/kʙ            0.000000e+00 [K]
    dU/dlambda Real/kʙ           0.000000e+00 [K]
    dU/dlambda Ewald/kʙ          0.000000e+00 [K]


Initialization: Current cycle: 900 out of 1000
===============================================================================

Box:      19.10087   0.00000   0.00000
           0.00000  19.10087   0.00000
           0.00000   0.00000  19.10087
Lengths:  19.10087  19.10087  19.10087
Angles:   90.00000  90.00000  90.00000
Rectangular boundary conditions

net charge:   0.00000000

component   0 (CO2) lambda:  0 occupancy:  1 (1.000000)
    net charge:   0.00000000 [e]

Amount of molecules per component :
-------------------------------------------------------------------------------
Component 0 (CO2)
    molecules:         1.000000e+02 molecules
    number density:    1.434962e-02 molec/A^3
    density:           1.048408e+03 kg/m^3

Total potential energy/kʙ       -1.502351e+05 [K]
-------------------------------------------------------------------------------
    external field VDW/kʙ        0.000000e+00 [K]
    external field Real/kʙ       0.000000e+00 [K]
    framework-molecule VDW/kʙ    0.000000e+00 [K]
    framework-molecule Real/kʙ   0.000000e+00 [K]
    molecule-molecule VDW/kʙ    -1.083946e+05 [K]
    molecule-molecule Real/kʙ   -2.949980e+04 [K]
    Van der Waals (Tail)/kʙ     -4.604146e+03 [K]
    Ewald Fourier/kʙ             6.794242e+03 [K]
    Ewald self/kʙ               -2.222923e+06 [K]
    Ewald exclusion/kʙ           2.208392e+06 [K]
    intra VDW/kʙ                 0.000000e+00 [K]
    intra Coulombic/kʙ           0.000000e+00 [K]
    polarization/kʙ              0.000000e+00 [K]
    dU/dlambda VDW/kʙ            0.000000e+00 [K]
    dU/dlambda Real/kʙ           0.000000e+00 [K]
    dU/dlambda Ewald/kʙ          0.000000e+00 [K]


Current cycle: 0 out of 5000
===============================================================================

Box:      19.22345   0.00000   0.00000  Average:  19.22345   0.00000   0.00000
           0.00000  19.22345   0.00000             0.00000  19.22345   0.00000
           0.00000   0.00000  19.22345             0.00000   0.00000  19.22345
Lengths:  19.22345  19.22345  19.22345  Average:  19.22345  19.22345  19.22345
Angles:   90.00000  90.00000  90.00000  Average:  90.00000  90.00000  90.00000
Rectangular boundary conditions

net charge:   0.00000000

component 0 (CO2) lambda:  0 occupancy:  1 (1.000000)
    net charge:   0.00000000 [e]

Amount of molecules per component :
-------------------------------------------------------------------------------
Component 0 (CO2)
    molecules:      1.000000e+02 molecules  (1.000000e+02 +/- 0.000000e+00)
    number density: 1.407687e-02 molec./A^3 (1.407687e-02 +/- 0.000000e+00)
    density:        1.028480e+03 kg/m^3     (1.028480e+03 +/- 0.000000e+00)

Average pressure tensor: 
-------------------------------------------------------------------------------
 4.8588e+02  0.0000e+00  0.0000e+00 +/- 0.0000e+00 0.0000e+00 0.0000e+00 [bar]
 0.0000e+00  4.8588e+02  0.0000e+00 +/- 0.0000e+00 0.0000e+00 0.0000e+00 [bar]
 0.0000e+00  0.0000e+00  4.8588e+02 +/- 0.0000e+00 0.0000e+00 0.0000e+00 [bar]
Ideal-gas pressure:   4.858808e+02 +/ 0.000000e+00 [bar]
Excess pressure:      0.000000e+00 +/ 0.000000e+00 [bar]
Pressure:             4.858808e+02 +/ 0.000000e+00 [bar]

Total potential energy/kʙ  -1.450109e+05 (-1.450109e+05 +/- 0.000000e+00) [K]
-------------------------------------------------------------------------------
ExternalField-molecule
    Van der Waals/kʙ        0.000000e+00 ( 0.000000e+00 +/- 0.000000e+00) [K]
Framework-molecule
    Van der Waals/kʙ        0.000000e+00 ( 0.000000e+00 +/- 0.000000e+00) [K]
    Van der Waals (Tail)/kʙ 0.000000e+00 ( 0.000000e+00 +/- 0.000000e+00) [K]
    Coulombic Real/kʙ       0.000000e+00 ( 0.000000e+00 +/- 0.000000e+00) [K]
    Coulombic Fourier/kʙ    0.000000e+00 ( 0.000000e+00 +/- 0.000000e+00) [K]
Molecule-molecule
    Van der Waals/kʙ       -1.058492e+05 (-1.058492e+05 +/- 0.000000e+00) [K]
    Van der Waals (Tail)/kʙ-4.516632e+03 (-4.516632e+03 +/- 0.000000e+00) [K]
    Coulombic Real/kʙ      -2.696645e+04 (-2.696645e+04 +/- 0.000000e+00) [K]
    Coulombic Fourier/kʙ   -7.678571e+03 (-7.678571e+03 +/- 0.000000e+00) [K]
    Molecule Intra/kʙ       0.000000e+00 ( 0.000000e+00 +/- 0.000000e+00) [K]

Current cycle: 100 out of 5000
===============================================================================

Box:      19.28491   0.00000   0.00000  Average:  19.21173   0.00000   0.00000
           0.00000  19.28491   0.00000             0.00000  19.21173   0.00000
           0.00000   0.00000  19.28491             0.00000   0.00000  19.21173
Lengths:  19.28491  19.28491  19.28491  Average:  19.21173  19.21173  19.21173
Angles:   90.00000  90.00000  90.00000  Average:  90.00000  90.00000  90.00000
Rectangular boundary conditions

net charge:   0.00000000

component 0 (CO2) lambda:  0 occupancy:  1 (1.000000)
    net charge:   0.00000000 [e]

Amount of molecules per component :
-------------------------------------------------------------------------------
Component 0 (CO2)
    molecules:      1.000000e+02 molecules  (1.000000e+02 +/- 0.000000e+00)
    number density: 1.394271e-02 molec./A^3 (1.410384e-02 +/- 0.000000e+00)
    density:        1.018678e+03 kg/m^3     (1.030450e+03 +/- 0.000000e+00)

Average pressure tensor: 
-------------------------------------------------------------------------------
 2.8350e+02  1.8382e+02  1.8849e+02 +/- 0.0000e+00 0.0000e+00 0.0000e+00 [bar]
 1.8382e+02  1.0851e+02 -1.2677e+01 +/- 0.0000e+00 0.0000e+00 0.0000e+00 [bar]
 1.8849e+02 -1.2677e+01  1.6822e+02 +/- 0.0000e+00 0.0000e+00 0.0000e+00 [bar]
Ideal-gas pressure:   4.868117e+02 +/ 0.000000e+00 [bar]
Excess pressure:     -3.000713e+02 +/ 0.000000e+00 [bar]
Pressure:             1.867404e+02 +/ 0.000000e+00 [bar]

Total potential energy/kʙ  -1.483791e+05 (-1.477015e+05 +/- 0.000000e+00) [K]
-------------------------------------------------------------------------------
ExternalField-molecule
    Van der Waals/kʙ        0.000000e+00 ( 0.000000e+00 +/- 0.000000e+00) [K]
Framework-molecule
    Van der Waals/kʙ        0.000000e+00 ( 0.000000e+00 +/- 0.000000e+00) [K]
    Van der Waals (Tail)/kʙ 0.000000e+00 ( 0.000000e+00 +/- 0.000000e+00) [K]
    Coulombic Real/kʙ       0.000000e+00 ( 0.000000e+00 +/- 0.000000e+00) [K]
    Coulombic Fourier/kʙ    0.000000e+00 ( 0.000000e+00 +/- 0.000000e+00) [K]
Molecule-molecule
    Van der Waals/kʙ       -1.052371e+05 (-1.061498e+05 +/- 0.000000e+00) [K]
    Van der Waals (Tail)/kʙ-4.473586e+03 (-4.545410e+03 +/- 0.000000e+00) [K]
    Coulombic Real/kʙ      -3.124741e+04 (-2.958126e+04 +/- 0.000000e+00) [K]
    Coulombic Fourier/kʙ   -7.421011e+03 (-7.425008e+03 +/- 0.000000e+00) [K]
    Molecule Intra/kʙ       0.000000e+00 ( 0.000000e+00 +/- 0.000000e+00) [K]

Current cycle: 200 out of 5000
===============================================================================

Box:      19.08441   0.00000   0.00000  Average:  19.13880   0.00000   0.00000
           0.00000  19.08441   0.00000             0.00000  19.13880   0.00000
           0.00000   0.00000  19.08441             0.00000   0.00000  19.13880
Lengths:  19.08441  19.08441  19.08441  Average:  19.13880  19.13880  19.13880
Angles:   90.00000  90.00000  90.00000  Average:  90.00000  90.00000  90.00000
Rectangular boundary conditions

net charge:   0.00000000

component 0 (CO2) lambda:  0 occupancy:  1 (1.000000)
    net charge:   0.00000000 [e]

Amount of molecules per component :
-------------------------------------------------------------------------------
Component 0 (CO2)
    molecules:      1.000000e+02 molecules  (1.000000e+02 +/- 0.000000e+00)
    number density: 1.438679e-02 molec./A^3 (1.426688e-02 +/- 0.000000e+00)
    density:        1.051124e+03 kg/m^3     (1.042363e+03 +/- 0.000000e+00)

Average pressure tensor: 
-------------------------------------------------------------------------------
 1.7753e+02  7.5437e+01  2.2332e+02 +/- 0.0000e+00 0.0000e+00 0.0000e+00 [bar]
 7.5437e+01  1.8961e+02  1.6598e+02 +/- 0.0000e+00 0.0000e+00 0.0000e+00 [bar]
 2.2332e+02  1.6598e+02  1.3863e+02 +/- 0.0000e+00 0.0000e+00 0.0000e+00 [bar]
Ideal-gas pressure:   4.924394e+02 +/ 0.000000e+00 [bar]
Excess pressure:     -3.238511e+02 +/ 0.000000e+00 [bar]
Pressure:             1.685883e+02 +/ 0.000000e+00 [bar]

Total potential energy/kʙ  -1.566695e+05 (-1.511554e+05 +/- 0.000000e+00) [K]
-------------------------------------------------------------------------------
ExternalField-molecule
    Van der Waals/kʙ        0.000000e+00 ( 0.000000e+00 +/- 0.000000e+00) [K]
Framework-molecule
    Van der Waals/kʙ        0.000000e+00 ( 0.000000e+00 +/- 0.000000e+00) [K]
    Van der Waals (Tail)/kʙ 0.000000e+00 ( 0.000000e+00 +/- 0.000000e+00) [K]
    Coulombic Real/kʙ       0.000000e+00 ( 0.000000e+00 +/- 0.000000e+00) [K]
    Coulombic Fourier/kʙ    0.000000e+00 ( 0.000000e+00 +/- 0.000000e+00) [K]
Molecule-molecule
    Van der Waals/kʙ       -1.080090e+05 (-1.073640e+05 +/- 0.000000e+00) [K]
    Van der Waals (Tail)/kʙ-4.616073e+03 (-4.580832e+03 +/- 0.000000e+00) [K]
    Coulombic Real/kʙ      -3.619452e+04 (-3.157007e+04 +/- 0.000000e+00) [K]
    Coulombic Fourier/kʙ   -7.849862e+03 (-7.640529e+03 +/- 0.000000e+00) [K]
    Molecule Intra/kʙ       0.000000e+00 ( 0.000000e+00 +/- 0.000000e+00) [K]

Current cycle: 300 out of 5000
===============================================================================

Box:      18.94854   0.00000   0.00000  Average:  19.09273   0.00000   0.00000
           0.00000  18.94854   0.00000             0.00000  19.09273   0.00000
           0.00000   0.00000  18.94854             0.00000   0.00000  19.09273
Lengths:  18.94854  18.94854  18.94854  Average:  19.09273  19.09273  19.09273
Angles:   90.00000  90.00000  90.00000  Average:  90.00000  90.00000  90.00000
Rectangular boundary conditions

net charge:   0.00000000

component 0 (CO2) lambda:  0 occupancy:  1 (1.000000)
    net charge:   0.00000000 [e]

Amount of molecules per component :
-------------------------------------------------------------------------------
Component 0 (CO2)
    molecules:      1.000000e+02 molecules  (1.000000e+02 +/- 0.000000e+00)
    number density: 1.469849e-02 molec./A^3 (1.437108e-02 +/- 0.000000e+00)
    density:        1.073897e+03 kg/m^3     (1.049976e+03 +/- 0.000000e+00)

Average pressure tensor: 
-------------------------------------------------------------------------------
 1.8332e+02 -1.4342e+02  1.3464e+02 +/- 0.0000e+00 0.0000e+00 0.0000e+00 [bar]
-1.4342e+02  2.3929e+02  5.6010e+01 +/- 0.0000e+00 0.0000e+00 0.0000e+00 [bar]
 1.3464e+02  5.6010e+01  5.3552e+01 +/- 0.0000e+00 0.0000e+00 0.0000e+00 [bar]
Ideal-gas pressure:   4.960360e+02 +/ 0.000000e+00 [bar]
Excess pressure:     -3.373159e+02 +/ 0.000000e+00 [bar]
Pressure:             1.587201e+02 +/ 0.000000e+00 [bar]

Total potential energy/kʙ  -1.544371e+05 (-1.524727e+05 +/- 0.000000e+00) [K]
-------------------------------------------------------------------------------
ExternalField-molecule
    Van der Waals/kʙ        0.000000e+00 ( 0.000000e+00 +/- 0.000000e+00) [K]
Framework-molecule
    Van der Waals/kʙ        0.000000e+00 ( 0.000000e+00 +/- 0.000000e+00) [K]
    Van der Waals (Tail)/kʙ 0.000000e+00 ( 0.000000e+00 +/- 0.000000e+00) [K]
    Coulombic Real/kʙ       0.000000e+00 ( 0.000000e+00 +/- 0.000000e+00) [K]
    Coulombic Fourier/kʙ    0.000000e+00 ( 0.000000e+00 +/- 0.000000e+00) [K]
Molecule-molecule
    Van der Waals/kʙ       -1.126054e+05 (-1.083782e+05 +/- 0.000000e+00) [K]
    Van der Waals (Tail)/kʙ-4.716081e+03 (-4.617537e+03 +/- 0.000000e+00) [K]
    Coulombic Real/kʙ      -2.946657e+04 (-3.172940e+04 +/- 0.000000e+00) [K]
    Coulombic Fourier/kʙ   -7.649063e+03 (-7.747509e+03 +/- 0.000000e+00) [K]
    Molecule Intra/kʙ       0.000000e+00 ( 0.000000e+00 +/- 0.000000e+00) [K]

Current cycle: 400 out of 5000
===============================================================================

Box:      19.26314   0.00000   0.00000  Average:  19.04699   0.00000   0.00000
           0.00000  19.26314   0.00000             0.00000  19.04699   0.00000
           0.00000   0.00000  19.26314             0.00000   0.00000  19.04699
Lengths:  19.26314  19.26314  19.26314  Average:  19.04699  19.04699  19.04699
Angles:   90.00000  90.00000  90.00000  Average:  90.00000  90.00000  90.00000
Rectangular boundary conditions

net charge:   0.00000000

component 0 (CO2) lambda:  0 occupancy:  1 (1.000000)
    net charge:   0.00000000 [e]

Amount of molecules per component :
-------------------------------------------------------------------------------
Component 0 (CO2)
    molecules:      1.000000e+02 molecules  (1.000000e+02 +/- 0.000000e+00)
    number density: 1.399004e-02 molec./A^3 (1.447724e-02 +/- 0.000000e+00)
    density:        1.022136e+03 kg/m^3     (1.057732e+03 +/- 0.000000e+00)

Average pressure tensor: 
-------------------------------------------------------------------------------
 2.2059e+02 -1.3973e+02  8.6990e+01 +/- 0.0000e+00 0.0000e+00 0.0000e+00 [bar]
-1.3973e+02  2.3394e+02  2.6656e+01 +/- 0.0000e+00 0.0000e+00 0.0000e+00 [bar]
 8.6990e+01  2.6656e+01 -6.1025e+00 +/- 0.0000e+00 0.0000e+00 0.0000e+00 [bar]
Ideal-gas pressure:   4.997001e+02 +/ 0.000000e+00 [bar]
Excess pressure:     -3.502274e+02 +/ 0.000000e+00 [bar]
Pressure:             1.494726e+02 +/ 0.000000e+00 [bar]

Total potential energy/kʙ  -1.502361e+05 (-1.531589e+05 +/- 0.000000e+00) [K]
-------------------------------------------------------------------------------
ExternalField-molecule
    Van der Waals/kʙ        0.000000e+00 ( 0.000000e+00 +/- 0.000000e+00) [K]
Framework-molecule
    Van der Waals/kʙ        0.000000e+00 ( 0.000000e+00 +/- 0.000000e+00) [K]
    Van der Waals (Tail)/kʙ 0.000000e+00 ( 0.000000e+00 +/- 0.000000e+00) [K]
    Coulombic Real/kʙ       0.000000e+00 ( 0.000000e+00 +/- 0.000000e+00) [K]
    Coulombic Fourier/kʙ    0.000000e+00 ( 0.000000e+00 +/- 0.000000e+00) [K]
Molecule-molecule
    Van der Waals/kʙ       -1.077885e+05 (-1.090123e+05 +/- 0.000000e+00) [K]
    Van der Waals (Tail)/kʙ-4.488773e+03 (-4.648265e+03 +/- 0.000000e+00) [K]
    Coulombic Real/kʙ      -3.031447e+04 (-3.178653e+04 +/- 0.000000e+00) [K]
    Coulombic Fourier/kʙ   -7.644360e+03 (-7.711808e+03 +/- 0.000000e+00) [K]
    Molecule Intra/kʙ       0.000000e+00 ( 0.000000e+00 +/- 0.000000e+00) [K]

Current cycle: 500 out of 5000
===============================================================================

Box:      19.11612   0.00000   0.00000  Average:  19.04933   0.00000   0.00000
           0.00000  19.11612   0.00000             0.00000  19.04933   0.00000
           0.00000   0.00000  19.11612             0.00000   0.00000  19.04933
Lengths:  19.11612  19.11612  19.11612  Average:  19.04933  19.04933  19.04933
Angles:   90.00000  90.00000  90.00000  Average:  90.00000  90.00000  90.00000
Rectangular boundary conditions

net charge:   0.00000000

component 0 (CO2) lambda:  0 occupancy:  1 (1.000000)
    net charge:   0.00000000 [e]

Amount of molecules per component :
-------------------------------------------------------------------------------
Component 0 (CO2)
    molecules:      1.000000e+02 molecules  (1.000000e+02 +/- 0.000000e+00)
    number density: 1.431531e-02 molec./A^3 (1.447111e-02 +/- 0.000000e+00)
    density:        1.045901e+03 kg/m^3     (1.057284e+03 +/- 0.000000e+00)

Average pressure tensor: 
-------------------------------------------------------------------------------
 2.3769e+02 -6.7480e+01  4.7812e+01 +/- 0.0000e+00 0.0000e+00 0.0000e+00 [bar]
-6.7480e+01  2.3364e+02 -3.1951e+01 +/- 0.0000e+00 0.0000e+00 0.0000e+00 [bar]
 4.7812e+01 -3.1951e+01  8.6180e+01 +/- 0.0000e+00 0.0000e+00 0.0000e+00 [bar]
Ideal-gas pressure:   4.994884e+02 +/ 0.000000e+00 [bar]
Excess pressure:     -3.136526e+02 +/ 0.000000e+00 [bar]
Pressure:             1.858358e+02 +/ 0.000000e+00 [bar]

Total potential energy/kʙ  -1.484385e+05 (-1.529932e+05 +/- 0.000000e+00) [K]
-------------------------------------------------------------------------------
ExternalField-molecule
    Van der Waals/kʙ        0.000000e+00 ( 0.000000e+00 +/- 0.000000e+00) [K]
Framework-molecule
    Van der Waals/kʙ        0.000000e+00 ( 0.000000e+00 +/- 0.000000e+00) [K]
    Van der Waals (Tail)/kʙ 0.000000e+00 ( 0.000000e+00 +/- 0.000000e+00) [K]
    Coulombic Real/kʙ       0.000000e+00 ( 0.000000e+00 +/- 0.000000e+00) [K]
    Coulombic Fourier/kʙ    0.000000e+00 ( 0.000000e+00 +/- 0.000000e+00) [K]
Molecule-molecule
    Van der Waals/kʙ       -1.058735e+05 (-1.086333e+05 +/- 0.000000e+00) [K]
    Van der Waals (Tail)/kʙ-4.593137e+03 (-4.650200e+03 +/- 0.000000e+00) [K]
    Coulombic Real/kʙ      -2.992511e+04 (-3.198225e+04 +/- 0.000000e+00) [K]
    Coulombic Fourier/kʙ   -8.046743e+03 (-7.727458e+03 +/- 0.000000e+00) [K]
    Molecule Intra/kʙ       0.000000e+00 ( 0.000000e+00 +/- 0.000000e+00) [K]

Current cycle: 600 out of 5000
===============================================================================

Box:      19.20959   0.00000   0.00000  Average:  19.05843   0.00000   0.00000
           0.00000  19.20959   0.00000             0.00000  19.05843   0.00000
           0.00000   0.00000  19.20959             0.00000   0.00000  19.05843
Lengths:  19.20959  19.20959  19.20959  Average:  19.05843  19.05843  19.05843
Angles:   90.00000  90.00000  90.00000  Average:  90.00000  90.00000  90.00000
Rectangular boundary conditions

net charge:   0.00000000

component 0 (CO2) lambda:  0 occupancy:  1 (1.000000)
    net charge:   0.00000000 [e]

Amount of molecules per component :
-------------------------------------------------------------------------------
Component 0 (CO2)
    molecules:      1.000000e+02 molecules  (1.000000e+02 +/- 0.000000e+00)
    number density: 1.410735e-02 molec./A^3 (1.445012e-02 +/- 0.000000e+00)
    density:        1.030707e+03 kg/m^3     (1.055750e+03 +/- 0.000000e+00)

Average pressure tensor: 
-------------------------------------------------------------------------------
 1.8541e+02 -3.9111e+01  5.2589e+01 +/- 0.0000e+00 0.0000e+00 0.0000e+00 [bar]
-3.9111e+01  2.1075e+02 -2.5724e+01 +/- 0.0000e+00 0.0000e+00 0.0000e+00 [bar]
 5.2589e+01 -2.5724e+01  1.0383e+02 +/- 0.0000e+00 0.0000e+00 0.0000e+00 [bar]
Ideal-gas pressure:   4.987640e+02 +/ 0.000000e+00 [bar]
Excess pressure:     -3.320994e+02 +/ 0.000000e+00 [bar]
Pressure:             1.666646e+02 +/ 0.000000e+00 [bar]

Total potential energy/kʙ  -1.497794e+05 (-1.528387e+05 +/- 0.000000e+00) [K]
-------------------------------------------------------------------------------
ExternalField-molecule
    Van der Waals/kʙ        0.000000e+00 ( 0.000000e+00 +/- 0.000000e+00) [K]
Framework-molecule
    Van der Waals/kʙ        0.000000e+00 ( 0.000000e+00 +/- 0.000000e+00) [K]
    Van der Waals (Tail)/kʙ 0.000000e+00 ( 0.000000e+00 +/- 0.000000e+00) [K]
    Coulombic Real/kʙ       0.000000e+00 ( 0.000000e+00 +/- 0.000000e+00) [K]
    Coulombic Fourier/kʙ    0.000000e+00 ( 0.000000e+00 +/- 0.000000e+00) [K]
Molecule-molecule
    Van der Waals/kʙ       -1.042799e+05 (-1.082454e+05 +/- 0.000000e+00) [K]
    Van der Waals (Tail)/kʙ-4.526413e+03 (-4.640769e+03 +/- 0.000000e+00) [K]
    Coulombic Real/kʙ      -3.343147e+04 (-3.220817e+04 +/- 0.000000e+00) [K]
    Coulombic Fourier/kʙ   -7.541687e+03 (-7.744305e+03 +/- 0.000000e+00) [K]
    Molecule Intra/kʙ       0.000000e+00 ( 0.000000e+00 +/- 0.000000e+00) [K]

Current cycle: 700 out of 5000
===============================================================================

Box:      19.35271   0.00000   0.00000  Average:  19.10793   0.00000   0.00000
           0.00000  19.35271   0.00000             0.00000  19.10793   0.00000
           0.00000   0.00000  19.35271             0.00000   0.00000  19.10793
Lengths:  19.35271  19.35271  19.35271  Average:  19.10793  19.10793  19.10793
Angles:   90.00000  90.00000  90.00000  Average:  90.00000  90.00000  90.00000
Rectangular boundary conditions

net charge:   0.00000000

component 0 (CO2) lambda:  0 occupancy:  1 (1.000000)
    net charge:   0.00000000 [e]

Amount of molecules per component :
-------------------------------------------------------------------------------
Component 0 (CO2)
    molecules:      1.000000e+02 molecules  (1.000000e+02 +/- 0.000000e+00)
    number density: 1.379669e-02 molec./A^3 (1.434138e-02 +/- 0.000000e+00)
    density:        1.008010e+03 kg/m^3     (1.047806e+03 +/- 0.000000e+00)

Average pressure tensor: 
-------------------------------------------------------------------------------
 1.5632e+02 -1.4236e+01  5.8814e+01 +/- 0.0000e+00 0.0000e+00 0.0000e+00 [bar]
-1.4236e+01  1.9224e+02 -7.0722e+01 +/- 0.0000e+00 0.0000e+00 0.0000e+00 [bar]
 5.8814e+01 -7.0722e+01  1.1285e+02 +/- 0.0000e+00 0.0000e+00 0.0000e+00 [bar]
Ideal-gas pressure:   4.950109e+02 +/ 0.000000e+00 [bar]
Excess pressure:     -3.412060e+02 +/ 0.000000e+00 [bar]
Pressure:             1.538049e+02 +/ 0.000000e+00 [bar]

Total potential energy/kʙ  -1.424499e+05 (-1.515567e+05 +/- 0.000000e+00) [K]
-------------------------------------------------------------------------------
ExternalField-molecule
    Van der Waals/kʙ        0.000000e+00 ( 0.000000e+00 +/- 0.000000e+00) [K]
Framework-molecule
    Van der Waals/kʙ        0.000000e+00 ( 0.000000e+00 +/- 0.000000e+00) [K]
    Van der Waals (Tail)/kʙ 0.000000e+00 ( 0.000000e+00 +/- 0.000000e+00) [K]
    Coulombic Real/kʙ       0.000000e+00 ( 0.000000e+00 +/- 0.000000e+00) [K]
    Coulombic Fourier/kʙ    0.000000e+00 ( 0.000000e+00 +/- 0.000000e+00) [K]
Molecule-molecule
    Van der Waals/kʙ       -1.027768e+05 (-1.074978e+05 +/- 0.000000e+00) [K]
    Van der Waals (Tail)/kʙ-4.426736e+03 (-4.604904e+03 +/- 0.000000e+00) [K]
    Coulombic Real/kʙ      -2.872021e+04 (-3.184045e+04 +/- 0.000000e+00) [K]
    Coulombic Fourier/kʙ   -6.526148e+03 (-7.613528e+03 +/- 0.000000e+00) [K]
    Molecule Intra/kʙ       0.000000e+00 ( 0.000000e+00 +/- 0.000000e+00) [K]

Current cycle: 800 out of 5000
===============================================================================

Box:      18.94857   0.00000   0.00000  Average:  19.13286   0.00000   0.00000
           0.00000  18.94857   0.00000             0.00000  19.13286   0.00000
           0.00000   0.00000  18.94857             0.00000   0.00000  19.13286
Lengths:  18.94857  18.94857  18.94857  Average:  19.13286  19.13286  19.13286
Angles:   90.00000  90.00000  90.00000  Average:  90.00000  90.00000  90.00000
Rectangular boundary conditions

net charge:   0.00000000

component 0 (CO2) lambda:  0 occupancy:  1 (1.000000)
    net charge:   0.00000000 [e]

Amount of molecules per component :
-------------------------------------------------------------------------------
Component 0 (CO2)
    molecules:      1.000000e+02 molecules  (1.000000e+02 +/- 0.000000e+00)
    number density: 1.469841e-02 molec./A^3 (1.428608e-02 +/- 0.000000e+00)
    density:        1.073891e+03 kg/m^3     (1.043765e+03 +/- 0.000000e+00)

Average pressure tensor: 
-------------------------------------------------------------------------------
 1.1860e+02  2.8228e+01  3.6003e+01 +/- 0.0000e+00 0.0000e+00 0.0000e+00 [bar]
 2.8228e+01  1.9968e+02 -8.1130e+01 +/- 0.0000e+00 0.0000e+00 0.0000e+00 [bar]
 3.6003e+01 -8.1130e+01  7.5454e+01 +/- 0.0000e+00 0.0000e+00 0.0000e+00 [bar]
Ideal-gas pressure:   4.931019e+02 +/ 0.000000e+00 [bar]
Excess pressure:     -3.618587e+02 +/ 0.000000e+00 [bar]
Pressure:             1.312431e+02 +/ 0.000000e+00 [bar]

Total potential energy/kʙ  -1.499911e+05 (-1.506872e+05 +/- 0.000000e+00) [K]
-------------------------------------------------------------------------------
ExternalField-molecule
    Van der Waals/kʙ        0.000000e+00 ( 0.000000e+00 +/- 0.000000e+00) [K]
Framework-molecule
    Van der Waals/kʙ        0.000000e+00 ( 0.000000e+00 +/- 0.000000e+00) [K]
    Van der Waals (Tail)/kʙ 0.000000e+00 ( 0.000000e+00 +/- 0.000000e+00) [K]
    Coulombic Real/kʙ       0.000000e+00 ( 0.000000e+00 +/- 0.000000e+00) [K]
    Coulombic Fourier/kʙ    0.000000e+00 ( 0.000000e+00 +/- 0.000000e+00) [K]
Molecule-molecule
    Van der Waals/kʙ       -1.112477e+05 (-1.071270e+05 +/- 0.000000e+00) [K]
    Van der Waals (Tail)/kʙ-4.716057e+03 (-4.589012e+03 +/- 0.000000e+00) [K]
    Coulombic Real/kʙ      -2.706620e+04 (-3.141476e+04 +/- 0.000000e+00) [K]
    Coulombic Fourier/kʙ   -6.961190e+03 (-7.556452e+03 +/- 0.000000e+00) [K]
    Molecule Intra/kʙ       0.000000e+00 ( 0.000000e+00 +/- 0.000000e+00) [K]

Current cycle: 900 out of 5000
===============================================================================

Box:      19.36372   0.00000   0.00000  Average:  19.11630   0.00000   0.00000
           0.00000  19.36372   0.00000             0.00000  19.11630   0.00000
           0.00000   0.00000  19.36372             0.00000   0.00000  19.11630
Lengths:  19.36372  19.36372  19.36372  Average:  19.11630  19.11630  19.11630
Angles:   90.00000  90.00000  90.00000  Average:  90.00000  90.00000  90.00000
Rectangular boundary conditions

net charge:   0.00000000

component 0 (CO2) lambda:  0 occupancy:  1 (1.000000)
    net charge:   0.00000000 [e]

Amount of molecules per component :
-------------------------------------------------------------------------------
Component 0 (CO2)
    molecules:      1.000000e+02 molecules  (1.000000e+02 +/- 0.000000e+00)
    number density: 1.377315e-02 molec./A^3 (1.432336e-02 +/- 0.000000e+00)
    density:        1.006290e+03 kg/m^3     (1.046489e+03 +/- 0.000000e+00)

Average pressure tensor: 
-------------------------------------------------------------------------------
 1.4605e+02  4.5489e+01  2.1643e+01 +/- 0.0000e+00 0.0000e+00 0.0000e+00 [bar]
 4.5489e+01  1.9275e+02 -9.0330e+01 +/- 0.0000e+00 0.0000e+00 0.0000e+00 [bar]
 2.1643e+01 -9.0330e+01  7.3754e+01 +/- 0.0000e+00 0.0000e+00 0.0000e+00 [bar]
Ideal-gas pressure:   4.943888e+02 +/ 0.000000e+00 [bar]
Excess pressure:     -3.568713e+02 +/ 0.000000e+00 [bar]
Pressure:             1.375175e+02 +/ 0.000000e+00 [bar]

Total potential energy/kʙ  -1.474544e+05 (-1.507949e+05 +/- 0.000000e+00) [K]
-------------------------------------------------------------------------------
ExternalField-molecule
    Van der Waals/kʙ        0.000000e+00 ( 0.000000e+00 +/- 0.000000e+00) [K]
Framework-molecule
    Van der Waals/kʙ        0.000000e+00 ( 0.000000e+00 +/- 0.000000e+00) [K]
    Van der Waals (Tail)/kʙ 0.000000e+00 ( 0.000000e+00 +/- 0.000000e+00) [K]
    Coulombic Real/kʙ       0.000000e+00 ( 0.000000e+00 +/- 0.000000e+00) [K]
    Coulombic Fourier/kʙ    0.000000e+00 ( 0.000000e+00 +/- 0.000000e+00) [K]
Molecule-molecule
    Van der Waals/kʙ       -1.018804e+05 (-1.072423e+05 +/- 0.000000e+00) [K]
    Van der Waals (Tail)/kʙ-4.419183e+03 (-4.598864e+03 +/- 0.000000e+00) [K]
    Coulombic Real/kʙ      -3.321232e+04 (-3.140315e+04 +/- 0.000000e+00) [K]
    Coulombic Fourier/kʙ   -7.942478e+03 (-7.550660e+03 +/- 0.000000e+00) [K]
    Molecule Intra/kʙ       0.000000e+00 ( 0.000000e+00 +/- 0.000000e+00) [K]

Current cycle: 1000 out of 5000
===============================================================================

Box:      19.17942   0.00000   0.00000  Average:  19.12956   0.00000   0.00000
           0.00000  19.17942   0.00000             0.00000  19.12956   0.00000
           0.00000   0.00000  19.17942             0.00000   0.00000  19.12956
Lengths:  19.17942  19.17942  19.17942  Average:  19.12956  19.12956  19.12956
Angles:   90.00000  90.00000  90.00000  Average:  90.00000  90.00000  90.00000
Rectangular boundary conditions

net charge:   0.00000000

component 0 (CO2) lambda:  0 occupancy:  1 (1.000000)
    net charge:   0.00000000 [e]

Amount of molecules per component :
-------------------------------------------------------------------------------
Component 0 (CO2)
    molecules:      1.000000e+02 molecules  (1.000000e+02 +/- 0.000000e+00)
    number density: 1.417403e-02 molec./A^3 (1.429346e-02 +/- 0.000000e+00)
    density:        1.035579e+03 kg/m^3     (1.044305e+03 +/- 0.000000e+00)

Average pressure tensor: 
-------------------------------------------------------------------------------
 1.4394e+02  4.3088e+01  1.1152e+01 +/- 0.0000e+00 0.0000e+00 0.0000e+00 [bar]
 4.3088e+01  1.8852e+02 -8.8355e+01 +/- 0.0000e+00 0.0000e+00 0.0000e+00 [bar]
 1.1152e+01 -8.8355e+01  6.0202e+01 +/- 0.0000e+00 0.0000e+00 0.0000e+00 [bar]
Ideal-gas pressure:   4.933568e+02 +/ 0.000000e+00 [bar]
Excess pressure:     -3.624692e+02 +/ 0.000000e+00 [bar]
Pressure:             1.308876e+02 +/ 0.000000e+00 [bar]

Total potential energy/kʙ  -1.461031e+05 (-1.503854e+05 +/- 0.000000e+00) [K]
-------------------------------------------------------------------------------
ExternalField-molecule
    Van der Waals/kʙ        0.000000e+00 ( 0.000000e+00 +/- 0.000000e+00) [K]
Framework-molecule
    Van der Waals/kʙ        0.000000e+00 ( 0.000000e+00 +/- 0.000000e+00) [K]
    Van der Waals (Tail)/kʙ 0.000000e+00 ( 0.000000e+00 +/- 0.000000e+00) [K]
    Coulombic Real/kʙ       0.000000e+00 ( 0.000000e+00 +/- 0.000000e+00) [K]
    Coulombic Fourier/kʙ    0.000000e+00 ( 0.000000e+00 +/- 0.000000e+00) [K]
Molecule-molecule
    Van der Waals/kʙ       -1.057701e+05 (-1.069252e+05 +/- 0.000000e+00) [K]
    Van der Waals (Tail)/kʙ-4.547809e+03 (-4.590010e+03 +/- 0.000000e+00) [K]
    Coulombic Real/kʙ      -2.905493e+04 (-3.136166e+04 +/- 0.000000e+00) [K]
    Coulombic Fourier/kʙ   -6.730221e+03 (-7.508529e+03 +/- 0.000000e+00) [K]
    Molecule Intra/kʙ       0.000000e+00 ( 0.000000e+00 +/- 0.000000e+00) [K]

Current cycle: 1100 out of 5000
===============================================================================

Box:      19.14691   0.00000   0.00000  Average:  19.12397   0.00000   0.00000
           0.00000  19.14691   0.00000             0.00000  19.12397   0.00000
           0.00000   0.00000  19.14691             0.00000   0.00000  19.12397
Lengths:  19.14691  19.14691  19.14691  Average:  19.12397  19.12397  19.12397
Angles:   90.00000  90.00000  90.00000  Average:  90.00000  90.00000  90.00000
Rectangular boundary conditions

net charge:   0.00000000

component 0 (CO2) lambda:  0 occupancy:  1 (1.000000)
    net charge:   0.00000000 [e]

Amount of molecules per component :
-------------------------------------------------------------------------------
Component 0 (CO2)
    molecules:      1.000000e+02 molecules  (1.000000e+02 +/- 0.000000e+00)
    number density: 1.424635e-02 molec./A^3 (1.430553e-02 +/- 0.000000e+00)
    density:        1.040863e+03 kg/m^3     (1.045186e+03 +/- 0.000000e+00)

Average pressure tensor: 
-------------------------------------------------------------------------------
 1.7843e+02  5.7749e+01  2.0840e+01 +/- 0.0000e+00 0.0000e+00 0.0000e+00 [bar]
 5.7749e+01  1.7376e+02 -9.0629e+01 +/- 0.0000e+00 0.0000e+00 0.0000e+00 [bar]
 2.0840e+01 -9.0629e+01  5.5713e+01 +/- 0.0000e+00 0.0000e+00 0.0000e+00 [bar]
Ideal-gas pressure:   4.937734e+02 +/ 0.000000e+00 [bar]
Excess pressure:     -3.578049e+02 +/ 0.000000e+00 [bar]
Pressure:             1.359685e+02 +/ 0.000000e+00 [bar]

Total potential energy/kʙ  -1.530059e+05 (-1.505090e+05 +/- 0.000000e+00) [K]
-------------------------------------------------------------------------------
ExternalField-molecule
    Van der Waals/kʙ        0.000000e+00 ( 0.000000e+00 +/- 0.000000e+00) [K]
Framework-molecule
    Van der Waals/kʙ        0.000000e+00 ( 0.000000e+00 +/- 0.000000e+00) [K]
    Van der Waals (Tail)/kʙ 0.000000e+00 ( 0.000000e+00 +/- 0.000000e+00) [K]
    Coulombic Real/kʙ       0.000000e+00 ( 0.000000e+00 +/- 0.000000e+00) [K]
    Coulombic Fourier/kʙ    0.000000e+00 ( 0.000000e+00 +/- 0.000000e+00) [K]
Molecule-molecule
    Van der Waals/kʙ       -1.087932e+05 (-1.069337e+05 +/- 0.000000e+00) [K]
    Van der Waals (Tail)/kʙ-4.571012e+03 (-4.593595e+03 +/- 0.000000e+00) [K]
    Coulombic Real/kʙ      -3.219669e+04 (-3.143106e+04 +/- 0.000000e+00) [K]
    Coulombic Fourier/kʙ   -7.445000e+03 (-7.550659e+03 +/- 0.000000e+00) [K]
    Molecule Intra/kʙ       0.000000e+00 ( 0.000000e+00 +/- 0.000000e+00) [K]

Current cycle: 1200 out of 5000
===============================================================================

Box:      18.86045   0.00000   0.00000  Average:  19.11409   0.00000   0.00000
           0.00000  18.86045   0.00000             0.00000  19.11409   0.00000
           0.00000   0.00000  18.86045             0.00000   0.00000  19.11409
Lengths:  18.86045  18.86045  18.86045  Average:  19.11409  19.11409  19.11409
Angles:   90.00000  90.00000  90.00000  Average:  90.00000  90.00000  90.00000
Rectangular boundary conditions

net charge:   0.00000000

component 0 (CO2) lambda:  0 occupancy:  1 (1.000000)
    net charge:   0.00000000 [e]

Amount of molecules per component :
-------------------------------------------------------------------------------
Component 0 (CO2)
    molecules:      1.000000e+02 molecules  (1.000000e+02 +/- 0.000000e+00)
    number density: 1.490540e-02 molec./A^3 (1.432746e-02 +/- 0.000000e+00)
    density:        1.089014e+03 kg/m^3     (1.046789e+03 +/- 0.000000e+00)

Average pressure tensor: 
-------------------------------------------------------------------------------
 1.8930e+02  2.4592e+01  2.5911e+01 +/- 0.0000e+00 0.0000e+00 0.0000e+00 [bar]
 2.4592e+01  1.4464e+02 -9.6133e+01 +/- 0.0000e+00 0.0000e+00 0.0000e+00 [bar]
 2.5911e+01 -9.6133e+01  8.0483e+01 +/- 0.0000e+00 0.0000e+00 0.0000e+00 [bar]
Ideal-gas pressure:   4.945305e+02 +/ 0.000000e+00 [bar]
Excess pressure:     -3.563876e+02 +/ 0.000000e+00 [bar]
Pressure:             1.381428e+02 +/ 0.000000e+00 [bar]

Total potential energy/kʙ  -1.522551e+05 (-1.506060e+05 +/- 0.000000e+00) [K]
-------------------------------------------------------------------------------
ExternalField-molecule
    Van der Waals/kʙ        0.000000e+00 ( 0.000000e+00 +/- 0.000000e+00) [K]
Framework-molecule
    Van der Waals/kʙ        0.000000e+00 ( 0.000000e+00 +/- 0.000000e+00) [K]
    Van der Waals (Tail)/kʙ 0.000000e+00 ( 0.000000e+00 +/- 0.000000e+00) [K]
    Coulombic Real/kʙ       0.000000e+00 ( 0.000000e+00 +/- 0.000000e+00) [K]
    Coulombic Fourier/kʙ    0.000000e+00 ( 0.000000e+00 +/- 0.000000e+00) [K]
Molecule-molecule
    Van der Waals/kʙ       -1.103090e+05 (-1.070454e+05 +/- 0.000000e+00) [K]
    Van der Waals (Tail)/kʙ-4.782470e+03 (-4.601317e+03 +/- 0.000000e+00) [K]
    Coulombic Real/kʙ      -2.994015e+04 (-3.140160e+04 +/- 0.000000e+00) [K]
    Coulombic Fourier/kʙ   -7.223497e+03 (-7.557687e+03 +/- 0.000000e+00) [K]
    Molecule Intra/kʙ       0.000000e+00 ( 0.000000e+00 +/- 0.000000e+00) [K]

Current cycle: 1300 out of 5000
===============================================================================

Box:      18.60882   0.00000   0.00000  Average:  19.09180   0.00000   0.00000
           0.00000  18.60882   0.00000             0.00000  19.09180   0.00000
           0.00000   0.00000  18.60882             0.00000   0.00000  19.09180
Lengths:  18.60882  18.60882  18.60882  Average:  19.09180  19.09180  19.09180
Angles:   90.00000  90.00000  90.00000  Average:  90.00000  90.00000  90.00000
Rectangular boundary conditions

net charge:   0.00000000

component 0 (CO2) lambda:  0 occupancy:  1 (1.000000)
    net charge:   0.00000000 [e]

Amount of molecules per component :
-------------------------------------------------------------------------------
Component 0 (CO2)
    molecules:      1.000000e+02 molecules  (1.000000e+02 +/- 0.000000e+00)
    number density: 1.551827e-02 molec./A^3 (1.437879e-02 +/- 0.000000e+00)
    density:        1.133792e+03 kg/m^3     (1.050539e+03 +/- 0.000000e+00)

Average pressure tensor: 
-------------------------------------------------------------------------------
 1.6929e+02  1.6158e+01  8.3683e+00 +/- 0.0000e+00 0.0000e+00 0.0000e+00 [bar]
 1.6158e+01  1.6865e+02 -7.5048e+01 +/- 0.0000e+00 0.0000e+00 0.0000e+00 [bar]
 8.3683e+00 -7.5048e+01  1.0212e+02 +/- 0.0000e+00 0.0000e+00 0.0000e+00 [bar]
Ideal-gas pressure:   4.963021e+02 +/ 0.000000e+00 [bar]
Excess pressure:     -3.496136e+02 +/ 0.000000e+00 [bar]
Pressure:             1.466885e+02 +/ 0.000000e+00 [bar]

Total potential energy/kʙ  -1.658602e+05 (-1.510548e+05 +/- 0.000000e+00) [K]
-------------------------------------------------------------------------------
ExternalField-molecule
    Van der Waals/kʙ        0.000000e+00 ( 0.000000e+00 +/- 0.000000e+00) [K]
Framework-molecule
    Van der Waals/kʙ        0.000000e+00 ( 0.000000e+00 +/- 0.000000e+00) [K]
    Van der Waals (Tail)/kʙ 0.000000e+00 ( 0.000000e+00 +/- 0.000000e+00) [K]
    Coulombic Real/kʙ       0.000000e+00 ( 0.000000e+00 +/- 0.000000e+00) [K]
    Coulombic Fourier/kʙ    0.000000e+00 ( 0.000000e+00 +/- 0.000000e+00) [K]
Molecule-molecule
    Van der Waals/kʙ       -1.177930e+05 (-1.074096e+05 +/- 0.000000e+00) [K]
    Van der Waals (Tail)/kʙ-4.979114e+03 (-4.617841e+03 +/- 0.000000e+00) [K]
    Coulombic Real/kʙ      -3.511202e+04 (-3.147248e+04 +/- 0.000000e+00) [K]
    Coulombic Fourier/kʙ   -7.976053e+03 (-7.554842e+03 +/- 0.000000e+00) [K]
    Molecule Intra/kʙ       0.000000e+00 ( 0.000000e+00 +/- 0.000000e+00) [K]

Current cycle: 1400 out of 5000
===============================================================================

Box:      18.67373   0.00000   0.00000  Average:  19.07317   0.00000   0.00000
           0.00000  18.67373   0.00000             0.00000  19.07317   0.00000
           0.00000   0.00000  18.67373             0.00000   0.00000  19.07317
Lengths:  18.67373  18.67373  18.67373  Average:  19.07317  19.07317  19.07317
Angles:   90.00000  90.00000  90.00000  Average:  90.00000  90.00000  90.00000
Rectangular boundary conditions

net charge:   0.00000000

component 0 (CO2) lambda:  0 occupancy:  1 (1.000000)
    net charge:   0.00000000 [e]

Amount of molecules per component :
-------------------------------------------------------------------------------
Component 0 (CO2)
    molecules:      1.000000e+02 molecules  (1.000000e+02 +/- 0.000000e+00)
    number density: 1.535702e-02 molec./A^3 (1.442171e-02 +/- 0.000000e+00)
    density:        1.122010e+03 kg/m^3     (1.053675e+03 +/- 0.000000e+00)

Average pressure tensor: 
-------------------------------------------------------------------------------
 1.3691e+02  3.1157e+01 -1.5967e+01 +/- 0.0000e+00 0.0000e+00 0.0000e+00 [bar]
 3.1157e+01  1.6848e+02 -6.5867e+01 +/- 0.0000e+00 0.0000e+00 0.0000e+00 [bar]
-1.5967e+01 -6.5867e+01  1.1581e+02 +/- 0.0000e+00 0.0000e+00 0.0000e+00 [bar]
Ideal-gas pressure:   4.977836e+02 +/ 0.000000e+00 [bar]
Excess pressure:     -3.573844e+02 +/ 0.000000e+00 [bar]
Pressure:             1.403993e+02 +/ 0.000000e+00 [bar]

Total potential energy/kʙ  -1.630881e+05 (-1.516714e+05 +/- 0.000000e+00) [K]
-------------------------------------------------------------------------------
ExternalField-molecule
    Van der Waals/kʙ        0.000000e+00 ( 0.000000e+00 +/- 0.000000e+00) [K]
Framework-molecule
    Van der Waals/kʙ        0.000000e+00 ( 0.000000e+00 +/- 0.000000e+00) [K]
    Van der Waals (Tail)/kʙ 0.000000e+00 ( 0.000000e+00 +/- 0.000000e+00) [K]
    Coulombic Real/kʙ       0.000000e+00 ( 0.000000e+00 +/- 0.000000e+00) [K]
    Coulombic Fourier/kʙ    0.000000e+00 ( 0.000000e+00 +/- 0.000000e+00) [K]
Molecule-molecule
    Van der Waals/kʙ       -1.153441e+05 (-1.077751e+05 +/- 0.000000e+00) [K]
    Van der Waals (Tail)/kʙ-4.927374e+03 (-4.631359e+03 +/- 0.000000e+00) [K]
    Coulombic Real/kʙ      -3.486445e+04 (-3.168222e+04 +/- 0.000000e+00) [K]
    Coulombic Fourier/kʙ   -7.952229e+03 (-7.582752e+03 +/- 0.000000e+00) [K]
    Molecule Intra/kʙ       0.000000e+00 ( 0.000000e+00 +/- 0.000000e+00) [K]

Current cycle: 1500 out of 5000
===============================================================================

Box:      18.60581   0.00000   0.00000  Average:  19.04915   0.00000   0.00000
           0.00000  18.60581   0.00000             0.00000  19.04915   0.00000
           0.00000   0.00000  18.60581             0.00000   0.00000  19.04915
Lengths:  18.60581  18.60581  18.60581  Average:  19.04915  19.04915  19.04915
Angles:   90.00000  90.00000  90.00000  Average:  90.00000  90.00000  90.00000
Rectangular boundary conditions

net charge:   0.00000000

component 0 (CO2) lambda:  0 occupancy:  1 (1.000000)
    net charge:   0.00000000 [e]

Amount of molecules per component :
-------------------------------------------------------------------------------
Component 0 (CO2)
    molecules:      1.000000e+02 molecules  (1.000000e+02 +/- 0.000000e+00)
    number density: 1.552581e-02 molec./A^3 (1.447777e-02 +/- 0.000000e+00)
    density:        1.134342e+03 kg/m^3     (1.057770e+03 +/- 0.000000e+00)

Average pressure tensor: 
-------------------------------------------------------------------------------
 1.3832e+02  5.0117e+00 -2.6299e+01 +/- 0.0000e+00 0.0000e+00 0.0000e+00 [bar]
 5.0117e+00  1.7884e+02 -5.0479e+01 +/- 0.0000e+00 0.0000e+00 0.0000e+00 [bar]
-2.6299e+01 -5.0479e+01  1.5125e+02 +/- 0.0000e+00 0.0000e+00 0.0000e+00 [bar]
Ideal-gas pressure:   4.997183e+02 +/ 0.000000e+00 [bar]
Excess pressure:     -3.435838e+02 +/ 0.000000e+00 [bar]
Pressure:             1.561345e+02 +/ 0.000000e+00 [bar]

Total potential energy/kʙ  -1.640970e+05 (-1.523282e+05 +/- 0.000000e+00) [K]
-------------------------------------------------------------------------------
ExternalField-molecule
    Van der Waals/kʙ        0.000000e+00 ( 0.000000e+00 +/- 0.000000e+00) [K]
Framework-molecule
    Van der Waals/kʙ        0.000000e+00 ( 0.000000e+00 +/- 0.000000e+00) [K]
    Van der Waals (Tail)/kʙ 0.000000e+00 ( 0.000000e+00 +/- 0.000000e+00) [K]
    Coulombic Real/kʙ       0.000000e+00 ( 0.000000e+00 +/- 0.000000e+00) [K]
    Coulombic Fourier/kʙ    0.000000e+00 ( 0.000000e+00 +/- 0.000000e+00) [K]
Molecule-molecule
    Van der Waals/kʙ       -1.156876e+05 (-1.081325e+05 +/- 0.000000e+00) [K]
    Van der Waals (Tail)/kʙ-4.981532e+03 (-4.649304e+03 +/- 0.000000e+00) [K]
    Coulombic Real/kʙ      -3.513380e+04 (-3.191903e+04 +/- 0.000000e+00) [K]
    Coulombic Fourier/kʙ   -8.294038e+03 (-7.627398e+03 +/- 0.000000e+00) [K]
    Molecule Intra/kʙ       0.000000e+00 ( 0.000000e+00 +/- 0.000000e+00) [K]

Current cycle: 1600 out of 5000
===============================================================================

Box:      18.64928   0.00000   0.00000  Average:  19.02837   0.00000   0.00000
           0.00000  18.64928   0.00000             0.00000  19.02837   0.00000
           0.00000   0.00000  18.64928             0.00000   0.00000  19.02837
Lengths:  18.64928  18.64928  18.64928  Average:  19.02837  19.02837  19.02837
Angles:   90.00000  90.00000  90.00000  Average:  90.00000  90.00000  90.00000
Rectangular boundary conditions

net charge:   0.00000000

component 0 (CO2) lambda:  0 occupancy:  1 (1.000000)
    net charge:   0.00000000 [e]

Amount of molecules per component :
-------------------------------------------------------------------------------
Component 0 (CO2)
    molecules:      1.000000e+02 molecules  (1.000000e+02 +/- 0.000000e+00)
    number density: 1.541749e-02 molec./A^3 (1.452625e-02 +/- 0.000000e+00)
    density:        1.126428e+03 kg/m^3     (1.061313e+03 +/- 0.000000e+00)

Average pressure tensor: 
-------------------------------------------------------------------------------
 1.2997e+02 -2.1500e+00 -2.9606e+01 +/- 0.0000e+00 0.0000e+00 0.0000e+00 [bar]
-2.1500e+00  1.7745e+02 -5.7648e+01 +/- 0.0000e+00 0.0000e+00 0.0000e+00 [bar]
-2.9606e+01 -5.7648e+01  1.4307e+02 +/- 0.0000e+00 0.0000e+00 0.0000e+00 [bar]
Ideal-gas pressure:   5.013919e+02 +/ 0.000000e+00 [bar]
Excess pressure:     -3.512287e+02 +/ 0.000000e+00 [bar]
Pressure:             1.501632e+02 +/ 0.000000e+00 [bar]

Total potential energy/kʙ  -1.601496e+05 (-1.529516e+05 +/- 0.000000e+00) [K]
-------------------------------------------------------------------------------
ExternalField-molecule
    Van der Waals/kʙ        0.000000e+00 ( 0.000000e+00 +/- 0.000000e+00) [K]
Framework-molecule
    Van der Waals/kʙ        0.000000e+00 ( 0.000000e+00 +/- 0.000000e+00) [K]
    Van der Waals (Tail)/kʙ 0.000000e+00 ( 0.000000e+00 +/- 0.000000e+00) [K]
    Coulombic Real/kʙ       0.000000e+00 ( 0.000000e+00 +/- 0.000000e+00) [K]
    Coulombic Fourier/kʙ    0.000000e+00 ( 0.000000e+00 +/- 0.000000e+00) [K]
Molecule-molecule
    Van der Waals/kʙ       -1.117734e+05 (-1.086427e+05 +/- 0.000000e+00) [K]
    Van der Waals (Tail)/kʙ-4.946776e+03 (-4.664354e+03 +/- 0.000000e+00) [K]
    Coulombic Real/kʙ      -3.589705e+04 (-3.201850e+04 +/- 0.000000e+00) [K]
    Coulombic Fourier/kʙ   -7.532405e+03 (-7.625972e+03 +/- 0.000000e+00) [K]
    Molecule Intra/kʙ       0.000000e+00 ( 0.000000e+00 +/- 0.000000e+00) [K]

Current cycle: 1700 out of 5000
===============================================================================

Box:      18.74790   0.00000   0.00000  Average:  19.01350   0.00000   0.00000
           0.00000  18.74790   0.00000             0.00000  19.01350   0.00000
           0.00000   0.00000  18.74790             0.00000   0.00000  19.01350
Lengths:  18.74790  18.74790  18.74790  Average:  19.01350  19.01350  19.01350
Angles:   90.00000  90.00000  90.00000  Average:  90.00000  90.00000  90.00000
Rectangular boundary conditions

net charge:   0.00000000

component 0 (CO2) lambda:  0 occupancy:  1 (1.000000)
    net charge:   0.00000000 [e]

Amount of molecules per component :
-------------------------------------------------------------------------------
Component 0 (CO2)
    molecules:      1.000000e+02 molecules  (1.000000e+02 +/- 0.000000e+00)
    number density: 1.517547e-02 molec./A^3 (1.456062e-02 +/- 0.000000e+00)
    density:        1.108746e+03 kg/m^3     (1.063824e+03 +/- 0.000000e+00)

Average pressure tensor: 
-------------------------------------------------------------------------------
 1.3696e+02 -4.8810e+00 -2.5144e+01 +/- 0.0000e+00 0.0000e+00 0.0000e+00 [bar]
-4.8810e+00  1.9335e+02 -4.4309e+01 +/- 0.0000e+00 0.0000e+00 0.0000e+00 [bar]
-2.5144e+01 -4.4309e+01  1.5045e+02 +/- 0.0000e+00 0.0000e+00 0.0000e+00 [bar]
Ideal-gas pressure:   5.025782e+02 +/ 0.000000e+00 [bar]
Excess pressure:     -3.423248e+02 +/ 0.000000e+00 [bar]
Pressure:             1.602535e+02 +/ 0.000000e+00 [bar]

Total potential energy/kʙ  -1.599340e+05 (-1.533736e+05 +/- 0.000000e+00) [K]
-------------------------------------------------------------------------------
ExternalField-molecule
    Van der Waals/kʙ        0.000000e+00 ( 0.000000e+00 +/- 0.000000e+00) [K]
Framework-molecule
    Van der Waals/kʙ        0.000000e+00 ( 0.000000e+00 +/- 0.000000e+00) [K]
    Van der Waals (Tail)/kʙ 0.000000e+00 ( 0.000000e+00 +/- 0.000000e+00) [K]
    Coulombic Real/kʙ       0.000000e+00 ( 0.000000e+00 +/- 0.000000e+00) [K]
    Coulombic Fourier/kʙ    0.000000e+00 ( 0.000000e+00 +/- 0.000000e+00) [K]
Molecule-molecule
    Van der Waals/kʙ       -1.129055e+05 (-1.089492e+05 +/- 0.000000e+00) [K]
    Van der Waals (Tail)/kʙ-4.869125e+03 (-4.675866e+03 +/- 0.000000e+00) [K]
    Coulombic Real/kʙ      -3.470664e+04 (-3.213456e+04 +/- 0.000000e+00) [K]
    Coulombic Fourier/kʙ   -7.452789e+03 (-7.613930e+03 +/- 0.000000e+00) [K]
    Molecule Intra/kʙ       0.000000e+00 ( 0.000000e+00 +/- 0.000000e+00) [K]

Current cycle: 1800 out of 5000
===============================================================================

Box:      18.82848   0.00000   0.00000  Average:  19.00560   0.00000   0.00000
           0.00000  18.82848   0.00000             0.00000  19.00560   0.00000
           0.00000   0.00000  18.82848             0.00000   0.00000  19.00560
Lengths:  18.82848  18.82848  18.82848  Average:  19.00560  19.00560  19.00560
Angles:   90.00000  90.00000  90.00000  Average:  90.00000  90.00000  90.00000
Rectangular boundary conditions

net charge:   0.00000000

component 0 (CO2) lambda:  0 occupancy:  1 (1.000000)
    net charge:   0.00000000 [e]

Amount of molecules per component :
-------------------------------------------------------------------------------
Component 0 (CO2)
    molecules:      1.000000e+02 molecules  (1.000000e+02 +/- 0.000000e+00)
    number density: 1.498146e-02 molec./A^3 (1.457845e-02 +/- 0.000000e+00)
    density:        1.094571e+03 kg/m^3     (1.065126e+03 +/- 0.000000e+00)

Average pressure tensor: 
-------------------------------------------------------------------------------
 1.4229e+02  7.9330e+00 -2.4839e+01 +/- 0.0000e+00 0.0000e+00 0.0000e+00 [bar]
 7.9330e+00  1.9835e+02 -4.4042e+01 +/- 0.0000e+00 0.0000e+00 0.0000e+00 [bar]
-2.4839e+01 -4.4042e+01  1.5915e+02 +/- 0.0000e+00 0.0000e+00 0.0000e+00 [bar]
Ideal-gas pressure:   5.031935e+02 +/ 0.000000e+00 [bar]
Excess pressure:     -3.365986e+02 +/ 0.000000e+00 [bar]
Pressure:             1.665949e+02 +/ 0.000000e+00 [bar]

Total potential energy/kʙ  -1.589860e+05 (-1.535403e+05 +/- 0.000000e+00) [K]
-------------------------------------------------------------------------------
ExternalField-molecule
    Van der Waals/kʙ        0.000000e+00 ( 0.000000e+00 +/- 0.000000e+00) [K]
Framework-molecule
    Van der Waals/kʙ        0.000000e+00 ( 0.000000e+00 +/- 0.000000e+00) [K]
    Van der Waals (Tail)/kʙ 0.000000e+00 ( 0.000000e+00 +/- 0.000000e+00) [K]
    Coulombic Real/kʙ       0.000000e+00 ( 0.000000e+00 +/- 0.000000e+00) [K]
    Coulombic Fourier/kʙ    0.000000e+00 ( 0.000000e+00 +/- 0.000000e+00) [K]
Molecule-molecule
    Van der Waals/kʙ       -1.151560e+05 (-1.090947e+05 +/- 0.000000e+00) [K]
    Van der Waals (Tail)/kʙ-4.806876e+03 (-4.682272e+03 +/- 0.000000e+00) [K]
    Coulombic Real/kʙ      -3.105523e+04 (-3.214400e+04 +/- 0.000000e+00) [K]
    Coulombic Fourier/kʙ   -7.967875e+03 (-7.619283e+03 +/- 0.000000e+00) [K]
    Molecule Intra/kʙ       0.000000e+00 ( 0.000000e+00 +/- 0.000000e+00) [K]

Current cycle: 1900 out of 5000
===============================================================================

Box:      18.67637   0.00000   0.00000  Average:  18.98368   0.00000   0.00000
           0.00000  18.67637   0.00000             0.00000  18.98368   0.00000
           0.00000   0.00000  18.67637             0.00000   0.00000  18.98368
Lengths:  18.67637  18.67637  18.67637  Average:  18.98368  18.98368  18.98368
Angles:   90.00000  90.00000  90.00000  Average:  90.00000  90.00000  90.00000
Rectangular boundary conditions

net charge:   0.00000000

component 0 (CO2) lambda:  0 occupancy:  1 (1.000000)
    net charge:   0.00000000 [e]

Amount of molecules per component :
-------------------------------------------------------------------------------
Component 0 (CO2)
    molecules:      1.000000e+02 molecules  (1.000000e+02 +/- 0.000000e+00)
    number density: 1.535051e-02 molec./A^3 (1.463072e-02 +/- 0.000000e+00)
    density:        1.121535e+03 kg/m^3     (1.068945e+03 +/- 0.000000e+00)

Average pressure tensor: 
-------------------------------------------------------------------------------
 1.5682e+02  2.0619e+00 -2.4763e+01 +/- 0.0000e+00 0.0000e+00 0.0000e+00 [bar]
 2.0619e+00  2.2188e+02 -4.2559e+01 +/- 0.0000e+00 0.0000e+00 0.0000e+00 [bar]
-2.4763e+01 -4.2559e+01  1.7864e+02 +/- 0.0000e+00 0.0000e+00 0.0000e+00 [bar]
Ideal-gas pressure:   5.049976e+02 +/ 0.000000e+00 [bar]
Excess pressure:     -3.192171e+02 +/ 0.000000e+00 [bar]
Pressure:             1.857805e+02 +/ 0.000000e+00 [bar]

Total potential energy/kʙ  -1.646876e+05 (-1.540953e+05 +/- 0.000000e+00) [K]
-------------------------------------------------------------------------------
ExternalField-molecule
    Van der Waals/kʙ        0.000000e+00 ( 0.000000e+00 +/- 0.000000e+00) [K]
Framework-molecule
    Van der Waals/kʙ        0.000000e+00 ( 0.000000e+00 +/- 0.000000e+00) [K]
    Van der Waals (Tail)/kʙ 0.000000e+00 ( 0.000000e+00 +/- 0.000000e+00) [K]
    Coulombic Real/kʙ       0.000000e+00 ( 0.000000e+00 +/- 0.000000e+00) [K]
    Coulombic Fourier/kʙ    0.000000e+00 ( 0.000000e+00 +/- 0.000000e+00) [K]
Molecule-molecule
    Van der Waals/kʙ       -1.143994e+05 (-1.095088e+05 +/- 0.000000e+00) [K]
    Van der Waals (Tail)/kʙ-4.925287e+03 (-4.699950e+03 +/- 0.000000e+00) [K]
    Coulombic Real/kʙ      -3.725977e+04 (-3.224988e+04 +/- 0.000000e+00) [K]
    Coulombic Fourier/kʙ   -8.103152e+03 (-7.636626e+03 +/- 0.000000e+00) [K]
    Molecule Intra/kʙ       0.000000e+00 ( 0.000000e+00 +/- 0.000000e+00) [K]

Current cycle: 2000 out of 5000
===============================================================================

Box:      18.98430   0.00000   0.00000  Average:  18.97702   0.00000   0.00000
           0.00000  18.98430   0.00000             0.00000  18.97702   0.00000
           0.00000   0.00000  18.98430             0.00000   0.00000  18.97702
Lengths:  18.98430  18.98430  18.98430  Average:  18.97702  18.97702  18.97702
Angles:   90.00000  90.00000  90.00000  Average:  90.00000  90.00000  90.00000
Rectangular boundary conditions

net charge:   0.00000000

component 0 (CO2) lambda:  0 occupancy:  1 (1.000000)
    net charge:   0.00000000 [e]

Amount of molecules per component :
-------------------------------------------------------------------------------
Component 0 (CO2)
    molecules:      1.000000e+02 molecules  (1.000000e+02 +/- 0.000000e+00)
    number density: 1.461559e-02 molec./A^3 (1.464577e-02 +/- 0.000000e+00)
    density:        1.067840e+03 kg/m^3     (1.070045e+03 +/- 0.000000e+00)

Average pressure tensor: 
-------------------------------------------------------------------------------
 1.6744e+02  1.5647e+01 -7.9345e+00 +/- 0.0000e+00 0.0000e+00 0.0000e+00 [bar]
 1.5647e+01  2.3854e+02 -2.6880e+01 +/- 0.0000e+00 0.0000e+00 0.0000e+00 [bar]
-7.9345e+00 -2.6880e+01  1.6072e+02 +/- 0.0000e+00 0.0000e+00 0.0000e+00 [bar]
Ideal-gas pressure:   5.055170e+02 +/ 0.000000e+00 [bar]
Excess pressure:     -3.166186e+02 +/ 0.000000e+00 [bar]
Pressure:             1.888984e+02 +/ 0.000000e+00 [bar]

Total potential energy/kʙ  -1.519675e+05 (-1.542592e+05 +/- 0.000000e+00) [K]
-------------------------------------------------------------------------------
ExternalField-molecule
    Van der Waals/kʙ        0.000000e+00 ( 0.000000e+00 +/- 0.000000e+00) [K]
Framework-molecule
    Van der Waals/kʙ        0.000000e+00 ( 0.000000e+00 +/- 0.000000e+00) [K]
    Van der Waals (Tail)/kʙ 0.000000e+00 ( 0.000000e+00 +/- 0.000000e+00) [K]
    Coulombic Real/kʙ       0.000000e+00 ( 0.000000e+00 +/- 0.000000e+00) [K]
    Coulombic Fourier/kʙ    0.000000e+00 ( 0.000000e+00 +/- 0.000000e+00) [K]
Molecule-molecule
    Van der Waals/kʙ       -1.103778e+05 (-1.095873e+05 +/- 0.000000e+00) [K]
    Van der Waals (Tail)/kʙ-4.689485e+03 (-4.704556e+03 +/- 0.000000e+00) [K]
    Coulombic Real/kʙ      -2.960242e+04 (-3.231678e+04 +/- 0.000000e+00) [K]
    Coulombic Fourier/kʙ   -7.297781e+03 (-7.650572e+03 +/- 0.000000e+00) [K]
    Molecule Intra/kʙ       0.000000e+00 ( 0.000000e+00 +/- 0.000000e+00) [K]

Current cycle: 2100 out of 5000
===============================================================================

Box:      18.93164   0.00000   0.00000  Average:  18.97287   0.00000   0.00000
           0.00000  18.93164   0.00000             0.00000  18.97287   0.00000
           0.00000   0.00000  18.93164             0.00000   0.00000  18.97287
Lengths:  18.93164  18.93164  18.93164  Average:  18.97287  18.97287  18.97287
Angles:   90.00000  90.00000  90.00000  Average:  90.00000  90.00000  90.00000
Rectangular boundary conditions

net charge:   0.00000000

component 0 (CO2) lambda:  0 occupancy:  1 (1.000000)
    net charge:   0.00000000 [e]

Amount of molecules per component :
-------------------------------------------------------------------------------
Component 0 (CO2)
    molecules:      1.000000e+02 molecules  (1.000000e+02 +/- 0.000000e+00)
    number density: 1.473788e-02 molec./A^3 (1.465495e-02 +/- 0.000000e+00)
    density:        1.076775e+03 kg/m^3     (1.070716e+03 +/- 0.000000e+00)

Average pressure tensor: 
-------------------------------------------------------------------------------
 1.6950e+02  1.6461e+01 -1.0985e+01 +/- 0.0000e+00 0.0000e+00 0.0000e+00 [bar]
 1.6461e+01  2.2917e+02 -7.4933e+00 +/- 0.0000e+00 0.0000e+00 0.0000e+00 [bar]
-1.0985e+01 -7.4933e+00  1.6882e+02 +/- 0.0000e+00 0.0000e+00 0.0000e+00 [bar]
Ideal-gas pressure:   5.058341e+02 +/ 0.000000e+00 [bar]
Excess pressure:     -3.166717e+02 +/ 0.000000e+00 [bar]
Pressure:             1.891625e+02 +/ 0.000000e+00 [bar]

Total potential energy/kʙ  -1.566299e+05 (-1.541969e+05 +/- 0.000000e+00) [K]
-------------------------------------------------------------------------------
ExternalField-molecule
    Van der Waals/kʙ        0.000000e+00 ( 0.000000e+00 +/- 0.000000e+00) [K]
Framework-molecule
    Van der Waals/kʙ        0.000000e+00 ( 0.000000e+00 +/- 0.000000e+00) [K]
    Van der Waals (Tail)/kʙ 0.000000e+00 ( 0.000000e+00 +/- 0.000000e+00) [K]
[...]
    Coulombic Fourier/kʙ    0.000000e+00 ( 0.000000e+00 +/- 0.000000e+00) [K]
Molecule-molecule
    Van der Waals/kʙ       -1.047722e+05 (-1.109668e+05 +/- 3.077467e+03) [K]
    Van der Waals (Tail)/kʙ-4.544563e+03 (-4.755243e+03 +/- 1.314079e+02) [K]
    Coulombic Real/kʙ      -2.766001e+04 (-3.254839e+04 +/- 1.170105e+03) [K]
    Coulombic Fourier/kʙ   -6.843863e+03 (-7.820844e+03 +/- 2.378780e+02) [K]
    Molecule Intra/kʙ       0.000000e+00 ( 0.000000e+00 +/- 0.000000e+00) [K]

Current cycle: 4700 out of 5000
===============================================================================

Box:      19.45570   0.00000   0.00000  Average:  18.91454   0.00000   0.00000
           0.00000  19.45570   0.00000             0.00000  18.91454   0.00000
           0.00000   0.00000  19.45570             0.00000   0.00000  18.91454
Lengths:  19.45570  19.45570  19.45570  Average:  18.91454  18.91454  18.91454
Angles:   90.00000  90.00000  90.00000  Average:  90.00000  90.00000  90.00000
Rectangular boundary conditions

net charge:   0.00000000

component 0 (CO2) lambda:  0 occupancy:  1 (1.000000)
    net charge:   0.00000000 [e]

Amount of molecules per component :
-------------------------------------------------------------------------------
Component 0 (CO2)
    molecules:      1.000000e+02 molecules  (1.000000e+02 +/- 0.000000e+00)
    number density: 1.357874e-02 molec./A^3 (1.479013e-02 +/- 4.281387e-04)
    density:        9.920858e+02 kg/m^3     (1.080592e+03 +/- 3.128054e+01)

Average pressure tensor: 
-------------------------------------------------------------------------------
 1.4743e+02 -3.1810e+01 -2.9884e+01 +/- 4.3361e+01 1.0368e+02 1.1922e+02 [bar]
-3.1810e+01  1.9393e+02 -3.3792e+01 +/- 1.0368e+02 9.0210e+01 9.7351e+01 [bar]
-2.9884e+01 -3.3792e+01  1.7193e+02 +/- 1.1922e+02 9.7351e+01 1.0640e+02 [bar]
Ideal-gas pressure:   5.105001e+02 +/ 1.477774e+01 [bar]
Excess pressure:     -3.394035e+02 +/ 6.208399e+01 [bar]
Pressure:             1.710966e+02 +/ 6.970726e+01 [bar]

Total potential energy/kʙ  -1.444134e+05 (-1.557656e+05 +/- 4.812605e+03) [K]
-------------------------------------------------------------------------------
ExternalField-molecule
    Van der Waals/kʙ        0.000000e+00 ( 0.000000e+00 +/- 0.000000e+00) [K]
Framework-molecule
    Van der Waals/kʙ        0.000000e+00 ( 0.000000e+00 +/- 0.000000e+00) [K]
    Van der Waals (Tail)/kʙ 0.000000e+00 ( 0.000000e+00 +/- 0.000000e+00) [K]
    Coulombic Real/kʙ       0.000000e+00 ( 0.000000e+00 +/- 0.000000e+00) [K]
    Coulombic Fourier/kʙ    0.000000e+00 ( 0.000000e+00 +/- 0.000000e+00) [K]
Molecule-molecule
    Van der Waals/kʙ       -1.029685e+05 (-1.107432e+05 +/- 3.243357e+03) [K]
    Van der Waals (Tail)/kʙ-4.356804e+03 (-4.747022e+03 +/- 1.374034e+02) [K]
    Coulombic Real/kʙ      -3.012250e+04 (-3.246556e+04 +/- 1.300356e+03) [K]
    Coulombic Fourier/kʙ   -6.965619e+03 (-7.809813e+03 +/- 2.392225e+02) [K]
    Molecule Intra/kʙ       0.000000e+00 ( 0.000000e+00 +/- 0.000000e+00) [K]

Current cycle: 4800 out of 5000
===============================================================================

Box:      19.01295   0.00000   0.00000  Average:  18.92342   0.00000   0.00000
           0.00000  19.01295   0.00000             0.00000  18.92342   0.00000
           0.00000   0.00000  19.01295             0.00000   0.00000  18.92342
Lengths:  19.01295  19.01295  19.01295  Average:  18.92342  18.92342  18.92342
Angles:   90.00000  90.00000  90.00000  Average:  90.00000  90.00000  90.00000
Rectangular boundary conditions

net charge:   0.00000000

component 0 (CO2) lambda:  0 occupancy:  1 (1.000000)
    net charge:   0.00000000 [e]

Amount of molecules per component :
-------------------------------------------------------------------------------
Component 0 (CO2)
    molecules:      1.000000e+02 molecules  (1.000000e+02 +/- 0.000000e+00)
    number density: 1.454961e-02 molec./A^3 (1.477002e-02 +/- 4.465885e-04)
    density:        1.063019e+03 kg/m^3     (1.079123e+03 +/- 3.262852e+01)

Average pressure tensor: 
-------------------------------------------------------------------------------
 1.3926e+02 -2.6365e+01 -2.7630e+01 +/- 4.0245e+01 1.1083e+02 1.1698e+02 [bar]
-2.6365e+01  1.8785e+02 -3.9533e+01 +/- 1.1083e+02 9.7407e+01 1.0290e+02 [bar]
-2.7630e+01 -3.9533e+01  1.6725e+02 +/- 1.1698e+02 1.0290e+02 1.0654e+02 [bar]
Ideal-gas pressure:   5.098059e+02 +/ 1.541456e+01 [bar]
Excess pressure:     -3.450199e+02 +/ 6.418621e+01 [bar]
Pressure:             1.647860e+02 +/ 7.326593e+01 [bar]

Total potential energy/kʙ  -1.525295e+05 (-1.556035e+05 +/- 4.952526e+03) [K]
-------------------------------------------------------------------------------
ExternalField-molecule
    Van der Waals/kʙ        0.000000e+00 ( 0.000000e+00 +/- 0.000000e+00) [K]
Framework-molecule
    Van der Waals/kʙ        0.000000e+00 ( 0.000000e+00 +/- 0.000000e+00) [K]
    Van der Waals (Tail)/kʙ 0.000000e+00 ( 0.000000e+00 +/- 0.000000e+00) [K]
    Coulombic Real/kʙ       0.000000e+00 ( 0.000000e+00 +/- 0.000000e+00) [K]
    Coulombic Fourier/kʙ    0.000000e+00 ( 0.000000e+00 +/- 0.000000e+00) [K]
Molecule-molecule
    Van der Waals/kʙ       -1.099819e+05 (-1.106246e+05 +/- 3.343968e+03) [K]
    Van der Waals (Tail)/kʙ-4.668313e+03 (-4.740878e+03 +/- 1.430329e+02) [K]
    Coulombic Real/kʙ      -3.093041e+04 (-3.244232e+04 +/- 1.293911e+03) [K]
    Coulombic Fourier/kʙ   -6.948900e+03 (-7.795627e+03 +/- 2.483358e+02) [K]
    Molecule Intra/kʙ       0.000000e+00 ( 0.000000e+00 +/- 0.000000e+00) [K]

Current cycle: 4900 out of 5000
===============================================================================

Box:      19.11065   0.00000   0.00000  Average:  18.92693   0.00000   0.00000
           0.00000  19.11065   0.00000             0.00000  18.92693   0.00000
           0.00000   0.00000  19.11065             0.00000   0.00000  18.92693
Lengths:  19.11065  19.11065  19.11065  Average:  18.92693  18.92693  18.92693
Angles:   90.00000  90.00000  90.00000  Average:  90.00000  90.00000  90.00000
Rectangular boundary conditions

net charge:   0.00000000

component 0 (CO2) lambda:  0 occupancy:  1 (1.000000)
    net charge:   0.00000000 [e]

Amount of molecules per component :
-------------------------------------------------------------------------------
Component 0 (CO2)
    molecules:      1.000000e+02 molecules  (1.000000e+02 +/- 0.000000e+00)
    number density: 1.432761e-02 molec./A^3 (1.476176e-02 +/- 4.498801e-04)
    density:        1.046799e+03 kg/m^3     (1.078519e+03 +/- 3.286901e+01)

Average pressure tensor: 
-------------------------------------------------------------------------------
 1.3362e+02 -2.3483e+01 -2.5884e+01 +/- 4.6976e+01 1.1201e+02 1.1437e+02 [bar]
-2.3483e+01  1.8530e+02 -3.4823e+01 +/- 1.1201e+02 9.8977e+01 9.6856e+01 [bar]
-2.5884e+01 -3.4823e+01  1.7041e+02 +/- 1.1437e+02 9.6856e+01 1.0616e+02 [bar]
Ideal-gas pressure:   5.095207e+02 +/ 1.552818e+01 [bar]
Excess pressure:     -3.464066e+02 +/ 6.491084e+01 [bar]
Pressure:             1.631142e+02 +/ 7.421523e+01 [bar]

Total potential energy/kʙ  -1.540816e+05 (-1.555327e+05 +/- 4.952911e+03) [K]
-------------------------------------------------------------------------------
ExternalField-molecule
    Van der Waals/kʙ        0.000000e+00 ( 0.000000e+00 +/- 0.000000e+00) [K]
Framework-molecule
    Van der Waals/kʙ        0.000000e+00 ( 0.000000e+00 +/- 0.000000e+00) [K]
    Van der Waals (Tail)/kʙ 0.000000e+00 ( 0.000000e+00 +/- 0.000000e+00) [K]
    Coulombic Real/kʙ       0.000000e+00 ( 0.000000e+00 +/- 0.000000e+00) [K]
    Coulombic Fourier/kʙ    0.000000e+00 ( 0.000000e+00 +/- 0.000000e+00) [K]
Molecule-molecule
    Van der Waals/kʙ       -1.078237e+05 (-1.105688e+05 +/- 3.361164e+03) [K]
    Van der Waals (Tail)/kʙ-4.597083e+03 (-4.738065e+03 +/- 1.442754e+02) [K]
    Coulombic Real/kʙ      -3.352579e+04 (-3.243164e+04 +/- 1.268513e+03) [K]
    Coulombic Fourier/kʙ   -8.134988e+03 (-7.794198e+03 +/- 2.476119e+02) [K]
    Molecule Intra/kʙ       0.000000e+00 ( 0.000000e+00 +/- 0.000000e+00) [K]


Energy statistics             |  Energy [K]   | Recomputed [K]|  Drift [K]    |
===============================================================================
Total potential energy/kʙ     | -1.546447e+05 | -1.546447e+05 | -4.889605e-10 |
    external field VDW/kʙ     |  0.000000e+00 |  0.000000e+00 |  0.000000e+00 |
    external field Real/kʙ    |  0.000000e+00 |  0.000000e+00 |  0.000000e+00 |
    framework-molecule VDW/kʙ |  0.000000e+00 |  0.000000e+00 |  0.000000e+00 |
    framework-molecule Real/kʙ|  0.000000e+00 |  0.000000e+00 |  0.000000e+00 |
    molecule-molecule VDW/kʙ  | -1.120304e+05 | -1.120304e+05 | -3.150350e-10 |
    molecule-molecule Real/kʙ | -2.970159e+04 | -2.970159e+04 | -1.706439e-10 |
    Van der Waals (Tail)/kʙ   | -4.712750e+03 | -4.712750e+03 |  0.000000e+00 |
    Ewald Fourier/kʙ          |  6.330943e+03 |  6.330943e+03 | -3.281614e-12 |
    Ewald self/kʙ             | -2.222923e+06 | -2.222923e+06 |  0.000000e+00 |
    Ewald exclusion/kʙ        |  2.208392e+06 |  2.208392e+06 |  0.000000e+00 |
    intra VDW/kʙ              |  0.000000e+00 |  0.000000e+00 |  0.000000e+00 |
    intra Coulombic/kʙ        |  0.000000e+00 |  0.000000e+00 |  0.000000e+00 |
    polarization/kʙ           |  0.000000e+00 |  0.000000e+00 |  0.000000e+00 |
    dU/dlambda VDW/kʙ         |  0.000000e+00 |  0.000000e+00 |  0.000000e+00 |
    dU/dlambda Real/kʙ        |  0.000000e+00 |  0.000000e+00 |  0.000000e+00 |
    dU/dlambda Ewald/kʙ       |  0.000000e+00 |  0.000000e+00 |  0.000000e+00 |
-------------------------------------------------------------------------------


Monte-Carlo moves statistics
===============================================================================

    Volume change        all:                3343
    Volume change        total:              3343
    Volume change        constructed:        3343
    Volume change        accepted:           2138
    Volume change        fraction:       0.639545
    Volume change        max-change:     0.025000

Component 0 [CO2]
    Reinsertion (CBMC)   all:              165067
    Reinsertion (CBMC)   total:            165067
    Reinsertion (CBMC)   constructed:      145306
    Reinsertion (CBMC)   accepted:           2309
    Reinsertion (CBMC)   fraction:       0.013988
    Reinsertion (CBMC)   max-change:     0.000000

    Translation          all:              166337
    Translation          total:             55447      55004      55886
    Translation          constructed:       55445      54991      55886
    Translation          accepted:          25234      19825      25882
    Translation          fraction:       0.455101   0.360428   0.463121
    Translation          max-change:     0.750000   1.000000   0.727273

    Rotation             all:              165253
    Rotation             total:             55177      54869      55207
    Rotation             constructed:       55142      54869      55207
    Rotation             accepted:          19489      24675      31049
    Rotation             fraction:       0.353209   0.449707   0.562411
    Rotation             max-change:     1.090909   0.800000   0.555556



Production run counting of the MC moves summed over systems and components
===============================================================================

Volume change                          3343 (0.6686 [%])
Reinsertion (CBMC)                   165067 (33.0134 [%])
Translation                          166337 (33.2674 [%])
Rotation                             165253 (33.0506 [%])

Production count MC-steps:           500000 [-]
               All summed:           500000 [-]
               difference:                0 [-]


Production run CPU timings of the MC moves
===============================================================================

Component 0 CO2

Rotation                             22.335555 [s]
    Ewald                            12.388647 [s]
    ExternalField-Molecule            0.007001 [s]
    Framework-Molecule                0.005205 [s]
    Molecule-Molecule                 8.987086 [s]
    Overhead                          0.947616 [s]

Reinsertion (CBMC)                   73.505090 [s]
    Ewald                            10.953455 [s]
    NonEwald                         62.370645 [s]
    Overhead                          0.180990 [s]

Translation                          22.474701 [s]
    Ewald                            12.474755 [s]
    ExternalField-Molecule            0.006917 [s]
    Framework-Molecule                0.011319 [s]
    Molecule-Molecule                 9.088540 [s]
    Overhead                          0.893170 [s]



Volume change                          9.591638 [s]
    Ewald                              4.750415 [s]
    NonEwald                           4.606629 [s]
    Tail                               0.149479 [s]

Property sampling                     0.233946 [s]
Energy/pressure sampling:             3.402166 [s]


Production run CPU timings of the MC moves summed over systems and components
===============================================================================


Translation                          22.474701 [s]
    Ewald                            12.474755 [s]
    ExternalField-Molecule            0.006917 [s]
    Framework-Molecule                0.011319 [s]
    Molecule-Molecule                 9.088540 [s]
    Overhead                          0.893170 [s]

Rotation                             22.335555 [s]
    Ewald                            12.388647 [s]
    ExternalField-Molecule            0.007001 [s]
    Framework-Molecule                0.005205 [s]
    Molecule-Molecule                 8.987086 [s]
    Overhead                          0.947616 [s]

Volume change                         9.591638 [s]
    Ewald                             4.750415 [s]
    NonEwald                          4.606629 [s]
    Tail                              0.149479 [s]
    Overhead                          0.085115 [s]

Reinsertion (CBMC)                   73.505090 [s]
    Ewald                            10.953455 [s]
    NonEwald                         62.370645 [s]
    Overhead                          0.180990 [s]

Property sampling:                    0.233946 [s]
Energy/pressure sampling:             3.402166 [s]

Production simulation time:         131.947816 [s]
                All summed:         131.543096 [s]
                  Overhead:           0.404720 [s]


Initalization simulation time:       23.654085 [s]
Equilibration simulation time:        0.000000 [s]
Production simulation time:         131.947816 [s]
Total simulation time:              155.601901 [s]


Energy averages and statistics:
===============================================================================

Framework-molecule energy:
-------------------------------------------------------------------------------



Framework-molecule energy contributions per energy type:
-------------------------------------------------------------------------------



Inter-molecular energy:
-------------------------------------------------------------------------------

    Inter-molecular energy/kʙ 0-0 [CO2-CO2]:
    ---------------------------------------------------------------------------
        Block[  0] -1.504282e+05
        Block[  1] -1.581130e+05
        Block[  2] -1.598279e+05
        Block[  3] -1.567745e+05
        Block[  4] -1.519985e+05
        -----------------------------------------------------------------------
        Average  -1.554284e+05 +/-  5.009948e+03 [K]



Inter-molecular energy contributions per energy type:
-------------------------------------------------------------------------------

    Van der Waals energy/kʙ 0-0 [CO2-CO2]:
    ---------------------------------------------------------------------------
        Block[  0] -1.069367e+05
        Block[  1] -1.122299e+05
        Block[  2] -1.134844e+05
        Block[  3] -1.114607e+05
        Block[  4] -1.085328e+05
        -----------------------------------------------------------------------
        Average  -1.105289e+05 +/-  3.364854e+03 [K]

    VDW Tail-Correction energy/kʙ 0-0 [CO2-CO2]:
    ---------------------------------------------------------------------------
        Block[  0] -4.590432e+03
        Block[  1] -4.818830e+03
        Block[  2] -4.869995e+03
        Block[  3] -4.754533e+03
        Block[  4] -4.646815e+03
        -----------------------------------------------------------------------
        Average  -4.736121e+03 +/-  1.446493e+02 [K]

    Coulomb Real energy/kʙ 0-0 [CO2-CO2]:
    ---------------------------------------------------------------------------
        Block[  0] -3.138473e+04
        Block[  1] -3.327599e+04
        Block[  2] -3.349840e+04
        Block[  3] -3.256867e+04
        Block[  4] -3.109925e+04
        -----------------------------------------------------------------------
        Average  -3.236541e+04 +/-  1.348439e+03 [K]

    Coulomb Fourier energy/kʙ 0-0 [CO2-CO2]:
    ---------------------------------------------------------------------------
        Block[  0] -7.516312e+03
        Block[  1] -7.788361e+03
        Block[  2] -7.975113e+03
        Block[  3] -7.990578e+03
        Block[  4] -7.719647e+03
        -----------------------------------------------------------------------
        Average  -7.798002e+03 +/-  2.436212e+02 [K]


Total energy/kʙ
-------------------------------------------------------------------------------
    Block[  0] -1.504282e+05
    Block[  1] -1.581130e+05
    Block[  2] -1.598279e+05
    Block[  3] -1.567745e+05
    Block[  4] -1.519985e+05
    ---------------------------------------------------------------------------
    Average  -1.554284e+05 +/-  5.009948e+03 [K]

Pressure averages and statistics:
===============================================================================

Average pressure tensor: 
-------------------------------------------------------------------------------
 1.3470e+02 -2.2728e+01 -2.1651e+01 +/- 4.4313e+01 1.0936e+02 1.1793e+02 [bar]
-2.2728e+01  1.8289e+02 -2.5246e+01 +/- 1.0936e+02 1.0030e+02 9.3950e+01 [bar]
-2.1651e+01 -2.5246e+01  1.6740e+02 +/- 1.1793e+02 9.3950e+01 1.0639e+02 [bar]

    Block[  0]  4.933609e+07
    Block[  1]  5.176742e+07
    Block[  2]  5.238255e+07
    Block[  3]  5.117105e+07
    Block[  4]  4.999416e+07
    ---------------------------------------------------------------------------
    Ideal gas pressure   5.093026e+07 +/-  9.371937e-02 [Pa]
                         5.093026e+02 +/-  1.556248e+01 [bar]


    Block[  0] -3.619884e+07
    Block[  1] -2.713736e+07
    Block[  2] -3.205239e+07
    Block[  3] -4.064402e+07
    Block[  4] -3.778810e+07
    ---------------------------------------------------------------------------
    Excess pressure  -3.476414e+07 +/-  6.548565e+06 [Pa]
                     -3.476414e+02 +/-  6.548565e+01 [bar]


    Block[  0]  1.313725e+07
    Block[  1]  2.463006e+07
    Block[  2]  2.033016e+07
    Block[  3]  1.052704e+07
    Block[  4]  1.220606e+07
    ---------------------------------------------------------------------------
    Pressure average   1.616611e+07 +/-  7.490903e+06 [Pa]
                       1.616611e+02 +/-  7.490903e+01 [bar]


Enthalpy of adsorption
===============================================================================

No fluctuating components present.


Densities
===============================================================================

Component 0 (CO2)
    Block[  0] 100
    Block[  1] 100
    Block[  2] 100
    Block[  3] 100
    Block[  4] 100
    -----------------------------------------------------------------------
    Density average   1.000000e+02 +/-  0.000000e+00 [molecules]
    Density average   1.475544e-02 +/-  4.508739e-04 [molec/A^3]
    Density average   1.078058e+03 +/-  3.294162e+01 [kg.m⁻³]

