Compiler and run-time data
===============================================================================
RASPA 3.0.4

Random seed: 2214317995

Compiled as a 64-bits application
Compiler: gcc Ubuntu Clang 18.1.3 (1ubuntu1)
Compile Date = Mar 15 2025, Compile Time = 19:39:45

2025-06-02 12:33:28.185218
Simulation started on Mon, Jun 02
The start time was 12:33:00

Hostname:    c060
OS type:     Linux on x86_64
OS release:  6.8.0-58-generic
OS version:  #60-Ubuntu SMP PREEMPT_DYNAMIC Fri Mar 14 18:29:48 UTC 2025


Mutual consistent basic set of units:
===============================================================================

Unit of temperature: 1 [K]
Unit of length:      1e-10 [m]
Unit of time:        1e-12 [s]
Unit of mass:        1.6605402e-27 [kg]
Unit of charge:      1.60217733e-19 [C/particle]


Boltzmann constant (internal units):          0.8314464919307584 [-]
represents conversion from energy (internal units) to temperature (in Kelvin)

Derived units and their conversion factors:
===============================================================================

Unit of energy:                           1.6605402000000002e-23 [J]
Unit of energy:                           10.000008872307538 [J.mol⁻¹]
Unit of velocity:                         100 [m.s⁻¹]
Unit of force:                            1.6605402000000002e-13 [N]
Unit of diffusion:                        1.0000000000000002e-08 [m².s⁻¹]
Unit of acceleration:                     1.0000000000000002e-08 [m².s⁻¹]
Unit of torque:                           1.6605402000000002e-23 [N.m]
Unit of pressure:                         16605402 [Pa]
Unit of volume:                           1e-30 [m³]
Unit of density:                          1660.5402 [kg.m⁻³]
Unit of dynamic viscosity:                1.6605401999999997e-05 [N.s.m⁻²]
Unit of enthalpy:                         1.6605402000000002e-23 [J]
Unit of polarizability:                   1.5458657349975198e-35 [-]
Unit of Coulomb potential:                167101.08000665612 [K]
Unit of dielectric constant:              1.5458657349975193e-05 [s².C².kg⁻¹.m⁻³]
Unit of dipole moment:                    1.60217733e-29 [C.m]
Unit of Debye:                            4.803206799099162 [C.m]
Unit of electric potential:               0.00010364272224473431 [V]
Unit of electric field:                   1036427.222447343 [V.m⁻¹]
Unit of isothermal compressibility:       6.02213665167516e-08 [Pa⁻¹]
Unit of heat capacity:                    10.000008872307538 [J.mol⁻¹.K⁻¹]
Unit of volumetric expansion coefficient: 1 [K⁻¹]


Internal conversion factors:
===============================================================================

Energy (internal units) to Kelvin:      1.202724284692786 [-]
Kelvin to energy (internal units):      0.8314457542157567 [-]


System definitions
===============================================================================

Temperature:          250 [K]
Beta:                 0.0048108928702210625 [-]
Pressure:             6e+06 [Pa]
Helium void fraction: 1 [-]

Box:      30.00000   0.00000   0.00000
           0.00000  30.00000   0.00000
           0.00000   0.00000  30.00000
Lengths:  30.00000  30.00000  30.00000
Angles:   90.00000  90.00000  90.00000
Rectangular boundary conditions



Property measurement settings
===============================================================================




Pseudo-atoms
===============================================================================

  0 - C_co2    framework-atom: false
  1 - O_co2    framework-atom: false

  0 - C_co2    mass: 12.00000, charge:  0.70000
  1 - O_co2    mass: 15.99940, charge: -0.35000

  0 - C_co2    polarizability:  0.00000
  1 - O_co2    polarizability:  0.00000

  0 - J. J. Potoff et al., AIChE J. 2001, 47, 1676–1682.
  1 - J. J. Potoff et al., AIChE J. 2001, 47, 1676–1682.

Force field status
===============================================================================

Cutoff Framework-Molecule VDW:  12.00000 [Å]
Cutoff Molecule-Molecule VDW:   12.00000 [Å]
Cutoff Coulomb:                 12.00000 [Å]

Overlap-criteria VDW:           1.000000e+05 [K]

C_co2    - C_co2    Lennard-Jones p₀/kʙ:  27.00000 [K], p₁:  2.80000 [Å]
                                  shift:   0.00000 [K], tailcorrections: true
C_co2    - O_co2    Lennard-Jones p₀/kʙ:  46.18441 [K], p₁:  2.92500 [Å]
                                  shift:   0.00000 [K], tailcorrections: true
O_co2    - O_co2    Lennard-Jones p₀/kʙ:  79.00000 [K], p₁:  3.05000 [Å]
                                  shift:   0.00000 [K], tailcorrections: true

Ewald precision: 1e-06
Ewald alpha: 0.26505830360350674
Ewald k-vectors: 8 8 8


Component definitions
===============================================================================

Component 0 [CO2]

    Type: Adsorbate

    Critical temperature:  304.1282 [K]
    Critical pressure:     7377300 [Pa]
    Acentric factor:       0.22394 [-]

    Mol-fraction:                 1 [-]
    Swappable:                   false

    Mass:                         43.9988 [-]
    Bulk fluid density:           0 [-]
    Compressibility:              0 [-]
    Excess molecules:             0 [-]

    Number Of Atoms:    3
    CBMC starting bead: 0
      0: O_co2  position  0.00000 -0.00000  1.16000, charge -0.35000
      1: C_co2  position  0.00000 -0.00000  0.00000, charge  0.70000
      2: O_co2  position  0.00000 -0.00000 -1.16000, charge -0.35000
    Diagonalized inertia-vector:      43.05758528 43.05758528 0.00000000
    Translational degrees of freedom: 3
    Rotational degrees of freedom:    2
    Shape of the molecule is: 'Linear'
    Net-charge:        0.00000000 [e]

    Move probabilities:
    Translation:                   0.331126 [-]
    Random translation:            0.000000 [-]
    Rotation:                      0.331126 [-]
    Random rotation:               0.000000 [-]
    Volume change:                 0.006623 [-]
    Reinsertion (CBMC):            0.331126 [-]
    Identity change (CBMC):        0.000000 [-]
    Swap:                          0.000000 [-]
    Swap (CBMC):                   0.000000 [-]
    Swap (CFCMC):                  0.000000 [-]
    Swap (CB/CFCMC):               0.000000 [-]
    Gibbs volume:                  0.000000 [-]
    Gibbs swap (CBMC):             0.000000 [-]
    Gibbs swap (CFCMC):            0.000000 [-]
    Widom:                         0.000000 [-]
    Widom (CFCMC):                 0.000000 [-]
    Widom (CB/CFCMC):              0.000000 [-]
    Parallel tempering:            0.000000 [-]
    Hybrid MC:                     0.000000 [-]

    number of blocking-pockets: 0

    number of bonds: 0





Number of pseudo-atoms
===============================================================================

Component   0 (CO2)
-------------------------------------------------------------------------------
    index   0 (C_co2): 250 atoms
    index   1 (O_co2): 500 atoms

Total number of pseudo-atoms:
-------------------------------------------------------------------------------
    index   0 (C_co2): 250 atoms
    index   1 (O_co2): 500 atoms




Energy status Recomputed from scratch
===============================================================================

Total potential energy/kʙ       -6.393731e+04 [K]
    external field VDW/kʙ        0.000000e+00 [K]
    external field Real/kʙ       0.000000e+00 [K]
    framework-molecule VDW/kʙ    0.000000e+00 [K]
    framework-molecule Real/kʙ   0.000000e+00 [K]
    molecule-molecule VDW/kʙ    -3.215269e+04 [K]
    molecule-molecule Real/kʙ   -2.621884e+04 [K]
    Van der Waals (Tail)/kʙ     -4.298852e+03 [K]
    Ewald Fourier/kʙ             1.343448e+04 [K]
    Ewald self/kʙ               -4.591696e+06 [K]
    Ewald exclusion/kʙ           4.576994e+06 [K]
    intra VDW/kʙ                 0.000000e+00 [K]
    intra Coulombic/kʙ           0.000000e+00 [K]
    polarization/kʙ              0.000000e+00 [K]
    dU/dlambda VDW/kʙ            0.000000e+00 [K]
    dU/dlambda Real/kʙ           0.000000e+00 [K]
    dU/dlambda Ewald/kʙ          0.000000e+00 [K]





Initialization: Current cycle: 0 out of 1000
===============================================================================

Box:      30.00000   0.00000   0.00000
           0.00000  30.00000   0.00000
           0.00000   0.00000  30.00000
Lengths:  30.00000  30.00000  30.00000
Angles:   90.00000  90.00000  90.00000
Rectangular boundary conditions

net charge:   0.00000000

component   0 (CO2) lambda:  0 occupancy:  1 (1.000000)
    net charge:   0.00000000 [e]

Amount of molecules per component :
-------------------------------------------------------------------------------
Component 0 (CO2)
    molecules:         2.500000e+02 molecules
    number density:    9.259259e-03 molec/A^3
    density:           6.764973e+02 kg/m^3

Total potential energy/kʙ       -1.572305e+05 [K]
-------------------------------------------------------------------------------
    external field VDW/kʙ        0.000000e+00 [K]
    external field Real/kʙ       0.000000e+00 [K]
    framework-molecule VDW/kʙ    0.000000e+00 [K]
    framework-molecule Real/kʙ   0.000000e+00 [K]
    molecule-molecule VDW/kʙ    -1.236909e+05 [K]
    molecule-molecule Real/kʙ   -2.708420e+04 [K]
    Van der Waals (Tail)/kʙ     -4.298852e+03 [K]
    Ewald Fourier/kʙ             1.254482e+04 [K]
    Ewald self/kʙ               -4.591696e+06 [K]
    Ewald exclusion/kʙ           4.576994e+06 [K]
    intra VDW/kʙ                 0.000000e+00 [K]
    intra Coulombic/kʙ           0.000000e+00 [K]
    polarization/kʙ              0.000000e+00 [K]
    dU/dlambda VDW/kʙ            0.000000e+00 [K]
    dU/dlambda Real/kʙ           0.000000e+00 [K]
    dU/dlambda Ewald/kʙ          0.000000e+00 [K]


Initialization: Current cycle: 100 out of 1000
===============================================================================

Box:      27.97249   0.00000   0.00000
           0.00000  27.97249   0.00000
           0.00000   0.00000  27.97249
Lengths:  27.97249  27.97249  27.97249
Angles:   90.00000  90.00000  90.00000
Rectangular boundary conditions

net charge:   0.00000000

component   0 (CO2) lambda:  0 occupancy:  1 (1.000000)
    net charge:   0.00000000 [e]

Amount of molecules per component :
-------------------------------------------------------------------------------
Component 0 (CO2)
    molecules:         2.500000e+02 molecules
    number density:    1.142212e-02 molec/A^3
    density:           8.345195e+02 kg/m^3

Total potential energy/kʙ       -3.097981e+05 [K]
-------------------------------------------------------------------------------
    external field VDW/kʙ        0.000000e+00 [K]
    external field Real/kʙ       0.000000e+00 [K]
    framework-molecule VDW/kʙ    0.000000e+00 [K]
    framework-molecule Real/kʙ   0.000000e+00 [K]
    molecule-molecule VDW/kʙ    -2.284938e+05 [K]
    molecule-molecule Real/kʙ   -6.950130e+04 [K]
    Van der Waals (Tail)/kʙ     -5.303015e+03 [K]
    Ewald Fourier/kʙ             8.201451e+03 [K]
    Ewald self/kʙ               -4.591696e+06 [K]
    Ewald exclusion/kʙ           4.576994e+06 [K]
    intra VDW/kʙ                 0.000000e+00 [K]
    intra Coulombic/kʙ           0.000000e+00 [K]
    polarization/kʙ              0.000000e+00 [K]
    dU/dlambda VDW/kʙ            0.000000e+00 [K]
    dU/dlambda Real/kʙ           0.000000e+00 [K]
    dU/dlambda Ewald/kʙ          0.000000e+00 [K]


Initialization: Current cycle: 200 out of 1000
===============================================================================

Box:      26.68485   0.00000   0.00000
           0.00000  26.68485   0.00000
           0.00000   0.00000  26.68485
Lengths:  26.68485  26.68485  26.68485
Angles:   90.00000  90.00000  90.00000
Rectangular boundary conditions

net charge:   0.00000000

component   0 (CO2) lambda:  0 occupancy:  1 (1.000000)
    net charge:   0.00000000 [e]

Amount of molecules per component :
-------------------------------------------------------------------------------
Component 0 (CO2)
    molecules:         2.500000e+02 molecules
    number density:    1.315667e-02 molec/A^3
    density:           9.612485e+02 kg/m^3

Total potential energy/kʙ       -3.389670e+05 [K]
-------------------------------------------------------------------------------
    external field VDW/kʙ        0.000000e+00 [K]
    external field Real/kʙ       0.000000e+00 [K]
    framework-molecule VDW/kʙ    0.000000e+00 [K]
    framework-molecule Real/kʙ   0.000000e+00 [K]
    molecule-molecule VDW/kʙ    -2.538024e+05 [K]
    molecule-molecule Real/kʙ   -7.191571e+04 [K]
    Van der Waals (Tail)/kʙ     -6.108324e+03 [K]
    Ewald Fourier/kʙ             7.560782e+03 [K]
    Ewald self/kʙ               -4.591696e+06 [K]
    Ewald exclusion/kʙ           4.576994e+06 [K]
    intra VDW/kʙ                 0.000000e+00 [K]
    intra Coulombic/kʙ           0.000000e+00 [K]
    polarization/kʙ              0.000000e+00 [K]
    dU/dlambda VDW/kʙ            0.000000e+00 [K]
    dU/dlambda Real/kʙ           0.000000e+00 [K]
    dU/dlambda Ewald/kʙ          0.000000e+00 [K]


Initialization: Current cycle: 300 out of 1000
===============================================================================

Box:      26.38784   0.00000   0.00000
           0.00000  26.38784   0.00000
           0.00000   0.00000  26.38784
Lengths:  26.38784  26.38784  26.38784
Angles:   90.00000  90.00000  90.00000
Rectangular boundary conditions

net charge:   0.00000000

component   0 (CO2) lambda:  0 occupancy:  1 (1.000000)
    net charge:   0.00000000 [e]

Amount of molecules per component :
-------------------------------------------------------------------------------
Component 0 (CO2)
    molecules:         2.500000e+02 molecules
    number density:    1.360594e-02 molec/A^3
    density:           9.940732e+02 kg/m^3

Total potential energy/kʙ       -3.581932e+05 [K]
-------------------------------------------------------------------------------
    external field VDW/kʙ        0.000000e+00 [K]
    external field Real/kʙ       0.000000e+00 [K]
    framework-molecule VDW/kʙ    0.000000e+00 [K]
    framework-molecule Real/kʙ   0.000000e+00 [K]
    molecule-molecule VDW/kʙ    -2.666834e+05 [K]
    molecule-molecule Real/kʙ   -7.709943e+04 [K]
    Van der Waals (Tail)/kʙ     -6.316911e+03 [K]
    Ewald Fourier/kʙ             6.608002e+03 [K]
    Ewald self/kʙ               -4.591696e+06 [K]
    Ewald exclusion/kʙ           4.576994e+06 [K]
    intra VDW/kʙ                 0.000000e+00 [K]
    intra Coulombic/kʙ           0.000000e+00 [K]
    polarization/kʙ              0.000000e+00 [K]
    dU/dlambda VDW/kʙ            0.000000e+00 [K]
    dU/dlambda Real/kʙ           0.000000e+00 [K]
    dU/dlambda Ewald/kʙ          0.000000e+00 [K]


Initialization: Current cycle: 400 out of 1000
===============================================================================

Box:      25.91902   0.00000   0.00000
           0.00000  25.91902   0.00000
           0.00000   0.00000  25.91902
Lengths:  25.91902  25.91902  25.91902
Angles:   90.00000  90.00000  90.00000
Rectangular boundary conditions

net charge:   0.00000000

component   0 (CO2) lambda:  0 occupancy:  1 (1.000000)
    net charge:   0.00000000 [e]

Amount of molecules per component :
-------------------------------------------------------------------------------
Component 0 (CO2)
    molecules:         2.500000e+02 molecules
    number density:    1.435768e-02 molec/A^3
    density:           1.048997e+03 kg/m^3

Total potential energy/kʙ       -3.767737e+05 [K]
-------------------------------------------------------------------------------
    external field VDW/kʙ        0.000000e+00 [K]
    external field Real/kʙ       0.000000e+00 [K]
    framework-molecule VDW/kʙ    0.000000e+00 [K]
    framework-molecule Real/kʙ   0.000000e+00 [K]
    molecule-molecule VDW/kʙ    -2.744420e+05 [K]
    molecule-molecule Real/kʙ   -8.704611e+04 [K]
    Van der Waals (Tail)/kʙ     -6.665926e+03 [K]
    Ewald Fourier/kʙ             6.081744e+03 [K]
    Ewald self/kʙ               -4.591696e+06 [K]
    Ewald exclusion/kʙ           4.576994e+06 [K]
    intra VDW/kʙ                 0.000000e+00 [K]
    intra Coulombic/kʙ           0.000000e+00 [K]
    polarization/kʙ              0.000000e+00 [K]
    dU/dlambda VDW/kʙ            0.000000e+00 [K]
    dU/dlambda Real/kʙ           0.000000e+00 [K]
    dU/dlambda Ewald/kʙ          0.000000e+00 [K]


Initialization: Current cycle: 500 out of 1000
===============================================================================

Box:      26.21874   0.00000   0.00000
           0.00000  26.21874   0.00000
           0.00000   0.00000  26.21874
Lengths:  26.21874  26.21874  26.21874
Angles:   90.00000  90.00000  90.00000
Rectangular boundary conditions

net charge:   0.00000000

component   0 (CO2) lambda:  0 occupancy:  1 (1.000000)
    net charge:   0.00000000 [e]

Amount of molecules per component :
-------------------------------------------------------------------------------
Component 0 (CO2)
    molecules:         2.500000e+02 molecules
    number density:    1.387090e-02 molec/A^3
    density:           1.013432e+03 kg/m^3

Total potential energy/kʙ       -3.564793e+05 [K]
-------------------------------------------------------------------------------
    external field VDW/kʙ        0.000000e+00 [K]
    external field Real/kʙ       0.000000e+00 [K]
    framework-molecule VDW/kʙ    0.000000e+00 [K]
    framework-molecule Real/kʙ   0.000000e+00 [K]
    molecule-molecule VDW/kʙ    -2.565673e+05 [K]
    molecule-molecule Real/kʙ   -8.526799e+04 [K]
    Van der Waals (Tail)/kʙ     -6.439925e+03 [K]
    Ewald Fourier/kʙ             6.497319e+03 [K]
    Ewald self/kʙ               -4.591696e+06 [K]
    Ewald exclusion/kʙ           4.576994e+06 [K]
    intra VDW/kʙ                 0.000000e+00 [K]
    intra Coulombic/kʙ           0.000000e+00 [K]
    polarization/kʙ              0.000000e+00 [K]
    dU/dlambda VDW/kʙ            0.000000e+00 [K]
    dU/dlambda Real/kʙ           0.000000e+00 [K]
    dU/dlambda Ewald/kʙ          0.000000e+00 [K]


Initialization: Current cycle: 600 out of 1000
===============================================================================

Box:      26.15023   0.00000   0.00000
           0.00000  26.15023   0.00000
           0.00000   0.00000  26.15023
Lengths:  26.15023  26.15023  26.15023
Angles:   90.00000  90.00000  90.00000
Rectangular boundary conditions

net charge:   0.00000000

component   0 (CO2) lambda:  0 occupancy:  1 (1.000000)
    net charge:   0.00000000 [e]

Amount of molecules per component :
-------------------------------------------------------------------------------
Component 0 (CO2)
    molecules:         2.500000e+02 molecules
    number density:    1.398020e-02 molec/A^3
    density:           1.021417e+03 kg/m^3

Total potential energy/kʙ       -3.582923e+05 [K]
-------------------------------------------------------------------------------
    external field VDW/kʙ        0.000000e+00 [K]
    external field Real/kʙ       0.000000e+00 [K]
    framework-molecule VDW/kʙ    0.000000e+00 [K]
    framework-molecule Real/kʙ   0.000000e+00 [K]
    molecule-molecule VDW/kʙ    -2.633403e+05 [K]
    molecule-molecule Real/kʙ   -8.027735e+04 [K]
    Van der Waals (Tail)/kʙ     -6.490671e+03 [K]
    Ewald Fourier/kʙ             6.517403e+03 [K]
    Ewald self/kʙ               -4.591696e+06 [K]
    Ewald exclusion/kʙ           4.576994e+06 [K]
    intra VDW/kʙ                 0.000000e+00 [K]
    intra Coulombic/kʙ           0.000000e+00 [K]
    polarization/kʙ              0.000000e+00 [K]
    dU/dlambda VDW/kʙ            0.000000e+00 [K]
    dU/dlambda Real/kʙ           0.000000e+00 [K]
    dU/dlambda Ewald/kʙ          0.000000e+00 [K]


Initialization: Current cycle: 700 out of 1000
===============================================================================

Box:      25.73771   0.00000   0.00000
           0.00000  25.73771   0.00000
           0.00000   0.00000  25.73771
Lengths:  25.73771  25.73771  25.73771
Angles:   90.00000  90.00000  90.00000
Rectangular boundary conditions

net charge:   0.00000000

component   0 (CO2) lambda:  0 occupancy:  1 (1.000000)
    net charge:   0.00000000 [e]

Amount of molecules per component :
-------------------------------------------------------------------------------
Component 0 (CO2)
    molecules:         2.500000e+02 molecules
    number density:    1.466325e-02 molec/A^3
    density:           1.071322e+03 kg/m^3

Total potential energy/kʙ       -3.856305e+05 [K]
-------------------------------------------------------------------------------
    external field VDW/kʙ        0.000000e+00 [K]
    external field Real/kʙ       0.000000e+00 [K]
    framework-molecule VDW/kʙ    0.000000e+00 [K]
    framework-molecule Real/kʙ   0.000000e+00 [K]
    molecule-molecule VDW/kʙ    -2.812298e+05 [K]
    molecule-molecule Real/kʙ   -8.929699e+04 [K]
    Van der Waals (Tail)/kʙ     -6.807793e+03 [K]
    Ewald Fourier/kʙ             6.405556e+03 [K]
    Ewald self/kʙ               -4.591696e+06 [K]
    Ewald exclusion/kʙ           4.576994e+06 [K]
    intra VDW/kʙ                 0.000000e+00 [K]
    intra Coulombic/kʙ           0.000000e+00 [K]
    polarization/kʙ              0.000000e+00 [K]
    dU/dlambda VDW/kʙ            0.000000e+00 [K]
    dU/dlambda Real/kʙ           0.000000e+00 [K]
    dU/dlambda Ewald/kʙ          0.000000e+00 [K]


Initialization: Current cycle: 800 out of 1000
===============================================================================

Box:      25.80930   0.00000   0.00000
           0.00000  25.80930   0.00000
           0.00000   0.00000  25.80930
Lengths:  25.80930  25.80930  25.80930
Angles:   90.00000  90.00000  90.00000
Rectangular boundary conditions

net charge:   0.00000000

component   0 (CO2) lambda:  0 occupancy:  1 (1.000000)
    net charge:   0.00000000 [e]

Amount of molecules per component :
-------------------------------------------------------------------------------
Component 0 (CO2)
    molecules:         2.500000e+02 molecules
    number density:    1.454156e-02 molec/A^3
    density:           1.062432e+03 kg/m^3

Total potential energy/kʙ       -3.804616e+05 [K]
-------------------------------------------------------------------------------
    external field VDW/kʙ        0.000000e+00 [K]
    external field Real/kʙ       0.000000e+00 [K]
    framework-molecule VDW/kʙ    0.000000e+00 [K]
    framework-molecule Real/kʙ   0.000000e+00 [K]
    molecule-molecule VDW/kʙ    -2.790545e+05 [K]
    molecule-molecule Real/kʙ   -8.574218e+04 [K]
    Van der Waals (Tail)/kʙ     -6.751299e+03 [K]
    Ewald Fourier/kʙ             5.787753e+03 [K]
    Ewald self/kʙ               -4.591696e+06 [K]
    Ewald exclusion/kʙ           4.576994e+06 [K]
    intra VDW/kʙ                 0.000000e+00 [K]
    intra Coulombic/kʙ           0.000000e+00 [K]
    polarization/kʙ              0.000000e+00 [K]
    dU/dlambda VDW/kʙ            0.000000e+00 [K]
    dU/dlambda Real/kʙ           0.000000e+00 [K]
    dU/dlambda Ewald/kʙ          0.000000e+00 [K]


Initialization: Current cycle: 900 out of 1000
===============================================================================

Box:      25.69180   0.00000   0.00000
           0.00000  25.69180   0.00000
           0.00000   0.00000  25.69180
Lengths:  25.69180  25.69180  25.69180
Angles:   90.00000  90.00000  90.00000
Rectangular boundary conditions

net charge:   0.00000000

component   0 (CO2) lambda:  0 occupancy:  1 (1.000000)
    net charge:   0.00000000 [e]

Amount of molecules per component :
-------------------------------------------------------------------------------
Component 0 (CO2)
    molecules:         2.500000e+02 molecules
    number density:    1.474199e-02 molec/A^3
    density:           1.077075e+03 kg/m^3

Total potential energy/kʙ       -3.844285e+05 [K]
-------------------------------------------------------------------------------
    external field VDW/kʙ        0.000000e+00 [K]
    external field Real/kʙ       0.000000e+00 [K]
    framework-molecule VDW/kʙ    0.000000e+00 [K]
    framework-molecule Real/kʙ   0.000000e+00 [K]
    molecule-molecule VDW/kʙ    -2.823351e+05 [K]
    molecule-molecule Real/kʙ   -8.679431e+04 [K]
    Van der Waals (Tail)/kʙ     -6.844354e+03 [K]
    Ewald Fourier/kʙ             6.246639e+03 [K]
    Ewald self/kʙ               -4.591696e+06 [K]
    Ewald exclusion/kʙ           4.576994e+06 [K]
    intra VDW/kʙ                 0.000000e+00 [K]
    intra Coulombic/kʙ           0.000000e+00 [K]
    polarization/kʙ              0.000000e+00 [K]
    dU/dlambda VDW/kʙ            0.000000e+00 [K]
    dU/dlambda Real/kʙ           0.000000e+00 [K]
    dU/dlambda Ewald/kʙ          0.000000e+00 [K]


Current cycle: 0 out of 5000
===============================================================================

Box:      25.60412   0.00000   0.00000  Average:  25.60412   0.00000   0.00000
           0.00000  25.60412   0.00000             0.00000  25.60412   0.00000
           0.00000   0.00000  25.60412             0.00000   0.00000  25.60412
Lengths:  25.60412  25.60412  25.60412  Average:  25.60412  25.60412  25.60412
Angles:   90.00000  90.00000  90.00000  Average:  90.00000  90.00000  90.00000
Rectangular boundary conditions

net charge:   0.00000000

component 0 (CO2) lambda:  0 occupancy:  1 (1.000000)
    net charge:   0.00000000 [e]

Amount of molecules per component :
-------------------------------------------------------------------------------
Component 0 (CO2)
    molecules:      2.500000e+02 molecules  (2.500000e+02 +/- 0.000000e+00)
    number density: 1.489397e-02 molec./A^3 (1.489397e-02 +/- 0.000000e+00)
    density:        1.088179e+03 kg/m^3     (1.088179e+03 +/- 0.000000e+00)

Average pressure tensor: 
-------------------------------------------------------------------------------
 5.1408e+02  0.0000e+00  0.0000e+00 +/- 0.0000e+00 0.0000e+00 0.0000e+00 [bar]
 0.0000e+00  5.1408e+02  0.0000e+00 +/- 0.0000e+00 0.0000e+00 0.0000e+00 [bar]
 0.0000e+00  0.0000e+00  5.1408e+02 +/- 0.0000e+00 0.0000e+00 0.0000e+00 [bar]
Ideal-gas pressure:   5.140840e+02 +/ 0.000000e+00 [bar]
Excess pressure:      0.000000e+00 +/ 0.000000e+00 [bar]
Pressure:             5.140840e+02 +/ 0.000000e+00 [bar]

Total potential energy/kʙ  -3.882316e+05 (-3.882316e+05 +/- 0.000000e+00) [K]
-------------------------------------------------------------------------------
ExternalField-molecule
    Van der Waals/kʙ        0.000000e+00 ( 0.000000e+00 +/- 0.000000e+00) [K]
Framework-molecule
    Van der Waals/kʙ        0.000000e+00 ( 0.000000e+00 +/- 0.000000e+00) [K]
    Van der Waals (Tail)/kʙ 0.000000e+00 ( 0.000000e+00 +/- 0.000000e+00) [K]
    Coulombic Real/kʙ       0.000000e+00 ( 0.000000e+00 +/- 0.000000e+00) [K]
    Coulombic Fourier/kʙ    0.000000e+00 ( 0.000000e+00 +/- 0.000000e+00) [K]
Molecule-molecule
    Van der Waals/kʙ       -2.842890e+05 (-2.842890e+05 +/- 0.000000e+00) [K]
    Van der Waals (Tail)/kʙ-6.914912e+03 (-6.914912e+03 +/- 0.000000e+00) [K]
    Coulombic Real/kʙ      -8.771578e+04 (-8.771578e+04 +/- 0.000000e+00) [K]
    Coulombic Fourier/kʙ   -9.311849e+03 (-9.311849e+03 +/- 0.000000e+00) [K]
    Molecule Intra/kʙ       0.000000e+00 ( 0.000000e+00 +/- 0.000000e+00) [K]

Current cycle: 100 out of 5000
===============================================================================

Box:      25.86508   0.00000   0.00000  Average:  25.64076   0.00000   0.00000
           0.00000  25.86508   0.00000             0.00000  25.64076   0.00000
           0.00000   0.00000  25.86508             0.00000   0.00000  25.64076
Lengths:  25.86508  25.86508  25.86508  Average:  25.64076  25.64076  25.64076
Angles:   90.00000  90.00000  90.00000  Average:  90.00000  90.00000  90.00000
Rectangular boundary conditions

net charge:   0.00000000

component 0 (CO2) lambda:  0 occupancy:  1 (1.000000)
    net charge:   0.00000000 [e]

Amount of molecules per component :
-------------------------------------------------------------------------------
Component 0 (CO2)
    molecules:      2.500000e+02 molecules  (2.500000e+02 +/- 0.000000e+00)
    number density: 1.444769e-02 molec./A^3 (1.483149e-02 +/- 0.000000e+00)
    density:        1.055573e+03 kg/m^3     (1.083614e+03 +/- 0.000000e+00)

Average pressure tensor: 
-------------------------------------------------------------------------------
-4.2078e+01 -1.7901e+02  3.3389e+01 +/- 0.0000e+00 0.0000e+00 0.0000e+00 [bar]
-1.7901e+02 -8.4952e+00 -2.5706e+02 +/- 0.0000e+00 0.0000e+00 0.0000e+00 [bar]
 3.3389e+01 -2.5706e+02  4.2086e+02 +/- 0.0000e+00 0.0000e+00 0.0000e+00 [bar]
Ideal-gas pressure:   5.119274e+02 +/ 0.000000e+00 [bar]
Excess pressure:     -3.884994e+02 +/ 0.000000e+00 [bar]
Pressure:             1.234280e+02 +/ 0.000000e+00 [bar]

Total potential energy/kʙ  -3.766991e+05 (-3.879473e+05 +/- 0.000000e+00) [K]
-------------------------------------------------------------------------------
ExternalField-molecule
    Van der Waals/kʙ        0.000000e+00 ( 0.000000e+00 +/- 0.000000e+00) [K]
Framework-molecule
    Van der Waals/kʙ        0.000000e+00 ( 0.000000e+00 +/- 0.000000e+00) [K]
    Van der Waals (Tail)/kʙ 0.000000e+00 ( 0.000000e+00 +/- 0.000000e+00) [K]
    Coulombic Real/kʙ       0.000000e+00 ( 0.000000e+00 +/- 0.000000e+00) [K]
    Coulombic Fourier/kʙ    0.000000e+00 ( 0.000000e+00 +/- 0.000000e+00) [K]
Molecule-molecule
    Van der Waals/kʙ       -2.777084e+05 (-2.843385e+05 +/- 0.000000e+00) [K]
    Van der Waals (Tail)/kʙ-6.707715e+03 (-6.891097e+03 +/- 0.000000e+00) [K]
    Coulombic Real/kʙ      -8.432514e+04 (-8.807047e+04 +/- 0.000000e+00) [K]
    Coulombic Fourier/kʙ   -7.957829e+03 (-8.647270e+03 +/- 0.000000e+00) [K]
    Molecule Intra/kʙ       0.000000e+00 ( 0.000000e+00 +/- 0.000000e+00) [K]

Current cycle: 200 out of 5000
===============================================================================

Box:      25.85451   0.00000   0.00000  Average:  25.73760   0.00000   0.00000
           0.00000  25.85451   0.00000             0.00000  25.73760   0.00000
           0.00000   0.00000  25.85451             0.00000   0.00000  25.73760
Lengths:  25.85451  25.85451  25.85451  Average:  25.73760  25.73760  25.73760
Angles:   90.00000  90.00000  90.00000  Average:  90.00000  90.00000  90.00000
Rectangular boundary conditions

net charge:   0.00000000

component 0 (CO2) lambda:  0 occupancy:  1 (1.000000)
    net charge:   0.00000000 [e]

Amount of molecules per component :
-------------------------------------------------------------------------------
Component 0 (CO2)
    molecules:      2.500000e+02 molecules  (2.500000e+02 +/- 0.000000e+00)
    number density: 1.446542e-02 molec./A^3 (1.466590e-02 +/- 0.000000e+00)
    density:        1.056869e+03 kg/m^3     (1.071516e+03 +/- 0.000000e+00)

Average pressure tensor: 
-------------------------------------------------------------------------------
 1.2046e+02 -1.7299e+02  3.6744e+01 +/- 0.0000e+00 0.0000e+00 0.0000e+00 [bar]
-1.7299e+02 -1.1424e+02 -1.5059e+02 +/- 0.0000e+00 0.0000e+00 0.0000e+00 [bar]
 3.6744e+01 -1.5059e+02  2.1909e+02 +/- 0.0000e+00 0.0000e+00 0.0000e+00 [bar]
Ideal-gas pressure:   5.062120e+02 +/ 0.000000e+00 [bar]
Excess pressure:     -4.311065e+02 +/ 0.000000e+00 [bar]
Pressure:             7.510555e+01 +/ 0.000000e+00 [bar]

Total potential energy/kʙ  -3.714952e+05 (-3.836573e+05 +/- 0.000000e+00) [K]
-------------------------------------------------------------------------------
ExternalField-molecule
    Van der Waals/kʙ        0.000000e+00 ( 0.000000e+00 +/- 0.000000e+00) [K]
Framework-molecule
    Van der Waals/kʙ        0.000000e+00 ( 0.000000e+00 +/- 0.000000e+00) [K]
    Van der Waals (Tail)/kʙ 0.000000e+00 ( 0.000000e+00 +/- 0.000000e+00) [K]
    Coulombic Real/kʙ       0.000000e+00 ( 0.000000e+00 +/- 0.000000e+00) [K]
    Coulombic Fourier/kʙ    0.000000e+00 ( 0.000000e+00 +/- 0.000000e+00) [K]
Molecule-molecule
    Van der Waals/kʙ       -2.731720e+05 (-2.803714e+05 +/- 0.000000e+00) [K]
    Van der Waals (Tail)/kʙ-6.715948e+03 (-6.815395e+03 +/- 0.000000e+00) [K]
    Coulombic Real/kʙ      -8.354816e+04 (-8.787778e+04 +/- 0.000000e+00) [K]
    Coulombic Fourier/kʙ   -8.059033e+03 (-8.592742e+03 +/- 0.000000e+00) [K]
    Molecule Intra/kʙ       0.000000e+00 ( 0.000000e+00 +/- 0.000000e+00) [K]

Current cycle: 300 out of 5000
===============================================================================

Box:      25.83483   0.00000   0.00000  Average:  25.77353   0.00000   0.00000
           0.00000  25.83483   0.00000             0.00000  25.77353   0.00000
           0.00000   0.00000  25.83483             0.00000   0.00000  25.77353
Lengths:  25.83483  25.83483  25.83483  Average:  25.77353  25.77353  25.77353
Angles:   90.00000  90.00000  90.00000  Average:  90.00000  90.00000  90.00000
Rectangular boundary conditions

net charge:   0.00000000

component 0 (CO2) lambda:  0 occupancy:  1 (1.000000)
    net charge:   0.00000000 [e]

Amount of molecules per component :
-------------------------------------------------------------------------------
Component 0 (CO2)
    molecules:      2.500000e+02 molecules  (2.500000e+02 +/- 0.000000e+00)
    number density: 1.449851e-02 molec./A^3 (1.460470e-02 +/- 0.000000e+00)
    density:        1.059286e+03 kg/m^3     (1.067045e+03 +/- 0.000000e+00)

Average pressure tensor: 
-------------------------------------------------------------------------------
 1.1759e+02 -1.3200e+02  3.1298e+01 +/- 0.0000e+00 0.0000e+00 0.0000e+00 [bar]
-1.3200e+02 -1.1941e+02 -1.3424e+02 +/- 0.0000e+00 0.0000e+00 0.0000e+00 [bar]
 3.1298e+01 -1.3424e+02  2.4032e+02 +/- 0.0000e+00 0.0000e+00 0.0000e+00 [bar]
Ideal-gas pressure:   5.040997e+02 +/ 0.000000e+00 [bar]
Excess pressure:     -4.245991e+02 +/ 0.000000e+00 [bar]
Pressure:             7.950061e+01 +/ 0.000000e+00 [bar]

Total potential energy/kʙ  -3.820233e+05 (-3.822503e+05 +/- 0.000000e+00) [K]
-------------------------------------------------------------------------------
ExternalField-molecule
    Van der Waals/kʙ        0.000000e+00 ( 0.000000e+00 +/- 0.000000e+00) [K]
Framework-molecule
    Van der Waals/kʙ        0.000000e+00 ( 0.000000e+00 +/- 0.000000e+00) [K]
    Van der Waals (Tail)/kʙ 0.000000e+00 ( 0.000000e+00 +/- 0.000000e+00) [K]
    Coulombic Real/kʙ       0.000000e+00 ( 0.000000e+00 +/- 0.000000e+00) [K]
    Coulombic Fourier/kʙ    0.000000e+00 ( 0.000000e+00 +/- 0.000000e+00) [K]
Molecule-molecule
    Van der Waals/kʙ       -2.772210e+05 (-2.788696e+05 +/- 0.000000e+00) [K]
    Van der Waals (Tail)/kʙ-6.731308e+03 (-6.787514e+03 +/- 0.000000e+00) [K]
    Coulombic Real/kʙ      -8.947833e+04 (-8.811539e+04 +/- 0.000000e+00) [K]
    Coulombic Fourier/kʙ   -8.592632e+03 (-8.477783e+03 +/- 0.000000e+00) [K]
    Molecule Intra/kʙ       0.000000e+00 ( 0.000000e+00 +/- 0.000000e+00) [K]

Current cycle: 400 out of 5000
===============================================================================

Box:      25.82019   0.00000   0.00000  Average:  25.78934   0.00000   0.00000
           0.00000  25.82019   0.00000             0.00000  25.78934   0.00000
           0.00000   0.00000  25.82019             0.00000   0.00000  25.78934
Lengths:  25.82019  25.82019  25.82019  Average:  25.78934  25.78934  25.78934
Angles:   90.00000  90.00000  90.00000  Average:  90.00000  90.00000  90.00000
Rectangular boundary conditions

net charge:   0.00000000

component 0 (CO2) lambda:  0 occupancy:  1 (1.000000)
    net charge:   0.00000000 [e]

Amount of molecules per component :
-------------------------------------------------------------------------------
Component 0 (CO2)
    molecules:      2.500000e+02 molecules  (2.500000e+02 +/- 0.000000e+00)
    number density: 1.452319e-02 molec./A^3 (1.457747e-02 +/- 0.000000e+00)
    density:        1.061089e+03 kg/m^3     (1.065055e+03 +/- 0.000000e+00)

Average pressure tensor: 
-------------------------------------------------------------------------------
 9.4017e+01 -1.1846e+02  6.2108e+01 +/- 0.0000e+00 0.0000e+00 0.0000e+00 [bar]
-1.1846e+02 -1.3616e+02 -1.3046e+02 +/- 0.0000e+00 0.0000e+00 0.0000e+00 [bar]
 6.2108e+01 -1.3046e+02  2.3380e+02 +/- 0.0000e+00 0.0000e+00 0.0000e+00 [bar]
Ideal-gas pressure:   5.031597e+02 +/ 0.000000e+00 [bar]
Excess pressure:     -4.392745e+02 +/ 0.000000e+00 [bar]
Pressure:             6.388515e+01 +/ 0.000000e+00 [bar]

Total potential energy/kʙ  -3.830018e+05 (-3.823600e+05 +/- 0.000000e+00) [K]
-------------------------------------------------------------------------------
ExternalField-molecule
    Van der Waals/kʙ        0.000000e+00 ( 0.000000e+00 +/- 0.000000e+00) [K]
Framework-molecule
    Van der Waals/kʙ        0.000000e+00 ( 0.000000e+00 +/- 0.000000e+00) [K]
    Van der Waals (Tail)/kʙ 0.000000e+00 ( 0.000000e+00 +/- 0.000000e+00) [K]
    Coulombic Real/kʙ       0.000000e+00 ( 0.000000e+00 +/- 0.000000e+00) [K]
    Coulombic Fourier/kʙ    0.000000e+00 ( 0.000000e+00 +/- 0.000000e+00) [K]
Molecule-molecule
    Van der Waals/kʙ       -2.748338e+05 (-2.782571e+05 +/- 0.000000e+00) [K]
    Van der Waals (Tail)/kʙ-6.742767e+03 (-6.770936e+03 +/- 0.000000e+00) [K]
    Coulombic Real/kʙ      -9.241376e+04 (-8.880512e+04 +/- 0.000000e+00) [K]
    Coulombic Fourier/kʙ   -9.011492e+03 (-8.526837e+03 +/- 0.000000e+00) [K]
    Molecule Intra/kʙ       0.000000e+00 ( 0.000000e+00 +/- 0.000000e+00) [K]

Current cycle: 500 out of 5000
===============================================================================

Box:      26.09203   0.00000   0.00000  Average:  25.82597   0.00000   0.00000
           0.00000  26.09203   0.00000             0.00000  25.82597   0.00000
           0.00000   0.00000  26.09203             0.00000   0.00000  25.82597
Lengths:  26.09203  26.09203  26.09203  Average:  25.82597  25.82597  25.82597
Angles:   90.00000  90.00000  90.00000  Average:  90.00000  90.00000  90.00000
Rectangular boundary conditions

net charge:   0.00000000

component 0 (CO2) lambda:  0 occupancy:  1 (1.000000)
    net charge:   0.00000000 [e]

Amount of molecules per component :
-------------------------------------------------------------------------------
Component 0 (CO2)
    molecules:      2.500000e+02 molecules  (2.500000e+02 +/- 0.000000e+00)
    number density: 1.407396e-02 molec./A^3 (1.451635e-02 +/- 0.000000e+00)
    density:        1.028268e+03 kg/m^3     (1.060589e+03 +/- 0.000000e+00)

Average pressure tensor: 
-------------------------------------------------------------------------------
 8.1786e+01 -1.0332e+02  6.2900e+01 +/- 0.0000e+00 0.0000e+00 0.0000e+00 [bar]
-1.0332e+02 -9.7259e+01 -1.2744e+02 +/- 0.0000e+00 0.0000e+00 0.0000e+00 [bar]
 6.2900e+01 -1.2744e+02  2.3768e+02 +/- 0.0000e+00 0.0000e+00 0.0000e+00 [bar]
Ideal-gas pressure:   5.010500e+02 +/ 0.000000e+00 [bar]
Excess pressure:     -4.269799e+02 +/ 0.000000e+00 [bar]
Pressure:             7.407011e+01 +/ 0.000000e+00 [bar]

Total potential energy/kʙ  -3.723007e+05 (-3.812552e+05 +/- 0.000000e+00) [K]
-------------------------------------------------------------------------------
ExternalField-molecule
    Van der Waals/kʙ        0.000000e+00 ( 0.000000e+00 +/- 0.000000e+00) [K]
Framework-molecule
    Van der Waals/kʙ        0.000000e+00 ( 0.000000e+00 +/- 0.000000e+00) [K]
    Van der Waals (Tail)/kʙ 0.000000e+00 ( 0.000000e+00 +/- 0.000000e+00) [K]
    Coulombic Real/kʙ       0.000000e+00 ( 0.000000e+00 +/- 0.000000e+00) [K]
    Coulombic Fourier/kʙ    0.000000e+00 ( 0.000000e+00 +/- 0.000000e+00) [K]
Molecule-molecule
    Van der Waals/kʙ       -2.662516e+05 (-2.771923e+05 +/- 0.000000e+00) [K]
    Van der Waals (Tail)/kʙ-6.534202e+03 (-6.742272e+03 +/- 0.000000e+00) [K]
    Coulombic Real/kʙ      -9.117312e+04 (-8.881773e+04 +/- 0.000000e+00) [K]
    Coulombic Fourier/kʙ   -8.341758e+03 (-8.502863e+03 +/- 0.000000e+00) [K]
    Molecule Intra/kʙ       0.000000e+00 ( 0.000000e+00 +/- 0.000000e+00) [K]

Current cycle: 600 out of 5000
===============================================================================

Box:      26.03512   0.00000   0.00000  Average:  25.88035   0.00000   0.00000
           0.00000  26.03512   0.00000             0.00000  25.88035   0.00000
           0.00000   0.00000  26.03512             0.00000   0.00000  25.88035
Lengths:  26.03512  26.03512  26.03512  Average:  25.88035  25.88035  25.88035
Angles:   90.00000  90.00000  90.00000  Average:  90.00000  90.00000  90.00000
Rectangular boundary conditions

net charge:   0.00000000

component 0 (CO2) lambda:  0 occupancy:  1 (1.000000)
    net charge:   0.00000000 [e]

Amount of molecules per component :
-------------------------------------------------------------------------------
Component 0 (CO2)
    molecules:      2.500000e+02 molecules  (2.500000e+02 +/- 0.000000e+00)
    number density: 1.416646e-02 molec./A^3 (1.442662e-02 +/- 0.000000e+00)
    density:        1.035026e+03 kg/m^3     (1.054033e+03 +/- 0.000000e+00)

Average pressure tensor: 
-------------------------------------------------------------------------------
 9.5239e+01 -5.7278e+01  5.0067e+01 +/- 0.0000e+00 0.0000e+00 0.0000e+00 [bar]
-5.7278e+01 -6.4779e+01 -1.2106e+02 +/- 0.0000e+00 0.0000e+00 0.0000e+00 [bar]
 5.0067e+01 -1.2106e+02  2.2835e+02 +/- 0.0000e+00 0.0000e+00 0.0000e+00 [bar]
Ideal-gas pressure:   4.979528e+02 +/ 0.000000e+00 [bar]
Excess pressure:     -4.116817e+02 +/ 0.000000e+00 [bar]
Pressure:             8.627116e+01 +/ 0.000000e+00 [bar]

Total potential energy/kʙ  -3.721307e+05 (-3.792366e+05 +/- 0.000000e+00) [K]
-------------------------------------------------------------------------------
ExternalField-molecule
    Van der Waals/kʙ        0.000000e+00 ( 0.000000e+00 +/- 0.000000e+00) [K]
Framework-molecule
    Van der Waals/kʙ        0.000000e+00 ( 0.000000e+00 +/- 0.000000e+00) [K]
    Van der Waals (Tail)/kʙ 0.000000e+00 ( 0.000000e+00 +/- 0.000000e+00) [K]
    Coulombic Real/kʙ       0.000000e+00 ( 0.000000e+00 +/- 0.000000e+00) [K]
    Coulombic Fourier/kʙ    0.000000e+00 ( 0.000000e+00 +/- 0.000000e+00) [K]
Molecule-molecule
    Van der Waals/kʙ       -2.681459e+05 (-2.753364e+05 +/- 0.000000e+00) [K]
    Van der Waals (Tail)/kʙ-6.577149e+03 (-6.707728e+03 +/- 0.000000e+00) [K]
    Coulombic Real/kʙ      -8.919464e+04 (-8.876630e+04 +/- 0.000000e+00) [K]
    Coulombic Fourier/kʙ   -8.213003e+03 (-8.426218e+03 +/- 0.000000e+00) [K]
    Molecule Intra/kʙ       0.000000e+00 ( 0.000000e+00 +/- 0.000000e+00) [K]

Current cycle: 700 out of 5000
===============================================================================

Box:      25.82387   0.00000   0.00000  Average:  25.88691   0.00000   0.00000
           0.00000  25.82387   0.00000             0.00000  25.88691   0.00000
           0.00000   0.00000  25.82387             0.00000   0.00000  25.88691
Lengths:  25.82387  25.82387  25.82387  Average:  25.88691  25.88691  25.88691
Angles:   90.00000  90.00000  90.00000  Average:  90.00000  90.00000  90.00000
Rectangular boundary conditions

net charge:   0.00000000

component 0 (CO2) lambda:  0 occupancy:  1 (1.000000)
    net charge:   0.00000000 [e]

Amount of molecules per component :
-------------------------------------------------------------------------------
Component 0 (CO2)
    molecules:      2.500000e+02 molecules  (2.500000e+02 +/- 0.000000e+00)
    number density: 1.451696e-02 molec./A^3 (1.441530e-02 +/- 0.000000e+00)
    density:        1.060634e+03 kg/m^3     (1.053207e+03 +/- 0.000000e+00)

Average pressure tensor: 
-------------------------------------------------------------------------------
 1.0023e+02 -5.3845e+01  3.5164e+01 +/- 0.0000e+00 0.0000e+00 0.0000e+00 [bar]
-5.3845e+01 -7.2314e+01 -1.1125e+02 +/- 0.0000e+00 0.0000e+00 0.0000e+00 [bar]
 3.5164e+01 -1.1125e+02  1.9419e+02 +/- 0.0000e+00 0.0000e+00 0.0000e+00 [bar]
Ideal-gas pressure:   4.975623e+02 +/ 0.000000e+00 [bar]
Excess pressure:     -4.235288e+02 +/ 0.000000e+00 [bar]
Pressure:             7.403351e+01 +/ 0.000000e+00 [bar]

Total potential energy/kʙ  -3.889086e+05 (-3.795510e+05 +/- 0.000000e+00) [K]
-------------------------------------------------------------------------------
ExternalField-molecule
    Van der Waals/kʙ        0.000000e+00 ( 0.000000e+00 +/- 0.000000e+00) [K]
Framework-molecule
    Van der Waals/kʙ        0.000000e+00 ( 0.000000e+00 +/- 0.000000e+00) [K]
    Van der Waals (Tail)/kʙ 0.000000e+00 ( 0.000000e+00 +/- 0.000000e+00) [K]
    Coulombic Real/kʙ       0.000000e+00 ( 0.000000e+00 +/- 0.000000e+00) [K]
    Coulombic Fourier/kʙ    0.000000e+00 ( 0.000000e+00 +/- 0.000000e+00) [K]
Molecule-molecule
    Van der Waals/kʙ       -2.769172e+05 (-2.750509e+05 +/- 0.000000e+00) [K]
    Van der Waals (Tail)/kʙ-6.739878e+03 (-6.701429e+03 +/- 0.000000e+00) [K]
    Coulombic Real/kʙ      -9.660657e+04 (-8.935000e+04 +/- 0.000000e+00) [K]
    Coulombic Fourier/kʙ   -8.644948e+03 (-8.448671e+03 +/- 0.000000e+00) [K]
    Molecule Intra/kʙ       0.000000e+00 ( 0.000000e+00 +/- 0.000000e+00) [K]

Current cycle: 800 out of 5000
===============================================================================

Box:      25.44194   0.00000   0.00000  Average:  25.86263   0.00000   0.00000
           0.00000  25.44194   0.00000             0.00000  25.86263   0.00000
           0.00000   0.00000  25.44194             0.00000   0.00000  25.86263
Lengths:  25.44194  25.44194  25.44194  Average:  25.86263  25.86263  25.86263
Angles:   90.00000  90.00000  90.00000  Average:  90.00000  90.00000  90.00000
Rectangular boundary conditions

net charge:   0.00000000

component 0 (CO2) lambda:  0 occupancy:  1 (1.000000)
    net charge:   0.00000000 [e]

Amount of molecules per component :
-------------------------------------------------------------------------------
Component 0 (CO2)
    molecules:      2.500000e+02 molecules  (2.500000e+02 +/- 0.000000e+00)
    number density: 1.518061e-02 molec./A^3 (1.445626e-02 +/- 0.000000e+00)
    density:        1.109121e+03 kg/m^3     (1.056199e+03 +/- 0.000000e+00)

Average pressure tensor: 
-------------------------------------------------------------------------------
 7.0484e+01 -4.3697e+01  4.3790e+01 +/- 0.0000e+00 0.0000e+00 0.0000e+00 [bar]
-4.3697e+01 -5.3750e+01 -8.7730e+01 +/- 0.0000e+00 0.0000e+00 0.0000e+00 [bar]
 4.3790e+01 -8.7730e+01  1.9931e+02 +/- 0.0000e+00 0.0000e+00 0.0000e+00 [bar]
Ideal-gas pressure:   4.989759e+02 +/ 0.000000e+00 [bar]
Excess pressure:     -4.269623e+02 +/ 0.000000e+00 [bar]
Pressure:             7.201368e+01 +/ 0.000000e+00 [bar]

Total potential energy/kʙ  -3.998295e+05 (-3.812036e+05 +/- 0.000000e+00) [K]
-------------------------------------------------------------------------------
ExternalField-molecule
    Van der Waals/kʙ        0.000000e+00 ( 0.000000e+00 +/- 0.000000e+00) [K]
Framework-molecule
    Van der Waals/kʙ        0.000000e+00 ( 0.000000e+00 +/- 0.000000e+00) [K]
    Van der Waals (Tail)/kʙ 0.000000e+00 ( 0.000000e+00 +/- 0.000000e+00) [K]
    Coulombic Real/kʙ       0.000000e+00 ( 0.000000e+00 +/- 0.000000e+00) [K]
    Coulombic Fourier/kʙ    0.000000e+00 ( 0.000000e+00 +/- 0.000000e+00) [K]
Molecule-molecule
    Van der Waals/kʙ       -2.897807e+05 (-2.760430e+05 +/- 0.000000e+00) [K]
    Van der Waals (Tail)/kʙ-7.047992e+03 (-6.722335e+03 +/- 0.000000e+00) [K]
    Coulombic Real/kʙ      -9.436854e+04 (-8.995060e+04 +/- 0.000000e+00) [K]
    Coulombic Fourier/kʙ   -8.632274e+03 (-8.487669e+03 +/- 0.000000e+00) [K]
    Molecule Intra/kʙ       0.000000e+00 ( 0.000000e+00 +/- 0.000000e+00) [K]

Current cycle: 900 out of 5000
===============================================================================

Box:      25.99290   0.00000   0.00000  Average:  25.83541   0.00000   0.00000
           0.00000  25.99290   0.00000             0.00000  25.83541   0.00000
           0.00000   0.00000  25.99290             0.00000   0.00000  25.83541
Lengths:  25.99290  25.99290  25.99290  Average:  25.83541  25.83541  25.83541
Angles:   90.00000  90.00000  90.00000  Average:  90.00000  90.00000  90.00000
Rectangular boundary conditions

net charge:   0.00000000

component 0 (CO2) lambda:  0 occupancy:  1 (1.000000)
    net charge:   0.00000000 [e]

Amount of molecules per component :
-------------------------------------------------------------------------------
Component 0 (CO2)
    molecules:      2.500000e+02 molecules  (2.500000e+02 +/- 0.000000e+00)
    number density: 1.423559e-02 molec./A^3 (1.450259e-02 +/- 0.000000e+00)
    density:        1.040077e+03 kg/m^3     (1.059584e+03 +/- 0.000000e+00)

Average pressure tensor: 
-------------------------------------------------------------------------------
 3.1120e+01 -2.4825e+01  3.9162e+01 +/- 0.0000e+00 0.0000e+00 0.0000e+00 [bar]
-2.4825e+01 -3.8715e+01 -8.0725e+01 +/- 0.0000e+00 0.0000e+00 0.0000e+00 [bar]
 3.9162e+01 -8.0725e+01  1.6803e+02 +/- 0.0000e+00 0.0000e+00 0.0000e+00 [bar]
Ideal-gas pressure:   5.005753e+02 +/ 0.000000e+00 [bar]
Excess pressure:     -4.470968e+02 +/ 0.000000e+00 [bar]
Pressure:             5.347842e+01 +/ 0.000000e+00 [bar]

Total potential energy/kʙ  -3.775950e+05 (-3.823387e+05 +/- 0.000000e+00) [K]
-------------------------------------------------------------------------------
ExternalField-molecule
    Van der Waals/kʙ        0.000000e+00 ( 0.000000e+00 +/- 0.000000e+00) [K]
Framework-molecule
    Van der Waals/kʙ        0.000000e+00 ( 0.000000e+00 +/- 0.000000e+00) [K]
    Van der Waals (Tail)/kʙ 0.000000e+00 ( 0.000000e+00 +/- 0.000000e+00) [K]
    Coulombic Real/kʙ       0.000000e+00 ( 0.000000e+00 +/- 0.000000e+00) [K]
    Coulombic Fourier/kʙ    0.000000e+00 ( 0.000000e+00 +/- 0.000000e+00) [K]
Molecule-molecule
    Van der Waals/kʙ       -2.730777e+05 (-2.771209e+05 +/- 0.000000e+00) [K]
    Van der Waals (Tail)/kʙ-6.609245e+03 (-6.737243e+03 +/- 0.000000e+00) [K]
    Coulombic Real/kʙ      -8.941325e+04 (-8.997519e+04 +/- 0.000000e+00) [K]
    Coulombic Fourier/kʙ   -8.494807e+03 (-8.505382e+03 +/- 0.000000e+00) [K]
    Molecule Intra/kʙ       0.000000e+00 ( 0.000000e+00 +/- 0.000000e+00) [K]

Current cycle: 1000 out of 5000
===============================================================================

Box:      25.81956   0.00000   0.00000  Average:  25.82760   0.00000   0.00000
           0.00000  25.81956   0.00000             0.00000  25.82760   0.00000
           0.00000   0.00000  25.81956             0.00000   0.00000  25.82760
Lengths:  25.81956  25.81956  25.81956  Average:  25.82760  25.82760  25.82760
Angles:   90.00000  90.00000  90.00000  Average:  90.00000  90.00000  90.00000
Rectangular boundary conditions

net charge:   0.00000000

component 0 (CO2) lambda:  0 occupancy:  1 (1.000000)
    net charge:   0.00000000 [e]

Amount of molecules per component :
-------------------------------------------------------------------------------
Component 0 (CO2)
    molecules:      2.500000e+02 molecules  (2.500000e+02 +/- 0.000000e+00)
    number density: 1.452424e-02 molec./A^3 (1.451543e-02 +/- 0.000000e+00)
    density:        1.061166e+03 kg/m^3     (1.060522e+03 +/- 0.000000e+00)

Average pressure tensor: 
-------------------------------------------------------------------------------
 2.4649e+01 -4.5508e+01  4.9479e+01 +/- 0.0000e+00 0.0000e+00 0.0000e+00 [bar]
-4.5508e+01 -4.7664e+01 -7.4042e+01 +/- 0.0000e+00 0.0000e+00 0.0000e+00 [bar]
 4.9479e+01 -7.4042e+01  1.5745e+02 +/- 0.0000e+00 0.0000e+00 0.0000e+00 [bar]
Ideal-gas pressure:   5.010184e+02 +/ 0.000000e+00 [bar]
Excess pressure:     -4.562081e+02 +/ 0.000000e+00 [bar]
Pressure:             4.481021e+01 +/ 0.000000e+00 [bar]

Total potential energy/kʙ  -3.785280e+05 (-3.826594e+05 +/- 0.000000e+00) [K]
-------------------------------------------------------------------------------
ExternalField-molecule
    Van der Waals/kʙ        0.000000e+00 ( 0.000000e+00 +/- 0.000000e+00) [K]
Framework-molecule
    Van der Waals/kʙ        0.000000e+00 ( 0.000000e+00 +/- 0.000000e+00) [K]
    Van der Waals (Tail)/kʙ 0.000000e+00 ( 0.000000e+00 +/- 0.000000e+00) [K]
    Coulombic Real/kʙ       0.000000e+00 ( 0.000000e+00 +/- 0.000000e+00) [K]
    Coulombic Fourier/kʙ    0.000000e+00 ( 0.000000e+00 +/- 0.000000e+00) [K]
Molecule-molecule
    Van der Waals/kʙ       -2.793079e+05 (-2.775548e+05 +/- 0.000000e+00) [K]
    Van der Waals (Tail)/kʙ-6.743256e+03 (-6.740771e+03 +/- 0.000000e+00) [K]
    Coulombic Real/kʙ      -8.474072e+04 (-8.985282e+04 +/- 0.000000e+00) [K]
    Coulombic Fourier/kʙ   -7.736113e+03 (-8.510956e+03 +/- 0.000000e+00) [K]
    Molecule Intra/kʙ       0.000000e+00 ( 0.000000e+00 +/- 0.000000e+00) [K]

Current cycle: 1100 out of 5000
===============================================================================

Box:      26.16062   0.00000   0.00000  Average:  25.83960   0.00000   0.00000
           0.00000  26.16062   0.00000             0.00000  25.83960   0.00000
           0.00000   0.00000  26.16062             0.00000   0.00000  25.83960
Lengths:  26.16062  26.16062  26.16062  Average:  25.83960  25.83960  25.83960
Angles:   90.00000  90.00000  90.00000  Average:  90.00000  90.00000  90.00000
Rectangular boundary conditions

net charge:   0.00000000

component 0 (CO2) lambda:  0 occupancy:  1 (1.000000)
    net charge:   0.00000000 [e]

Amount of molecules per component :
-------------------------------------------------------------------------------
Component 0 (CO2)
    molecules:      2.500000e+02 molecules  (2.500000e+02 +/- 0.000000e+00)
    number density: 1.396355e-02 molec./A^3 (1.449510e-02 +/- 0.000000e+00)
    density:        1.020201e+03 kg/m^3     (1.059037e+03 +/- 0.000000e+00)

Average pressure tensor: 
-------------------------------------------------------------------------------
 4.2460e+01 -6.1712e+01  5.6640e+01 +/- 0.0000e+00 0.0000e+00 0.0000e+00 [bar]
-6.1712e+01 -1.5455e+01 -6.3995e+01 +/- 0.0000e+00 0.0000e+00 0.0000e+00 [bar]
 5.6640e+01 -6.3995e+01  1.4516e+02 +/- 0.0000e+00 0.0000e+00 0.0000e+00 [bar]
Ideal-gas pressure:   5.003165e+02 +/ 0.000000e+00 [bar]
Excess pressure:     -4.429288e+02 +/ 0.000000e+00 [bar]
Pressure:             5.738773e+01 +/ 0.000000e+00 [bar]

Total potential energy/kʙ  -3.724153e+05 (-3.817024e+05 +/- 0.000000e+00) [K]
-------------------------------------------------------------------------------
ExternalField-molecule
    Van der Waals/kʙ        0.000000e+00 ( 0.000000e+00 +/- 0.000000e+00) [K]
Framework-molecule
    Van der Waals/kʙ        0.000000e+00 ( 0.000000e+00 +/- 0.000000e+00) [K]
    Van der Waals (Tail)/kʙ 0.000000e+00 ( 0.000000e+00 +/- 0.000000e+00) [K]
    Coulombic Real/kʙ       0.000000e+00 ( 0.000000e+00 +/- 0.000000e+00) [K]
    Coulombic Fourier/kʙ    0.000000e+00 ( 0.000000e+00 +/- 0.000000e+00) [K]
Molecule-molecule
    Van der Waals/kʙ       -2.715603e+05 (-2.771188e+05 +/- 0.000000e+00) [K]
    Van der Waals (Tail)/kʙ-6.482943e+03 (-6.730860e+03 +/- 0.000000e+00) [K]
    Coulombic Real/kʙ      -8.591819e+04 (-8.938292e+04 +/- 0.000000e+00) [K]
    Coulombic Fourier/kʙ   -8.453923e+03 (-8.469782e+03 +/- 0.000000e+00) [K]
    Molecule Intra/kʙ       0.000000e+00 ( 0.000000e+00 +/- 0.000000e+00) [K]

Current cycle: 1200 out of 5000
===============================================================================

Box:      26.01912   0.00000   0.00000  Average:  25.86044   0.00000   0.00000
           0.00000  26.01912   0.00000             0.00000  25.86044   0.00000
           0.00000   0.00000  26.01912             0.00000   0.00000  25.86044
Lengths:  26.01912  26.01912  26.01912  Average:  25.86044  25.86044  25.86044
Angles:   90.00000  90.00000  90.00000  Average:  90.00000  90.00000  90.00000
Rectangular boundary conditions

net charge:   0.00000000

component 0 (CO2) lambda:  0 occupancy:  1 (1.000000)
    net charge:   0.00000000 [e]

Amount of molecules per component :
-------------------------------------------------------------------------------
Component 0 (CO2)
    molecules:      2.500000e+02 molecules  (2.500000e+02 +/- 0.000000e+00)
    number density: 1.419260e-02 molec./A^3 (1.446046e-02 +/- 0.000000e+00)
    density:        1.036936e+03 kg/m^3     (1.056506e+03 +/- 0.000000e+00)

Average pressure tensor: 
-------------------------------------------------------------------------------
 2.9345e+01 -5.0343e+01  5.2079e+01 +/- 0.0000e+00 0.0000e+00 0.0000e+00 [bar]
-5.0343e+01  7.5133e+00 -5.0361e+01 +/- 0.0000e+00 0.0000e+00 0.0000e+00 [bar]
 5.2079e+01 -5.0361e+01  1.1704e+02 +/- 0.0000e+00 0.0000e+00 0.0000e+00 [bar]
Ideal-gas pressure:   4.991208e+02 +/ 0.000000e+00 [bar]
Excess pressure:     -4.478227e+02 +/ 0.000000e+00 [bar]
Pressure:             5.129816e+01 +/ 0.000000e+00 [bar]

Total potential energy/kʙ  -3.635549e+05 (-3.805977e+05 +/- 0.000000e+00) [K]
-------------------------------------------------------------------------------
ExternalField-molecule
    Van der Waals/kʙ        0.000000e+00 ( 0.000000e+00 +/- 0.000000e+00) [K]
Framework-molecule
    Van der Waals/kʙ        0.000000e+00 ( 0.000000e+00 +/- 0.000000e+00) [K]
    Van der Waals (Tail)/kʙ 0.000000e+00 ( 0.000000e+00 +/- 0.000000e+00) [K]
    Coulombic Real/kʙ       0.000000e+00 ( 0.000000e+00 +/- 0.000000e+00) [K]
    Coulombic Fourier/kʙ    0.000000e+00 ( 0.000000e+00 +/- 0.000000e+00) [K]
Molecule-molecule
    Van der Waals/kʙ       -2.702377e+05 (-2.763990e+05 +/- 0.000000e+00) [K]
    Van der Waals (Tail)/kʙ-6.589284e+03 (-6.714526e+03 +/- 0.000000e+00) [K]
    Coulombic Real/kʙ      -7.878756e+04 (-8.904545e+04 +/- 0.000000e+00) [K]
    Coulombic Fourier/kʙ   -7.940376e+03 (-8.438736e+03 +/- 0.000000e+00) [K]
    Molecule Intra/kʙ       0.000000e+00 ( 0.000000e+00 +/- 0.000000e+00) [K]

Current cycle: 1300 out of 5000
===============================================================================

Box:      26.19326   0.00000   0.00000  Average:  25.87376   0.00000   0.00000
           0.00000  26.19326   0.00000             0.00000  25.87376   0.00000
           0.00000   0.00000  26.19326             0.00000   0.00000  25.87376
Lengths:  26.19326  26.19326  26.19326  Average:  25.87376  25.87376  25.87376
Angles:   90.00000  90.00000  90.00000  Average:  90.00000  90.00000  90.00000
Rectangular boundary conditions

net charge:   0.00000000

component 0 (CO2) lambda:  0 occupancy:  1 (1.000000)
    net charge:   0.00000000 [e]

Amount of molecules per component :
-------------------------------------------------------------------------------
Component 0 (CO2)
    molecules:      2.500000e+02 molecules  (2.500000e+02 +/- 0.000000e+00)
    number density: 1.391142e-02 molec./A^3 (1.443813e-02 +/- 0.000000e+00)
    density:        1.016392e+03 kg/m^3     (1.054875e+03 +/- 0.000000e+00)

Average pressure tensor: 
-------------------------------------------------------------------------------
 4.5833e+01 -5.0317e+01  5.7594e+01 +/- 0.0000e+00 0.0000e+00 0.0000e+00 [bar]
-5.0317e+01  1.5894e+01 -3.9874e+01 +/- 0.0000e+00 0.0000e+00 0.0000e+00 [bar]
 5.7594e+01 -3.9874e+01  1.0913e+02 +/- 0.0000e+00 0.0000e+00 0.0000e+00 [bar]
Ideal-gas pressure:   4.983503e+02 +/ 0.000000e+00 [bar]
Excess pressure:     -4.413968e+02 +/ 0.000000e+00 [bar]
Pressure:             5.695348e+01 +/ 0.000000e+00 [bar]

Total potential energy/kʙ  -3.638861e+05 (-3.796642e+05 +/- 0.000000e+00) [K]
-------------------------------------------------------------------------------
ExternalField-molecule
    Van der Waals/kʙ        0.000000e+00 ( 0.000000e+00 +/- 0.000000e+00) [K]
Framework-molecule
    Van der Waals/kʙ        0.000000e+00 ( 0.000000e+00 +/- 0.000000e+00) [K]
    Van der Waals (Tail)/kʙ 0.000000e+00 ( 0.000000e+00 +/- 0.000000e+00) [K]
    Coulombic Real/kʙ       0.000000e+00 ( 0.000000e+00 +/- 0.000000e+00) [K]
    Coulombic Fourier/kʙ    0.000000e+00 ( 0.000000e+00 +/- 0.000000e+00) [K]
Molecule-molecule
    Van der Waals/kʙ       -2.679837e+05 (-2.760238e+05 +/- 0.000000e+00) [K]
    Van der Waals (Tail)/kʙ-6.458739e+03 (-6.705219e+03 +/- 0.000000e+00) [K]
    Coulombic Real/kʙ      -8.143542e+04 (-8.853654e+04 +/- 0.000000e+00) [K]
    Coulombic Fourier/kʙ   -8.008235e+03 (-8.398631e+03 +/- 0.000000e+00) [K]
    Molecule Intra/kʙ       0.000000e+00 ( 0.000000e+00 +/- 0.000000e+00) [K]

Current cycle: 1400 out of 5000
===============================================================================

Box:      26.44880   0.00000   0.00000  Average:  25.89590   0.00000   0.00000
           0.00000  26.44880   0.00000             0.00000  25.89590   0.00000
           0.00000   0.00000  26.44880             0.00000   0.00000  25.89590
Lengths:  26.44880  26.44880  26.44880  Average:  25.89590  25.89590  25.89590
Angles:   90.00000  90.00000  90.00000  Average:  90.00000  90.00000  90.00000
Rectangular boundary conditions

net charge:   0.00000000

component 0 (CO2) lambda:  0 occupancy:  1 (1.000000)
    net charge:   0.00000000 [e]

Amount of molecules per component :
-------------------------------------------------------------------------------
Component 0 (CO2)
    molecules:      2.500000e+02 molecules  (2.500000e+02 +/- 0.000000e+00)
    number density: 1.351208e-02 molec./A^3 (1.440186e-02 +/- 0.000000e+00)
    density:        9.872153e+02 kg/m^3     (1.052225e+03 +/- 0.000000e+00)

Average pressure tensor: 
-------------------------------------------------------------------------------
 3.5263e+01 -4.9029e+01  5.9905e+01 +/- 0.0000e+00 0.0000e+00 0.0000e+00 [bar]
-4.9029e+01  5.5621e+00 -3.9018e+01 +/- 0.0000e+00 0.0000e+00 0.0000e+00 [bar]
 5.9905e+01 -3.9018e+01  1.2326e+02 +/- 0.0000e+00 0.0000e+00 0.0000e+00 [bar]
Ideal-gas pressure:   4.970984e+02 +/ 0.000000e+00 [bar]
Excess pressure:     -4.424032e+02 +/ 0.000000e+00 [bar]
Pressure:             5.469517e+01 +/ 0.000000e+00 [bar]

Total potential energy/kʙ  -3.531877e+05 (-3.786786e+05 +/- 0.000000e+00) [K]
-------------------------------------------------------------------------------
ExternalField-molecule
    Van der Waals/kʙ        0.000000e+00 ( 0.000000e+00 +/- 0.000000e+00) [K]
Framework-molecule
    Van der Waals/kʙ        0.000000e+00 ( 0.000000e+00 +/- 0.000000e+00) [K]
    Van der Waals (Tail)/kʙ 0.000000e+00 ( 0.000000e+00 +/- 0.000000e+00) [K]
    Coulombic Real/kʙ       0.000000e+00 ( 0.000000e+00 +/- 0.000000e+00) [K]
    Coulombic Fourier/kʙ    0.000000e+00 ( 0.000000e+00 +/- 0.000000e+00) [K]
Molecule-molecule
    Van der Waals/kʙ       -2.543236e+05 (-2.752963e+05 +/- 0.000000e+00) [K]
    Van der Waals (Tail)/kʙ-6.273332e+03 (-6.688468e+03 +/- 0.000000e+00) [K]
    Coulombic Real/kʙ      -8.455466e+04 (-8.831559e+04 +/- 0.000000e+00) [K]
    Coulombic Fourier/kʙ   -8.036084e+03 (-8.378260e+03 +/- 0.000000e+00) [K]
    Molecule Intra/kʙ       0.000000e+00 ( 0.000000e+00 +/- 0.000000e+00) [K]

Current cycle: 1500 out of 5000
===============================================================================

Box:      26.07060   0.00000   0.00000  Average:  25.91308   0.00000   0.00000
           0.00000  26.07060   0.00000             0.00000  25.91308   0.00000
           0.00000   0.00000  26.07060             0.00000   0.00000  25.91308
Lengths:  26.07060  26.07060  26.07060  Average:  25.91308  25.91308  25.91308
Angles:   90.00000  90.00000  90.00000  Average:  90.00000  90.00000  90.00000
Rectangular boundary conditions

net charge:   0.00000000

component 0 (CO2) lambda:  0 occupancy:  1 (1.000000)
    net charge:   0.00000000 [e]

Amount of molecules per component :
-------------------------------------------------------------------------------
Component 0 (CO2)
    molecules:      2.500000e+02 molecules  (2.500000e+02 +/- 0.000000e+00)
    number density: 1.410870e-02 molec./A^3 (1.437358e-02 +/- 0.000000e+00)
    density:        1.030806e+03 kg/m^3     (1.050158e+03 +/- 0.000000e+00)

Average pressure tensor: 
-------------------------------------------------------------------------------
 5.5399e+01 -4.8678e+01  5.6615e+01 +/- 0.0000e+00 0.0000e+00 0.0000e+00 [bar]
-4.8678e+01  3.0788e+01 -3.3462e+01 +/- 0.0000e+00 0.0000e+00 0.0000e+00 [bar]
 5.6615e+01 -3.3462e+01  1.1673e+02 +/- 0.0000e+00 0.0000e+00 0.0000e+00 [bar]
Ideal-gas pressure:   4.961222e+02 +/ 0.000000e+00 [bar]
Excess pressure:     -4.284831e+02 +/ 0.000000e+00 [bar]
Pressure:             6.763904e+01 +/ 0.000000e+00 [bar]

Total potential energy/kʙ  -3.749253e+05 (-3.779208e+05 +/- 0.000000e+00) [K]
-------------------------------------------------------------------------------
ExternalField-molecule
    Van der Waals/kʙ        0.000000e+00 ( 0.000000e+00 +/- 0.000000e+00) [K]
Framework-molecule
    Van der Waals/kʙ        0.000000e+00 ( 0.000000e+00 +/- 0.000000e+00) [K]
    Van der Waals (Tail)/kʙ 0.000000e+00 ( 0.000000e+00 +/- 0.000000e+00) [K]
    Coulombic Real/kʙ       0.000000e+00 ( 0.000000e+00 +/- 0.000000e+00) [K]
    Coulombic Fourier/kʙ    0.000000e+00 ( 0.000000e+00 +/- 0.000000e+00) [K]
Molecule-molecule
    Van der Waals/kʙ       -2.724973e+05 (-2.746205e+05 +/- 0.000000e+00) [K]
    Van der Waals (Tail)/kʙ-6.550331e+03 (-6.677699e+03 +/- 0.000000e+00) [K]
    Coulombic Real/kʙ      -8.783427e+04 (-8.827337e+04 +/- 0.000000e+00) [K]
    Coulombic Fourier/kʙ   -8.043360e+03 (-8.349211e+03 +/- 0.000000e+00) [K]
    Molecule Intra/kʙ       0.000000e+00 ( 0.000000e+00 +/- 0.000000e+00) [K]

Current cycle: 1600 out of 5000
===============================================================================

Box:      26.05564   0.00000   0.00000  Average:  25.91415   0.00000   0.00000
           0.00000  26.05564   0.00000             0.00000  25.91415   0.00000
           0.00000   0.00000  26.05564             0.00000   0.00000  25.91415
Lengths:  26.05564  26.05564  26.05564  Average:  25.91415  25.91415  25.91415
Angles:   90.00000  90.00000  90.00000  Average:  90.00000  90.00000  90.00000
Rectangular boundary conditions

net charge:   0.00000000

component 0 (CO2) lambda:  0 occupancy:  1 (1.000000)
    net charge:   0.00000000 [e]

Amount of molecules per component :
-------------------------------------------------------------------------------
Component 0 (CO2)
    molecules:      2.500000e+02 molecules  (2.500000e+02 +/- 0.000000e+00)
    number density: 1.413301e-02 molec./A^3 (1.437155e-02 +/- 0.000000e+00)
    density:        1.032582e+03 kg/m^3     (1.050010e+03 +/- 0.000000e+00)

Average pressure tensor: 
-------------------------------------------------------------------------------
 5.6297e+01 -5.1705e+01  5.1364e+01 +/- 0.0000e+00 0.0000e+00 0.0000e+00 [bar]
-5.1705e+01  1.8393e+01 -3.1809e+01 +/- 0.0000e+00 0.0000e+00 0.0000e+00 [bar]
 5.1364e+01 -3.1809e+01  1.0950e+02 +/- 0.0000e+00 0.0000e+00 0.0000e+00 [bar]
Ideal-gas pressure:   4.960520e+02 +/ 0.000000e+00 [bar]
Excess pressure:     -4.346555e+02 +/ 0.000000e+00 [bar]
Pressure:             6.139649e+01 +/ 0.000000e+00 [bar]

Total potential energy/kʙ  -3.749700e+05 (-3.778807e+05 +/- 0.000000e+00) [K]
-------------------------------------------------------------------------------
ExternalField-molecule
    Van der Waals/kʙ        0.000000e+00 ( 0.000000e+00 +/- 0.000000e+00) [K]
Framework-molecule
    Van der Waals/kʙ        0.000000e+00 ( 0.000000e+00 +/- 0.000000e+00) [K]
    Van der Waals (Tail)/kʙ 0.000000e+00 ( 0.000000e+00 +/- 0.000000e+00) [K]
    Coulombic Real/kʙ       0.000000e+00 ( 0.000000e+00 +/- 0.000000e+00) [K]
    Coulombic Fourier/kʙ    0.000000e+00 ( 0.000000e+00 +/- 0.000000e+00) [K]
Molecule-molecule
    Van der Waals/kʙ       -2.754347e+05 (-2.745975e+05 +/- 0.000000e+00) [K]
    Van der Waals (Tail)/kʙ-6.561616e+03 (-6.674192e+03 +/- 0.000000e+00) [K]
    Coulombic Real/kʙ      -8.465217e+04 (-8.825989e+04 +/- 0.000000e+00) [K]
    Coulombic Fourier/kʙ   -8.321497e+03 (-8.349090e+03 +/- 0.000000e+00) [K]
    Molecule Intra/kʙ       0.000000e+00 ( 0.000000e+00 +/- 0.000000e+00) [K]

Current cycle: 1700 out of 5000
===============================================================================

Box:      25.93432   0.00000   0.00000  Average:  25.91583   0.00000   0.00000
           0.00000  25.93432   0.00000             0.00000  25.91583   0.00000
           0.00000   0.00000  25.93432             0.00000   0.00000  25.91583
Lengths:  25.93432  25.93432  25.93432  Average:  25.91583  25.91583  25.91583
Angles:   90.00000  90.00000  90.00000  Average:  90.00000  90.00000  90.00000
Rectangular boundary conditions

net charge:   0.00000000

component 0 (CO2) lambda:  0 occupancy:  1 (1.000000)
    net charge:   0.00000000 [e]

Amount of molecules per component :
-------------------------------------------------------------------------------
Component 0 (CO2)
    molecules:      2.500000e+02 molecules  (2.500000e+02 +/- 0.000000e+00)
    number density: 1.433229e-02 molec./A^3 (1.436850e-02 +/- 0.000000e+00)
    density:        1.047142e+03 kg/m^3     (1.049788e+03 +/- 0.000000e+00)

Average pressure tensor: 
-------------------------------------------------------------------------------
 5.0370e+01 -4.8050e+01  5.1439e+01 +/- 0.0000e+00 0.0000e+00 0.0000e+00 [bar]
-4.8050e+01  2.0718e+01 -2.8063e+01 +/- 0.0000e+00 0.0000e+00 0.0000e+00 [bar]
 5.1439e+01 -2.8063e+01  9.6721e+01 +/- 0.0000e+00 0.0000e+00 0.0000e+00 [bar]
Ideal-gas pressure:   4.959470e+02 +/ 0.000000e+00 [bar]
Excess pressure:     -4.400107e+02 +/ 0.000000e+00 [bar]
Pressure:             5.593629e+01 +/ 0.000000e+00 [bar]

Total potential energy/kʙ  -3.745463e+05 (-3.776616e+05 +/- 0.000000e+00) [K]
-------------------------------------------------------------------------------
ExternalField-molecule
    Van der Waals/kʙ        0.000000e+00 ( 0.000000e+00 +/- 0.000000e+00) [K]
Framework-molecule
    Van der Waals/kʙ        0.000000e+00 ( 0.000000e+00 +/- 0.000000e+00) [K]
    Van der Waals (Tail)/kʙ 0.000000e+00 ( 0.000000e+00 +/- 0.000000e+00) [K]
    Coulombic Real/kʙ       0.000000e+00 ( 0.000000e+00 +/- 0.000000e+00) [K]
    Coulombic Fourier/kʙ    0.000000e+00 ( 0.000000e+00 +/- 0.000000e+00) [K]
Molecule-molecule
    Van der Waals/kʙ       -2.702306e+05 (-2.744966e+05 +/- 0.000000e+00) [K]
    Van der Waals (Tail)/kʙ-6.654138e+03 (-6.671666e+03 +/- 0.000000e+00) [K]
    Coulombic Real/kʙ      -8.896770e+04 (-8.815707e+04 +/- 0.000000e+00) [K]
    Coulombic Fourier/kʙ   -8.693854e+03 (-8.336283e+03 +/- 0.000000e+00) [K]
    Molecule Intra/kʙ       0.000000e+00 ( 0.000000e+00 +/- 0.000000e+00) [K]

Current cycle: 1800 out of 5000
===============================================================================

Box:      25.83468   0.00000   0.00000  Average:  25.91145   0.00000   0.00000
           0.00000  25.83468   0.00000             0.00000  25.91145   0.00000
           0.00000   0.00000  25.83468             0.00000   0.00000  25.91145
Lengths:  25.83468  25.83468  25.83468  Average:  25.91145  25.91145  25.91145
Angles:   90.00000  90.00000  90.00000  Average:  90.00000  90.00000  90.00000
Rectangular boundary conditions

net charge:   0.00000000

component 0 (CO2) lambda:  0 occupancy:  1 (1.000000)
    net charge:   0.00000000 [e]

Amount of molecules per component :
-------------------------------------------------------------------------------
Component 0 (CO2)
    molecules:      2.500000e+02 molecules  (2.500000e+02 +/- 0.000000e+00)
    number density: 1.449876e-02 molec./A^3 (1.437557e-02 +/- 0.000000e+00)
    density:        1.059304e+03 kg/m^3     (1.050304e+03 +/- 0.000000e+00)

Average pressure tensor: 
-------------------------------------------------------------------------------
 5.0722e+01 -3.5052e+01  4.8554e+01 +/- 0.0000e+00 0.0000e+00 0.0000e+00 [bar]
-3.5052e+01  2.3961e+01 -3.5717e+01 +/- 0.0000e+00 0.0000e+00 0.0000e+00 [bar]
 4.8554e+01 -3.5717e+01  8.7454e+01 +/- 0.0000e+00 0.0000e+00 0.0000e+00 [bar]
Ideal-gas pressure:   4.961908e+02 +/ 0.000000e+00 [bar]
Excess pressure:     -4.421450e+02 +/ 0.000000e+00 [bar]
Pressure:             5.404580e+01 +/ 0.000000e+00 [bar]

Total potential energy/kʙ  -3.799666e+05 (-3.777100e+05 +/- 0.000000e+00) [K]
-------------------------------------------------------------------------------
ExternalField-molecule
    Van der Waals/kʙ        0.000000e+00 ( 0.000000e+00 +/- 0.000000e+00) [K]
Framework-molecule
    Van der Waals/kʙ        0.000000e+00 ( 0.000000e+00 +/- 0.000000e+00) [K]
    Van der Waals (Tail)/kʙ 0.000000e+00 ( 0.000000e+00 +/- 0.000000e+00) [K]
    Coulombic Real/kʙ       0.000000e+00 ( 0.000000e+00 +/- 0.000000e+00) [K]
    Coulombic Fourier/kʙ    0.000000e+00 ( 0.000000e+00 +/- 0.000000e+00) [K]
Molecule-molecule
    Van der Waals/kʙ       -2.747173e+05 (-2.746098e+05 +/- 0.000000e+00) [K]
    Van der Waals (Tail)/kʙ-6.731426e+03 (-6.675273e+03 +/- 0.000000e+00) [K]
    Coulombic Real/kʙ      -9.063040e+04 (-8.810023e+04 +/- 0.000000e+00) [K]
    Coulombic Fourier/kʙ   -7.887534e+03 (-8.324785e+03 +/- 0.000000e+00) [K]
    Molecule Intra/kʙ       0.000000e+00 ( 0.000000e+00 +/- 0.000000e+00) [K]

Current cycle: 1900 out of 5000
===============================================================================

Box:      26.12837   0.00000   0.00000  Average:  25.91422   0.00000   0.00000
           0.00000  26.12837   0.00000             0.00000  25.91422   0.00000
           0.00000   0.00000  26.12837             0.00000   0.00000  25.91422
Lengths:  26.12837  26.12837  26.12837  Average:  25.91422  25.91422  25.91422
Angles:   90.00000  90.00000  90.00000  Average:  90.00000  90.00000  90.00000
Rectangular boundary conditions

net charge:   0.00000000

component 0 (CO2) lambda:  0 occupancy:  1 (1.000000)
    net charge:   0.00000000 [e]

Amount of molecules per component :
-------------------------------------------------------------------------------
Component 0 (CO2)
    molecules:      2.500000e+02 molecules  (2.500000e+02 +/- 0.000000e+00)
    number density: 1.401533e-02 molec./A^3 (1.437088e-02 +/- 0.000000e+00)
    density:        1.023984e+03 kg/m^3     (1.049961e+03 +/- 0.000000e+00)

Average pressure tensor: 
-------------------------------------------------------------------------------
 6.3549e+01 -2.5492e+01  3.9796e+01 +/- 0.0000e+00 0.0000e+00 0.0000e+00 [bar]
-2.5492e+01  1.4691e+01 -4.3199e+01 +/- 0.0000e+00 0.0000e+00 0.0000e+00 [bar]
 3.9796e+01 -4.3199e+01  8.3891e+01 +/- 0.0000e+00 0.0000e+00 0.0000e+00 [bar]
Ideal-gas pressure:   4.960291e+02 +/ 0.000000e+00 [bar]
Excess pressure:     -4.419854e+02 +/ 0.000000e+00 [bar]
Pressure:             5.404363e+01 +/ 0.000000e+00 [bar]

Total potential energy/kʙ  -3.706304e+05 (-3.776645e+05 +/- 0.000000e+00) [K]
-------------------------------------------------------------------------------
ExternalField-molecule
    Van der Waals/kʙ        0.000000e+00 ( 0.000000e+00 +/- 0.000000e+00) [K]
Framework-molecule
    Van der Waals/kʙ        0.000000e+00 ( 0.000000e+00 +/- 0.000000e+00) [K]
    Van der Waals (Tail)/kʙ 0.000000e+00 ( 0.000000e+00 +/- 0.000000e+00) [K]
    Coulombic Real/kʙ       0.000000e+00 ( 0.000000e+00 +/- 0.000000e+00) [K]
    Coulombic Fourier/kʙ    0.000000e+00 ( 0.000000e+00 +/- 0.000000e+00) [K]
Molecule-molecule
    Van der Waals/kʙ       -2.716678e+05 (-2.745085e+05 +/- 0.000000e+00) [K]
    Van der Waals (Tail)/kʙ-6.506981e+03 (-6.672234e+03 +/- 0.000000e+00) [K]
    Coulombic Real/kʙ      -8.366590e+04 (-8.813810e+04 +/- 0.000000e+00) [K]
    Coulombic Fourier/kʙ   -8.789659e+03 (-8.345571e+03 +/- 0.000000e+00) [K]
    Molecule Intra/kʙ       0.000000e+00 ( 0.000000e+00 +/- 0.000000e+00) [K]

Current cycle: 2000 out of 5000
===============================================================================

Box:      25.94507   0.00000   0.00000  Average:  25.91973   0.00000   0.00000
           0.00000  25.94507   0.00000             0.00000  25.91973   0.00000
           0.00000   0.00000  25.94507             0.00000   0.00000  25.91973
Lengths:  25.94507  25.94507  25.94507  Average:  25.91973  25.91973  25.91973
Angles:   90.00000  90.00000  90.00000  Average:  90.00000  90.00000  90.00000
Rectangular boundary conditions

net charge:   0.00000000

component 0 (CO2) lambda:  0 occupancy:  1 (1.000000)
    net charge:   0.00000000 [e]

Amount of molecules per component :
-------------------------------------------------------------------------------
Component 0 (CO2)
    molecules:      2.500000e+02 molecules  (2.500000e+02 +/- 0.000000e+00)
    number density: 1.431448e-02 molec./A^3 (1.436160e-02 +/- 0.000000e+00)
    density:        1.045841e+03 kg/m^3     (1.049283e+03 +/- 0.000000e+00)

Average pressure tensor: 
-------------------------------------------------------------------------------
 5.8513e+01 -2.2023e+01  3.4175e+01 +/- 0.0000e+00 0.0000e+00 0.0000e+00 [bar]
-2.2023e+01  6.9175e+00 -4.2717e+01 +/- 0.0000e+00 0.0000e+00 0.0000e+00 [bar]
 3.4175e+01 -4.2717e+01  7.7913e+01 +/- 0.0000e+00 0.0000e+00 0.0000e+00 [bar]
Ideal-gas pressure:   4.957087e+02 +/ 0.000000e+00 [bar]
Excess pressure:     -4.479277e+02 +/ 0.000000e+00 [bar]
Pressure:             4.778103e+01 +/ 0.000000e+00 [bar]

Total potential energy/kʙ  -3.763992e+05 (-3.773148e+05 +/- 0.000000e+00) [K]
-------------------------------------------------------------------------------
ExternalField-molecule
    Van der Waals/kʙ        0.000000e+00 ( 0.000000e+00 +/- 0.000000e+00) [K]
Framework-molecule
    Van der Waals/kʙ        0.000000e+00 ( 0.000000e+00 +/- 0.000000e+00) [K]
    Van der Waals (Tail)/kʙ 0.000000e+00 ( 0.000000e+00 +/- 0.000000e+00) [K]
    Coulombic Real/kʙ       0.000000e+00 ( 0.000000e+00 +/- 0.000000e+00) [K]
    Coulombic Fourier/kʙ    0.000000e+00 ( 0.000000e+00 +/- 0.000000e+00) [K]
Molecule-molecule
    Van der Waals/kʙ       -2.736589e+05 (-2.743861e+05 +/- 0.000000e+00) [K]
    Van der Waals (Tail)/kʙ-6.645871e+03 (-6.667125e+03 +/- 0.000000e+00) [K]
    Coulombic Real/kʙ      -8.763241e+04 (-8.791183e+04 +/- 0.000000e+00) [K]
    Coulombic Fourier/kʙ   -8.461962e+03 (-8.349694e+03 +/- 0.000000e+00) [K]
    Molecule Intra/kʙ       0.000000e+00 ( 0.000000e+00 +/- 0.000000e+00) [K]

Current cycle: 2100 out of 5000
===============================================================================

Box:      25.48598   0.00000   0.00000  Average:  25.91756   0.00000   0.00000
           0.00000  25.48598   0.00000             0.00000  25.91756   0.00000
           0.00000   0.00000  25.48598             0.00000   0.00000  25.91756
Lengths:  25.48598  25.48598  25.48598  Average:  25.91756  25.91756  25.91756
Angles:   90.00000  90.00000  90.00000  Average:  90.00000  90.00000  90.00000
Rectangular boundary conditions

net charge:   0.00000000

component 0 (CO2) lambda:  0 occupancy:  1 (1.000000)
    net charge:   0.00000000 [e]

Amount of molecules per component :
-------------------------------------------------------------------------------
Component 0 (CO2)
    molecules:      2.500000e+02 molecules  (2.500000e+02 +/- 0.000000e+00)
    number density: 1.510205e-02 molec./A^3 (1.436504e-02 +/- 0.000000e+00)
    density:        1.103381e+03 kg/m^3     (1.049535e+03 +/- 0.000000e+00)

Average pressure tensor: 
-------------------------------------------------------------------------------
 5.1307e+01 -1.2173e+01  3.3053e+01 +/- 0.0000e+00 0.0000e+00 0.0000e+00 [bar]
-1.2173e+01  6.1106e+00 -3.2666e+01 +/- 0.0000e+00 0.0000e+00 0.0000e+00 [bar]
 3.3053e+01 -3.2666e+01  8.2275e+01 +/- 0.0000e+00 0.0000e+00 0.0000e+00 [bar]
Ideal-gas pressure:   4.958276e+02 +/ 0.000000e+00 [bar]
Excess pressure:     -4.492633e+02 +/ 0.000000e+00 [bar]
Pressure:             4.656426e+01 +/ 0.000000e+00 [bar]

Total potential energy/kʙ  -3.947110e+05 (-3.774483e+05 +/- 0.000000e+00) [K]
-------------------------------------------------------------------------------
ExternalField-molecule
    Van der Waals/kʙ        0.000000e+00 ( 0.000000e+00 +/- 0.000000e+00) [K]
Framework-molecule
    Van der Waals/kʙ        0.000000e+00 ( 0.000000e+00 +/- 0.000000e+00) [K]
    Van der Waals (Tail)/kʙ 0.000000e+00 ( 0.000000e+00 +/- 0.000000e+00) [K]
[...]
    Coulombic Fourier/kʙ    0.000000e+00 ( 0.000000e+00 +/- 0.000000e+00) [K]
Molecule-molecule
    Van der Waals/kʙ       -2.740729e+05 (-2.755331e+05 +/- 4.116682e+03) [K]
    Van der Waals (Tail)/kʙ-6.652631e+03 (-6.688226e+03 +/- 9.054809e+01) [K]
    Coulombic Real/kʙ      -8.336671e+04 (-8.861933e+04 +/- 1.964004e+03) [K]
    Coulombic Fourier/kʙ   -7.622133e+03 (-8.397723e+03 +/- 2.316657e+02) [K]
    Molecule Intra/kʙ       0.000000e+00 ( 0.000000e+00 +/- 0.000000e+00) [K]

Current cycle: 4700 out of 5000
===============================================================================

Box:      25.94530   0.00000   0.00000  Average:  25.89682   0.00000   0.00000
           0.00000  25.94530   0.00000             0.00000  25.89682   0.00000
           0.00000   0.00000  25.94530             0.00000   0.00000  25.89682
Lengths:  25.94530  25.94530  25.94530  Average:  25.89682  25.89682  25.89682
Angles:   90.00000  90.00000  90.00000  Average:  90.00000  90.00000  90.00000
Rectangular boundary conditions

net charge:   0.00000000

component 0 (CO2) lambda:  0 occupancy:  1 (1.000000)
    net charge:   0.00000000 [e]

Amount of molecules per component :
-------------------------------------------------------------------------------
Component 0 (CO2)
    molecules:      2.500000e+02 molecules  (2.500000e+02 +/- 3.944933e-14)
    number density: 1.431409e-02 molec./A^3 (1.440066e-02 +/- 1.948701e-04)
    density:        1.045812e+03 kg/m^3     (1.052137e+03 +/- 1.423754e+01)

Average pressure tensor: 
-------------------------------------------------------------------------------
 5.3044e+01 -1.2377e+01  6.9450e+00 +/- 4.8755e+01 7.8920e+01 4.2757e+01 [bar]
-1.2377e+01  3.8842e+01 -3.3611e+01 +/- 7.8920e+01 6.4096e+01 3.7737e+01 [bar]
 6.9450e+00 -3.3611e+01  6.6274e+01 +/- 4.2757e+01 3.7737e+01 7.9101e+01 [bar]
Ideal-gas pressure:   4.970570e+02 +/ 6.726187e+00 [bar]
Excess pressure:     -4.443370e+02 +/ 2.517052e+01 [bar]
Pressure:             5.272006e+01 +/ 2.209868e+01 [bar]

Total potential energy/kʙ  -3.756996e+05 (-3.791139e+05 +/- 6.122351e+03) [K]
-------------------------------------------------------------------------------
ExternalField-molecule
    Van der Waals/kʙ        0.000000e+00 ( 0.000000e+00 +/- 0.000000e+00) [K]
Framework-molecule
    Van der Waals/kʙ        0.000000e+00 ( 0.000000e+00 +/- 0.000000e+00) [K]
    Van der Waals (Tail)/kʙ 0.000000e+00 ( 0.000000e+00 +/- 0.000000e+00) [K]
    Coulombic Real/kʙ       0.000000e+00 ( 0.000000e+00 +/- 0.000000e+00) [K]
    Coulombic Fourier/kʙ    0.000000e+00 ( 0.000000e+00 +/- 0.000000e+00) [K]
Molecule-molecule
    Van der Waals/kʙ       -2.706939e+05 (-2.754750e+05 +/- 4.078731e+03) [K]
    Van der Waals (Tail)/kʙ-6.645689e+03 (-6.686967e+03 +/- 8.978647e+01) [K]
    Coulombic Real/kʙ      -9.032329e+04 (-8.855880e+04 +/- 1.957765e+03) [K]
    Coulombic Fourier/kʙ   -8.036635e+03 (-8.393223e+03 +/- 2.305876e+02) [K]
    Molecule Intra/kʙ       0.000000e+00 ( 0.000000e+00 +/- 0.000000e+00) [K]

Current cycle: 4800 out of 5000
===============================================================================

Box:      25.93584   0.00000   0.00000  Average:  25.89904   0.00000   0.00000
           0.00000  25.93584   0.00000             0.00000  25.89904   0.00000
           0.00000   0.00000  25.93584             0.00000   0.00000  25.89904
Lengths:  25.93584  25.93584  25.93584  Average:  25.89904  25.89904  25.89904
Angles:   90.00000  90.00000  90.00000  Average:  90.00000  90.00000  90.00000
Rectangular boundary conditions

net charge:   0.00000000

component 0 (CO2) lambda:  0 occupancy:  1 (1.000000)
    net charge:   0.00000000 [e]

Amount of molecules per component :
-------------------------------------------------------------------------------
Component 0 (CO2)
    molecules:      2.500000e+02 molecules  (2.500000e+02 +/- 0.000000e+00)
    number density: 1.432977e-02 molec./A^3 (1.439689e-02 +/- 1.951536e-04)
    density:        1.046958e+03 kg/m^3     (1.051862e+03 +/- 1.425826e+01)

Average pressure tensor: 
-------------------------------------------------------------------------------
 5.5827e+01 -1.3613e+01  7.9589e+00 +/- 5.2599e+01 7.7535e+01 4.3393e+01 [bar]
-1.3613e+01  3.8750e+01 -3.6890e+01 +/- 7.7535e+01 6.2419e+01 3.2418e+01 [bar]
 7.9589e+00 -3.6890e+01  6.5464e+01 +/- 4.3393e+01 3.2418e+01 7.9302e+01 [bar]
Ideal-gas pressure:   4.969268e+02 +/ 6.735973e+00 [bar]
Excess pressure:     -4.435800e+02 +/ 2.553543e+01 [bar]
Pressure:             5.334684e+01 +/ 2.241828e+01 [bar]

Total potential energy/kʙ  -3.707135e+05 (-3.789421e+05 +/- 6.249194e+03) [K]
-------------------------------------------------------------------------------
ExternalField-molecule
    Van der Waals/kʙ        0.000000e+00 ( 0.000000e+00 +/- 0.000000e+00) [K]
Framework-molecule
    Van der Waals/kʙ        0.000000e+00 ( 0.000000e+00 +/- 0.000000e+00) [K]
    Van der Waals (Tail)/kʙ 0.000000e+00 ( 0.000000e+00 +/- 0.000000e+00) [K]
    Coulombic Real/kʙ       0.000000e+00 ( 0.000000e+00 +/- 0.000000e+00) [K]
    Coulombic Fourier/kʙ    0.000000e+00 ( 0.000000e+00 +/- 0.000000e+00) [K]
Molecule-molecule
    Van der Waals/kʙ       -2.685272e+05 (-2.753845e+05 +/- 4.112766e+03) [K]
    Van der Waals (Tail)/kʙ-6.652969e+03 (-6.685279e+03 +/- 9.006281e+01) [K]
    Coulombic Real/kʙ      -8.746597e+04 (-8.849021e+04 +/- 1.978133e+03) [K]
    Coulombic Fourier/kʙ   -8.067334e+03 (-8.382114e+03 +/- 2.442806e+02) [K]
    Molecule Intra/kʙ       0.000000e+00 ( 0.000000e+00 +/- 0.000000e+00) [K]

Current cycle: 4900 out of 5000
===============================================================================

Box:      26.07132   0.00000   0.00000  Average:  25.90073   0.00000   0.00000
           0.00000  26.07132   0.00000             0.00000  25.90073   0.00000
           0.00000   0.00000  26.07132             0.00000   0.00000  25.90073
Lengths:  26.07132  26.07132  26.07132  Average:  25.90073  25.90073  25.90073
Angles:   90.00000  90.00000  90.00000  Average:  90.00000  90.00000  90.00000
Rectangular boundary conditions

net charge:   0.00000000

component 0 (CO2) lambda:  0 occupancy:  1 (1.000000)
    net charge:   0.00000000 [e]

Amount of molecules per component :
-------------------------------------------------------------------------------
Component 0 (CO2)
    molecules:      2.500000e+02 molecules  (2.500000e+02 +/- 0.000000e+00)
    number density: 1.410753e-02 molec./A^3 (1.439399e-02 +/- 1.942132e-04)
    density:        1.030720e+03 kg/m^3     (1.051650e+03 +/- 1.418955e+01)

Average pressure tensor: 
-------------------------------------------------------------------------------
 5.6648e+01 -1.4016e+01  8.0207e+00 +/- 5.2055e+01 7.4932e+01 4.2957e+01 [bar]
-1.4016e+01  3.9157e+01 -3.6625e+01 +/- 7.4932e+01 6.1859e+01 3.2439e+01 [bar]
 8.0207e+00 -3.6625e+01  6.1838e+01 +/- 4.2957e+01 3.2439e+01 8.1772e+01 [bar]
Ideal-gas pressure:   4.968267e+02 +/ 6.703512e+00 [bar]
Excess pressure:     -4.442792e+02 +/ 2.279345e+01 [bar]
Pressure:             5.254755e+01 +/ 2.002638e+01 [bar]

Total potential energy/kʙ  -3.730232e+05 (-3.788259e+05 +/- 6.290236e+03) [K]
-------------------------------------------------------------------------------
ExternalField-molecule
    Van der Waals/kʙ        0.000000e+00 ( 0.000000e+00 +/- 0.000000e+00) [K]
Framework-molecule
    Van der Waals/kʙ        0.000000e+00 ( 0.000000e+00 +/- 0.000000e+00) [K]
    Van der Waals (Tail)/kʙ 0.000000e+00 ( 0.000000e+00 +/- 0.000000e+00) [K]
    Coulombic Real/kʙ       0.000000e+00 ( 0.000000e+00 +/- 0.000000e+00) [K]
    Coulombic Fourier/kʙ    0.000000e+00 ( 0.000000e+00 +/- 0.000000e+00) [K]
Molecule-molecule
    Van der Waals/kʙ       -2.736297e+05 (-2.753095e+05 +/- 4.121556e+03) [K]
    Van der Waals (Tail)/kʙ-6.549786e+03 (-6.683623e+03 +/- 9.036030e+01) [K]
    Coulombic Real/kʙ      -8.419074e+04 (-8.844100e+04 +/- 1.999435e+03) [K]
    Coulombic Fourier/kʙ   -8.653040e+03 (-8.391777e+03 +/- 2.171271e+02) [K]
    Molecule Intra/kʙ       0.000000e+00 ( 0.000000e+00 +/- 0.000000e+00) [K]


Energy statistics             |  Energy [K]   | Recomputed [K]|  Drift [K]    |
===============================================================================
Total potential energy/kʙ     | -3.710793e+05 | -3.710793e+05 |  1.424221e-09 |
    external field VDW/kʙ     |  0.000000e+00 |  0.000000e+00 |  0.000000e+00 |
    external field Real/kʙ    |  0.000000e+00 |  0.000000e+00 |  0.000000e+00 |
    framework-molecule VDW/kʙ |  0.000000e+00 |  0.000000e+00 |  0.000000e+00 |
    framework-molecule Real/kʙ|  0.000000e+00 |  0.000000e+00 |  0.000000e+00 |
    molecule-molecule VDW/kʙ  | -2.721688e+05 | -2.721688e+05 |  1.190132e-09 |
    molecule-molecule Real/kʙ | -8.402201e+04 | -8.402201e+04 |  2.275252e-10 |
    Van der Waals (Tail)/kʙ   | -6.597923e+03 | -6.597923e+03 |  0.000000e+00 |
    Ewald Fourier/kʙ          |  6.410785e+03 |  6.410785e+03 |  6.563228e-12 |
    Ewald self/kʙ             | -4.591696e+06 | -4.591696e+06 |  0.000000e+00 |
    Ewald exclusion/kʙ        |  4.576994e+06 |  4.576994e+06 |  0.000000e+00 |
    intra VDW/kʙ              |  0.000000e+00 |  0.000000e+00 |  0.000000e+00 |
    intra Coulombic/kʙ        |  0.000000e+00 |  0.000000e+00 |  0.000000e+00 |
    polarization/kʙ           |  0.000000e+00 |  0.000000e+00 |  0.000000e+00 |
    dU/dlambda VDW/kʙ         |  0.000000e+00 |  0.000000e+00 |  0.000000e+00 |
    dU/dlambda Real/kʙ        |  0.000000e+00 |  0.000000e+00 |  0.000000e+00 |
    dU/dlambda Ewald/kʙ       |  0.000000e+00 |  0.000000e+00 |  0.000000e+00 |
-------------------------------------------------------------------------------


Monte-Carlo moves statistics
===============================================================================

    Volume change        all:                8327
    Volume change        total:              8327
    Volume change        constructed:        8327
    Volume change        accepted:           4174
    Volume change        fraction:       0.501261
    Volume change        max-change:     0.025000

Component 0 [CO2]
    Reinsertion (CBMC)   all:              413917
    Reinsertion (CBMC)   total:            413917
    Reinsertion (CBMC)   constructed:      372179
    Reinsertion (CBMC)   accepted:           6920
    Reinsertion (CBMC)   fraction:       0.016718
    Reinsertion (CBMC)   max-change:     0.000000

    Translation          all:              414779
    Translation          total:            138803     137995     137981
    Translation          constructed:      138803     137995     137980
    Translation          accepted:          86369      63252      74842
    Translation          fraction:       0.622242   0.458364   0.542408
    Translation          max-change:     0.457478   0.758893   0.592593

    Rotation             all:              412977
    Rotation             total:            137702     137506     137769
    Rotation             constructed:      137702     137501     137769
    Rotation             accepted:          75927      59930      79953
    Rotation             fraction:       0.551386   0.435836   0.580341
    Rotation             max-change:     0.592094   0.857143   0.535714



Production run counting of the MC moves summed over systems and components
===============================================================================

Volume change                          8327 (0.6662 [%])
Reinsertion (CBMC)                   413917 (33.1134 [%])
Translation                          414779 (33.1823 [%])
Rotation                             412977 (33.0382 [%])

Production count MC-steps:          1250000 [-]
               All summed:          1250000 [-]
               difference:                0 [-]


Production run CPU timings of the MC moves
===============================================================================

Component 0 CO2

Rotation                             59.782903 [s]
    Ewald                            16.460888 [s]
    ExternalField-Molecule            0.013800 [s]
    Framework-Molecule                0.012623 [s]
    Molecule-Molecule                41.751965 [s]
    Overhead                          1.543627 [s]

Reinsertion (CBMC)                  296.742022 [s]
    Ewald                            15.026690 [s]
    NonEwald                        281.316383 [s]
    Overhead                          0.398949 [s]

Translation                          60.044193 [s]
    Ewald                            16.541091 [s]
    ExternalField-Molecule            0.013310 [s]
    Framework-Molecule                0.021119 [s]
    Molecule-Molecule                41.935853 [s]
    Overhead                          1.532820 [s]



Volume change                         71.386010 [s]
    Ewald                             15.622721 [s]
    NonEwald                          52.941708 [s]
    Tail                               2.506177 [s]

Property sampling                     0.304351 [s]
Energy/pressure sampling:             8.094685 [s]


Production run CPU timings of the MC moves summed over systems and components
===============================================================================


Translation                          60.044193 [s]
    Ewald                            16.541091 [s]
    ExternalField-Molecule            0.013310 [s]
    Framework-Molecule                0.021119 [s]
    Molecule-Molecule                41.935853 [s]
    Overhead                          1.532820 [s]

Rotation                             59.782903 [s]
    Ewald                            16.460888 [s]
    ExternalField-Molecule            0.013800 [s]
    Framework-Molecule                0.012623 [s]
    Molecule-Molecule                41.751965 [s]
    Overhead                          1.543627 [s]

Volume change                        71.386010 [s]
    Ewald                            15.622721 [s]
    NonEwald                         52.941708 [s]
    Tail                              2.506177 [s]
    Overhead                          0.315404 [s]

Reinsertion (CBMC)                  296.742022 [s]
    Ewald                            15.026690 [s]
    NonEwald                        281.316383 [s]
    Overhead                          0.398949 [s]

Property sampling:                    0.304351 [s]
Energy/pressure sampling:             8.094685 [s]

Production simulation time:         497.223919 [s]
                All summed:         496.354164 [s]
                  Overhead:           0.869755 [s]


Initalization simulation time:       97.025100 [s]
Equilibration simulation time:        0.000000 [s]
Production simulation time:         497.223919 [s]
Total simulation time:              594.249019 [s]


Energy averages and statistics:
===============================================================================

Framework-molecule energy:
-------------------------------------------------------------------------------



Framework-molecule energy contributions per energy type:
-------------------------------------------------------------------------------



Inter-molecular energy:
-------------------------------------------------------------------------------

    Inter-molecular energy/kʙ 0-0 [CO2-CO2]:
    ---------------------------------------------------------------------------
        Block[  0] -3.827007e+05
        Block[  1] -3.719380e+05
        Block[  2] -3.820467e+05
        Block[  3] -3.823885e+05
        Block[  4] -3.743590e+05
        -----------------------------------------------------------------------
        Average  -3.786866e+05 +/-  6.372083e+03 [K]



Inter-molecular energy contributions per energy type:
-------------------------------------------------------------------------------

    Van der Waals energy/kʙ 0-0 [CO2-CO2]:
    ---------------------------------------------------------------------------
        Block[  0] -2.775373e+05
        Block[  1] -2.712422e+05
        Block[  2] -2.778685e+05
        Block[  3] -2.775870e+05
        Block[  4] -2.716265e+05
        -----------------------------------------------------------------------
        Average  -2.751723e+05 +/-  4.242435e+03 [K]

    VDW Tail-Correction energy/kʙ 0-0 [CO2-CO2]:
    ---------------------------------------------------------------------------
        Block[  0] -6.740747e+03
        Block[  1] -6.593717e+03
        Block[  2] -6.745126e+03
        Block[  3] -6.718326e+03
        Block[  4] -6.610640e+03
        -----------------------------------------------------------------------
        Average  -6.681711e+03 +/-  9.131604e+01 [K]

    Coulomb Real energy/kʙ 0-0 [CO2-CO2]:
    ---------------------------------------------------------------------------
        Block[  0] -8.990394e+04
        Block[  1] -8.592253e+04
        Block[  2] -8.890049e+04
        Block[  3] -8.958779e+04
        Block[  4] -8.782555e+04
        -----------------------------------------------------------------------
        Average  -8.842806e+04 +/-  2.000560e+03 [K]

    Coulomb Fourier energy/kʙ 0-0 [CO2-CO2]:
    ---------------------------------------------------------------------------
        Block[  0] -8.518705e+03
        Block[  1] -8.179561e+03
        Block[  2] -8.532634e+03
        Block[  3] -8.495445e+03
        Block[  4] -8.296287e+03
        -----------------------------------------------------------------------
        Average  -8.404526e+03 +/-  1.963317e+02 [K]


Total energy/kʙ
-------------------------------------------------------------------------------
    Block[  0] -3.827007e+05
    Block[  1] -3.719380e+05
    Block[  2] -3.820467e+05
    Block[  3] -3.823885e+05
    Block[  4] -3.743590e+05
    ---------------------------------------------------------------------------
    Average  -3.786866e+05 +/-  6.372083e+03 [K]

Pressure averages and statistics:
===============================================================================

Average pressure tensor: 
-------------------------------------------------------------------------------
 5.8836e+01 -1.6868e+01  1.1435e+01 +/- 5.4269e+01 7.7550e+01 4.6367e+01 [bar]
-1.6868e+01  4.0733e+01 -3.8261e+01 +/- 7.7550e+01 6.2841e+01 3.1635e+01 [bar]
 1.1435e+01 -3.8261e+01  6.4703e+01 +/- 4.6367e+01 3.1635e+01 7.9167e+01 [bar]

    Block[  0]  5.010180e+07
    Block[  1]  4.904010e+07
    Block[  2]  5.013493e+07
    Block[  3]  4.994914e+07
    Block[  4]  4.910900e+07
    ---------------------------------------------------------------------------
    Ideal gas pressure   4.966699e+07 +/-  4.081227e-02 [Pa]
                         4.966699e+02 +/-  6.777042e+00 [bar]


    Block[  0] -4.559565e+07
    Block[  1] -4.397474e+07
    Block[  2] -4.329605e+07
    Block[  3] -4.683115e+07
    Block[  4] -4.125868e+07
    ---------------------------------------------------------------------------
    Excess pressure  -4.419125e+07 +/-  2.661897e+06 [Pa]
                     -4.419125e+02 +/-  2.661897e+01 [bar]


    Block[  0]  4.506159e+06
    Block[  1]  5.065353e+06
    Block[  2]  6.838880e+06
    Block[  3]  3.117982e+06
    Block[  4]  7.850316e+06
    ---------------------------------------------------------------------------
    Pressure average   5.475738e+06 +/-  2.336156e+06 [Pa]
                       5.475738e+01 +/-  2.336156e+01 [bar]


Enthalpy of adsorption
===============================================================================

No fluctuating components present.


Densities
===============================================================================

Component 0 (CO2)
    Block[  0] 250
    Block[  1] 250
    Block[  2] 250
    Block[  3] 250
    Block[  4] 250
    -----------------------------------------------------------------------
    Density average   2.500000e+02 +/-  0.000000e+00 [molecules]
    Density average   1.438945e-02 +/-  1.963435e-04 [molec/A^3]
    Density average   1.051318e+03 +/-  1.434519e+01 [kg.m⁻³]

