Compiler and run-time data
===============================================================================
RASPA 3.0.4

Random seed: 1263317529

Compiled as a 64-bits application
Compiler: gcc Ubuntu Clang 18.1.3 (1ubuntu1)
Compile Date = Mar 15 2025, Compile Time = 19:39:45

2025-06-02 13:48:15.165035
Simulation started on Mon, Jun 02
The start time was 13:48:00

Hostname:    c061
OS type:     Linux on x86_64
OS release:  6.8.0-58-generic
OS version:  #60-Ubuntu SMP PREEMPT_DYNAMIC Fri Mar 14 18:29:48 UTC 2025


Mutual consistent basic set of units:
===============================================================================

Unit of temperature: 1 [K]
Unit of length:      1e-10 [m]
Unit of time:        1e-12 [s]
Unit of mass:        1.6605402e-27 [kg]
Unit of charge:      1.60217733e-19 [C/particle]


Boltzmann constant (internal units):          0.8314464919307584 [-]
represents conversion from energy (internal units) to temperature (in Kelvin)

Derived units and their conversion factors:
===============================================================================

Unit of energy:                           1.6605402000000002e-23 [J]
Unit of energy:                           10.000008872307538 [J.mol⁻¹]
Unit of velocity:                         100 [m.s⁻¹]
Unit of force:                            1.6605402000000002e-13 [N]
Unit of diffusion:                        1.0000000000000002e-08 [m².s⁻¹]
Unit of acceleration:                     1.0000000000000002e-08 [m².s⁻¹]
Unit of torque:                           1.6605402000000002e-23 [N.m]
Unit of pressure:                         16605402 [Pa]
Unit of volume:                           1e-30 [m³]
Unit of density:                          1660.5402 [kg.m⁻³]
Unit of dynamic viscosity:                1.6605401999999997e-05 [N.s.m⁻²]
Unit of enthalpy:                         1.6605402000000002e-23 [J]
Unit of polarizability:                   1.5458657349975198e-35 [-]
Unit of Coulomb potential:                167101.08000665612 [K]
Unit of dielectric constant:              1.5458657349975193e-05 [s².C².kg⁻¹.m⁻³]
Unit of dipole moment:                    1.60217733e-29 [C.m]
Unit of Debye:                            4.803206799099162 [C.m]
Unit of electric potential:               0.00010364272224473431 [V]
Unit of electric field:                   1036427.222447343 [V.m⁻¹]
Unit of isothermal compressibility:       6.02213665167516e-08 [Pa⁻¹]
Unit of heat capacity:                    10.000008872307538 [J.mol⁻¹.K⁻¹]
Unit of volumetric expansion coefficient: 1 [K⁻¹]


Internal conversion factors:
===============================================================================

Energy (internal units) to Kelvin:      1.202724284692786 [-]
Kelvin to energy (internal units):      0.8314457542157567 [-]


System definitions
===============================================================================

Temperature:          250 [K]
Beta:                 0.0048108928702210625 [-]
Pressure:             1.4e+07 [Pa]
Helium void fraction: 1 [-]

Box:      30.00000   0.00000   0.00000
           0.00000  30.00000   0.00000
           0.00000   0.00000  30.00000
Lengths:  30.00000  30.00000  30.00000
Angles:   90.00000  90.00000  90.00000
Rectangular boundary conditions



Property measurement settings
===============================================================================




Pseudo-atoms
===============================================================================

  0 - C_co2    framework-atom: false
  1 - O_co2    framework-atom: false

  0 - C_co2    mass: 12.00000, charge:  0.70000
  1 - O_co2    mass: 15.99940, charge: -0.35000

  0 - C_co2    polarizability:  0.00000
  1 - O_co2    polarizability:  0.00000

  0 - J. J. Potoff et al., AIChE J. 2001, 47, 1676–1682.
  1 - J. J. Potoff et al., AIChE J. 2001, 47, 1676–1682.

Force field status
===============================================================================

Cutoff Framework-Molecule VDW:  10.00000 [Å]
Cutoff Molecule-Molecule VDW:   10.00000 [Å]
Cutoff Coulomb:                 10.00000 [Å]

Overlap-criteria VDW:           1.000000e+05 [K]

C_co2    - C_co2    Lennard-Jones p₀/kʙ:  27.00000 [K], p₁:  2.80000 [Å]
                                  shift:   0.00000 [K], tailcorrections: true
C_co2    - O_co2    Lennard-Jones p₀/kʙ:  46.18441 [K], p₁:  2.92500 [Å]
                                  shift:   0.00000 [K], tailcorrections: true
O_co2    - O_co2    Lennard-Jones p₀/kʙ:  79.00000 [K], p₁:  3.05000 [Å]
                                  shift:   0.00000 [K], tailcorrections: true

Ewald precision: 1e-06
Ewald alpha: 0.32079885109097883
Ewald k-vectors: 10 10 10


Component definitions
===============================================================================

Component 0 [CO2]

    Type: Adsorbate

    Critical temperature:  304.1282 [K]
    Critical pressure:     7377300 [Pa]
    Acentric factor:       0.22394 [-]

    Mol-fraction:                 1 [-]
    Swappable:                   false

    Mass:                         43.9988 [-]
    Bulk fluid density:           0 [-]
    Compressibility:              0 [-]
    Excess molecules:             0 [-]

    Number Of Atoms:    3
    CBMC starting bead: 0
      0: O_co2  position  0.00000 -0.00000  1.16000, charge -0.35000
      1: C_co2  position  0.00000 -0.00000  0.00000, charge  0.70000
      2: O_co2  position  0.00000 -0.00000 -1.16000, charge -0.35000
    Diagonalized inertia-vector:      43.05758528 43.05758528 0.00000000
    Translational degrees of freedom: 3
    Rotational degrees of freedom:    2
    Shape of the molecule is: 'Linear'
    Net-charge:        0.00000000 [e]

    Move probabilities:
    Translation:                   0.331126 [-]
    Random translation:            0.000000 [-]
    Rotation:                      0.331126 [-]
    Random rotation:               0.000000 [-]
    Volume change:                 0.006623 [-]
    Reinsertion (CBMC):            0.331126 [-]
    Identity change (CBMC):        0.000000 [-]
    Swap:                          0.000000 [-]
    Swap (CBMC):                   0.000000 [-]
    Swap (CFCMC):                  0.000000 [-]
    Swap (CB/CFCMC):               0.000000 [-]
    Gibbs volume:                  0.000000 [-]
    Gibbs swap (CBMC):             0.000000 [-]
    Gibbs swap (CFCMC):            0.000000 [-]
    Widom:                         0.000000 [-]
    Widom (CFCMC):                 0.000000 [-]
    Widom (CB/CFCMC):              0.000000 [-]
    Parallel tempering:            0.000000 [-]
    Hybrid MC:                     0.000000 [-]

    number of blocking-pockets: 0

    number of bonds: 0





Number of pseudo-atoms
===============================================================================

Component   0 (CO2)
-------------------------------------------------------------------------------
    index   0 (C_co2): 250 atoms
    index   1 (O_co2): 500 atoms

Total number of pseudo-atoms:
-------------------------------------------------------------------------------
    index   0 (C_co2): 250 atoms
    index   1 (O_co2): 500 atoms




Energy status Recomputed from scratch
===============================================================================

Total potential energy/kʙ       -5.911953e+04 [K]
    external field VDW/kʙ        0.000000e+00 [K]
    external field Real/kʙ       0.000000e+00 [K]
    framework-molecule VDW/kʙ    0.000000e+00 [K]
    framework-molecule Real/kʙ   0.000000e+00 [K]
    molecule-molecule VDW/kʙ    -2.933397e+04 [K]
    molecule-molecule Real/kʙ   -1.727783e+04 [K]
    Van der Waals (Tail)/kʙ     -7.427197e+03 [K]
    Ewald Fourier/kʙ             3.124661e+04 [K]
    Ewald self/kʙ               -5.557308e+06 [K]
    Ewald exclusion/kʙ           5.520981e+06 [K]
    intra VDW/kʙ                 0.000000e+00 [K]
    intra Coulombic/kʙ           0.000000e+00 [K]
    polarization/kʙ              0.000000e+00 [K]
    dU/dlambda VDW/kʙ            0.000000e+00 [K]
    dU/dlambda Real/kʙ           0.000000e+00 [K]
    dU/dlambda Ewald/kʙ          0.000000e+00 [K]





Initialization: Current cycle: 0 out of 1000
===============================================================================

Box:      30.00000   0.00000   0.00000
           0.00000  30.00000   0.00000
           0.00000   0.00000  30.00000
Lengths:  30.00000  30.00000  30.00000
Angles:   90.00000  90.00000  90.00000
Rectangular boundary conditions

net charge:   0.00000000

component   0 (CO2) lambda:  0 occupancy:  1 (1.000000)
    net charge:   0.00000000 [e]

Amount of molecules per component :
-------------------------------------------------------------------------------
Component 0 (CO2)
    molecules:         2.500000e+02 molecules
    number density:    9.259259e-03 molec/A^3
    density:           6.764973e+02 kg/m^3

Total potential energy/kʙ       -1.329309e+05 [K]
-------------------------------------------------------------------------------
    external field VDW/kʙ        0.000000e+00 [K]
    external field Real/kʙ       0.000000e+00 [K]
    framework-molecule VDW/kʙ    0.000000e+00 [K]
    framework-molecule Real/kʙ   0.000000e+00 [K]
    molecule-molecule VDW/kʙ    -9.618971e+04 [K]
    molecule-molecule Real/kʙ   -2.263543e+04 [K]
    Van der Waals (Tail)/kʙ     -7.427197e+03 [K]
    Ewald Fourier/kʙ             2.964860e+04 [K]
    Ewald self/kʙ               -5.557308e+06 [K]
    Ewald exclusion/kʙ           5.520981e+06 [K]
    intra VDW/kʙ                 0.000000e+00 [K]
    intra Coulombic/kʙ           0.000000e+00 [K]
    polarization/kʙ              0.000000e+00 [K]
    dU/dlambda VDW/kʙ            0.000000e+00 [K]
    dU/dlambda Real/kʙ           0.000000e+00 [K]
    dU/dlambda Ewald/kʙ          0.000000e+00 [K]


Initialization: Current cycle: 100 out of 1000
===============================================================================

Box:      27.23254   0.00000   0.00000
           0.00000  27.23254   0.00000
           0.00000   0.00000  27.23254
Lengths:  27.23254  27.23254  27.23254
Angles:   90.00000  90.00000  90.00000
Rectangular boundary conditions

net charge:   0.00000000

component   0 (CO2) lambda:  0 occupancy:  1 (1.000000)
    net charge:   0.00000000 [e]

Amount of molecules per component :
-------------------------------------------------------------------------------
Component 0 (CO2)
    molecules:         2.500000e+02 molecules
    number density:    1.237872e-02 molec/A^3
    density:           9.044104e+02 kg/m^3

Total potential energy/kʙ       -3.284742e+05 [K]
-------------------------------------------------------------------------------
    external field VDW/kʙ        0.000000e+00 [K]
    external field Real/kʙ       0.000000e+00 [K]
    framework-molecule VDW/kʙ    0.000000e+00 [K]
    framework-molecule Real/kʙ   0.000000e+00 [K]
    molecule-molecule VDW/kʙ    -2.353300e+05 [K]
    molecule-molecule Real/kʙ   -6.667458e+04 [K]
    Van der Waals (Tail)/kʙ     -9.929431e+03 [K]
    Ewald Fourier/kʙ             1.978696e+04 [K]
    Ewald self/kʙ               -5.557308e+06 [K]
    Ewald exclusion/kʙ           5.520981e+06 [K]
    intra VDW/kʙ                 0.000000e+00 [K]
    intra Coulombic/kʙ           0.000000e+00 [K]
    polarization/kʙ              0.000000e+00 [K]
    dU/dlambda VDW/kʙ            0.000000e+00 [K]
    dU/dlambda Real/kʙ           0.000000e+00 [K]
    dU/dlambda Ewald/kʙ          0.000000e+00 [K]


Initialization: Current cycle: 200 out of 1000
===============================================================================

Box:      26.23605   0.00000   0.00000
           0.00000  26.23605   0.00000
           0.00000   0.00000  26.23605
Lengths:  26.23605  26.23605  26.23605
Angles:   90.00000  90.00000  90.00000
Rectangular boundary conditions

net charge:   0.00000000

component   0 (CO2) lambda:  0 occupancy:  1 (1.000000)
    net charge:   0.00000000 [e]

Amount of molecules per component :
-------------------------------------------------------------------------------
Component 0 (CO2)
    molecules:         2.500000e+02 molecules
    number density:    1.384347e-02 molec/A^3
    density:           1.011427e+03 kg/m^3

Total potential energy/kʙ       -3.583733e+05 [K]
-------------------------------------------------------------------------------
    external field VDW/kʙ        0.000000e+00 [K]
    external field Real/kʙ       0.000000e+00 [K]
    framework-molecule VDW/kʙ    0.000000e+00 [K]
    framework-molecule Real/kʙ   0.000000e+00 [K]
    molecule-molecule VDW/kʙ    -2.569465e+05 [K]
    molecule-molecule Real/kʙ   -7.233958e+04 [K]
    Van der Waals (Tail)/kʙ     -1.110436e+04 [K]
    Ewald Fourier/kʙ             1.834425e+04 [K]
    Ewald self/kʙ               -5.557308e+06 [K]
    Ewald exclusion/kʙ           5.520981e+06 [K]
    intra VDW/kʙ                 0.000000e+00 [K]
    intra Coulombic/kʙ           0.000000e+00 [K]
    polarization/kʙ              0.000000e+00 [K]
    dU/dlambda VDW/kʙ            0.000000e+00 [K]
    dU/dlambda Real/kʙ           0.000000e+00 [K]
    dU/dlambda Ewald/kʙ          0.000000e+00 [K]


Initialization: Current cycle: 300 out of 1000
===============================================================================

Box:      26.07468   0.00000   0.00000
           0.00000  26.07468   0.00000
           0.00000   0.00000  26.07468
Lengths:  26.07468  26.07468  26.07468
Angles:   90.00000  90.00000  90.00000
Rectangular boundary conditions

net charge:   0.00000000

component   0 (CO2) lambda:  0 occupancy:  1 (1.000000)
    net charge:   0.00000000 [e]

Amount of molecules per component :
-------------------------------------------------------------------------------
Component 0 (CO2)
    molecules:         2.500000e+02 molecules
    number density:    1.410208e-02 molec/A^3
    density:           1.030322e+03 kg/m^3

Total potential energy/kʙ       -3.713389e+05 [K]
-------------------------------------------------------------------------------
    external field VDW/kʙ        0.000000e+00 [K]
    external field Real/kʙ       0.000000e+00 [K]
    framework-molecule VDW/kʙ    0.000000e+00 [K]
    framework-molecule Real/kʙ   0.000000e+00 [K]
    molecule-molecule VDW/kʙ    -2.662646e+05 [K]
    molecule-molecule Real/kʙ   -7.444551e+04 [K]
    Van der Waals (Tail)/kʙ     -1.131180e+04 [K]
    Ewald Fourier/kʙ             1.701013e+04 [K]
    Ewald self/kʙ               -5.557308e+06 [K]
    Ewald exclusion/kʙ           5.520981e+06 [K]
    intra VDW/kʙ                 0.000000e+00 [K]
    intra Coulombic/kʙ           0.000000e+00 [K]
    polarization/kʙ              0.000000e+00 [K]
    dU/dlambda VDW/kʙ            0.000000e+00 [K]
    dU/dlambda Real/kʙ           0.000000e+00 [K]
    dU/dlambda Ewald/kʙ          0.000000e+00 [K]


Initialization: Current cycle: 400 out of 1000
===============================================================================

Box:      25.76278   0.00000   0.00000
           0.00000  25.76278   0.00000
           0.00000   0.00000  25.76278
Lengths:  25.76278  25.76278  25.76278
Angles:   90.00000  90.00000  90.00000
Rectangular boundary conditions

net charge:   0.00000000

component   0 (CO2) lambda:  0 occupancy:  1 (1.000000)
    net charge:   0.00000000 [e]

Amount of molecules per component :
-------------------------------------------------------------------------------
Component 0 (CO2)
    molecules:         2.500000e+02 molecules
    number density:    1.462049e-02 molec/A^3
    density:           1.068198e+03 kg/m^3

Total potential energy/kʙ       -3.858144e+05 [K]
-------------------------------------------------------------------------------
    external field VDW/kʙ        0.000000e+00 [K]
    external field Real/kʙ       0.000000e+00 [K]
    framework-molecule VDW/kʙ    0.000000e+00 [K]
    framework-molecule Real/kʙ   0.000000e+00 [K]
    molecule-molecule VDW/kʙ    -2.770913e+05 [K]
    molecule-molecule Real/kʙ   -7.752460e+04 [K]
    Van der Waals (Tail)/kʙ     -1.172764e+04 [K]
    Ewald Fourier/kʙ             1.685627e+04 [K]
    Ewald self/kʙ               -5.557308e+06 [K]
    Ewald exclusion/kʙ           5.520981e+06 [K]
    intra VDW/kʙ                 0.000000e+00 [K]
    intra Coulombic/kʙ           0.000000e+00 [K]
    polarization/kʙ              0.000000e+00 [K]
    dU/dlambda VDW/kʙ            0.000000e+00 [K]
    dU/dlambda Real/kʙ           0.000000e+00 [K]
    dU/dlambda Ewald/kʙ          0.000000e+00 [K]


Initialization: Current cycle: 500 out of 1000
===============================================================================

Box:      25.69928   0.00000   0.00000
           0.00000  25.69928   0.00000
           0.00000   0.00000  25.69928
Lengths:  25.69928  25.69928  25.69928
Angles:   90.00000  90.00000  90.00000
Rectangular boundary conditions

net charge:   0.00000000

component   0 (CO2) lambda:  0 occupancy:  1 (1.000000)
    net charge:   0.00000000 [e]

Amount of molecules per component :
-------------------------------------------------------------------------------
Component 0 (CO2)
    molecules:         2.500000e+02 molecules
    number density:    1.472913e-02 molec/A^3
    density:           1.076135e+03 kg/m^3

Total potential energy/kʙ       -3.836837e+05 [K]
-------------------------------------------------------------------------------
    external field VDW/kʙ        0.000000e+00 [K]
    external field Real/kʙ       0.000000e+00 [K]
    framework-molecule VDW/kʙ    0.000000e+00 [K]
    framework-molecule Real/kʙ   0.000000e+00 [K]
    molecule-molecule VDW/kʙ    -2.762758e+05 [K]
    molecule-molecule Real/kʙ   -7.666174e+04 [K]
    Van der Waals (Tail)/kʙ     -1.181478e+04 [K]
    Ewald Fourier/kʙ             1.739579e+04 [K]
    Ewald self/kʙ               -5.557308e+06 [K]
    Ewald exclusion/kʙ           5.520981e+06 [K]
    intra VDW/kʙ                 0.000000e+00 [K]
    intra Coulombic/kʙ           0.000000e+00 [K]
    polarization/kʙ              0.000000e+00 [K]
    dU/dlambda VDW/kʙ            0.000000e+00 [K]
    dU/dlambda Real/kʙ           0.000000e+00 [K]
    dU/dlambda Ewald/kʙ          0.000000e+00 [K]


Initialization: Current cycle: 600 out of 1000
===============================================================================

Box:      25.72612   0.00000   0.00000
           0.00000  25.72612   0.00000
           0.00000   0.00000  25.72612
Lengths:  25.72612  25.72612  25.72612
Angles:   90.00000  90.00000  90.00000
Rectangular boundary conditions

net charge:   0.00000000

component   0 (CO2) lambda:  0 occupancy:  1 (1.000000)
    net charge:   0.00000000 [e]

Amount of molecules per component :
-------------------------------------------------------------------------------
Component 0 (CO2)
    molecules:         2.500000e+02 molecules
    number density:    1.468308e-02 molec/A^3
    density:           1.072771e+03 kg/m^3

Total potential energy/kʙ       -3.835086e+05 [K]
-------------------------------------------------------------------------------
    external field VDW/kʙ        0.000000e+00 [K]
    external field Real/kʙ       0.000000e+00 [K]
    framework-molecule VDW/kʙ    0.000000e+00 [K]
    framework-molecule Real/kʙ   0.000000e+00 [K]
    molecule-molecule VDW/kʙ    -2.740521e+05 [K]
    molecule-molecule Real/kʙ   -7.744383e+04 [K]
    Van der Waals (Tail)/kʙ     -1.177784e+04 [K]
    Ewald Fourier/kʙ             1.609232e+04 [K]
    Ewald self/kʙ               -5.557308e+06 [K]
    Ewald exclusion/kʙ           5.520981e+06 [K]
    intra VDW/kʙ                 0.000000e+00 [K]
    intra Coulombic/kʙ           0.000000e+00 [K]
    polarization/kʙ              0.000000e+00 [K]
    dU/dlambda VDW/kʙ            0.000000e+00 [K]
    dU/dlambda Real/kʙ           0.000000e+00 [K]
    dU/dlambda Ewald/kʙ          0.000000e+00 [K]


Initialization: Current cycle: 700 out of 1000
===============================================================================

Box:      25.51822   0.00000   0.00000
           0.00000  25.51822   0.00000
           0.00000   0.00000  25.51822
Lengths:  25.51822  25.51822  25.51822
Angles:   90.00000  90.00000  90.00000
Rectangular boundary conditions

net charge:   0.00000000

component   0 (CO2) lambda:  0 occupancy:  1 (1.000000)
    net charge:   0.00000000 [e]

Amount of molecules per component :
-------------------------------------------------------------------------------
Component 0 (CO2)
    molecules:         2.500000e+02 molecules
    number density:    1.504488e-02 molec/A^3
    density:           1.099205e+03 kg/m^3

Total potential energy/kʙ       -3.933301e+05 [K]
-------------------------------------------------------------------------------
    external field VDW/kʙ        0.000000e+00 [K]
    external field Real/kʙ       0.000000e+00 [K]
    framework-molecule VDW/kʙ    0.000000e+00 [K]
    framework-molecule Real/kʙ   0.000000e+00 [K]
    molecule-molecule VDW/kʙ    -2.907291e+05 [K]
    molecule-molecule Real/kʙ   -7.230791e+04 [K]
    Van der Waals (Tail)/kʙ     -1.206806e+04 [K]
    Ewald Fourier/kʙ             1.810209e+04 [K]
    Ewald self/kʙ               -5.557308e+06 [K]
    Ewald exclusion/kʙ           5.520981e+06 [K]
    intra VDW/kʙ                 0.000000e+00 [K]
    intra Coulombic/kʙ           0.000000e+00 [K]
    polarization/kʙ              0.000000e+00 [K]
    dU/dlambda VDW/kʙ            0.000000e+00 [K]
    dU/dlambda Real/kʙ           0.000000e+00 [K]
    dU/dlambda Ewald/kʙ          0.000000e+00 [K]


Initialization: Current cycle: 800 out of 1000
===============================================================================

Box:      25.26765   0.00000   0.00000
           0.00000  25.26765   0.00000
           0.00000   0.00000  25.26765
Lengths:  25.26765  25.26765  25.26765
Angles:   90.00000  90.00000  90.00000
Rectangular boundary conditions

net charge:   0.00000000

component   0 (CO2) lambda:  0 occupancy:  1 (1.000000)
    net charge:   0.00000000 [e]

Amount of molecules per component :
-------------------------------------------------------------------------------
Component 0 (CO2)
    molecules:         2.500000e+02 molecules
    number density:    1.549692e-02 molec/A^3
    density:           1.132232e+03 kg/m^3

Total potential energy/kʙ       -3.997649e+05 [K]
-------------------------------------------------------------------------------
    external field VDW/kʙ        0.000000e+00 [K]
    external field Real/kʙ       0.000000e+00 [K]
    framework-molecule VDW/kʙ    0.000000e+00 [K]
    framework-molecule Real/kʙ   0.000000e+00 [K]
    molecule-molecule VDW/kʙ    -2.818692e+05 [K]
    molecule-molecule Real/kʙ   -8.461223e+04 [K]
    Van der Waals (Tail)/kʙ     -1.243066e+04 [K]
    Ewald Fourier/kʙ             1.547435e+04 [K]
    Ewald self/kʙ               -5.557308e+06 [K]
    Ewald exclusion/kʙ           5.520981e+06 [K]
    intra VDW/kʙ                 0.000000e+00 [K]
    intra Coulombic/kʙ           0.000000e+00 [K]
    polarization/kʙ              0.000000e+00 [K]
    dU/dlambda VDW/kʙ            0.000000e+00 [K]
    dU/dlambda Real/kʙ           0.000000e+00 [K]
    dU/dlambda Ewald/kʙ          0.000000e+00 [K]


Initialization: Current cycle: 900 out of 1000
===============================================================================

Box:      25.56995   0.00000   0.00000
           0.00000  25.56995   0.00000
           0.00000   0.00000  25.56995
Lengths:  25.56995  25.56995  25.56995
Angles:   90.00000  90.00000  90.00000
Rectangular boundary conditions

net charge:   0.00000000

component   0 (CO2) lambda:  0 occupancy:  1 (1.000000)
    net charge:   0.00000000 [e]

Amount of molecules per component :
-------------------------------------------------------------------------------
Component 0 (CO2)
    molecules:         2.500000e+02 molecules
    number density:    1.495375e-02 molec/A^3
    density:           1.092547e+03 kg/m^3

Total potential energy/kʙ       -3.929794e+05 [K]
-------------------------------------------------------------------------------
    external field VDW/kʙ        0.000000e+00 [K]
    external field Real/kʙ       0.000000e+00 [K]
    framework-molecule VDW/kʙ    0.000000e+00 [K]
    framework-molecule Real/kʙ   0.000000e+00 [K]
    molecule-molecule VDW/kʙ    -2.808354e+05 [K]
    molecule-molecule Real/kʙ   -8.030334e+04 [K]
    Van der Waals (Tail)/kʙ     -1.199496e+04 [K]
    Ewald Fourier/kʙ             1.648141e+04 [K]
    Ewald self/kʙ               -5.557308e+06 [K]
    Ewald exclusion/kʙ           5.520981e+06 [K]
    intra VDW/kʙ                 0.000000e+00 [K]
    intra Coulombic/kʙ           0.000000e+00 [K]
    polarization/kʙ              0.000000e+00 [K]
    dU/dlambda VDW/kʙ            0.000000e+00 [K]
    dU/dlambda Real/kʙ           0.000000e+00 [K]
    dU/dlambda Ewald/kʙ          0.000000e+00 [K]


Current cycle: 0 out of 5000
===============================================================================

Box:      25.55070   0.00000   0.00000  Average:  25.55070   0.00000   0.00000
           0.00000  25.55070   0.00000             0.00000  25.55070   0.00000
           0.00000   0.00000  25.55070             0.00000   0.00000  25.55070
Lengths:  25.55070  25.55070  25.55070  Average:  25.55070  25.55070  25.55070
Angles:   90.00000  90.00000  90.00000  Average:  90.00000  90.00000  90.00000
Rectangular boundary conditions

net charge:   0.00000000

component 0 (CO2) lambda:  0 occupancy:  1 (1.000000)
    net charge:   0.00000000 [e]

Amount of molecules per component :
-------------------------------------------------------------------------------
Component 0 (CO2)
    molecules:      2.500000e+02 molecules  (2.500000e+02 +/- 0.000000e+00)
    number density: 1.498758e-02 molec./A^3 (1.498758e-02 +/- 0.000000e+00)
    density:        1.095018e+03 kg/m^3     (1.095018e+03 +/- 0.000000e+00)

Average pressure tensor: 
-------------------------------------------------------------------------------
 5.1732e+02  0.0000e+00  0.0000e+00 +/- 0.0000e+00 0.0000e+00 0.0000e+00 [bar]
 0.0000e+00  5.1732e+02  0.0000e+00 +/- 0.0000e+00 0.0000e+00 0.0000e+00 [bar]
 0.0000e+00  0.0000e+00  5.1732e+02 +/- 0.0000e+00 0.0000e+00 0.0000e+00 [bar]
Ideal-gas pressure:   5.173151e+02 +/ 0.000000e+00 [bar]
Excess pressure:      0.000000e+00 +/ 0.000000e+00 [bar]
Pressure:             5.173151e+02 +/ 0.000000e+00 [bar]

Total potential energy/kʙ  -3.931127e+05 (-3.931127e+05 +/- 0.000000e+00) [K]
-------------------------------------------------------------------------------
ExternalField-molecule
    Van der Waals/kʙ        0.000000e+00 ( 0.000000e+00 +/- 0.000000e+00) [K]
Framework-molecule
    Van der Waals/kʙ        0.000000e+00 ( 0.000000e+00 +/- 0.000000e+00) [K]
    Van der Waals (Tail)/kʙ 0.000000e+00 ( 0.000000e+00 +/- 0.000000e+00) [K]
    Coulombic Real/kʙ       0.000000e+00 ( 0.000000e+00 +/- 0.000000e+00) [K]
    Coulombic Fourier/kʙ    0.000000e+00 ( 0.000000e+00 +/- 0.000000e+00) [K]
Molecule-molecule
    Van der Waals/kʙ       -2.774967e+05 (-2.774967e+05 +/- 0.000000e+00) [K]
    Van der Waals (Tail)/kʙ-1.202209e+04 (-1.202209e+04 +/- 0.000000e+00) [K]
    Coulombic Real/kʙ      -8.422964e+04 (-8.422964e+04 +/- 0.000000e+00) [K]
    Coulombic Fourier/kʙ   -1.936419e+04 (-1.936419e+04 +/- 0.000000e+00) [K]
    Molecule Intra/kʙ       0.000000e+00 ( 0.000000e+00 +/- 0.000000e+00) [K]

Current cycle: 100 out of 5000
===============================================================================

Box:      26.00456   0.00000   0.00000  Average:  25.70264   0.00000   0.00000
           0.00000  26.00456   0.00000             0.00000  25.70264   0.00000
           0.00000   0.00000  26.00456             0.00000   0.00000  25.70264
Lengths:  26.00456  26.00456  26.00456  Average:  25.70264  25.70264  25.70264
Angles:   90.00000  90.00000  90.00000  Average:  90.00000  90.00000  90.00000
Rectangular boundary conditions

net charge:   0.00000000

component 0 (CO2) lambda:  0 occupancy:  1 (1.000000)
    net charge:   0.00000000 [e]

Amount of molecules per component :
-------------------------------------------------------------------------------
Component 0 (CO2)
    molecules:      2.500000e+02 molecules  (2.500000e+02 +/- 0.000000e+00)
    number density: 1.421645e-02 molec./A^3 (1.472613e-02 +/- 0.000000e+00)
    density:        1.038678e+03 kg/m^3     (1.075916e+03 +/- 0.000000e+00)

Average pressure tensor: 
-------------------------------------------------------------------------------
-2.8693e+01  4.5516e+01 -1.0980e+02 +/- 0.0000e+00 0.0000e+00 0.0000e+00 [bar]
 4.5516e+01  1.5058e+02  1.9557e+01 +/- 0.0000e+00 0.0000e+00 0.0000e+00 [bar]
-1.0980e+02  1.9557e+01  5.7578e+01 +/- 0.0000e+00 0.0000e+00 0.0000e+00 [bar]
Ideal-gas pressure:   5.082908e+02 +/ 0.000000e+00 [bar]
Excess pressure:     -4.484705e+02 +/ 0.000000e+00 [bar]
Pressure:             5.982032e+01 +/ 0.000000e+00 [bar]

Total potential energy/kʙ  -3.729988e+05 (-3.878165e+05 +/- 0.000000e+00) [K]
-------------------------------------------------------------------------------
ExternalField-molecule
    Van der Waals/kʙ        0.000000e+00 ( 0.000000e+00 +/- 0.000000e+00) [K]
Framework-molecule
    Van der Waals/kʙ        0.000000e+00 ( 0.000000e+00 +/- 0.000000e+00) [K]
    Van der Waals (Tail)/kʙ 0.000000e+00 ( 0.000000e+00 +/- 0.000000e+00) [K]
    Coulombic Real/kʙ       0.000000e+00 ( 0.000000e+00 +/- 0.000000e+00) [K]
    Coulombic Fourier/kʙ    0.000000e+00 ( 0.000000e+00 +/- 0.000000e+00) [K]
Molecule-molecule
    Van der Waals/kʙ       -2.667120e+05 (-2.762377e+05 +/- 0.000000e+00) [K]
    Van der Waals (Tail)/kʙ-1.140355e+04 (-1.177699e+04 +/- 0.000000e+00) [K]
    Coulombic Real/kʙ      -7.624730e+04 (-8.083307e+04 +/- 0.000000e+00) [K]
    Coulombic Fourier/kʙ   -1.863589e+04 (-1.896879e+04 +/- 0.000000e+00) [K]
    Molecule Intra/kʙ       0.000000e+00 ( 0.000000e+00 +/- 0.000000e+00) [K]

Current cycle: 200 out of 5000
===============================================================================

Box:      25.81826   0.00000   0.00000  Average:  25.79092   0.00000   0.00000
           0.00000  25.81826   0.00000             0.00000  25.79092   0.00000
           0.00000   0.00000  25.81826             0.00000   0.00000  25.79092
Lengths:  25.81826  25.81826  25.81826  Average:  25.79092  25.79092  25.79092
Angles:   90.00000  90.00000  90.00000  Average:  90.00000  90.00000  90.00000
Rectangular boundary conditions

net charge:   0.00000000

component 0 (CO2) lambda:  0 occupancy:  1 (1.000000)
    net charge:   0.00000000 [e]

Amount of molecules per component :
-------------------------------------------------------------------------------
Component 0 (CO2)
    molecules:      2.500000e+02 molecules  (2.500000e+02 +/- 0.000000e+00)
    number density: 1.452644e-02 molec./A^3 (1.457589e-02 +/- 0.000000e+00)
    density:        1.061327e+03 kg/m^3     (1.064940e+03 +/- 0.000000e+00)

Average pressure tensor: 
-------------------------------------------------------------------------------
 3.8660e+01  3.6462e+01 -1.8581e+01 +/- 0.0000e+00 0.0000e+00 0.0000e+00 [bar]
 3.6462e+01  5.4214e+01  2.8973e+01 +/- 0.0000e+00 0.0000e+00 0.0000e+00 [bar]
-1.8581e+01  2.8973e+01  1.0182e+02 +/- 0.0000e+00 0.0000e+00 0.0000e+00 [bar]
Ideal-gas pressure:   5.031052e+02 +/ 0.000000e+00 [bar]
Excess pressure:     -4.382062e+02 +/ 0.000000e+00 [bar]
Pressure:             6.489901e+01 +/ 0.000000e+00 [bar]

Total potential energy/kʙ  -3.848397e+05 (-3.825819e+05 +/- 0.000000e+00) [K]
-------------------------------------------------------------------------------
ExternalField-molecule
    Van der Waals/kʙ        0.000000e+00 ( 0.000000e+00 +/- 0.000000e+00) [K]
Framework-molecule
    Van der Waals/kʙ        0.000000e+00 ( 0.000000e+00 +/- 0.000000e+00) [K]
    Van der Waals (Tail)/kʙ 0.000000e+00 ( 0.000000e+00 +/- 0.000000e+00) [K]
    Coulombic Real/kʙ       0.000000e+00 ( 0.000000e+00 +/- 0.000000e+00) [K]
    Coulombic Fourier/kʙ    0.000000e+00 ( 0.000000e+00 +/- 0.000000e+00) [K]
Molecule-molecule
    Van der Waals/kʙ       -2.769577e+05 (-2.734156e+05 +/- 0.000000e+00) [K]
    Van der Waals (Tail)/kʙ-1.165220e+04 (-1.167864e+04 +/- 0.000000e+00) [K]
    Coulombic Real/kʙ      -7.797500e+04 (-7.875969e+04 +/- 0.000000e+00) [K]
    Coulombic Fourier/kʙ   -1.825486e+04 (-1.872799e+04 +/- 0.000000e+00) [K]
    Molecule Intra/kʙ       0.000000e+00 ( 0.000000e+00 +/- 0.000000e+00) [K]

Current cycle: 300 out of 5000
===============================================================================

Box:      25.69825   0.00000   0.00000  Average:  25.78777   0.00000   0.00000
           0.00000  25.69825   0.00000             0.00000  25.78777   0.00000
           0.00000   0.00000  25.69825             0.00000   0.00000  25.78777
Lengths:  25.69825  25.69825  25.69825  Average:  25.78777  25.78777  25.78777
Angles:   90.00000  90.00000  90.00000  Average:  90.00000  90.00000  90.00000
Rectangular boundary conditions

net charge:   0.00000000

component 0 (CO2) lambda:  0 occupancy:  1 (1.000000)
    net charge:   0.00000000 [e]

Amount of molecules per component :
-------------------------------------------------------------------------------
Component 0 (CO2)
    molecules:      2.500000e+02 molecules  (2.500000e+02 +/- 0.000000e+00)
    number density: 1.473090e-02 molec./A^3 (1.458042e-02 +/- 0.000000e+00)
    density:        1.076265e+03 kg/m^3     (1.065270e+03 +/- 0.000000e+00)

Average pressure tensor: 
-------------------------------------------------------------------------------
 6.5986e+01  7.2171e+01  2.7519e+01 +/- 0.0000e+00 0.0000e+00 0.0000e+00 [bar]
 7.2171e+01  1.0122e+02  2.4303e+01 +/- 0.0000e+00 0.0000e+00 0.0000e+00 [bar]
 2.7519e+01  2.4303e+01  1.8184e+02 +/- 0.0000e+00 0.0000e+00 0.0000e+00 [bar]
Ideal-gas pressure:   5.032615e+02 +/ 0.000000e+00 [bar]
Excess pressure:     -3.869149e+02 +/ 0.000000e+00 [bar]
Pressure:             1.163466e+02 +/ 0.000000e+00 [bar]

Total potential energy/kʙ  -3.830364e+05 (-3.828249e+05 +/- 0.000000e+00) [K]
-------------------------------------------------------------------------------
ExternalField-molecule
    Van der Waals/kʙ        0.000000e+00 ( 0.000000e+00 +/- 0.000000e+00) [K]
Framework-molecule
    Van der Waals/kʙ        0.000000e+00 ( 0.000000e+00 +/- 0.000000e+00) [K]
    Van der Waals (Tail)/kʙ 0.000000e+00 ( 0.000000e+00 +/- 0.000000e+00) [K]
    Coulombic Real/kʙ       0.000000e+00 ( 0.000000e+00 +/- 0.000000e+00) [K]
    Coulombic Fourier/kʙ    0.000000e+00 ( 0.000000e+00 +/- 0.000000e+00) [K]
Molecule-molecule
    Van der Waals/kʙ       -2.714883e+05 (-2.730375e+05 +/- 0.000000e+00) [K]
    Van der Waals (Tail)/kʙ-1.181621e+04 (-1.170447e+04 +/- 0.000000e+00) [K]
    Coulombic Real/kʙ      -8.113739e+04 (-7.927789e+04 +/- 0.000000e+00) [K]
    Coulombic Fourier/kʙ   -1.859449e+04 (-1.880508e+04 +/- 0.000000e+00) [K]
    Molecule Intra/kʙ       0.000000e+00 ( 0.000000e+00 +/- 0.000000e+00) [K]

Current cycle: 400 out of 5000
===============================================================================

Box:      25.64945   0.00000   0.00000  Average:  25.77296   0.00000   0.00000
           0.00000  25.64945   0.00000             0.00000  25.77296   0.00000
           0.00000   0.00000  25.64945             0.00000   0.00000  25.77296
Lengths:  25.64945  25.64945  25.64945  Average:  25.77296  25.77296  25.77296
Angles:   90.00000  90.00000  90.00000  Average:  90.00000  90.00000  90.00000
Rectangular boundary conditions

net charge:   0.00000000

component 0 (CO2) lambda:  0 occupancy:  1 (1.000000)
    net charge:   0.00000000 [e]

Amount of molecules per component :
-------------------------------------------------------------------------------
Component 0 (CO2)
    molecules:      2.500000e+02 molecules  (2.500000e+02 +/- 0.000000e+00)
    number density: 1.481514e-02 molec./A^3 (1.460543e-02 +/- 0.000000e+00)
    density:        1.082419e+03 kg/m^3     (1.067097e+03 +/- 0.000000e+00)

Average pressure tensor: 
-------------------------------------------------------------------------------
 1.4210e+02  1.3396e+01  3.2116e+01 +/- 0.0000e+00 0.0000e+00 0.0000e+00 [bar]
 1.3396e+01  1.1841e+02 -7.4963e+00 +/- 0.0000e+00 0.0000e+00 0.0000e+00 [bar]
 3.2116e+01 -7.4963e+00  1.7721e+02 +/- 0.0000e+00 0.0000e+00 0.0000e+00 [bar]
Ideal-gas pressure:   5.041247e+02 +/ 0.000000e+00 [bar]
Excess pressure:     -3.582161e+02 +/ 0.000000e+00 [bar]
Pressure:             1.459086e+02 +/ 0.000000e+00 [bar]

Total potential energy/kʙ  -3.879697e+05 (-3.841203e+05 +/- 0.000000e+00) [K]
-------------------------------------------------------------------------------
ExternalField-molecule
    Van der Waals/kʙ        0.000000e+00 ( 0.000000e+00 +/- 0.000000e+00) [K]
Framework-molecule
    Van der Waals/kʙ        0.000000e+00 ( 0.000000e+00 +/- 0.000000e+00) [K]
    Van der Waals (Tail)/kʙ 0.000000e+00 ( 0.000000e+00 +/- 0.000000e+00) [K]
    Coulombic Real/kʙ       0.000000e+00 ( 0.000000e+00 +/- 0.000000e+00) [K]
    Coulombic Fourier/kʙ    0.000000e+00 ( 0.000000e+00 +/- 0.000000e+00) [K]
Molecule-molecule
    Van der Waals/kʙ       -2.720801e+05 (-2.729475e+05 +/- 0.000000e+00) [K]
    Van der Waals (Tail)/kʙ-1.188378e+04 (-1.172894e+04 +/- 0.000000e+00) [K]
    Coulombic Real/kʙ      -8.379545e+04 (-8.030450e+04 +/- 0.000000e+00) [K]
    Coulombic Fourier/kʙ   -2.021038e+04 (-1.913933e+04 +/- 0.000000e+00) [K]
    Molecule Intra/kʙ       0.000000e+00 ( 0.000000e+00 +/- 0.000000e+00) [K]

Current cycle: 500 out of 5000
===============================================================================

Box:      25.69134   0.00000   0.00000  Average:  25.78250   0.00000   0.00000
           0.00000  25.69134   0.00000             0.00000  25.78250   0.00000
           0.00000   0.00000  25.69134             0.00000   0.00000  25.78250
Lengths:  25.69134  25.69134  25.69134  Average:  25.78250  25.78250  25.78250
Angles:   90.00000  90.00000  90.00000  Average:  90.00000  90.00000  90.00000
Rectangular boundary conditions

net charge:   0.00000000

component 0 (CO2) lambda:  0 occupancy:  1 (1.000000)
    net charge:   0.00000000 [e]

Amount of molecules per component :
-------------------------------------------------------------------------------
Component 0 (CO2)
    molecules:      2.500000e+02 molecules  (2.500000e+02 +/- 0.000000e+00)
    number density: 1.474279e-02 molec./A^3 (1.458920e-02 +/- 0.000000e+00)
    density:        1.077133e+03 kg/m^3     (1.065912e+03 +/- 0.000000e+00)

Average pressure tensor: 
-------------------------------------------------------------------------------
 1.1992e+02  7.5817e+00  4.3543e+01 +/- 0.0000e+00 0.0000e+00 0.0000e+00 [bar]
 7.5817e+00  1.0334e+02  1.3704e+01 +/- 0.0000e+00 0.0000e+00 0.0000e+00 [bar]
 4.3543e+01  1.3704e+01  1.9412e+02 +/- 0.0000e+00 0.0000e+00 0.0000e+00 [bar]
Ideal-gas pressure:   5.035646e+02 +/ 0.000000e+00 [bar]
Excess pressure:     -3.644399e+02 +/ 0.000000e+00 [bar]
Pressure:             1.391247e+02 +/ 0.000000e+00 [bar]

Total potential energy/kʙ  -3.917691e+05 (-3.831474e+05 +/- 0.000000e+00) [K]
-------------------------------------------------------------------------------
ExternalField-molecule
    Van der Waals/kʙ        0.000000e+00 ( 0.000000e+00 +/- 0.000000e+00) [K]
Framework-molecule
    Van der Waals/kʙ        0.000000e+00 ( 0.000000e+00 +/- 0.000000e+00) [K]
    Van der Waals (Tail)/kʙ 0.000000e+00 ( 0.000000e+00 +/- 0.000000e+00) [K]
    Coulombic Real/kʙ       0.000000e+00 ( 0.000000e+00 +/- 0.000000e+00) [K]
    Coulombic Fourier/kʙ    0.000000e+00 ( 0.000000e+00 +/- 0.000000e+00) [K]
Molecule-molecule
    Van der Waals/kʙ       -2.802449e+05 (-2.726759e+05 +/- 0.000000e+00) [K]
    Van der Waals (Tail)/kʙ-1.182574e+04 (-1.170948e+04 +/- 0.000000e+00) [K]
    Coulombic Real/kʙ      -8.130711e+04 (-7.965138e+04 +/- 0.000000e+00) [K]
    Coulombic Fourier/kʙ   -1.839131e+04 (-1.911070e+04 +/- 0.000000e+00) [K]
    Molecule Intra/kʙ       0.000000e+00 ( 0.000000e+00 +/- 0.000000e+00) [K]

Current cycle: 600 out of 5000
===============================================================================

Box:      25.74185   0.00000   0.00000  Average:  25.77280   0.00000   0.00000
           0.00000  25.74185   0.00000             0.00000  25.77280   0.00000
           0.00000   0.00000  25.74185             0.00000   0.00000  25.77280
Lengths:  25.74185  25.74185  25.74185  Average:  25.77280  25.77280  25.77280
Angles:   90.00000  90.00000  90.00000  Average:  90.00000  90.00000  90.00000
Rectangular boundary conditions

net charge:   0.00000000

component 0 (CO2) lambda:  0 occupancy:  1 (1.000000)
    net charge:   0.00000000 [e]

Amount of molecules per component :
-------------------------------------------------------------------------------
Component 0 (CO2)
    molecules:      2.500000e+02 molecules  (2.500000e+02 +/- 0.000000e+00)
    number density: 1.465617e-02 molec./A^3 (1.460559e-02 +/- 0.000000e+00)
    density:        1.070805e+03 kg/m^3     (1.067109e+03 +/- 0.000000e+00)

Average pressure tensor: 
-------------------------------------------------------------------------------
 1.0195e+02  9.0846e+00  5.3097e+01 +/- 0.0000e+00 0.0000e+00 0.0000e+00 [bar]
 9.0846e+00  1.1898e+02  2.5240e+01 +/- 0.0000e+00 0.0000e+00 0.0000e+00 [bar]
 5.3097e+01  2.5240e+01  1.8774e+02 +/- 0.0000e+00 0.0000e+00 0.0000e+00 [bar]
Ideal-gas pressure:   5.041303e+02 +/ 0.000000e+00 [bar]
Excess pressure:     -3.679069e+02 +/ 0.000000e+00 [bar]
Pressure:             1.362234e+02 +/ 0.000000e+00 [bar]

Total potential energy/kʙ  -3.773566e+05 (-3.829742e+05 +/- 0.000000e+00) [K]
-------------------------------------------------------------------------------
ExternalField-molecule
    Van der Waals/kʙ        0.000000e+00 ( 0.000000e+00 +/- 0.000000e+00) [K]
Framework-molecule
    Van der Waals/kʙ        0.000000e+00 ( 0.000000e+00 +/- 0.000000e+00) [K]
    Van der Waals (Tail)/kʙ 0.000000e+00 ( 0.000000e+00 +/- 0.000000e+00) [K]
    Coulombic Real/kʙ       0.000000e+00 ( 0.000000e+00 +/- 0.000000e+00) [K]
    Coulombic Fourier/kʙ    0.000000e+00 ( 0.000000e+00 +/- 0.000000e+00) [K]
Molecule-molecule
    Van der Waals/kʙ       -2.704490e+05 (-2.730708e+05 +/- 0.000000e+00) [K]
    Van der Waals (Tail)/kʙ-1.175626e+04 (-1.172002e+04 +/- 0.000000e+00) [K]
    Coulombic Real/kʙ      -7.634979e+04 (-7.926120e+04 +/- 0.000000e+00) [K]
    Coulombic Fourier/kʙ   -1.880154e+04 (-1.892217e+04 +/- 0.000000e+00) [K]
    Molecule Intra/kʙ       0.000000e+00 ( 0.000000e+00 +/- 0.000000e+00) [K]

Current cycle: 700 out of 5000
===============================================================================

Box:      25.70973   0.00000   0.00000  Average:  25.77504   0.00000   0.00000
           0.00000  25.70973   0.00000             0.00000  25.77504   0.00000
           0.00000   0.00000  25.70973             0.00000   0.00000  25.77504
Lengths:  25.70973  25.70973  25.70973  Average:  25.77504  25.77504  25.77504
Angles:   90.00000  90.00000  90.00000  Average:  90.00000  90.00000  90.00000
Rectangular boundary conditions

net charge:   0.00000000

component 0 (CO2) lambda:  0 occupancy:  1 (1.000000)
    net charge:   0.00000000 [e]

Amount of molecules per component :
-------------------------------------------------------------------------------
Component 0 (CO2)
    molecules:      2.500000e+02 molecules  (2.500000e+02 +/- 0.000000e+00)
    number density: 1.471118e-02 molec./A^3 (1.460165e-02 +/- 0.000000e+00)
    density:        1.074824e+03 kg/m^3     (1.066821e+03 +/- 0.000000e+00)

Average pressure tensor: 
-------------------------------------------------------------------------------
 1.0128e+02 -3.9418e+00  3.5469e+01 +/- 0.0000e+00 0.0000e+00 0.0000e+00 [bar]
-3.9418e+00  1.1778e+02  1.4006e+01 +/- 0.0000e+00 0.0000e+00 0.0000e+00 [bar]
 3.5469e+01  1.4006e+01  1.8905e+02 +/- 0.0000e+00 0.0000e+00 0.0000e+00 [bar]
Ideal-gas pressure:   5.039942e+02 +/ 0.000000e+00 [bar]
Excess pressure:     -3.679584e+02 +/ 0.000000e+00 [bar]
Pressure:             1.360358e+02 +/ 0.000000e+00 [bar]

Total potential energy/kʙ  -3.810732e+05 (-3.820071e+05 +/- 0.000000e+00) [K]
-------------------------------------------------------------------------------
ExternalField-molecule
    Van der Waals/kʙ        0.000000e+00 ( 0.000000e+00 +/- 0.000000e+00) [K]
Framework-molecule
    Van der Waals/kʙ        0.000000e+00 ( 0.000000e+00 +/- 0.000000e+00) [K]
    Van der Waals (Tail)/kʙ 0.000000e+00 ( 0.000000e+00 +/- 0.000000e+00) [K]
    Coulombic Real/kʙ       0.000000e+00 ( 0.000000e+00 +/- 0.000000e+00) [K]
    Coulombic Fourier/kʙ    0.000000e+00 ( 0.000000e+00 +/- 0.000000e+00) [K]
Molecule-molecule
    Van der Waals/kʙ       -2.737937e+05 (-2.731425e+05 +/- 0.000000e+00) [K]
    Van der Waals (Tail)/kʙ-1.180039e+04 (-1.171991e+04 +/- 0.000000e+00) [K]
    Coulombic Real/kʙ      -7.548285e+04 (-7.826171e+04 +/- 0.000000e+00) [K]
    Coulombic Fourier/kʙ   -1.999627e+04 (-1.888300e+04 +/- 0.000000e+00) [K]
    Molecule Intra/kʙ       0.000000e+00 ( 0.000000e+00 +/- 0.000000e+00) [K]

Current cycle: 800 out of 5000
===============================================================================

Box:      25.60845   0.00000   0.00000  Average:  25.74518   0.00000   0.00000
           0.00000  25.60845   0.00000             0.00000  25.74518   0.00000
           0.00000   0.00000  25.60845             0.00000   0.00000  25.74518
Lengths:  25.60845  25.60845  25.60845  Average:  25.74518  25.74518  25.74518
Angles:   90.00000  90.00000  90.00000  Average:  90.00000  90.00000  90.00000
Rectangular boundary conditions

net charge:   0.00000000

component 0 (CO2) lambda:  0 occupancy:  1 (1.000000)
    net charge:   0.00000000 [e]

Amount of molecules per component :
-------------------------------------------------------------------------------
Component 0 (CO2)
    molecules:      2.500000e+02 molecules  (2.500000e+02 +/- 0.000000e+00)
    number density: 1.488642e-02 molec./A^3 (1.465325e-02 +/- 0.000000e+00)
    density:        1.087627e+03 kg/m^3     (1.070591e+03 +/- 0.000000e+00)

Average pressure tensor: 
-------------------------------------------------------------------------------
 1.1950e+02  9.2798e-01  1.2074e+01 +/- 0.0000e+00 0.0000e+00 0.0000e+00 [bar]
 9.2798e-01  1.6305e+02 -1.5108e+01 +/- 0.0000e+00 0.0000e+00 0.0000e+00 [bar]
 1.2074e+01 -1.5108e+01  1.8045e+02 +/- 0.0000e+00 0.0000e+00 0.0000e+00 [bar]
Ideal-gas pressure:   5.057752e+02 +/ 0.000000e+00 [bar]
Excess pressure:     -3.514403e+02 +/ 0.000000e+00 [bar]
Pressure:             1.543349e+02 +/ 0.000000e+00 [bar]

Total potential energy/kʙ  -3.814812e+05 (-3.833317e+05 +/- 0.000000e+00) [K]
-------------------------------------------------------------------------------
ExternalField-molecule
    Van der Waals/kʙ        0.000000e+00 ( 0.000000e+00 +/- 0.000000e+00) [K]
Framework-molecule
    Van der Waals/kʙ        0.000000e+00 ( 0.000000e+00 +/- 0.000000e+00) [K]
    Van der Waals (Tail)/kʙ 0.000000e+00 ( 0.000000e+00 +/- 0.000000e+00) [K]
    Coulombic Real/kʙ       0.000000e+00 ( 0.000000e+00 +/- 0.000000e+00) [K]
    Coulombic Fourier/kʙ    0.000000e+00 ( 0.000000e+00 +/- 0.000000e+00) [K]
Molecule-molecule
    Van der Waals/kʙ       -2.743419e+05 (-2.739361e+05 +/- 0.000000e+00) [K]
    Van der Waals (Tail)/kʙ-1.194095e+04 (-1.176467e+04 +/- 0.000000e+00) [K]
    Coulombic Real/kʙ      -7.533014e+04 (-7.858805e+04 +/- 0.000000e+00) [K]
    Coulombic Fourier/kʙ   -1.986813e+04 (-1.904296e+04 +/- 0.000000e+00) [K]
    Molecule Intra/kʙ       0.000000e+00 ( 0.000000e+00 +/- 0.000000e+00) [K]

Current cycle: 900 out of 5000
===============================================================================

Box:      25.68096   0.00000   0.00000  Average:  25.74375   0.00000   0.00000
           0.00000  25.68096   0.00000             0.00000  25.74375   0.00000
           0.00000   0.00000  25.68096             0.00000   0.00000  25.74375
Lengths:  25.68096  25.68096  25.68096  Average:  25.74375  25.74375  25.74375
Angles:   90.00000  90.00000  90.00000  Average:  90.00000  90.00000  90.00000
Rectangular boundary conditions

net charge:   0.00000000

component 0 (CO2) lambda:  0 occupancy:  1 (1.000000)
    net charge:   0.00000000 [e]

Amount of molecules per component :
-------------------------------------------------------------------------------
Component 0 (CO2)
    molecules:      2.500000e+02 molecules  (2.500000e+02 +/- 0.000000e+00)
    number density: 1.476068e-02 molec./A^3 (1.465552e-02 +/- 0.000000e+00)
    density:        1.078440e+03 kg/m^3     (1.070757e+03 +/- 0.000000e+00)

Average pressure tensor: 
-------------------------------------------------------------------------------
 1.2026e+02  8.5495e+00  1.4304e+01 +/- 0.0000e+00 0.0000e+00 0.0000e+00 [bar]
 8.5495e+00  1.5092e+02  4.2400e+00 +/- 0.0000e+00 0.0000e+00 0.0000e+00 [bar]
 1.4304e+01  4.2400e+00  1.5218e+02 +/- 0.0000e+00 0.0000e+00 0.0000e+00 [bar]
Ideal-gas pressure:   5.058537e+02 +/ 0.000000e+00 [bar]
Excess pressure:     -3.647310e+02 +/ 0.000000e+00 [bar]
Pressure:             1.411227e+02 +/ 0.000000e+00 [bar]

Total potential energy/kʙ  -3.882764e+05 (-3.834273e+05 +/- 0.000000e+00) [K]
-------------------------------------------------------------------------------
ExternalField-molecule
    Van der Waals/kʙ        0.000000e+00 ( 0.000000e+00 +/- 0.000000e+00) [K]
Framework-molecule
    Van der Waals/kʙ        0.000000e+00 ( 0.000000e+00 +/- 0.000000e+00) [K]
    Van der Waals (Tail)/kʙ 0.000000e+00 ( 0.000000e+00 +/- 0.000000e+00) [K]
    Coulombic Real/kʙ       0.000000e+00 ( 0.000000e+00 +/- 0.000000e+00) [K]
    Coulombic Fourier/kʙ    0.000000e+00 ( 0.000000e+00 +/- 0.000000e+00) [K]
Molecule-molecule
    Van der Waals/kʙ       -2.726603e+05 (-2.740479e+05 +/- 0.000000e+00) [K]
    Van der Waals (Tail)/kʙ-1.184009e+04 (-1.176380e+04 +/- 0.000000e+00) [K]
    Coulombic Real/kʙ      -8.428360e+04 (-7.857569e+04 +/- 0.000000e+00) [K]
    Coulombic Fourier/kʙ   -1.949246e+04 (-1.903996e+04 +/- 0.000000e+00) [K]
    Molecule Intra/kʙ       0.000000e+00 ( 0.000000e+00 +/- 0.000000e+00) [K]

Current cycle: 1000 out of 5000
===============================================================================

Box:      25.78921   0.00000   0.00000  Average:  25.74333   0.00000   0.00000
           0.00000  25.78921   0.00000             0.00000  25.74333   0.00000
           0.00000   0.00000  25.78921             0.00000   0.00000  25.74333
Lengths:  25.78921  25.78921  25.78921  Average:  25.74333  25.74333  25.74333
Angles:   90.00000  90.00000  90.00000  Average:  90.00000  90.00000  90.00000
Rectangular boundary conditions

net charge:   0.00000000

component 0 (CO2) lambda:  0 occupancy:  1 (1.000000)
    net charge:   0.00000000 [e]

Amount of molecules per component :
-------------------------------------------------------------------------------
Component 0 (CO2)
    molecules:      2.500000e+02 molecules  (2.500000e+02 +/- 0.000000e+00)
    number density: 1.457557e-02 molec./A^3 (1.465612e-02 +/- 0.000000e+00)
    density:        1.064916e+03 kg/m^3     (1.070801e+03 +/- 0.000000e+00)

Average pressure tensor: 
-------------------------------------------------------------------------------
 1.1700e+02  1.3730e+01  1.8014e+01 +/- 0.0000e+00 0.0000e+00 0.0000e+00 [bar]
 1.3730e+01  1.5202e+02  1.3423e+01 +/- 0.0000e+00 0.0000e+00 0.0000e+00 [bar]
 1.8014e+01  1.3423e+01  1.6076e+02 +/- 0.0000e+00 0.0000e+00 0.0000e+00 [bar]
Ideal-gas pressure:   5.058745e+02 +/ 0.000000e+00 [bar]
Excess pressure:     -3.626182e+02 +/ 0.000000e+00 [bar]
Pressure:             1.432562e+02 +/ 0.000000e+00 [bar]

Total potential energy/kʙ  -3.798851e+05 (-3.834057e+05 +/- 0.000000e+00) [K]
-------------------------------------------------------------------------------
ExternalField-molecule
    Van der Waals/kʙ        0.000000e+00 ( 0.000000e+00 +/- 0.000000e+00) [K]
Framework-molecule
    Van der Waals/kʙ        0.000000e+00 ( 0.000000e+00 +/- 0.000000e+00) [K]
    Van der Waals (Tail)/kʙ 0.000000e+00 ( 0.000000e+00 +/- 0.000000e+00) [K]
    Coulombic Real/kʙ       0.000000e+00 ( 0.000000e+00 +/- 0.000000e+00) [K]
    Coulombic Fourier/kʙ    0.000000e+00 ( 0.000000e+00 +/- 0.000000e+00) [K]
Molecule-molecule
    Van der Waals/kʙ       -2.714250e+05 (-2.740976e+05 +/- 0.000000e+00) [K]
    Van der Waals (Tail)/kʙ-1.169161e+04 (-1.176533e+04 +/- 0.000000e+00) [K]
    Coulombic Real/kʙ      -7.779134e+04 (-7.847035e+04 +/- 0.000000e+00) [K]
    Coulombic Fourier/kʙ   -1.897717e+04 (-1.907241e+04 +/- 0.000000e+00) [K]
    Molecule Intra/kʙ       0.000000e+00 ( 0.000000e+00 +/- 0.000000e+00) [K]

Current cycle: 1100 out of 5000
===============================================================================

Box:      26.02967   0.00000   0.00000  Average:  25.75074   0.00000   0.00000
           0.00000  26.02967   0.00000             0.00000  25.75074   0.00000
           0.00000   0.00000  26.02967             0.00000   0.00000  25.75074
Lengths:  26.02967  26.02967  26.02967  Average:  25.75074  25.75074  25.75074
Angles:   90.00000  90.00000  90.00000  Average:  90.00000  90.00000  90.00000
Rectangular boundary conditions

net charge:   0.00000000

component 0 (CO2) lambda:  0 occupancy:  1 (1.000000)
    net charge:   0.00000000 [e]

Amount of molecules per component :
-------------------------------------------------------------------------------
Component 0 (CO2)
    molecules:      2.500000e+02 molecules  (2.500000e+02 +/- 0.000000e+00)
    number density: 1.417536e-02 molec./A^3 (1.464344e-02 +/- 0.000000e+00)
    density:        1.035676e+03 kg/m^3     (1.069875e+03 +/- 0.000000e+00)

Average pressure tensor: 
-------------------------------------------------------------------------------
 1.3575e+02  1.1000e+01  1.9106e+01 +/- 0.0000e+00 0.0000e+00 0.0000e+00 [bar]
 1.1000e+01  1.4110e+02  1.2266e+01 +/- 0.0000e+00 0.0000e+00 0.0000e+00 [bar]
 1.9106e+01  1.2266e+01  1.7761e+02 +/- 0.0000e+00 0.0000e+00 0.0000e+00 [bar]
Ideal-gas pressure:   5.054367e+02 +/ 0.000000e+00 [bar]
Excess pressure:     -3.539498e+02 +/ 0.000000e+00 [bar]
Pressure:             1.514869e+02 +/ 0.000000e+00 [bar]

Total potential energy/kʙ  -3.742241e+05 (-3.828788e+05 +/- 0.000000e+00) [K]
-------------------------------------------------------------------------------
ExternalField-molecule
    Van der Waals/kʙ        0.000000e+00 ( 0.000000e+00 +/- 0.000000e+00) [K]
Framework-molecule
    Van der Waals/kʙ        0.000000e+00 ( 0.000000e+00 +/- 0.000000e+00) [K]
    Van der Waals (Tail)/kʙ 0.000000e+00 ( 0.000000e+00 +/- 0.000000e+00) [K]
    Coulombic Real/kʙ       0.000000e+00 ( 0.000000e+00 +/- 0.000000e+00) [K]
    Coulombic Fourier/kʙ    0.000000e+00 ( 0.000000e+00 +/- 0.000000e+00) [K]
Molecule-molecule
    Van der Waals/kʙ       -2.662901e+05 (-2.737424e+05 +/- 0.000000e+00) [K]
    Van der Waals (Tail)/kʙ-1.137059e+04 (-1.175252e+04 +/- 0.000000e+00) [K]
    Coulombic Real/kʙ      -7.813184e+04 (-7.828752e+04 +/- 0.000000e+00) [K]
    Coulombic Fourier/kʙ   -1.843159e+04 (-1.909639e+04 +/- 0.000000e+00) [K]
    Molecule Intra/kʙ       0.000000e+00 ( 0.000000e+00 +/- 0.000000e+00) [K]

Current cycle: 1200 out of 5000
===============================================================================

Box:      25.72781   0.00000   0.00000  Average:  25.75720   0.00000   0.00000
           0.00000  25.72781   0.00000             0.00000  25.75720   0.00000
           0.00000   0.00000  25.72781             0.00000   0.00000  25.75720
Lengths:  25.72781  25.72781  25.72781  Average:  25.75720  25.75720  25.75720
Angles:   90.00000  90.00000  90.00000  Average:  90.00000  90.00000  90.00000
Rectangular boundary conditions

net charge:   0.00000000

component 0 (CO2) lambda:  0 occupancy:  1 (1.000000)
    net charge:   0.00000000 [e]

Amount of molecules per component :
-------------------------------------------------------------------------------
Component 0 (CO2)
    molecules:      2.500000e+02 molecules  (2.500000e+02 +/- 0.000000e+00)
    number density: 1.468019e-02 molec./A^3 (1.463241e-02 +/- 0.000000e+00)
    density:        1.072560e+03 kg/m^3     (1.069069e+03 +/- 0.000000e+00)

Average pressure tensor: 
-------------------------------------------------------------------------------
 1.2124e+02  4.0911e-01  5.6468e+00 +/- 0.0000e+00 0.0000e+00 0.0000e+00 [bar]
 4.0911e-01  1.3814e+02  5.9614e+00 +/- 0.0000e+00 0.0000e+00 0.0000e+00 [bar]
 5.6468e+00  5.9614e+00  1.6909e+02 +/- 0.0000e+00 0.0000e+00 0.0000e+00 [bar]
Ideal-gas pressure:   5.050561e+02 +/ 0.000000e+00 [bar]
Excess pressure:     -3.622312e+02 +/ 0.000000e+00 [bar]
Pressure:             1.428249e+02 +/ 0.000000e+00 [bar]

Total potential energy/kʙ  -3.893045e+05 (-3.824439e+05 +/- 0.000000e+00) [K]
-------------------------------------------------------------------------------
ExternalField-molecule
    Van der Waals/kʙ        0.000000e+00 ( 0.000000e+00 +/- 0.000000e+00) [K]
Framework-molecule
    Van der Waals/kʙ        0.000000e+00 ( 0.000000e+00 +/- 0.000000e+00) [K]
    Van der Waals (Tail)/kʙ 0.000000e+00 ( 0.000000e+00 +/- 0.000000e+00) [K]
    Coulombic Real/kʙ       0.000000e+00 ( 0.000000e+00 +/- 0.000000e+00) [K]
    Coulombic Fourier/kʙ    0.000000e+00 ( 0.000000e+00 +/- 0.000000e+00) [K]
Molecule-molecule
    Van der Waals/kʙ       -2.752416e+05 (-2.735848e+05 +/- 0.000000e+00) [K]
    Van der Waals (Tail)/kʙ-1.177553e+04 (-1.174117e+04 +/- 0.000000e+00) [K]
    Coulombic Real/kʙ      -8.256811e+04 (-7.799797e+04 +/- 0.000000e+00) [K]
    Coulombic Fourier/kʙ   -1.971930e+04 (-1.911996e+04 +/- 0.000000e+00) [K]
    Molecule Intra/kʙ       0.000000e+00 ( 0.000000e+00 +/- 0.000000e+00) [K]

Current cycle: 1300 out of 5000
===============================================================================

Box:      25.79123   0.00000   0.00000  Average:  25.76459   0.00000   0.00000
           0.00000  25.79123   0.00000             0.00000  25.76459   0.00000
           0.00000   0.00000  25.79123             0.00000   0.00000  25.76459
Lengths:  25.79123  25.79123  25.79123  Average:  25.76459  25.76459  25.76459
Angles:   90.00000  90.00000  90.00000  Average:  90.00000  90.00000  90.00000
Rectangular boundary conditions

net charge:   0.00000000

component 0 (CO2) lambda:  0 occupancy:  1 (1.000000)
    net charge:   0.00000000 [e]

Amount of molecules per component :
-------------------------------------------------------------------------------
Component 0 (CO2)
    molecules:      2.500000e+02 molecules  (2.500000e+02 +/- 0.000000e+00)
    number density: 1.457215e-02 molec./A^3 (1.461986e-02 +/- 0.000000e+00)
    density:        1.064666e+03 kg/m^3     (1.068152e+03 +/- 0.000000e+00)

Average pressure tensor: 
-------------------------------------------------------------------------------
 1.2105e+02  8.5137e+00  7.9290e+00 +/- 0.0000e+00 0.0000e+00 0.0000e+00 [bar]
 8.5137e+00  1.3578e+02  2.6126e-01 +/- 0.0000e+00 0.0000e+00 0.0000e+00 [bar]
 7.9290e+00  2.6126e-01  1.5894e+02 +/- 0.0000e+00 0.0000e+00 0.0000e+00 [bar]
Ideal-gas pressure:   5.046228e+02 +/ 0.000000e+00 [bar]
Excess pressure:     -3.660296e+02 +/ 0.000000e+00 [bar]
Pressure:             1.385932e+02 +/ 0.000000e+00 [bar]

Total potential energy/kʙ  -3.924609e+05 (-3.821494e+05 +/- 0.000000e+00) [K]
-------------------------------------------------------------------------------
ExternalField-molecule
    Van der Waals/kʙ        0.000000e+00 ( 0.000000e+00 +/- 0.000000e+00) [K]
Framework-molecule
    Van der Waals/kʙ        0.000000e+00 ( 0.000000e+00 +/- 0.000000e+00) [K]
    Van der Waals (Tail)/kʙ 0.000000e+00 ( 0.000000e+00 +/- 0.000000e+00) [K]
    Coulombic Real/kʙ       0.000000e+00 ( 0.000000e+00 +/- 0.000000e+00) [K]
    Coulombic Fourier/kʙ    0.000000e+00 ( 0.000000e+00 +/- 0.000000e+00) [K]
Molecule-molecule
    Van der Waals/kʙ       -2.790681e+05 (-2.734120e+05 +/- 0.000000e+00) [K]
    Van der Waals (Tail)/kʙ-1.168887e+04 (-1.173005e+04 +/- 0.000000e+00) [K]
    Coulombic Real/kʙ      -8.170297e+04 (-7.791111e+04 +/- 0.000000e+00) [K]
    Coulombic Fourier/kʙ   -2.000096e+04 (-1.909623e+04 +/- 0.000000e+00) [K]
    Molecule Intra/kʙ       0.000000e+00 ( 0.000000e+00 +/- 0.000000e+00) [K]

Current cycle: 1400 out of 5000
===============================================================================

Box:      25.85254   0.00000   0.00000  Average:  25.77338   0.00000   0.00000
           0.00000  25.85254   0.00000             0.00000  25.77338   0.00000
           0.00000   0.00000  25.85254             0.00000   0.00000  25.77338
Lengths:  25.85254  25.85254  25.85254  Average:  25.77338  25.77338  25.77338
Angles:   90.00000  90.00000  90.00000  Average:  90.00000  90.00000  90.00000
Rectangular boundary conditions

net charge:   0.00000000

component 0 (CO2) lambda:  0 occupancy:  1 (1.000000)
    net charge:   0.00000000 [e]

Amount of molecules per component :
-------------------------------------------------------------------------------
Component 0 (CO2)
    molecules:      2.500000e+02 molecules  (2.500000e+02 +/- 0.000000e+00)
    number density: 1.446873e-02 molec./A^3 (1.460497e-02 +/- 0.000000e+00)
    density:        1.057110e+03 kg/m^3     (1.067064e+03 +/- 0.000000e+00)

Average pressure tensor: 
-------------------------------------------------------------------------------
 1.2187e+02 -6.1425e+00  4.2380e+00 +/- 0.0000e+00 0.0000e+00 0.0000e+00 [bar]
-6.1425e+00  1.2808e+02 -2.7348e+00 +/- 0.0000e+00 0.0000e+00 0.0000e+00 [bar]
 4.2380e+00 -2.7348e+00  1.4223e+02 +/- 0.0000e+00 0.0000e+00 0.0000e+00 [bar]
Ideal-gas pressure:   5.041088e+02 +/ 0.000000e+00 [bar]
Excess pressure:     -3.733804e+02 +/ 0.000000e+00 [bar]
Pressure:             1.307283e+02 +/ 0.000000e+00 [bar]

Total potential energy/kʙ  -3.755354e+05 (-3.817243e+05 +/- 0.000000e+00) [K]
-------------------------------------------------------------------------------
ExternalField-molecule
    Van der Waals/kʙ        0.000000e+00 ( 0.000000e+00 +/- 0.000000e+00) [K]
Framework-molecule
    Van der Waals/kʙ        0.000000e+00 ( 0.000000e+00 +/- 0.000000e+00) [K]
    Van der Waals (Tail)/kʙ 0.000000e+00 ( 0.000000e+00 +/- 0.000000e+00) [K]
    Coulombic Real/kʙ       0.000000e+00 ( 0.000000e+00 +/- 0.000000e+00) [K]
    Coulombic Fourier/kʙ    0.000000e+00 ( 0.000000e+00 +/- 0.000000e+00) [K]
Molecule-molecule
    Van der Waals/kʙ       -2.695998e+05 (-2.730813e+05 +/- 0.000000e+00) [K]
    Van der Waals (Tail)/kʙ-1.160591e+04 (-1.171578e+04 +/- 0.000000e+00) [K]
    Coulombic Real/kʙ      -7.547828e+04 (-7.779919e+04 +/- 0.000000e+00) [K]
    Coulombic Fourier/kʙ   -1.885145e+04 (-1.912797e+04 +/- 0.000000e+00) [K]
    Molecule Intra/kʙ       0.000000e+00 ( 0.000000e+00 +/- 0.000000e+00) [K]

Current cycle: 1500 out of 5000
===============================================================================

Box:      25.39786   0.00000   0.00000  Average:  25.76687   0.00000   0.00000
           0.00000  25.39786   0.00000             0.00000  25.76687   0.00000
           0.00000   0.00000  25.39786             0.00000   0.00000  25.76687
Lengths:  25.39786  25.39786  25.39786  Average:  25.76687  25.76687  25.76687
Angles:   90.00000  90.00000  90.00000  Average:  90.00000  90.00000  90.00000
Rectangular boundary conditions

net charge:   0.00000000

component 0 (CO2) lambda:  0 occupancy:  1 (1.000000)
    net charge:   0.00000000 [e]

Amount of molecules per component :
-------------------------------------------------------------------------------
Component 0 (CO2)
    molecules:      2.500000e+02 molecules  (2.500000e+02 +/- 0.000000e+00)
    number density: 1.525980e-02 molec./A^3 (1.461606e-02 +/- 0.000000e+00)
    density:        1.114907e+03 kg/m^3     (1.067875e+03 +/- 0.000000e+00)

Average pressure tensor: 
-------------------------------------------------------------------------------
 1.4268e+02 -8.7455e+00  1.1467e+01 +/- 0.0000e+00 0.0000e+00 0.0000e+00 [bar]
-8.7455e+00  1.2729e+02 -3.7476e+00 +/- 0.0000e+00 0.0000e+00 0.0000e+00 [bar]
 1.1467e+01 -3.7476e+00  1.3186e+02 +/- 0.0000e+00 0.0000e+00 0.0000e+00 [bar]
Ideal-gas pressure:   5.044919e+02 +/ 0.000000e+00 [bar]
Excess pressure:     -3.705468e+02 +/ 0.000000e+00 [bar]
Pressure:             1.339451e+02 +/ 0.000000e+00 [bar]

Total potential energy/kʙ  -4.015017e+05 (-3.822731e+05 +/- 0.000000e+00) [K]
-------------------------------------------------------------------------------
ExternalField-molecule
    Van der Waals/kʙ        0.000000e+00 ( 0.000000e+00 +/- 0.000000e+00) [K]
Framework-molecule
    Van der Waals/kʙ        0.000000e+00 ( 0.000000e+00 +/- 0.000000e+00) [K]
    Van der Waals (Tail)/kʙ 0.000000e+00 ( 0.000000e+00 +/- 0.000000e+00) [K]
    Coulombic Real/kʙ       0.000000e+00 ( 0.000000e+00 +/- 0.000000e+00) [K]
    Coulombic Fourier/kʙ    0.000000e+00 ( 0.000000e+00 +/- 0.000000e+00) [K]
Molecule-molecule
    Van der Waals/kʙ       -2.840039e+05 (-2.732832e+05 +/- 0.000000e+00) [K]
    Van der Waals (Tail)/kʙ-1.224045e+04 (-1.172657e+04 +/- 0.000000e+00) [K]
    Coulombic Real/kʙ      -8.533011e+04 (-7.809869e+04 +/- 0.000000e+00) [K]
    Coulombic Fourier/kʙ   -1.992721e+04 (-1.916460e+04 +/- 0.000000e+00) [K]
    Molecule Intra/kʙ       0.000000e+00 ( 0.000000e+00 +/- 0.000000e+00) [K]

Current cycle: 1600 out of 5000
===============================================================================

Box:      25.69188   0.00000   0.00000  Average:  25.76182   0.00000   0.00000
           0.00000  25.69188   0.00000             0.00000  25.76182   0.00000
           0.00000   0.00000  25.69188             0.00000   0.00000  25.76182
Lengths:  25.69188  25.69188  25.69188  Average:  25.76182  25.76182  25.76182
Angles:   90.00000  90.00000  90.00000  Average:  90.00000  90.00000  90.00000
Rectangular boundary conditions

net charge:   0.00000000

component 0 (CO2) lambda:  0 occupancy:  1 (1.000000)
    net charge:   0.00000000 [e]

Amount of molecules per component :
-------------------------------------------------------------------------------
Component 0 (CO2)
    molecules:      2.500000e+02 molecules  (2.500000e+02 +/- 0.000000e+00)
    number density: 1.474187e-02 molec./A^3 (1.462466e-02 +/- 0.000000e+00)
    density:        1.077066e+03 kg/m^3     (1.068503e+03 +/- 0.000000e+00)

Average pressure tensor: 
-------------------------------------------------------------------------------
 1.5507e+02 -9.9091e+00  4.6639e+00 +/- 0.0000e+00 0.0000e+00 0.0000e+00 [bar]
-9.9091e+00  1.3004e+02 -1.1069e+01 +/- 0.0000e+00 0.0000e+00 0.0000e+00 [bar]
 4.6639e+00 -1.1069e+01  1.3513e+02 +/- 0.0000e+00 0.0000e+00 0.0000e+00 [bar]
Ideal-gas pressure:   5.047885e+02 +/ 0.000000e+00 [bar]
Excess pressure:     -3.647097e+02 +/ 0.000000e+00 [bar]
Pressure:             1.400788e+02 +/ 0.000000e+00 [bar]

Total potential energy/kʙ  -3.871987e+05 (-3.825518e+05 +/- 0.000000e+00) [K]
-------------------------------------------------------------------------------
ExternalField-molecule
    Van der Waals/kʙ        0.000000e+00 ( 0.000000e+00 +/- 0.000000e+00) [K]
Framework-molecule
    Van der Waals/kʙ        0.000000e+00 ( 0.000000e+00 +/- 0.000000e+00) [K]
    Van der Waals (Tail)/kʙ 0.000000e+00 ( 0.000000e+00 +/- 0.000000e+00) [K]
    Coulombic Real/kʙ       0.000000e+00 ( 0.000000e+00 +/- 0.000000e+00) [K]
    Coulombic Fourier/kʙ    0.000000e+00 ( 0.000000e+00 +/- 0.000000e+00) [K]
Molecule-molecule
    Van der Waals/kʙ       -2.758209e+05 (-2.735280e+05 +/- 0.000000e+00) [K]
    Van der Waals (Tail)/kʙ-1.182500e+04 (-1.173392e+04 +/- 0.000000e+00) [K]
    Coulombic Real/kʙ      -8.051801e+04 (-7.808921e+04 +/- 0.000000e+00) [K]
    Coulombic Fourier/kʙ   -1.903474e+04 (-1.920065e+04 +/- 0.000000e+00) [K]
    Molecule Intra/kʙ       0.000000e+00 ( 0.000000e+00 +/- 0.000000e+00) [K]

Current cycle: 1700 out of 5000
===============================================================================

Box:      26.13405   0.00000   0.00000  Average:  25.77288   0.00000   0.00000
           0.00000  26.13405   0.00000             0.00000  25.77288   0.00000
           0.00000   0.00000  26.13405             0.00000   0.00000  25.77288
Lengths:  26.13405  26.13405  26.13405  Average:  25.77288  25.77288  25.77288
Angles:   90.00000  90.00000  90.00000  Average:  90.00000  90.00000  90.00000
Rectangular boundary conditions

net charge:   0.00000000

component 0 (CO2) lambda:  0 occupancy:  1 (1.000000)
    net charge:   0.00000000 [e]

Amount of molecules per component :
-------------------------------------------------------------------------------
Component 0 (CO2)
    molecules:      2.500000e+02 molecules  (2.500000e+02 +/- 0.000000e+00)
    number density: 1.400618e-02 molec./A^3 (1.460607e-02 +/- 0.000000e+00)
    density:        1.023316e+03 kg/m^3     (1.067145e+03 +/- 0.000000e+00)

Average pressure tensor: 
-------------------------------------------------------------------------------
 1.3684e+02 -6.0101e+00  9.1424e+00 +/- 0.0000e+00 0.0000e+00 0.0000e+00 [bar]
-6.0101e+00  1.3145e+02 -1.3232e+01 +/- 0.0000e+00 0.0000e+00 0.0000e+00 [bar]
 9.1424e+00 -1.3232e+01  1.4156e+02 +/- 0.0000e+00 0.0000e+00 0.0000e+00 [bar]
Ideal-gas pressure:   5.041469e+02 +/ 0.000000e+00 [bar]
Excess pressure:     -3.675303e+02 +/ 0.000000e+00 [bar]
Pressure:             1.366166e+02 +/ 0.000000e+00 [bar]

Total potential energy/kʙ  -3.717237e+05 (-3.820916e+05 +/- 0.000000e+00) [K]
-------------------------------------------------------------------------------
ExternalField-molecule
    Van der Waals/kʙ        0.000000e+00 ( 0.000000e+00 +/- 0.000000e+00) [K]
Framework-molecule
    Van der Waals/kʙ        0.000000e+00 ( 0.000000e+00 +/- 0.000000e+00) [K]
    Van der Waals (Tail)/kʙ 0.000000e+00 ( 0.000000e+00 +/- 0.000000e+00) [K]
    Coulombic Real/kʙ       0.000000e+00 ( 0.000000e+00 +/- 0.000000e+00) [K]
    Coulombic Fourier/kʙ    0.000000e+00 ( 0.000000e+00 +/- 0.000000e+00) [K]
Molecule-molecule
    Van der Waals/kʙ       -2.663867e+05 (-2.731838e+05 +/- 0.000000e+00) [K]
    Van der Waals (Tail)/kʙ-1.123488e+04 (-1.171631e+04 +/- 0.000000e+00) [K]
    Coulombic Real/kʙ      -7.623903e+04 (-7.802450e+04 +/- 0.000000e+00) [K]
    Coulombic Fourier/kʙ   -1.786313e+04 (-1.916699e+04 +/- 0.000000e+00) [K]
    Molecule Intra/kʙ       0.000000e+00 ( 0.000000e+00 +/- 0.000000e+00) [K]

Current cycle: 1800 out of 5000
===============================================================================

Box:      25.67238   0.00000   0.00000  Average:  25.77709   0.00000   0.00000
           0.00000  25.67238   0.00000             0.00000  25.77709   0.00000
           0.00000   0.00000  25.67238             0.00000   0.00000  25.77709
Lengths:  25.67238  25.67238  25.67238  Average:  25.77709  25.77709  25.77709
Angles:   90.00000  90.00000  90.00000  Average:  90.00000  90.00000  90.00000
Rectangular boundary conditions

net charge:   0.00000000

component 0 (CO2) lambda:  0 occupancy:  1 (1.000000)
    net charge:   0.00000000 [e]

Amount of molecules per component :
-------------------------------------------------------------------------------
Component 0 (CO2)
    molecules:      2.500000e+02 molecules  (2.500000e+02 +/- 0.000000e+00)
    number density: 1.477548e-02 molec./A^3 (1.459890e-02 +/- 0.000000e+00)
    density:        1.079522e+03 kg/m^3     (1.066621e+03 +/- 0.000000e+00)

Average pressure tensor: 
-------------------------------------------------------------------------------
 1.3832e+02  1.0019e+00  2.4206e+00 +/- 0.0000e+00 0.0000e+00 0.0000e+00 [bar]
 1.0019e+00  1.4226e+02 -2.1784e+01 +/- 0.0000e+00 0.0000e+00 0.0000e+00 [bar]
 2.4206e+00 -2.1784e+01  1.4141e+02 +/- 0.0000e+00 0.0000e+00 0.0000e+00 [bar]
Ideal-gas pressure:   5.038994e+02 +/ 0.000000e+00 [bar]
Excess pressure:     -3.632340e+02 +/ 0.000000e+00 [bar]
Pressure:             1.406654e+02 +/ 0.000000e+00 [bar]

Total potential energy/kʙ  -3.922721e+05 (-3.820197e+05 +/- 0.000000e+00) [K]
-------------------------------------------------------------------------------
ExternalField-molecule
    Van der Waals/kʙ        0.000000e+00 ( 0.000000e+00 +/- 0.000000e+00) [K]
Framework-molecule
    Van der Waals/kʙ        0.000000e+00 ( 0.000000e+00 +/- 0.000000e+00) [K]
    Van der Waals (Tail)/kʙ 0.000000e+00 ( 0.000000e+00 +/- 0.000000e+00) [K]
    Coulombic Real/kʙ       0.000000e+00 ( 0.000000e+00 +/- 0.000000e+00) [K]
    Coulombic Fourier/kʙ    0.000000e+00 ( 0.000000e+00 +/- 0.000000e+00) [K]
Molecule-molecule
    Van der Waals/kʙ       -2.764189e+05 (-2.729300e+05 +/- 0.000000e+00) [K]
    Van der Waals (Tail)/kʙ-1.185196e+04 (-1.171247e+04 +/- 0.000000e+00) [K]
    Coulombic Real/kʙ      -8.466545e+04 (-7.819906e+04 +/- 0.000000e+00) [K]
    Coulombic Fourier/kʙ   -1.933587e+04 (-1.917814e+04 +/- 0.000000e+00) [K]
    Molecule Intra/kʙ       0.000000e+00 ( 0.000000e+00 +/- 0.000000e+00) [K]

Current cycle: 1900 out of 5000
===============================================================================

Box:      25.85483   0.00000   0.00000  Average:  25.77768   0.00000   0.00000
           0.00000  25.85483   0.00000             0.00000  25.77768   0.00000
           0.00000   0.00000  25.85483             0.00000   0.00000  25.77768
Lengths:  25.85483  25.85483  25.85483  Average:  25.77768  25.77768  25.77768
Angles:   90.00000  90.00000  90.00000  Average:  90.00000  90.00000  90.00000
Rectangular boundary conditions

net charge:   0.00000000

component 0 (CO2) lambda:  0 occupancy:  1 (1.000000)
    net charge:   0.00000000 [e]

Amount of molecules per component :
-------------------------------------------------------------------------------
Component 0 (CO2)
    molecules:      2.500000e+02 molecules  (2.500000e+02 +/- 0.000000e+00)
    number density: 1.446489e-02 molec./A^3 (1.459781e-02 +/- 0.000000e+00)
    density:        1.056829e+03 kg/m^3     (1.066541e+03 +/- 0.000000e+00)

Average pressure tensor: 
-------------------------------------------------------------------------------
 1.3482e+02 -3.9745e-01  7.4621e-01 +/- 0.0000e+00 0.0000e+00 0.0000e+00 [bar]
-3.9745e-01  1.5550e+02 -2.3247e+01 +/- 0.0000e+00 0.0000e+00 0.0000e+00 [bar]
 7.4621e-01 -2.3247e+01  1.4431e+02 +/- 0.0000e+00 0.0000e+00 0.0000e+00 [bar]
Ideal-gas pressure:   5.038619e+02 +/ 0.000000e+00 [bar]
Excess pressure:     -3.589881e+02 +/ 0.000000e+00 [bar]
Pressure:             1.448737e+02 +/ 0.000000e+00 [bar]

Total potential energy/kʙ  -3.736459e+05 (-3.819182e+05 +/- 0.000000e+00) [K]
-------------------------------------------------------------------------------
ExternalField-molecule
    Van der Waals/kʙ        0.000000e+00 ( 0.000000e+00 +/- 0.000000e+00) [K]
Framework-molecule
    Van der Waals/kʙ        0.000000e+00 ( 0.000000e+00 +/- 0.000000e+00) [K]
    Van der Waals (Tail)/kʙ 0.000000e+00 ( 0.000000e+00 +/- 0.000000e+00) [K]
    Coulombic Real/kʙ       0.000000e+00 ( 0.000000e+00 +/- 0.000000e+00) [K]
    Coulombic Fourier/kʙ    0.000000e+00 ( 0.000000e+00 +/- 0.000000e+00) [K]
Molecule-molecule
    Van der Waals/kʙ       -2.691283e+05 (-2.728835e+05 +/- 0.000000e+00) [K]
    Van der Waals (Tail)/kʙ-1.160283e+04 (-1.171169e+04 +/- 0.000000e+00) [K]
    Coulombic Real/kʙ      -7.437633e+04 (-7.814829e+04 +/- 0.000000e+00) [K]
    Coulombic Fourier/kʙ   -1.853848e+04 (-1.917481e+04 +/- 0.000000e+00) [K]
    Molecule Intra/kʙ       0.000000e+00 ( 0.000000e+00 +/- 0.000000e+00) [K]

Current cycle: 2000 out of 5000
===============================================================================

Box:      26.00025   0.00000   0.00000  Average:  25.77822   0.00000   0.00000
           0.00000  26.00025   0.00000             0.00000  25.77822   0.00000
           0.00000   0.00000  26.00025             0.00000   0.00000  25.77822
Lengths:  26.00025  26.00025  26.00025  Average:  25.77822  25.77822  25.77822
Angles:   90.00000  90.00000  90.00000  Average:  90.00000  90.00000  90.00000
Rectangular boundary conditions

net charge:   0.00000000

component 0 (CO2) lambda:  0 occupancy:  1 (1.000000)
    net charge:   0.00000000 [e]

Amount of molecules per component :
-------------------------------------------------------------------------------
Component 0 (CO2)
    molecules:      2.500000e+02 molecules  (2.500000e+02 +/- 0.000000e+00)
    number density: 1.422353e-02 molec./A^3 (1.459683e-02 +/- 0.000000e+00)
    density:        1.039195e+03 kg/m^3     (1.066469e+03 +/- 0.000000e+00)

Average pressure tensor: 
-------------------------------------------------------------------------------
 1.3242e+02  2.8887e+00 -3.1105e+00 +/- 0.0000e+00 0.0000e+00 0.0000e+00 [bar]
 2.8887e+00  1.6487e+02 -2.0674e+01 +/- 0.0000e+00 0.0000e+00 0.0000e+00 [bar]
-3.1105e+00 -2.0674e+01  1.4031e+02 +/- 0.0000e+00 0.0000e+00 0.0000e+00 [bar]
Ideal-gas pressure:   5.038278e+02 +/ 0.000000e+00 [bar]
Excess pressure:     -3.579626e+02 +/ 0.000000e+00 [bar]
Pressure:             1.458652e+02 +/ 0.000000e+00 [bar]

Total potential energy/kʙ  -3.727769e+05 (-3.818907e+05 +/- 0.000000e+00) [K]
-------------------------------------------------------------------------------
ExternalField-molecule
    Van der Waals/kʙ        0.000000e+00 ( 0.000000e+00 +/- 0.000000e+00) [K]
Framework-molecule
    Van der Waals/kʙ        0.000000e+00 ( 0.000000e+00 +/- 0.000000e+00) [K]
    Van der Waals (Tail)/kʙ 0.000000e+00 ( 0.000000e+00 +/- 0.000000e+00) [K]
    Coulombic Real/kʙ       0.000000e+00 ( 0.000000e+00 +/- 0.000000e+00) [K]
    Coulombic Fourier/kʙ    0.000000e+00 ( 0.000000e+00 +/- 0.000000e+00) [K]
Molecule-molecule
    Van der Waals/kʙ       -2.661093e+05 (-2.727742e+05 +/- 0.000000e+00) [K]
    Van der Waals (Tail)/kʙ-1.140922e+04 (-1.171120e+04 +/- 0.000000e+00) [K]
    Coulombic Real/kʙ      -7.539951e+04 (-7.820995e+04 +/- 0.000000e+00) [K]
    Coulombic Fourier/kʙ   -1.985886e+04 (-1.919543e+04 +/- 0.000000e+00) [K]
    Molecule Intra/kʙ       0.000000e+00 ( 0.000000e+00 +/- 0.000000e+00) [K]

Current cycle: 2100 out of 5000
===============================================================================

Box:      25.74483   0.00000   0.00000  Average:  25.77625   0.00000   0.00000
           0.00000  25.74483   0.00000             0.00000  25.77625   0.00000
           0.00000   0.00000  25.74483             0.00000   0.00000  25.77625
Lengths:  25.74483  25.74483  25.74483  Average:  25.77625  25.77625  25.77625
Angles:   90.00000  90.00000  90.00000  Average:  90.00000  90.00000  90.00000
Rectangular boundary conditions

net charge:   0.00000000

component 0 (CO2) lambda:  0 occupancy:  1 (1.000000)
    net charge:   0.00000000 [e]

Amount of molecules per component :
-------------------------------------------------------------------------------
Component 0 (CO2)
    molecules:      2.500000e+02 molecules  (2.500000e+02 +/- 0.000000e+00)
    number density: 1.465108e-02 molec./A^3 (1.460015e-02 +/- 0.000000e+00)
    density:        1.070433e+03 kg/m^3     (1.066712e+03 +/- 0.000000e+00)

Average pressure tensor: 
-------------------------------------------------------------------------------
 1.2573e+02  8.5555e+00 -4.8001e+00 +/- 0.0000e+00 0.0000e+00 0.0000e+00 [bar]
 8.5555e+00  1.5819e+02 -1.2610e+01 +/- 0.0000e+00 0.0000e+00 0.0000e+00 [bar]
-4.8001e+00 -1.2610e+01  1.3712e+02 +/- 0.0000e+00 0.0000e+00 0.0000e+00 [bar]
Ideal-gas pressure:   5.039425e+02 +/ 0.000000e+00 [bar]
Excess pressure:     -3.635970e+02 +/ 0.000000e+00 [bar]
Pressure:             1.403455e+02 +/ 0.000000e+00 [bar]

Total potential energy/kʙ  -3.884859e+05 (-3.820930e+05 +/- 0.000000e+00) [K]
-------------------------------------------------------------------------------
ExternalField-molecule
    Van der Waals/kʙ        0.000000e+00 ( 0.000000e+00 +/- 0.000000e+00) [K]
Framework-molecule
    Van der Waals/kʙ        0.000000e+00 ( 0.000000e+00 +/- 0.000000e+00) [K]
    Van der Waals (Tail)/kʙ 0.000000e+00 ( 0.000000e+00 +/- 0.000000e+00) [K]
[...]
    Coulombic Fourier/kʙ    0.000000e+00 ( 0.000000e+00 +/- 0.000000e+00) [K]
Molecule-molecule
    Van der Waals/kʙ       -2.912014e+05 (-2.734701e+05 +/- 7.866113e+03) [K]
    Van der Waals (Tail)/kʙ-1.237392e+04 (-1.172586e+04 +/- 2.771679e+02) [K]
    Coulombic Real/kʙ      -8.603867e+04 (-8.011908e+04 +/- 3.890628e+03) [K]
    Coulombic Fourier/kʙ   -2.063161e+04 (-1.944083e+04 +/- 7.018451e+02) [K]
    Molecule Intra/kʙ       0.000000e+00 ( 0.000000e+00 +/- 0.000000e+00) [K]

Current cycle: 4700 out of 5000
===============================================================================

Box:      25.42785   0.00000   0.00000  Average:  25.75994   0.00000   0.00000
           0.00000  25.42785   0.00000             0.00000  25.75994   0.00000
           0.00000   0.00000  25.42785             0.00000   0.00000  25.75994
Lengths:  25.42785  25.42785  25.42785  Average:  25.75994  25.75994  25.75994
Angles:   90.00000  90.00000  90.00000  Average:  90.00000  90.00000  90.00000
Rectangular boundary conditions

net charge:   0.00000000

component 0 (CO2) lambda:  0 occupancy:  1 (1.000000)
    net charge:   0.00000000 [e]

Amount of molecules per component :
-------------------------------------------------------------------------------
Component 0 (CO2)
    molecules:      2.500000e+02 molecules  (2.500000e+02 +/- 3.944933e-14)
    number density: 1.520586e-02 molec./A^3 (1.463214e-02 +/- 3.576903e-04)
    density:        1.110966e+03 kg/m^3     (1.069049e+03 +/- 2.613346e+01)

Average pressure tensor: 
-------------------------------------------------------------------------------
 1.3041e+02  1.8853e+01  3.9517e+00 +/- 9.4987e+01 2.8254e+01 3.5307e+01 [bar]
 1.8853e+01  1.3065e+02 -1.0961e+01 +/- 2.8254e+01 8.4660e+01 4.4853e+01 [bar]
 3.9517e+00 -1.0961e+01  1.2704e+02 +/- 3.5307e+01 4.4853e+01 7.3421e+01 [bar]
Ideal-gas pressure:   5.050467e+02 +/ 1.234613e+01 [bar]
Excess pressure:     -3.756820e+02 +/ 4.784974e+01 [bar]
Pressure:             1.293647e+02 +/ 4.109208e+01 [bar]

Total potential energy/kʙ  -4.006829e+05 (-3.851522e+05 +/- 1.227866e+04) [K]
-------------------------------------------------------------------------------
ExternalField-molecule
    Van der Waals/kʙ        0.000000e+00 ( 0.000000e+00 +/- 0.000000e+00) [K]
Framework-molecule
    Van der Waals/kʙ        0.000000e+00 ( 0.000000e+00 +/- 0.000000e+00) [K]
    Van der Waals (Tail)/kʙ 0.000000e+00 ( 0.000000e+00 +/- 0.000000e+00) [K]
    Coulombic Real/kʙ       0.000000e+00 ( 0.000000e+00 +/- 0.000000e+00) [K]
    Coulombic Fourier/kʙ    0.000000e+00 ( 0.000000e+00 +/- 0.000000e+00) [K]
Molecule-molecule
    Van der Waals/kʙ       -2.841011e+05 (-2.737843e+05 +/- 8.073009e+03) [K]
    Van der Waals (Tail)/kʙ-1.219719e+04 (-1.173652e+04 +/- 2.836035e+02) [K]
    Coulombic Real/kʙ      -8.331559e+04 (-8.016819e+04 +/- 3.633383e+03) [K]
    Coulombic Fourier/kʙ   -2.106901e+04 (-1.946316e+04 +/- 6.979196e+02) [K]
    Molecule Intra/kʙ       0.000000e+00 ( 0.000000e+00 +/- 0.000000e+00) [K]

Current cycle: 4800 out of 5000
===============================================================================

Box:      25.78641   0.00000   0.00000  Average:  25.75315   0.00000   0.00000
           0.00000  25.78641   0.00000             0.00000  25.75315   0.00000
           0.00000   0.00000  25.78641             0.00000   0.00000  25.75315
Lengths:  25.78641  25.78641  25.78641  Average:  25.75315  25.75315  25.75315
Angles:   90.00000  90.00000  90.00000  Average:  90.00000  90.00000  90.00000
Rectangular boundary conditions

net charge:   0.00000000

component 0 (CO2) lambda:  0 occupancy:  1 (1.000000)
    net charge:   0.00000000 [e]

Amount of molecules per component :
-------------------------------------------------------------------------------
Component 0 (CO2)
    molecules:      2.500000e+02 molecules  (2.500000e+02 +/- 0.000000e+00)
    number density: 1.458033e-02 molec./A^3 (1.464391e-02 +/- 3.597466e-04)
    density:        1.065264e+03 kg/m^3     (1.069909e+03 +/- 2.628370e+01)

Average pressure tensor: 
-------------------------------------------------------------------------------
 1.2933e+02  2.0705e+01  7.0183e+00 +/- 9.0529e+01 2.8997e+01 4.0572e+01 [bar]
 2.0705e+01  1.3256e+02 -7.6694e+00 +/- 2.8997e+01 8.4727e+01 4.8210e+01 [bar]
 7.0183e+00 -7.6694e+00  1.2859e+02 +/- 4.0572e+01 4.8210e+01 6.3847e+01 [bar]
Ideal-gas pressure:   5.054530e+02 +/ 1.241711e+01 [bar]
Excess pressure:     -3.752941e+02 +/ 4.321916e+01 [bar]
Pressure:             1.301588e+02 +/ 3.735916e+01 [bar]

Total potential energy/kʙ  -3.866323e+05 (-3.854972e+05 +/- 1.213254e+04) [K]
-------------------------------------------------------------------------------
ExternalField-molecule
    Van der Waals/kʙ        0.000000e+00 ( 0.000000e+00 +/- 0.000000e+00) [K]
Framework-molecule
    Van der Waals/kʙ        0.000000e+00 ( 0.000000e+00 +/- 0.000000e+00) [K]
    Van der Waals (Tail)/kʙ 0.000000e+00 ( 0.000000e+00 +/- 0.000000e+00) [K]
    Coulombic Real/kʙ       0.000000e+00 ( 0.000000e+00 +/- 0.000000e+00) [K]
    Coulombic Fourier/kʙ    0.000000e+00 ( 0.000000e+00 +/- 0.000000e+00) [K]
Molecule-molecule
    Van der Waals/kʙ       -2.785468e+05 (-2.740454e+05 +/- 8.105891e+03) [K]
    Van der Waals (Tail)/kʙ-1.169542e+04 (-1.174472e+04 +/- 2.824296e+02) [K]
    Coulombic Real/kʙ      -7.651024e+04 (-8.022016e+04 +/- 3.460261e+03) [K]
    Coulombic Fourier/kʙ   -1.987984e+04 (-1.948697e+04 +/- 7.030676e+02) [K]
    Molecule Intra/kʙ       0.000000e+00 ( 0.000000e+00 +/- 0.000000e+00) [K]

Current cycle: 4900 out of 5000
===============================================================================

Box:      25.73921   0.00000   0.00000  Average:  25.75173   0.00000   0.00000
           0.00000  25.73921   0.00000             0.00000  25.75173   0.00000
           0.00000   0.00000  25.73921             0.00000   0.00000  25.75173
Lengths:  25.73921  25.73921  25.73921  Average:  25.75173  25.75173  25.75173
Angles:   90.00000  90.00000  90.00000  Average:  90.00000  90.00000  90.00000
Rectangular boundary conditions

net charge:   0.00000000

component 0 (CO2) lambda:  0 occupancy:  1 (1.000000)
    net charge:   0.00000000 [e]

Amount of molecules per component :
-------------------------------------------------------------------------------
Component 0 (CO2)
    molecules:      2.500000e+02 molecules  (2.500000e+02 +/- 0.000000e+00)
    number density: 1.466069e-02 molec./A^3 (1.464622e-02 +/- 3.361994e-04)
    density:        1.071135e+03 kg/m^3     (1.070078e+03 +/- 2.456330e+01)

Average pressure tensor: 
-------------------------------------------------------------------------------
 1.2812e+02  1.9919e+01  6.1029e+00 +/- 8.7628e+01 2.8472e+01 3.6768e+01 [bar]
 1.9919e+01  1.3213e+02 -7.8436e+00 +/- 2.8472e+01 8.0333e+01 4.7179e+01 [bar]
 6.1029e+00 -7.8436e+00  1.2409e+02 +/- 3.6768e+01 4.7179e+01 7.0943e+01 [bar]
Ideal-gas pressure:   5.055327e+02 +/ 1.160434e+01 [bar]
Excess pressure:     -3.774196e+02 +/ 4.577773e+01 [bar]
Pressure:             1.281131e+02 +/ 3.992882e+01 [bar]

Total potential energy/kʙ  -3.876711e+05 (-3.855629e+05 +/- 1.126406e+04) [K]
-------------------------------------------------------------------------------
ExternalField-molecule
    Van der Waals/kʙ        0.000000e+00 ( 0.000000e+00 +/- 0.000000e+00) [K]
Framework-molecule
    Van der Waals/kʙ        0.000000e+00 ( 0.000000e+00 +/- 0.000000e+00) [K]
    Van der Waals (Tail)/kʙ 0.000000e+00 ( 0.000000e+00 +/- 0.000000e+00) [K]
    Coulombic Real/kʙ       0.000000e+00 ( 0.000000e+00 +/- 0.000000e+00) [K]
    Coulombic Fourier/kʙ    0.000000e+00 ( 0.000000e+00 +/- 0.000000e+00) [K]
Molecule-molecule
    Van der Waals/kʙ       -2.759851e+05 (-2.741345e+05 +/- 7.683646e+03) [K]
    Van der Waals (Tail)/kʙ-1.175989e+04 (-1.174600e+04 +/- 2.636709e+02) [K]
    Coulombic Real/kʙ      -8.012938e+04 (-8.019847e+04 +/- 3.138857e+03) [K]
    Coulombic Fourier/kʙ   -1.979676e+04 (-1.948389e+04 +/- 6.327732e+02) [K]
    Molecule Intra/kʙ       0.000000e+00 ( 0.000000e+00 +/- 0.000000e+00) [K]


Energy statistics             |  Energy [K]   | Recomputed [K]|  Drift [K]    |
===============================================================================
Total potential energy/kʙ     | -3.906881e+05 | -3.906881e+05 |  0.000000e+00 |
    external field VDW/kʙ     |  0.000000e+00 |  0.000000e+00 |  0.000000e+00 |
    external field Real/kʙ    |  0.000000e+00 |  0.000000e+00 |  0.000000e+00 |
    framework-molecule VDW/kʙ |  0.000000e+00 |  0.000000e+00 |  0.000000e+00 |
    framework-molecule Real/kʙ|  0.000000e+00 |  0.000000e+00 |  0.000000e+00 |
    molecule-molecule VDW/kʙ  | -2.703870e+05 | -2.703870e+05 |  0.000000e+00 |
    molecule-molecule Real/kʙ | -8.801530e+04 | -8.801530e+04 |  0.000000e+00 |
    Van der Waals (Tail)/kʙ   | -1.174951e+04 | -1.174951e+04 |  0.000000e+00 |
    Ewald Fourier/kʙ          |  1.579086e+04 |  1.579086e+04 |  0.000000e+00 |
    Ewald self/kʙ             | -5.557308e+06 | -5.557308e+06 |  0.000000e+00 |
    Ewald exclusion/kʙ        |  5.520981e+06 |  5.520981e+06 |  0.000000e+00 |
    intra VDW/kʙ              |  0.000000e+00 |  0.000000e+00 |  0.000000e+00 |
    intra Coulombic/kʙ        |  0.000000e+00 |  0.000000e+00 |  0.000000e+00 |
    polarization/kʙ           |  0.000000e+00 |  0.000000e+00 |  0.000000e+00 |
    dU/dlambda VDW/kʙ         |  0.000000e+00 |  0.000000e+00 |  0.000000e+00 |
    dU/dlambda Real/kʙ        |  0.000000e+00 |  0.000000e+00 |  0.000000e+00 |
    dU/dlambda Ewald/kʙ       |  0.000000e+00 |  0.000000e+00 |  0.000000e+00 |
-------------------------------------------------------------------------------


Monte-Carlo moves statistics
===============================================================================

    Volume change        all:                8251
    Volume change        total:              8251
    Volume change        constructed:        8251
    Volume change        accepted:           4021
    Volume change        fraction:       0.487335
    Volume change        max-change:     0.025000

Component 0 [CO2]
    Reinsertion (CBMC)   all:              414457
    Reinsertion (CBMC)   total:            414457
    Reinsertion (CBMC)   constructed:      366058
    Reinsertion (CBMC)   accepted:           5206
    Reinsertion (CBMC)   fraction:       0.012561
    Reinsertion (CBMC)   max-change:     0.000000

    Translation          all:              413455
    Translation          total:            137491     137795     138169
    Translation          constructed:      137488     137795     138169
    Translation          accepted:          56555      68288      69786
    Translation          fraction:       0.411336   0.495577   0.505077
    Translation          max-change:     0.859770   0.666667   0.647059

    Rotation             all:              413837
    Rotation             total:            137510     138203     138124
    Rotation             constructed:      137505     138202     138054
    Rotation             accepted:          58453      61430      50931
    Rotation             fraction:       0.425082   0.444491   0.368734
    Rotation             max-change:     0.872727   0.814480   1.061538



Production run counting of the MC moves summed over systems and components
===============================================================================

Volume change                          8251 (0.6601 [%])
Reinsertion (CBMC)                   414457 (33.1566 [%])
Translation                          413455 (33.0764 [%])
Rotation                             413837 (33.1070 [%])

Production count MC-steps:          1250000 [-]
               All summed:          1250000 [-]
               difference:                0 [-]


Production run CPU timings of the MC moves
===============================================================================

Component 0 CO2

Rotation                             64.715003 [s]
    Ewald                            33.276840 [s]
    ExternalField-Molecule            0.015585 [s]
    Framework-Molecule                0.014557 [s]
    Molecule-Molecule                29.218811 [s]
    Overhead                          2.189210 [s]

Reinsertion (CBMC)                  224.535846 [s]
    Ewald                            27.571482 [s]
    NonEwald                        196.530112 [s]
    Overhead                          0.434252 [s]

Translation                          62.573257 [s]
    Ewald                            31.035178 [s]
    ExternalField-Molecule            0.015132 [s]
    Framework-Molecule                0.026512 [s]
    Molecule-Molecule                29.096362 [s]
    Overhead                          2.400073 [s]



Volume change                         72.665573 [s]
    Ewald                             29.888500 [s]
    NonEwald                          39.983961 [s]
    Tail                               2.451817 [s]

Property sampling                     0.305747 [s]
Energy/pressure sampling:             9.114751 [s]


Production run CPU timings of the MC moves summed over systems and components
===============================================================================


Translation                          62.573257 [s]
    Ewald                            31.035178 [s]
    ExternalField-Molecule            0.015132 [s]
    Framework-Molecule                0.026512 [s]
    Molecule-Molecule                29.096362 [s]
    Overhead                          2.400073 [s]

Rotation                             64.715003 [s]
    Ewald                            33.276840 [s]
    ExternalField-Molecule            0.015585 [s]
    Framework-Molecule                0.014557 [s]
    Molecule-Molecule                29.218811 [s]
    Overhead                          2.189210 [s]

Volume change                        72.665573 [s]
    Ewald                            29.888500 [s]
    NonEwald                         39.983961 [s]
    Tail                              2.451817 [s]
    Overhead                          0.341295 [s]

Reinsertion (CBMC)                  224.535846 [s]
    Ewald                            27.571482 [s]
    NonEwald                        196.530112 [s]
    Overhead                          0.434252 [s]

Property sampling:                    0.305747 [s]
Energy/pressure sampling:             9.114751 [s]

Production simulation time:         434.937161 [s]
                All summed:         433.910177 [s]
                  Overhead:           1.026984 [s]


Initalization simulation time:       84.479325 [s]
Equilibration simulation time:        0.000000 [s]
Production simulation time:         434.937161 [s]
Total simulation time:              519.416486 [s]


Energy averages and statistics:
===============================================================================

Framework-molecule energy:
-------------------------------------------------------------------------------



Framework-molecule energy contributions per energy type:
-------------------------------------------------------------------------------



Inter-molecular energy:
-------------------------------------------------------------------------------

    Inter-molecular energy/kʙ 0-0 [CO2-CO2]:
    ---------------------------------------------------------------------------
        Block[  0] -3.834409e+05
        Block[  1] -3.804317e+05
        Block[  2] -3.787590e+05
        Block[  3] -3.851735e+05
        Block[  4] -4.005588e+05
        -----------------------------------------------------------------------
        Average  -3.856728e+05 +/-  1.078884e+04 [K]



Inter-molecular energy contributions per energy type:
-------------------------------------------------------------------------------

    Van der Waals energy/kʙ 0-0 [CO2-CO2]:
    ---------------------------------------------------------------------------
        Block[  0] -2.741244e+05
        Block[  1] -2.714906e+05
        Block[  2] -2.683616e+05
        Block[  3] -2.729520e+05
        Block[  4] -2.838470e+05
        -----------------------------------------------------------------------
        Average  -2.741551e+05 +/-  7.240125e+03 [K]

    VDW Tail-Correction energy/kʙ 0-0 [CO2-CO2]:
    ---------------------------------------------------------------------------
        Block[  0] -1.176606e+04
        Block[  1] -1.165936e+04
        Block[  2] -1.152671e+04
        Block[  3] -1.171232e+04
        Block[  4] -1.207400e+04
        -----------------------------------------------------------------------
        Average  -1.174769e+04 +/-  2.519123e+02 [K]

    Coulomb Real energy/kʙ 0-0 [CO2-CO2]:
    ---------------------------------------------------------------------------
        Block[  0] -7.847714e+04
        Block[  1] -7.797086e+04
        Block[  2] -7.960454e+04
        Block[  3] -8.103446e+04
        Block[  4] -8.425841e+04
        -----------------------------------------------------------------------
        Average  -8.026908e+04 +/-  3.130551e+03 [K]

    Coulomb Fourier energy/kʙ 0-0 [CO2-CO2]:
    ---------------------------------------------------------------------------
        Block[  0] -1.907336e+04
        Block[  1] -1.931087e+04
        Block[  2] -1.926619e+04
        Block[  3] -1.947465e+04
        Block[  4] -2.037941e+04
        -----------------------------------------------------------------------
        Average  -1.950089e+04 +/-  6.349867e+02 [K]


Total energy/kʙ
-------------------------------------------------------------------------------
    Block[  0] -3.834409e+05
    Block[  1] -3.804317e+05
    Block[  2] -3.787590e+05
    Block[  3] -3.851735e+05
    Block[  4] -4.005588e+05
    ---------------------------------------------------------------------------
    Average  -3.856728e+05 +/-  1.078884e+04 [K]

Pressure averages and statistics:
===============================================================================

Average pressure tensor: 
-------------------------------------------------------------------------------
 1.2983e+02  2.4907e+01  7.2001e+00 +/- 7.9132e+01 3.3022e+01 3.7493e+01 [bar]
 2.4907e+01  1.2970e+02 -6.7618e+00 +/- 3.3022e+01 7.4001e+01 4.7785e+01 [bar]
 7.2001e+00 -6.7618e+00  1.2642e+02 +/- 3.7493e+01 4.7785e+01 6.2116e+01 [bar]

    Block[  0]  5.058772e+07
    Block[  1]  5.017912e+07
    Block[  2]  4.966703e+07
    Block[  3]  5.034724e+07
    Block[  4]  5.200406e+07
    ---------------------------------------------------------------------------
    Ideal gas pressure   5.055704e+07 +/-  6.553742e-02 [Pa]
                         5.055704e+02 +/-  1.088275e+01 [bar]


    Block[  0] -3.628077e+07
    Block[  1] -3.530404e+07
    Block[  2] -4.001596e+07
    Block[  3] -3.442238e+07
    Block[  4] -4.243752e+07
    ---------------------------------------------------------------------------
    Excess pressure  -3.769213e+07 +/-  4.223949e+06 [Pa]
                     -3.769213e+02 +/-  4.223949e+01 [bar]


    Block[  0]  1.430695e+07
    Block[  1]  1.487508e+07
    Block[  2]  9.651077e+06
    Block[  3]  1.592486e+07
    Block[  4]  9.566539e+06
    ---------------------------------------------------------------------------
    Pressure average   1.286490e+07 +/-  3.759998e+06 [Pa]
                       1.286490e+02 +/-  3.759998e+01 [bar]


Enthalpy of adsorption
===============================================================================

No fluctuating components present.


Densities
===============================================================================

Component 0 (CO2)
    Block[  0] 250
    Block[  1] 250
    Block[  2] 250
    Block[  3] 250
    Block[  4] 250
    -----------------------------------------------------------------------
    Density average   2.500000e+02 +/-  0.000000e+00 [molecules]
    Density average   1.464731e-02 +/-  3.152935e-04 [molec/A^3]
    Density average   1.070158e+03 +/-  2.303588e+01 [kg.m⁻³]

