Compiler and run-time data
===============================================================================
RASPA 3.0.4

Random seed: 4069817111

Compiled as a 64-bits application
Compiler: gcc Ubuntu Clang 18.1.3 (1ubuntu1)
Compile Date = Mar 15 2025, Compile Time = 19:39:45

2025-06-03 10:59:44.546718
Simulation started on Tue, Jun 03
The start time was 10:59:00

Hostname:    c109
OS type:     Linux on x86_64
OS release:  6.8.0-58-generic
OS version:  #60-Ubuntu SMP PREEMPT_DYNAMIC Fri Mar 14 18:29:48 UTC 2025


Mutual consistent basic set of units:
===============================================================================

Unit of temperature: 1 [K]
Unit of length:      1e-10 [m]
Unit of time:        1e-12 [s]
Unit of mass:        1.6605402e-27 [kg]
Unit of charge:      1.60217733e-19 [C/particle]


Boltzmann constant (internal units):          0.8314464919307584 [-]
represents conversion from energy (internal units) to temperature (in Kelvin)

Derived units and their conversion factors:
===============================================================================

Unit of energy:                           1.6605402000000002e-23 [J]
Unit of energy:                           10.000008872307538 [J.mol⁻¹]
Unit of velocity:                         100 [m.s⁻¹]
Unit of force:                            1.6605402000000002e-13 [N]
Unit of diffusion:                        1.0000000000000002e-08 [m².s⁻¹]
Unit of acceleration:                     1.0000000000000002e-08 [m².s⁻¹]
Unit of torque:                           1.6605402000000002e-23 [N.m]
Unit of pressure:                         16605402 [Pa]
Unit of volume:                           1e-30 [m³]
Unit of density:                          1660.5402 [kg.m⁻³]
Unit of dynamic viscosity:                1.6605401999999997e-05 [N.s.m⁻²]
Unit of enthalpy:                         1.6605402000000002e-23 [J]
Unit of polarizability:                   1.5458657349975198e-35 [-]
Unit of Coulomb potential:                167101.08000665612 [K]
Unit of dielectric constant:              1.5458657349975193e-05 [s².C².kg⁻¹.m⁻³]
Unit of dipole moment:                    1.60217733e-29 [C.m]
Unit of Debye:                            4.803206799099162 [C.m]
Unit of electric potential:               0.00010364272224473431 [V]
Unit of electric field:                   1036427.222447343 [V.m⁻¹]
Unit of isothermal compressibility:       6.02213665167516e-08 [Pa⁻¹]
Unit of heat capacity:                    10.000008872307538 [J.mol⁻¹.K⁻¹]
Unit of volumetric expansion coefficient: 1 [K⁻¹]


Internal conversion factors:
===============================================================================

Energy (internal units) to Kelvin:      1.202724284692786 [-]
Kelvin to energy (internal units):      0.8314457542157567 [-]


System definitions
===============================================================================

Temperature:          260 [K]
Beta:                 0.004625858529058714 [-]
Pressure:             0 [Pa]
Helium void fraction: 1 [-]

Box:      30.00000   0.00000   0.00000
           0.00000  30.00000   0.00000
           0.00000   0.00000  30.00000
Lengths:  30.00000  30.00000  30.00000
Angles:   90.00000  90.00000  90.00000
Rectangular boundary conditions



Property measurement settings
===============================================================================




Pseudo-atoms
===============================================================================

  0 - C_co2    framework-atom: false
  1 - O_co2    framework-atom: false

  0 - C_co2    mass: 12.00000, charge:  0.70000
  1 - O_co2    mass: 15.99940, charge: -0.35000

  0 - C_co2    polarizability:  0.00000
  1 - O_co2    polarizability:  0.00000

  0 - J. J. Potoff et al., AIChE J. 2001, 47, 1676–1682.
  1 - J. J. Potoff et al., AIChE J. 2001, 47, 1676–1682.

Force field status
===============================================================================

Cutoff Framework-Molecule VDW:  12.00000 [Å]
Cutoff Molecule-Molecule VDW:   12.00000 [Å]
Cutoff Coulomb:                 12.00000 [Å]

Overlap-criteria VDW:           1.000000e+05 [K]

C_co2    - C_co2    Lennard-Jones p₀/kʙ:  27.00000 [K], p₁:  2.80000 [Å]
                                  shift:   0.00000 [K], tailcorrections: true
C_co2    - O_co2    Lennard-Jones p₀/kʙ:  46.18441 [K], p₁:  2.92500 [Å]
                                  shift:   0.00000 [K], tailcorrections: true
O_co2    - O_co2    Lennard-Jones p₀/kʙ:  79.00000 [K], p₁:  3.05000 [Å]
                                  shift:   0.00000 [K], tailcorrections: true

Ewald precision: 1e-06
Ewald alpha: 0.26505830360350674
Ewald k-vectors: 8 8 8


Component definitions
===============================================================================

Component 0 [CO2]

    Type: Adsorbate

    Critical temperature:  304.1282 [K]
    Critical pressure:     7377300 [Pa]
    Acentric factor:       0.22394 [-]

    Mol-fraction:                 1 [-]
    Swappable:                   true

    Mass:                         43.9988 [-]
    Fugacity coefficient:         -nan [-]
    Bulk fluid density:           0 [-]
    Compressibility:              1 [-]
    Excess molecules:             0 [-]

    Number Of Atoms:    3
    CBMC starting bead: 0
      0: O_co2  position  0.00000 -0.00000  1.16000, charge -0.35000
      1: C_co2  position  0.00000 -0.00000  0.00000, charge  0.70000
      2: O_co2  position  0.00000 -0.00000 -1.16000, charge -0.35000
    Diagonalized inertia-vector:      43.05758528 43.05758528 0.00000000
    Translational degrees of freedom: 3
    Rotational degrees of freedom:    2
    Shape of the molecule is: 'Linear'
    Net-charge:        0.00000000 [e]

    Move probabilities:
    Translation:                   0.199203 [-]
    Random translation:            0.000000 [-]
    Rotation:                      0.199203 [-]
    Random rotation:               0.000000 [-]
    Volume change:                 0.000000 [-]
    Reinsertion (CBMC):            0.199203 [-]
    Identity change (CBMC):        0.000000 [-]
    Swap:                          0.000000 [-]
    Swap (CBMC):                   0.000000 [-]
    Swap (CFCMC):                  0.000000 [-]
    Swap (CB/CFCMC):               0.000000 [-]
    Gibbs volume:                  0.003984 [-]
    Gibbs swap (CBMC):             0.398406 [-]
    Gibbs swap (CFCMC):            0.000000 [-]
    Widom:                         0.000000 [-]
    Widom (CFCMC):                 0.000000 [-]
    Widom (CB/CFCMC):              0.000000 [-]
    Parallel tempering:            0.000000 [-]
    Hybrid MC:                     0.000000 [-]

    number of blocking-pockets: 0

    number of bonds: 0





Number of pseudo-atoms
===============================================================================

Component   0 (CO2)
-------------------------------------------------------------------------------
    index   0 (C_co2): 40 atoms
    index   1 (O_co2): 80 atoms

Total number of pseudo-atoms:
-------------------------------------------------------------------------------
    index   0 (C_co2): 40 atoms
    index   1 (O_co2): 80 atoms




Energy status Recomputed from scratch
===============================================================================

Total potential energy/kʙ       -7.659218e+03 [K]
    external field VDW/kʙ        0.000000e+00 [K]
    external field Real/kʙ       0.000000e+00 [K]
    framework-molecule VDW/kʙ    0.000000e+00 [K]
    framework-molecule Real/kʙ   0.000000e+00 [K]
    molecule-molecule VDW/kʙ    -5.733511e+03 [K]
    molecule-molecule Real/kʙ   -1.791780e+03 [K]
    Van der Waals (Tail)/kʙ     -1.100506e+02 [K]
    Ewald Fourier/kʙ             2.328349e+03 [K]
    Ewald self/kʙ               -7.346713e+05 [K]
    Ewald exclusion/kʙ           7.323191e+05 [K]
    intra VDW/kʙ                 0.000000e+00 [K]
    intra Coulombic/kʙ           0.000000e+00 [K]
    polarization/kʙ              0.000000e+00 [K]
    dU/dlambda VDW/kʙ            0.000000e+00 [K]
    dU/dlambda Real/kʙ           0.000000e+00 [K]
    dU/dlambda Ewald/kʙ          0.000000e+00 [K]





Initialization: Current cycle: 0 out of 2000
===============================================================================

Box:      30.00000   0.00000   0.00000
           0.00000  30.00000   0.00000
           0.00000   0.00000  30.00000
Lengths:  30.00000  30.00000  30.00000
Angles:   90.00000  90.00000  90.00000
Rectangular boundary conditions

net charge:   0.00000000

component   0 (CO2) lambda:  0 occupancy:  1 (1.000000)
    net charge:   0.00000000 [e]

Amount of molecules per component :
-------------------------------------------------------------------------------
Component 0 (CO2)
    molecules:         3.900000e+01 molecules
    number density:    1.444444e-03 molec/A^3
    density:           1.055336e+02 kg/m^3

Total potential energy/kʙ       -9.940053e+03 [K]
-------------------------------------------------------------------------------
    external field VDW/kʙ        0.000000e+00 [K]
    external field Real/kʙ       0.000000e+00 [K]
    framework-molecule VDW/kʙ    0.000000e+00 [K]
    framework-molecule Real/kʙ   0.000000e+00 [K]
    molecule-molecule VDW/kʙ    -6.612663e+03 [K]
    molecule-molecule Real/kʙ   -3.121623e+03 [K]
    Van der Waals (Tail)/kʙ     -1.046169e+02 [K]
    Ewald Fourier/kʙ             2.192270e+03 [K]
    Ewald self/kʙ               -7.163045e+05 [K]
    Ewald exclusion/kʙ           7.140111e+05 [K]
    intra VDW/kʙ                 0.000000e+00 [K]
    intra Coulombic/kʙ           0.000000e+00 [K]
    polarization/kʙ              0.000000e+00 [K]
    dU/dlambda VDW/kʙ            0.000000e+00 [K]
    dU/dlambda Real/kʙ           0.000000e+00 [K]
    dU/dlambda Ewald/kʙ          0.000000e+00 [K]


Initialization: Current cycle: 100 out of 2000
===============================================================================

Box:      31.19164   0.00000   0.00000
           0.00000  31.19164   0.00000
           0.00000   0.00000  31.19164
Lengths:  31.19164  31.19164  31.19164
Angles:   90.00000  90.00000  90.00000
Rectangular boundary conditions

net charge:   0.00000000

component   0 (CO2) lambda:  0 occupancy:  1 (1.000000)
    net charge:   0.00000000 [e]

Amount of molecules per component :
-------------------------------------------------------------------------------
Component 0 (CO2)
    molecules:         1.700000e+01 molecules
    number density:    5.601884e-04 molec/A^3
    density:           4.092833e+01 kg/m^3

Total potential energy/kʙ       -1.539091e+03 [K]
-------------------------------------------------------------------------------
    external field VDW/kʙ        0.000000e+00 [K]
    external field Real/kʙ       0.000000e+00 [K]
    framework-molecule VDW/kʙ    0.000000e+00 [K]
    framework-molecule Real/kʙ   0.000000e+00 [K]
    molecule-molecule VDW/kʙ    -1.004133e+03 [K]
    molecule-molecule Real/kʙ   -4.762866e+02 [K]
    Van der Waals (Tail)/kʙ     -1.768558e+01 [K]
    Ewald Fourier/kʙ             9.587092e+02 [K]
    Ewald self/kʙ               -3.122353e+05 [K]
    Ewald exclusion/kʙ           3.112356e+05 [K]
    intra VDW/kʙ                 0.000000e+00 [K]
    intra Coulombic/kʙ           0.000000e+00 [K]
    polarization/kʙ              0.000000e+00 [K]
    dU/dlambda VDW/kʙ            0.000000e+00 [K]
    dU/dlambda Real/kʙ           0.000000e+00 [K]
    dU/dlambda Ewald/kʙ          0.000000e+00 [K]


Initialization: Current cycle: 200 out of 2000
===============================================================================

Box:      32.21857   0.00000   0.00000
           0.00000  32.21857   0.00000
           0.00000   0.00000  32.21857
Lengths:  32.21857  32.21857  32.21857
Angles:   90.00000  90.00000  90.00000
Rectangular boundary conditions

net charge:   0.00000000

component   0 (CO2) lambda:  0 occupancy:  1 (1.000000)
    net charge:   0.00000000 [e]

Amount of molecules per component :
-------------------------------------------------------------------------------
Component 0 (CO2)
    molecules:         1.200000e+01 molecules
    number density:    3.588083e-04 molec/A^3
    density:           2.621515e+01 kg/m^3

Total potential energy/kʙ       -3.590638e+02 [K]
-------------------------------------------------------------------------------
    external field VDW/kʙ        0.000000e+00 [K]
    external field Real/kʙ       0.000000e+00 [K]
    framework-molecule VDW/kʙ    0.000000e+00 [K]
    framework-molecule Real/kʙ   0.000000e+00 [K]
    molecule-molecule VDW/kʙ    -5.828871e+01 [K]
    molecule-molecule Real/kʙ   -2.685577e+02 [K]
    Van der Waals (Tail)/kʙ     -7.996132e+00 [K]
    Ewald Fourier/kʙ             6.814464e+02 [K]
    Ewald self/kʙ               -2.204014e+05 [K]
    Ewald exclusion/kʙ           2.196957e+05 [K]
    intra VDW/kʙ                 0.000000e+00 [K]
    intra Coulombic/kʙ           0.000000e+00 [K]
    polarization/kʙ              0.000000e+00 [K]
    dU/dlambda VDW/kʙ            0.000000e+00 [K]
    dU/dlambda Real/kʙ           0.000000e+00 [K]
    dU/dlambda Ewald/kʙ          0.000000e+00 [K]


Initialization: Current cycle: 300 out of 2000
===============================================================================

Box:      32.66265   0.00000   0.00000
           0.00000  32.66265   0.00000
           0.00000   0.00000  32.66265
Lengths:  32.66265  32.66265  32.66265
Angles:   90.00000  90.00000  90.00000
Rectangular boundary conditions

net charge:   0.00000000

component   0 (CO2) lambda:  0 occupancy:  1 (1.000000)
    net charge:   0.00000000 [e]

Amount of molecules per component :
-------------------------------------------------------------------------------
Component 0 (CO2)
    molecules:         1.800000e+01 molecules
    number density:    5.165571e-04 molec/A^3
    density:           3.774054e+01 kg/m^3

Total potential energy/kʙ       -1.685897e+03 [K]
-------------------------------------------------------------------------------
    external field VDW/kʙ        0.000000e+00 [K]
    external field Real/kʙ       0.000000e+00 [K]
    framework-molecule VDW/kʙ    0.000000e+00 [K]
    framework-molecule Real/kʙ   0.000000e+00 [K]
    molecule-molecule VDW/kʙ    -1.218806e+03 [K]
    molecule-molecule Real/kʙ   -4.316805e+02 [K]
    Van der Waals (Tail)/kʙ     -1.726740e+01 [K]
    Ewald Fourier/kʙ             1.040358e+03 [K]
    Ewald self/kʙ               -3.306021e+05 [K]
    Ewald exclusion/kʙ           3.295436e+05 [K]
    intra VDW/kʙ                 0.000000e+00 [K]
    intra Coulombic/kʙ           0.000000e+00 [K]
    polarization/kʙ              0.000000e+00 [K]
    dU/dlambda VDW/kʙ            0.000000e+00 [K]
    dU/dlambda Real/kʙ           0.000000e+00 [K]
    dU/dlambda Ewald/kʙ          0.000000e+00 [K]


Initialization: Current cycle: 400 out of 2000
===============================================================================

Box:      32.62760   0.00000   0.00000
           0.00000  32.62760   0.00000
           0.00000   0.00000  32.62760
Lengths:  32.62760  32.62760  32.62760
Angles:   90.00000  90.00000  90.00000
Rectangular boundary conditions

net charge:   0.00000000

component   0 (CO2) lambda:  0 occupancy:  1 (1.000000)
    net charge:   0.00000000 [e]

Amount of molecules per component :
-------------------------------------------------------------------------------
Component 0 (CO2)
    molecules:         1.800000e+01 molecules
    number density:    5.182236e-04 molec/A^3
    density:           3.786231e+01 kg/m^3

Total potential energy/kʙ       -1.801040e+03 [K]
-------------------------------------------------------------------------------
    external field VDW/kʙ        0.000000e+00 [K]
    external field Real/kʙ       0.000000e+00 [K]
    framework-molecule VDW/kʙ    0.000000e+00 [K]
    framework-molecule Real/kʙ   0.000000e+00 [K]
    molecule-molecule VDW/kʙ    -1.660588e+03 [K]
    molecule-molecule Real/kʙ   -1.494478e+02 [K]
    Van der Waals (Tail)/kʙ     -1.732311e+01 [K]
    Ewald Fourier/kʙ             1.084820e+03 [K]
    Ewald self/kʙ               -3.306021e+05 [K]
    Ewald exclusion/kʙ           3.295436e+05 [K]
    intra VDW/kʙ                 0.000000e+00 [K]
    intra Coulombic/kʙ           0.000000e+00 [K]
    polarization/kʙ              0.000000e+00 [K]
    dU/dlambda VDW/kʙ            0.000000e+00 [K]
    dU/dlambda Real/kʙ           0.000000e+00 [K]
    dU/dlambda Ewald/kʙ          0.000000e+00 [K]


Initialization: Current cycle: 500 out of 2000
===============================================================================

Box:      33.09764   0.00000   0.00000
           0.00000  33.09764   0.00000
           0.00000   0.00000  33.09764
Lengths:  33.09764  33.09764  33.09764
Angles:   90.00000  90.00000  90.00000
Rectangular boundary conditions

net charge:   0.00000000

component   0 (CO2) lambda:  0 occupancy:  1 (1.000000)
    net charge:   0.00000000 [e]

Amount of molecules per component :
-------------------------------------------------------------------------------
Component 0 (CO2)
    molecules:         1.900000e+01 molecules
    number density:    5.240375e-04 molec/A^3
    density:           3.828707e+01 kg/m^3

Total potential energy/kʙ       -7.730869e+02 [K]
-------------------------------------------------------------------------------
    external field VDW/kʙ        0.000000e+00 [K]
    external field Real/kʙ       0.000000e+00 [K]
    framework-molecule VDW/kʙ    0.000000e+00 [K]
    framework-molecule Real/kʙ   0.000000e+00 [K]
    molecule-molecule VDW/kʙ    -1.302415e+03 [K]
    molecule-molecule Real/kʙ    5.094158e+02 [K]
    Van der Waals (Tail)/kʙ     -1.849065e+01 [K]
    Ewald Fourier/kʙ             1.155710e+03 [K]
    Ewald self/kʙ               -3.489689e+05 [K]
    Ewald exclusion/kʙ           3.478516e+05 [K]
    intra VDW/kʙ                 0.000000e+00 [K]
    intra Coulombic/kʙ           0.000000e+00 [K]
    polarization/kʙ              0.000000e+00 [K]
    dU/dlambda VDW/kʙ            0.000000e+00 [K]
    dU/dlambda Real/kʙ           0.000000e+00 [K]
    dU/dlambda Ewald/kʙ          0.000000e+00 [K]


Initialization: Current cycle: 600 out of 2000
===============================================================================

Box:      33.12977   0.00000   0.00000
           0.00000  33.12977   0.00000
           0.00000   0.00000  33.12977
Lengths:  33.12977  33.12977  33.12977
Angles:   90.00000  90.00000  90.00000
Rectangular boundary conditions

net charge:   0.00000000

component   0 (CO2) lambda:  0 occupancy:  1 (1.000000)
    net charge:   0.00000000 [e]

Amount of molecules per component :
-------------------------------------------------------------------------------
Component 0 (CO2)
    molecules:         2.800000e+01 molecules
    number density:    7.700215e-04 molec/A^3
    density:           5.625909e+01 kg/m^3

Total potential energy/kʙ       -2.775800e+03 [K]
-------------------------------------------------------------------------------
    external field VDW/kʙ        0.000000e+00 [K]
    external field Real/kʙ       0.000000e+00 [K]
    framework-molecule VDW/kʙ    0.000000e+00 [K]
    framework-molecule Real/kʙ   0.000000e+00 [K]
    molecule-molecule VDW/kʙ    -2.100133e+03 [K]
    molecule-molecule Real/kʙ   -5.888875e+02 [K]
    Van der Waals (Tail)/kʙ     -4.004028e+01 [K]
    Ewald Fourier/kʙ             1.599819e+03 [K]
    Ewald self/kʙ               -5.142699e+05 [K]
    Ewald exclusion/kʙ           5.126233e+05 [K]
    intra VDW/kʙ                 0.000000e+00 [K]
    intra Coulombic/kʙ           0.000000e+00 [K]
    polarization/kʙ              0.000000e+00 [K]
    dU/dlambda VDW/kʙ            0.000000e+00 [K]
    dU/dlambda Real/kʙ           0.000000e+00 [K]
    dU/dlambda Ewald/kʙ          0.000000e+00 [K]


Initialization: Current cycle: 700 out of 2000
===============================================================================

Box:      33.08818   0.00000   0.00000
           0.00000  33.08818   0.00000
           0.00000   0.00000  33.08818
Lengths:  33.08818  33.08818  33.08818
Angles:   90.00000  90.00000  90.00000
Rectangular boundary conditions

net charge:   0.00000000

component   0 (CO2) lambda:  0 occupancy:  1 (1.000000)
    net charge:   0.00000000 [e]

Amount of molecules per component :
-------------------------------------------------------------------------------
Component 0 (CO2)
    molecules:         2.200000e+01 molecules
    number density:    6.073010e-04 molec/A^3
    density:           4.437045e+01 kg/m^3

Total potential energy/kʙ       -2.151529e+03 [K]
-------------------------------------------------------------------------------
    external field VDW/kʙ        0.000000e+00 [K]
    external field Real/kʙ       0.000000e+00 [K]
    framework-molecule VDW/kʙ    0.000000e+00 [K]
    framework-molecule Real/kʙ   0.000000e+00 [K]
    molecule-molecule VDW/kʙ    -1.740040e+03 [K]
    molecule-molecule Real/kʙ   -3.379977e+02 [K]
    Van der Waals (Tail)/kʙ     -2.481206e+01 [K]
    Ewald Fourier/kʙ             1.245045e+03 [K]
    Ewald self/kʙ               -4.040692e+05 [K]
    Ewald exclusion/kʙ           4.027755e+05 [K]
    intra VDW/kʙ                 0.000000e+00 [K]
    intra Coulombic/kʙ           0.000000e+00 [K]
    polarization/kʙ              0.000000e+00 [K]
    dU/dlambda VDW/kʙ            0.000000e+00 [K]
    dU/dlambda Real/kʙ           0.000000e+00 [K]
    dU/dlambda Ewald/kʙ          0.000000e+00 [K]


Initialization: Current cycle: 800 out of 2000
===============================================================================

Box:      33.21249   0.00000   0.00000
           0.00000  33.21249   0.00000
           0.00000   0.00000  33.21249
Lengths:  33.21249  33.21249  33.21249
Angles:   90.00000  90.00000  90.00000
Rectangular boundary conditions

net charge:   0.00000000

component   0 (CO2) lambda:  0 occupancy:  1 (1.000000)
    net charge:   0.00000000 [e]

Amount of molecules per component :
-------------------------------------------------------------------------------
Component 0 (CO2)
    molecules:         2.300000e+01 molecules
    number density:    6.278035e-04 molec/A^3
    density:           4.586840e+01 kg/m^3

Total potential energy/kʙ       -1.994906e+03 [K]
-------------------------------------------------------------------------------
    external field VDW/kʙ        0.000000e+00 [K]
    external field Real/kʙ       0.000000e+00 [K]
    framework-molecule VDW/kʙ    0.000000e+00 [K]
    framework-molecule Real/kʙ   0.000000e+00 [K]
    molecule-molecule VDW/kʙ    -1.417784e+03 [K]
    molecule-molecule Real/kʙ   -5.467252e+02 [K]
    Van der Waals (Tail)/kʙ     -2.681562e+01 [K]
    Ewald Fourier/kʙ             1.348948e+03 [K]
    Ewald self/kʙ               -4.224360e+05 [K]
    Ewald exclusion/kʙ           4.210835e+05 [K]
    intra VDW/kʙ                 0.000000e+00 [K]
    intra Coulombic/kʙ           0.000000e+00 [K]
    polarization/kʙ              0.000000e+00 [K]
    dU/dlambda VDW/kʙ            0.000000e+00 [K]
    dU/dlambda Real/kʙ           0.000000e+00 [K]
    dU/dlambda Ewald/kʙ          0.000000e+00 [K]


Initialization: Current cycle: 900 out of 2000
===============================================================================

Box:      33.37794   0.00000   0.00000
           0.00000  33.37794   0.00000
           0.00000   0.00000  33.37794
Lengths:  33.37794  33.37794  33.37794
Angles:   90.00000  90.00000  90.00000
Rectangular boundary conditions

net charge:   0.00000000

component   0 (CO2) lambda:  0 occupancy:  1 (1.000000)
    net charge:   0.00000000 [e]

Amount of molecules per component :
-------------------------------------------------------------------------------
Component 0 (CO2)
    molecules:         1.600000e+01 molecules
    number density:    4.302702e-04 molec/A^3
    density:           3.143627e+01 kg/m^3

Total potential energy/kʙ       -1.151153e+03 [K]
-------------------------------------------------------------------------------
    external field VDW/kʙ        0.000000e+00 [K]
    external field Real/kʙ       0.000000e+00 [K]
    framework-molecule VDW/kʙ    0.000000e+00 [K]
    framework-molecule Real/kʙ   0.000000e+00 [K]
    molecule-molecule VDW/kʙ    -8.518723e+02 [K]
    molecule-molecule Real/kʙ   -2.182957e+02 [K]
    Van der Waals (Tail)/kʙ     -1.278490e+01 [K]
    Ewald Fourier/kʙ             8.726906e+02 [K]
    Ewald self/kʙ               -2.938685e+05 [K]
    Ewald exclusion/kʙ           2.929276e+05 [K]
    intra VDW/kʙ                 0.000000e+00 [K]
    intra Coulombic/kʙ           0.000000e+00 [K]
    polarization/kʙ              0.000000e+00 [K]
    dU/dlambda VDW/kʙ            0.000000e+00 [K]
    dU/dlambda Real/kʙ           0.000000e+00 [K]
    dU/dlambda Ewald/kʙ          0.000000e+00 [K]


Initialization: Current cycle: 1000 out of 2000
===============================================================================

Box:      33.47882   0.00000   0.00000
           0.00000  33.47882   0.00000
           0.00000   0.00000  33.47882
Lengths:  33.47882  33.47882  33.47882
Angles:   90.00000  90.00000  90.00000
Rectangular boundary conditions

net charge:   0.00000000

component   0 (CO2) lambda:  0 occupancy:  1 (1.000000)
    net charge:   0.00000000 [e]

Amount of molecules per component :
-------------------------------------------------------------------------------
Component 0 (CO2)
    molecules:         2.800000e+01 molecules
    number density:    7.461871e-04 molec/A^3
    density:           5.451771e+01 kg/m^3

Total potential energy/kʙ       -3.783025e+03 [K]
-------------------------------------------------------------------------------
    external field VDW/kʙ        0.000000e+00 [K]
    external field Real/kʙ       0.000000e+00 [K]
    framework-molecule VDW/kʙ    0.000000e+00 [K]
    framework-molecule Real/kʙ   0.000000e+00 [K]
    molecule-molecule VDW/kʙ    -2.024292e+03 [K]
    molecule-molecule Real/kʙ   -1.681219e+03 [K]
    Van der Waals (Tail)/kʙ     -3.880092e+01 [K]
    Ewald Fourier/kʙ             1.607845e+03 [K]
    Ewald self/kʙ               -5.142699e+05 [K]
    Ewald exclusion/kʙ           5.126233e+05 [K]
    intra VDW/kʙ                 0.000000e+00 [K]
    intra Coulombic/kʙ           0.000000e+00 [K]
    polarization/kʙ              0.000000e+00 [K]
    dU/dlambda VDW/kʙ            0.000000e+00 [K]
    dU/dlambda Real/kʙ           0.000000e+00 [K]
    dU/dlambda Ewald/kʙ          0.000000e+00 [K]


Initialization: Current cycle: 1100 out of 2000
===============================================================================

Box:      33.35304   0.00000   0.00000
           0.00000  33.35304   0.00000
           0.00000   0.00000  33.35304
Lengths:  33.35304  33.35304  33.35304
Angles:   90.00000  90.00000  90.00000
Rectangular boundary conditions

net charge:   0.00000000

component   0 (CO2) lambda:  0 occupancy:  1 (1.000000)
    net charge:   0.00000000 [e]

Amount of molecules per component :
-------------------------------------------------------------------------------
Component 0 (CO2)
    molecules:         1.200000e+01 molecules
    number density:    3.234259e-04 molec/A^3
    density:           2.363005e+01 kg/m^3

Total potential energy/kʙ       -7.120568e+02 [K]
-------------------------------------------------------------------------------
    external field VDW/kʙ        0.000000e+00 [K]
    external field Real/kʙ       0.000000e+00 [K]
    framework-molecule VDW/kʙ    0.000000e+00 [K]
    framework-molecule Real/kʙ   0.000000e+00 [K]
    molecule-molecule VDW/kʙ    -6.479998e+02 [K]
    molecule-molecule Real/kʙ   -5.732958e+01 [K]
    Van der Waals (Tail)/kʙ     -7.207627e+00 [K]
    Ewald Fourier/kʙ             7.061479e+02 [K]
    Ewald self/kʙ               -2.204014e+05 [K]
    Ewald exclusion/kʙ           2.196957e+05 [K]
    intra VDW/kʙ                 0.000000e+00 [K]
    intra Coulombic/kʙ           0.000000e+00 [K]
    polarization/kʙ              0.000000e+00 [K]
    dU/dlambda VDW/kʙ            0.000000e+00 [K]
    dU/dlambda Real/kʙ           0.000000e+00 [K]
    dU/dlambda Ewald/kʙ          0.000000e+00 [K]


Initialization: Current cycle: 1200 out of 2000
===============================================================================

Box:      33.34162   0.00000   0.00000
           0.00000  33.34162   0.00000
           0.00000   0.00000  33.34162
Lengths:  33.34162  33.34162  33.34162
Angles:   90.00000  90.00000  90.00000
Rectangular boundary conditions

net charge:   0.00000000

component   0 (CO2) lambda:  0 occupancy:  1 (1.000000)
    net charge:   0.00000000 [e]

Amount of molecules per component :
-------------------------------------------------------------------------------
Component 0 (CO2)
    molecules:         2.000000e+01 molecules
    number density:    5.395977e-04 molec/A^3
    density:           3.942393e+01 kg/m^3

Total potential energy/kʙ       -1.542784e+03 [K]
-------------------------------------------------------------------------------
    external field VDW/kʙ        0.000000e+00 [K]
    external field Real/kʙ       0.000000e+00 [K]
    framework-molecule VDW/kʙ    0.000000e+00 [K]
    framework-molecule Real/kʙ   0.000000e+00 [K]
    molecule-molecule VDW/kʙ    -9.804441e+02 [K]
    molecule-molecule Real/kʙ   -5.078667e+02 [K]
    Van der Waals (Tail)/kʙ     -2.004178e+01 [K]
    Ewald Fourier/kʙ             1.141681e+03 [K]
    Ewald self/kʙ               -3.673356e+05 [K]
    Ewald exclusion/kʙ           3.661595e+05 [K]
    intra VDW/kʙ                 0.000000e+00 [K]
    intra Coulombic/kʙ           0.000000e+00 [K]
    polarization/kʙ              0.000000e+00 [K]
    dU/dlambda VDW/kʙ            0.000000e+00 [K]
    dU/dlambda Real/kʙ           0.000000e+00 [K]
    dU/dlambda Ewald/kʙ          0.000000e+00 [K]


Initialization: Current cycle: 1300 out of 2000
===============================================================================

Box:      33.53357   0.00000   0.00000
           0.00000  33.53357   0.00000
           0.00000   0.00000  33.53357
Lengths:  33.53357  33.53357  33.53357
Angles:   90.00000  90.00000  90.00000
Rectangular boundary conditions

net charge:   0.00000000

component   0 (CO2) lambda:  0 occupancy:  1 (1.000000)
    net charge:   0.00000000 [e]

Amount of molecules per component :
-------------------------------------------------------------------------------
Component 0 (CO2)
    molecules:         2.800000e+01 molecules
    number density:    7.425377e-04 molec/A^3
    density:           5.425107e+01 kg/m^3

Total potential energy/kʙ       -4.448579e+03 [K]
-------------------------------------------------------------------------------
    external field VDW/kʙ        0.000000e+00 [K]
    external field Real/kʙ       0.000000e+00 [K]
    framework-molecule VDW/kʙ    0.000000e+00 [K]
    framework-molecule Real/kʙ   0.000000e+00 [K]
    molecule-molecule VDW/kʙ    -3.139779e+03 [K]
    molecule-molecule Real/kʙ   -1.101515e+03 [K]
    Van der Waals (Tail)/kʙ     -3.861115e+01 [K]
    Ewald Fourier/kʙ             1.477884e+03 [K]
    Ewald self/kʙ               -5.142699e+05 [K]
    Ewald exclusion/kʙ           5.126233e+05 [K]
    intra VDW/kʙ                 0.000000e+00 [K]
    intra Coulombic/kʙ           0.000000e+00 [K]
    polarization/kʙ              0.000000e+00 [K]
    dU/dlambda VDW/kʙ            0.000000e+00 [K]
    dU/dlambda Real/kʙ           0.000000e+00 [K]
    dU/dlambda Ewald/kʙ          0.000000e+00 [K]


Initialization: Current cycle: 1400 out of 2000
===============================================================================

Box:      33.61342   0.00000   0.00000
           0.00000  33.61342   0.00000
           0.00000   0.00000  33.61342
Lengths:  33.61342  33.61342  33.61342
Angles:   90.00000  90.00000  90.00000
Rectangular boundary conditions

net charge:   0.00000000

component   0 (CO2) lambda:  0 occupancy:  1 (1.000000)
    net charge:   0.00000000 [e]

Amount of molecules per component :
-------------------------------------------------------------------------------
Component 0 (CO2)
    molecules:         3.200000e+01 molecules
    number density:    8.425815e-04 molec/A^3
    density:           6.156045e+01 kg/m^3

Total potential energy/kʙ       -3.912424e+03 [K]
-------------------------------------------------------------------------------
    external field VDW/kʙ        0.000000e+00 [K]
    external field Real/kʙ       0.000000e+00 [K]
    framework-molecule VDW/kʙ    0.000000e+00 [K]
    framework-molecule Real/kʙ   0.000000e+00 [K]
    molecule-molecule VDW/kʙ    -2.606363e+03 [K]
    molecule-molecule Real/kʙ   -1.090460e+03 [K]
    Van der Waals (Tail)/kʙ     -5.007237e+01 [K]
    Ewald Fourier/kʙ             1.716251e+03 [K]
    Ewald self/kʙ               -5.877370e+05 [K]
    Ewald exclusion/kʙ           5.858552e+05 [K]
    intra VDW/kʙ                 0.000000e+00 [K]
    intra Coulombic/kʙ           0.000000e+00 [K]
    polarization/kʙ              0.000000e+00 [K]
    dU/dlambda VDW/kʙ            0.000000e+00 [K]
    dU/dlambda Real/kʙ           0.000000e+00 [K]
    dU/dlambda Ewald/kʙ          0.000000e+00 [K]


Initialization: Current cycle: 1500 out of 2000
===============================================================================

Box:      33.71338   0.00000   0.00000
           0.00000  33.71338   0.00000
           0.00000   0.00000  33.71338
Lengths:  33.71338  33.71338  33.71338
Angles:   90.00000  90.00000  90.00000
Rectangular boundary conditions

net charge:   0.00000000

component   0 (CO2) lambda:  0 occupancy:  1 (1.000000)
    net charge:   0.00000000 [e]

Amount of molecules per component :
-------------------------------------------------------------------------------
Component 0 (CO2)
    molecules:         3.900000e+01 molecules
    number density:    1.017789e-03 molec/A^3
    density:           7.436137e+01 kg/m^3

Total potential energy/kʙ       -6.676150e+03 [K]
-------------------------------------------------------------------------------
    external field VDW/kʙ        0.000000e+00 [K]
    external field Real/kʙ       0.000000e+00 [K]
    framework-molecule VDW/kʙ    0.000000e+00 [K]
    framework-molecule Real/kʙ   0.000000e+00 [K]
    molecule-molecule VDW/kʙ    -3.540155e+03 [K]
    molecule-molecule Real/kʙ   -2.816959e+03 [K]
    Van der Waals (Tail)/kʙ     -7.371543e+01 [K]
    Ewald Fourier/kʙ             2.048099e+03 [K]
    Ewald self/kʙ               -7.163045e+05 [K]
    Ewald exclusion/kʙ           7.140111e+05 [K]
    intra VDW/kʙ                 0.000000e+00 [K]
    intra Coulombic/kʙ           0.000000e+00 [K]
    polarization/kʙ              0.000000e+00 [K]
    dU/dlambda VDW/kʙ            0.000000e+00 [K]
    dU/dlambda Real/kʙ           0.000000e+00 [K]
    dU/dlambda Ewald/kʙ          0.000000e+00 [K]


Initialization: Current cycle: 1600 out of 2000
===============================================================================

Box:      33.59384   0.00000   0.00000
           0.00000  33.59384   0.00000
           0.00000   0.00000  33.59384
Lengths:  33.59384  33.59384  33.59384
Angles:   90.00000  90.00000  90.00000
Rectangular boundary conditions

net charge:   0.00000000

component   0 (CO2) lambda:  0 occupancy:  1 (1.000000)
    net charge:   0.00000000 [e]

Amount of molecules per component :
-------------------------------------------------------------------------------
Component 0 (CO2)
    molecules:         2.100000e+01 molecules
    number density:    5.539113e-04 molec/A^3
    density:           4.046971e+01 kg/m^3

Total potential energy/kʙ       -1.368495e+03 [K]
-------------------------------------------------------------------------------
    external field VDW/kʙ        0.000000e+00 [K]
    external field Real/kʙ       0.000000e+00 [K]
    framework-molecule VDW/kʙ    0.000000e+00 [K]
    framework-molecule Real/kʙ   0.000000e+00 [K]
    molecule-molecule VDW/kʙ    -9.458686e+02 [K]
    molecule-molecule Real/kʙ   -3.341400e+02 [K]
    Van der Waals (Tail)/kʙ     -2.160209e+01 [K]
    Ewald Fourier/kʙ             1.168035e+03 [K]
    Ewald self/kʙ               -3.857024e+05 [K]
    Ewald exclusion/kʙ           3.844675e+05 [K]
    intra VDW/kʙ                 0.000000e+00 [K]
    intra Coulombic/kʙ           0.000000e+00 [K]
    polarization/kʙ              0.000000e+00 [K]
    dU/dlambda VDW/kʙ            0.000000e+00 [K]
    dU/dlambda Real/kʙ           0.000000e+00 [K]
    dU/dlambda Ewald/kʙ          0.000000e+00 [K]


Initialization: Current cycle: 1700 out of 2000
===============================================================================

Box:      33.52797   0.00000   0.00000
           0.00000  33.52797   0.00000
           0.00000   0.00000  33.52797
Lengths:  33.52797  33.52797  33.52797
Angles:   90.00000  90.00000  90.00000
Rectangular boundary conditions

net charge:   0.00000000

component   0 (CO2) lambda:  0 occupancy:  1 (1.000000)
    net charge:   0.00000000 [e]

Amount of molecules per component :
-------------------------------------------------------------------------------
Component 0 (CO2)
    molecules:         4.000000e+01 molecules
    number density:    1.061300e-03 molec/A^3
    density:           7.754041e+01 kg/m^3

Total potential energy/kʙ       -5.613990e+03 [K]
-------------------------------------------------------------------------------
    external field VDW/kʙ        0.000000e+00 [K]
    external field Real/kʙ       0.000000e+00 [K]
    framework-molecule VDW/kʙ    0.000000e+00 [K]
    framework-molecule Real/kʙ   0.000000e+00 [K]
    molecule-molecule VDW/kʙ    -4.526924e+03 [K]
    molecule-molecule Real/kʙ   -9.008989e+02 [K]
    Van der Waals (Tail)/kʙ     -7.883780e+01 [K]
    Ewald Fourier/kʙ             2.244896e+03 [K]
    Ewald self/kʙ               -7.346713e+05 [K]
    Ewald exclusion/kʙ           7.323191e+05 [K]
    intra VDW/kʙ                 0.000000e+00 [K]
    intra Coulombic/kʙ           0.000000e+00 [K]
    polarization/kʙ              0.000000e+00 [K]
    dU/dlambda VDW/kʙ            0.000000e+00 [K]
    dU/dlambda Real/kʙ           0.000000e+00 [K]
    dU/dlambda Ewald/kʙ          0.000000e+00 [K]


Initialization: Current cycle: 1800 out of 2000
===============================================================================

Box:      33.52417   0.00000   0.00000
           0.00000  33.52417   0.00000
           0.00000   0.00000  33.52417
Lengths:  33.52417  33.52417  33.52417
Angles:   90.00000  90.00000  90.00000
Rectangular boundary conditions

net charge:   0.00000000

component   0 (CO2) lambda:  0 occupancy:  1 (1.000000)
    net charge:   0.00000000 [e]

Amount of molecules per component :
-------------------------------------------------------------------------------
Component 0 (CO2)
    molecules:         3.800000e+01 molecules
    number density:    1.008578e-03 molec/A^3
    density:           7.368844e+01 kg/m^3

Total potential energy/kʙ       -5.147691e+03 [K]
-------------------------------------------------------------------------------
    external field VDW/kʙ        0.000000e+00 [K]
    external field Real/kʙ       0.000000e+00 [K]
    framework-molecule VDW/kʙ    0.000000e+00 [K]
    framework-molecule Real/kʙ   0.000000e+00 [K]
    molecule-molecule VDW/kʙ    -4.274540e+03 [K]
    molecule-molecule Real/kʙ   -7.585370e+02 [K]
    Van der Waals (Tail)/kʙ     -7.117530e+01 [K]
    Ewald Fourier/kʙ             2.191175e+03 [K]
    Ewald self/kʙ               -6.979377e+05 [K]
    Ewald exclusion/kʙ           6.957031e+05 [K]
    intra VDW/kʙ                 0.000000e+00 [K]
    intra Coulombic/kʙ           0.000000e+00 [K]
    polarization/kʙ              0.000000e+00 [K]
    dU/dlambda VDW/kʙ            0.000000e+00 [K]
    dU/dlambda Real/kʙ           0.000000e+00 [K]
    dU/dlambda Ewald/kʙ          0.000000e+00 [K]


Initialization: Current cycle: 1900 out of 2000
===============================================================================

Box:      33.53444   0.00000   0.00000
           0.00000  33.53444   0.00000
           0.00000   0.00000  33.53444
Lengths:  33.53444  33.53444  33.53444
Angles:   90.00000  90.00000  90.00000
Rectangular boundary conditions

net charge:   0.00000000

component   0 (CO2) lambda:  0 occupancy:  1 (1.000000)
    net charge:   0.00000000 [e]

Amount of molecules per component :
-------------------------------------------------------------------------------
Component 0 (CO2)
    molecules:         2.400000e+01 molecules
    number density:    6.364118e-04 molec/A^3
    density:           4.649733e+01 kg/m^3

Total potential energy/kʙ       -3.339527e+03 [K]
-------------------------------------------------------------------------------
    external field VDW/kʙ        0.000000e+00 [K]
    external field Real/kʙ       0.000000e+00 [K]
    framework-molecule VDW/kʙ    0.000000e+00 [K]
    framework-molecule Real/kʙ   0.000000e+00 [K]
    molecule-molecule VDW/kʙ    -2.758099e+03 [K]
    molecule-molecule Real/kʙ   -5.006025e+02 [K]
    Van der Waals (Tail)/kʙ     -2.836519e+01 [K]
    Ewald Fourier/kʙ             1.358875e+03 [K]
    Ewald self/kʙ               -4.408028e+05 [K]
    Ewald exclusion/kʙ           4.393914e+05 [K]
    intra VDW/kʙ                 0.000000e+00 [K]
    intra Coulombic/kʙ           0.000000e+00 [K]
    polarization/kʙ              0.000000e+00 [K]
    dU/dlambda VDW/kʙ            0.000000e+00 [K]
    dU/dlambda Real/kʙ           0.000000e+00 [K]
    dU/dlambda Ewald/kʙ          0.000000e+00 [K]


Current cycle: 0 out of 6000
===============================================================================

Box:      33.60281   0.00000   0.00000  Average:  33.60281   0.00000   0.00000
           0.00000  33.60281   0.00000             0.00000  33.60281   0.00000
           0.00000   0.00000  33.60281             0.00000   0.00000  33.60281
Lengths:  33.60281  33.60281  33.60281  Average:  33.60281  33.60281  33.60281
Angles:   90.00000  90.00000  90.00000  Average:  90.00000  90.00000  90.00000
Rectangular boundary conditions

net charge:   0.00000000

component 0 (CO2) lambda:  0 occupancy:  1 (1.000000)
    net charge:   0.00000000 [e]

Amount of molecules per component :
-------------------------------------------------------------------------------
Component 0 (CO2)
    molecules:      3.300000e+01 molecules  (3.300000e+01 +/- 0.000000e+00)
    number density: 8.697352e-04 molec./A^3 (8.697352e-04 +/- 0.000000e+00)
    density:        6.354435e+01 kg/m^3     (6.354435e+01 +/- 0.000000e+00)

Average pressure tensor: 
-------------------------------------------------------------------------------
 3.1221e+01  0.0000e+00  0.0000e+00 +/- 0.0000e+00 0.0000e+00 0.0000e+00 [bar]
 0.0000e+00  3.1221e+01  0.0000e+00 +/- 0.0000e+00 0.0000e+00 0.0000e+00 [bar]
 0.0000e+00  0.0000e+00  3.1221e+01 +/- 0.0000e+00 0.0000e+00 0.0000e+00 [bar]
Ideal-gas pressure:   3.122081e+01 +/ 0.000000e+00 [bar]
Excess pressure:      0.000000e+00 +/ 0.000000e+00 [bar]
Pressure:             3.122081e+01 +/ 0.000000e+00 [bar]

Total potential energy/kʙ  -4.953599e+03 (-4.953599e+03 +/- 0.000000e+00) [K]
-------------------------------------------------------------------------------
ExternalField-molecule
    Van der Waals/kʙ        0.000000e+00 ( 0.000000e+00 +/- 0.000000e+00) [K]
Framework-molecule
    Van der Waals/kʙ        0.000000e+00 ( 0.000000e+00 +/- 0.000000e+00) [K]
    Van der Waals (Tail)/kʙ 0.000000e+00 ( 0.000000e+00 +/- 0.000000e+00) [K]
    Coulombic Real/kʙ       0.000000e+00 ( 0.000000e+00 +/- 0.000000e+00) [K]
    Coulombic Fourier/kʙ    0.000000e+00 ( 0.000000e+00 +/- 0.000000e+00) [K]
Molecule-molecule
    Van der Waals/kʙ       -2.926425e+03 (-2.926425e+03 +/- 0.000000e+00) [K]
    Van der Waals (Tail)/kʙ-5.330123e+01 (-5.330123e+01 +/- 0.000000e+00) [K]
    Coulombic Real/kʙ      -1.964865e+03 (-1.964865e+03 +/- 0.000000e+00) [K]
    Coulombic Fourier/kʙ   -9.008471e+00 (-9.008471e+00 +/- 0.000000e+00) [K]
    Molecule Intra/kʙ       0.000000e+00 ( 0.000000e+00 +/- 0.000000e+00) [K]

Current cycle: 100 out of 6000
===============================================================================

Box:      33.58695   0.00000   0.00000  Average:  33.54968   0.00000   0.00000
           0.00000  33.58695   0.00000             0.00000  33.54968   0.00000
           0.00000   0.00000  33.58695             0.00000   0.00000  33.54968
Lengths:  33.58695  33.58695  33.58695  Average:  33.54968  33.54968  33.54968
Angles:   90.00000  90.00000  90.00000  Average:  90.00000  90.00000  90.00000
Rectangular boundary conditions

net charge:   0.00000000

component 0 (CO2) lambda:  0 occupancy:  1 (1.000000)
    net charge:   0.00000000 [e]

Amount of molecules per component :
-------------------------------------------------------------------------------
Component 0 (CO2)
    molecules:      2.300000e+01 molecules  (2.563366e+01 +/- 0.000000e+00)
    number density: 6.070382e-04 molec./A^3 (6.788501e-04 +/- 0.000000e+00)
    density:        4.435125e+01 kg/m^3     (4.959795e+01 +/- 0.000000e+00)

Average pressure tensor: 
-------------------------------------------------------------------------------
 1.7694e+01  3.7240e+00 -2.0172e+00 +/- 0.0000e+00 0.0000e+00 0.0000e+00 [bar]
 3.7240e+00  2.2700e+01  4.3741e-01 +/- 0.0000e+00 0.0000e+00 0.0000e+00 [bar]
-2.0172e+00  4.3741e-01  1.6448e+01 +/- 0.0000e+00 0.0000e+00 0.0000e+00 [bar]
Ideal-gas pressure:   2.436862e+01 +/ 0.000000e+00 [bar]
Excess pressure:     -5.421163e+00 +/ 0.000000e+00 [bar]
Pressure:             1.894746e+01 +/ 0.000000e+00 [bar]

Total potential energy/kʙ  -2.859410e+03 (-3.061105e+03 +/- 0.000000e+00) [K]
-------------------------------------------------------------------------------
ExternalField-molecule
    Van der Waals/kʙ        0.000000e+00 ( 0.000000e+00 +/- 0.000000e+00) [K]
Framework-molecule
    Van der Waals/kʙ        0.000000e+00 ( 0.000000e+00 +/- 0.000000e+00) [K]
    Van der Waals (Tail)/kʙ 0.000000e+00 ( 0.000000e+00 +/- 0.000000e+00) [K]
    Coulombic Real/kʙ       0.000000e+00 ( 0.000000e+00 +/- 0.000000e+00) [K]
    Coulombic Fourier/kʙ    0.000000e+00 ( 0.000000e+00 +/- 0.000000e+00) [K]
Molecule-molecule
    Van der Waals/kʙ       -1.782343e+03 (-2.124722e+03 +/- 0.000000e+00) [K]
    Van der Waals (Tail)/kʙ-2.592866e+01 (-3.457494e+01 +/- 0.000000e+00) [K]
    Coulombic Real/kʙ      -9.805631e+02 (-8.349555e+02 +/- 0.000000e+00) [K]
    Coulombic Fourier/kʙ   -7.057532e+01 (-6.685232e+01 +/- 0.000000e+00) [K]
    Molecule Intra/kʙ       0.000000e+00 ( 0.000000e+00 +/- 0.000000e+00) [K]

Current cycle: 200 out of 6000
===============================================================================

Box:      33.66072   0.00000   0.00000  Average:  33.58893   0.00000   0.00000
           0.00000  33.66072   0.00000             0.00000  33.58893   0.00000
           0.00000   0.00000  33.66072             0.00000   0.00000  33.58893
Lengths:  33.66072  33.66072  33.66072  Average:  33.58893  33.58893  33.58893
Angles:   90.00000  90.00000  90.00000  Average:  90.00000  90.00000  90.00000
Rectangular boundary conditions

net charge:   0.00000000

component 0 (CO2) lambda:  0 occupancy:  1 (1.000000)
    net charge:   0.00000000 [e]

Amount of molecules per component :
-------------------------------------------------------------------------------
Component 0 (CO2)
    molecules:      2.400000e+01 molecules  (2.537313e+01 +/- 0.000000e+00)
    number density: 6.292760e-04 molec./A^3 (6.695149e-04 +/- 0.000000e+00)
    density:        4.597598e+01 kg/m^3     (4.891590e+01 +/- 0.000000e+00)

Average pressure tensor: 
-------------------------------------------------------------------------------
 1.9641e+01  1.1665e+00  2.5027e+00 +/- 0.0000e+00 0.0000e+00 0.0000e+00 [bar]
 1.1665e+00  1.8954e+01  2.4545e+00 +/- 0.0000e+00 0.0000e+00 0.0000e+00 [bar]
 2.5027e+00  2.4545e+00  2.0523e+01 +/- 0.0000e+00 0.0000e+00 0.0000e+00 [bar]
Ideal-gas pressure:   2.403351e+01 +/ 0.000000e+00 [bar]
Excess pressure:     -4.327867e+00 +/ 0.000000e+00 [bar]
Pressure:             1.970565e+01 +/ 0.000000e+00 [bar]

Total potential energy/kʙ  -1.373570e+03 (-2.683393e+03 +/- 0.000000e+00) [K]
-------------------------------------------------------------------------------
ExternalField-molecule
    Van der Waals/kʙ        0.000000e+00 ( 0.000000e+00 +/- 0.000000e+00) [K]
Framework-molecule
    Van der Waals/kʙ        0.000000e+00 ( 0.000000e+00 +/- 0.000000e+00) [K]
    Van der Waals (Tail)/kʙ 0.000000e+00 ( 0.000000e+00 +/- 0.000000e+00) [K]
    Coulombic Real/kʙ       0.000000e+00 ( 0.000000e+00 +/- 0.000000e+00) [K]
    Coulombic Fourier/kʙ    0.000000e+00 ( 0.000000e+00 +/- 0.000000e+00) [K]
Molecule-molecule
    Van der Waals/kʙ       -9.709057e+02 (-1.909335e+03 +/- 0.000000e+00) [K]
    Van der Waals (Tail)/kʙ-2.804714e+01 (-3.259589e+01 +/- 0.000000e+00) [K]
    Coulombic Real/kʙ      -3.851762e+02 (-6.962664e+02 +/- 0.000000e+00) [K]
    Coulombic Fourier/kʙ    1.055895e+01 (-4.519634e+01 +/- 0.000000e+00) [K]
    Molecule Intra/kʙ       0.000000e+00 ( 0.000000e+00 +/- 0.000000e+00) [K]

Current cycle: 300 out of 6000
===============================================================================

Box:      33.59830   0.00000   0.00000  Average:  33.59709   0.00000   0.00000
           0.00000  33.59830   0.00000             0.00000  33.59709   0.00000
           0.00000   0.00000  33.59830             0.00000   0.00000  33.59709
Lengths:  33.59830  33.59830  33.59830  Average:  33.59709  33.59709  33.59709
Angles:   90.00000  90.00000  90.00000  Average:  90.00000  90.00000  90.00000
Rectangular boundary conditions

net charge:   0.00000000

component 0 (CO2) lambda:  0 occupancy:  1 (1.000000)
    net charge:   0.00000000 [e]

Amount of molecules per component :
-------------------------------------------------------------------------------
Component 0 (CO2)
    molecules:      3.000000e+01 molecules  (2.621262e+01 +/- 0.000000e+00)
    number density: 7.909871e-04 molec./A^3 (6.911578e-04 +/- 0.000000e+00)
    density:        5.779087e+01 kg/m^3     (5.049717e+01 +/- 0.000000e+00)

Average pressure tensor: 
-------------------------------------------------------------------------------
 2.0774e+01  5.3124e-01  1.9840e+00 +/- 0.0000e+00 0.0000e+00 0.0000e+00 [bar]
 5.3124e-01  1.8728e+01  1.0584e+00 +/- 0.0000e+00 0.0000e+00 0.0000e+00 [bar]
 1.9840e+00  1.0584e+00  2.0197e+01 +/- 0.0000e+00 0.0000e+00 0.0000e+00 [bar]
Ideal-gas pressure:   2.481043e+01 +/ 0.000000e+00 [bar]
Excess pressure:     -4.910791e+00 +/ 0.000000e+00 [bar]
Pressure:             1.989964e+01 +/ 0.000000e+00 [bar]

Total potential energy/kʙ  -4.465126e+03 (-2.907178e+03 +/- 0.000000e+00) [K]
-------------------------------------------------------------------------------
ExternalField-molecule
    Van der Waals/kʙ        0.000000e+00 ( 0.000000e+00 +/- 0.000000e+00) [K]
Framework-molecule
    Van der Waals/kʙ        0.000000e+00 ( 0.000000e+00 +/- 0.000000e+00) [K]
    Van der Waals (Tail)/kʙ 0.000000e+00 ( 0.000000e+00 +/- 0.000000e+00) [K]
    Coulombic Real/kʙ       0.000000e+00 ( 0.000000e+00 +/- 0.000000e+00) [K]
    Coulombic Fourier/kʙ    0.000000e+00 ( 0.000000e+00 +/- 0.000000e+00) [K]
Molecule-molecule
    Van der Waals/kʙ       -2.645482e+03 (-2.081631e+03 +/- 0.000000e+00) [K]
    Van der Waals (Tail)/kʙ-4.406836e+01 (-3.543609e+01 +/- 0.000000e+00) [K]
    Coulombic Real/kʙ      -1.680112e+03 (-7.349574e+02 +/- 0.000000e+00) [K]
    Coulombic Fourier/kʙ   -9.546356e+01 (-5.515400e+01 +/- 0.000000e+00) [K]
    Molecule Intra/kʙ       0.000000e+00 ( 0.000000e+00 +/- 0.000000e+00) [K]

Current cycle: 400 out of 6000
===============================================================================

Box:      33.74338   0.00000   0.00000  Average:  33.63538   0.00000   0.00000
           0.00000  33.74338   0.00000             0.00000  33.63538   0.00000
           0.00000   0.00000  33.74338             0.00000   0.00000  33.63538
Lengths:  33.74338  33.74338  33.74338  Average:  33.63538  33.63538  33.63538
Angles:   90.00000  90.00000  90.00000  Average:  90.00000  90.00000  90.00000
Rectangular boundary conditions

net charge:   0.00000000

component 0 (CO2) lambda:  0 occupancy:  1 (1.000000)
    net charge:   0.00000000 [e]

Amount of molecules per component :
-------------------------------------------------------------------------------
Component 0 (CO2)
    molecules:      3.400000e+01 molecules  (2.796509e+01 +/- 0.000000e+00)
    number density: 8.849387e-04 molec./A^3 (7.344343e-04 +/- 0.000000e+00)
    density:        6.465513e+01 kg/m^3     (5.365903e+01 +/- 0.000000e+00)

Average pressure tensor: 
-------------------------------------------------------------------------------
 2.2626e+01  3.7786e-01  7.0940e-01 +/- 0.0000e+00 0.0000e+00 0.0000e+00 [bar]
 3.7786e-01  2.0080e+01  4.8715e-01 +/- 0.0000e+00 0.0000e+00 0.0000e+00 [bar]
 7.0940e-01  4.8715e-01  2.0755e+01 +/- 0.0000e+00 0.0000e+00 0.0000e+00 [bar]
Ideal-gas pressure:   2.636392e+01 +/ 0.000000e+00 [bar]
Excess pressure:     -5.210413e+00 +/ 0.000000e+00 [bar]
Pressure:             2.115351e+01 +/ 0.000000e+00 [bar]

Total potential energy/kʙ  -3.764786e+03 (-3.209972e+03 +/- 0.000000e+00) [K]
-------------------------------------------------------------------------------
ExternalField-molecule
    Van der Waals/kʙ        0.000000e+00 ( 0.000000e+00 +/- 0.000000e+00) [K]
Framework-molecule
    Van der Waals/kʙ        0.000000e+00 ( 0.000000e+00 +/- 0.000000e+00) [K]
    Van der Waals (Tail)/kʙ 0.000000e+00 ( 0.000000e+00 +/- 0.000000e+00) [K]
    Coulombic Real/kʙ       0.000000e+00 ( 0.000000e+00 +/- 0.000000e+00) [K]
    Coulombic Fourier/kʙ    0.000000e+00 ( 0.000000e+00 +/- 0.000000e+00) [K]
Molecule-molecule
    Van der Waals/kʙ       -2.680288e+03 (-2.287064e+03 +/- 0.000000e+00) [K]
    Van der Waals (Tail)/kʙ-5.587639e+01 (-3.966935e+01 +/- 0.000000e+00) [K]
    Coulombic Real/kʙ      -1.074898e+03 (-8.210849e+02 +/- 0.000000e+00) [K]
    Coulombic Fourier/kʙ    4.627647e+01 (-6.215328e+01 +/- 0.000000e+00) [K]
    Molecule Intra/kʙ       0.000000e+00 ( 0.000000e+00 +/- 0.000000e+00) [K]

Current cycle: 500 out of 6000
===============================================================================

Box:      33.86731   0.00000   0.00000  Average:  33.65356   0.00000   0.00000
           0.00000  33.86731   0.00000             0.00000  33.65356   0.00000
           0.00000   0.00000  33.86731             0.00000   0.00000  33.65356
Lengths:  33.86731  33.86731  33.86731  Average:  33.65356  33.65356  33.65356
Angles:   90.00000  90.00000  90.00000  Average:  90.00000  90.00000  90.00000
Rectangular boundary conditions

net charge:   0.00000000

component 0 (CO2) lambda:  0 occupancy:  1 (1.000000)
    net charge:   0.00000000 [e]

Amount of molecules per component :
-------------------------------------------------------------------------------
Component 0 (CO2)
    molecules:      4.200000e+01 molecules  (2.926747e+01 +/- 0.000000e+00)
    number density: 1.081203e-03 molec./A^3 (7.671834e-04 +/- 0.000000e+00)
    density:        7.899454e+01 kg/m^3     (5.605173e+01 +/- 0.000000e+00)

Average pressure tensor: 
-------------------------------------------------------------------------------
 2.3028e+01  8.2708e-01 -6.4748e-02 +/- 0.0000e+00 0.0000e+00 0.0000e+00 [bar]
 8.2708e-01  2.0475e+01  3.6922e-01 +/- 0.0000e+00 0.0000e+00 0.0000e+00 [bar]
-6.4748e-02  3.6922e-01  2.2342e+01 +/- 0.0000e+00 0.0000e+00 0.0000e+00 [bar]
Ideal-gas pressure:   2.753951e+01 +/ 0.000000e+00 [bar]
Excess pressure:     -5.591137e+00 +/ 0.000000e+00 [bar]
Pressure:             2.194837e+01 +/ 0.000000e+00 [bar]

Total potential energy/kʙ  -6.892770e+03 (-3.424473e+03 +/- 0.000000e+00) [K]
-------------------------------------------------------------------------------
ExternalField-molecule
    Van der Waals/kʙ        0.000000e+00 ( 0.000000e+00 +/- 0.000000e+00) [K]
Framework-molecule
    Van der Waals/kʙ        0.000000e+00 ( 0.000000e+00 +/- 0.000000e+00) [K]
    Van der Waals (Tail)/kʙ 0.000000e+00 ( 0.000000e+00 +/- 0.000000e+00) [K]
    Coulombic Real/kʙ       0.000000e+00 ( 0.000000e+00 +/- 0.000000e+00) [K]
    Coulombic Fourier/kʙ    0.000000e+00 ( 0.000000e+00 +/- 0.000000e+00) [K]
Molecule-molecule
    Van der Waals/kʙ       -4.896754e+03 (-2.437119e+03 +/- 0.000000e+00) [K]
    Van der Waals (Tail)/kʙ-8.433207e+01 (-4.326368e+01 +/- 0.000000e+00) [K]
    Coulombic Real/kʙ      -1.656117e+03 (-8.687329e+02 +/- 0.000000e+00) [K]
    Coulombic Fourier/kʙ   -2.555662e+02 (-7.535768e+01 +/- 0.000000e+00) [K]
    Molecule Intra/kʙ       0.000000e+00 ( 0.000000e+00 +/- 0.000000e+00) [K]

Current cycle: 600 out of 6000
===============================================================================

Box:      33.94253   0.00000   0.00000  Average:  33.70588   0.00000   0.00000
           0.00000  33.94253   0.00000             0.00000  33.70588   0.00000
           0.00000   0.00000  33.94253             0.00000   0.00000  33.70588
Lengths:  33.94253  33.94253  33.94253  Average:  33.70588  33.70588  33.70588
Angles:   90.00000  90.00000  90.00000  Average:  90.00000  90.00000  90.00000
Rectangular boundary conditions

net charge:   0.00000000

component 0 (CO2) lambda:  0 occupancy:  1 (1.000000)
    net charge:   0.00000000 [e]

Amount of molecules per component :
-------------------------------------------------------------------------------
Component 0 (CO2)
    molecules:      4.900000e+01 molecules  (3.168053e+01 +/- 0.000000e+00)
    number density: 1.253036e-03 molec./A^3 (8.253150e-04 +/- 0.000000e+00)
    density:        9.154895e+01 kg/m^3     (6.029892e+01 +/- 0.000000e+00)

Average pressure tensor: 
-------------------------------------------------------------------------------
 2.3359e+01  9.6974e-01  1.3043e-02 +/- 0.0000e+00 0.0000e+00 0.0000e+00 [bar]
 9.6974e-01  2.1613e+01  1.9779e-01 +/- 0.0000e+00 0.0000e+00 0.0000e+00 [bar]
 1.3043e-02  1.9779e-01  2.2741e+01 +/- 0.0000e+00 0.0000e+00 0.0000e+00 [bar]
Ideal-gas pressure:   2.962626e+01 +/ 0.000000e+00 [bar]
Excess pressure:     -7.055336e+00 +/ 0.000000e+00 [bar]
Pressure:             2.257092e+01 +/ 0.000000e+00 [bar]

Total potential energy/kʙ  -8.624762e+03 (-4.249374e+03 +/- 0.000000e+00) [K]
-------------------------------------------------------------------------------
ExternalField-molecule
    Van der Waals/kʙ        0.000000e+00 ( 0.000000e+00 +/- 0.000000e+00) [K]
Framework-molecule
    Van der Waals/kʙ        0.000000e+00 ( 0.000000e+00 +/- 0.000000e+00) [K]
    Van der Waals (Tail)/kʙ 0.000000e+00 ( 0.000000e+00 +/- 0.000000e+00) [K]
    Coulombic Real/kʙ       0.000000e+00 ( 0.000000e+00 +/- 0.000000e+00) [K]
    Coulombic Fourier/kʙ    0.000000e+00 ( 0.000000e+00 +/- 0.000000e+00) [K]
Molecule-molecule
    Van der Waals/kʙ       -5.903405e+03 (-3.030284e+03 +/- 0.000000e+00) [K]
    Van der Waals (Tail)/kʙ-1.140239e+02 (-5.239738e+01 +/- 0.000000e+00) [K]
    Coulombic Real/kʙ      -2.716868e+03 (-1.082195e+03 +/- 0.000000e+00) [K]
    Coulombic Fourier/kʙ    1.095349e+02 (-8.449759e+01 +/- 0.000000e+00) [K]
    Molecule Intra/kʙ       0.000000e+00 ( 0.000000e+00 +/- 0.000000e+00) [K]

Current cycle: 700 out of 6000
===============================================================================

Box:      33.83929   0.00000   0.00000  Average:  33.73901   0.00000   0.00000
           0.00000  33.83929   0.00000             0.00000  33.73901   0.00000
           0.00000   0.00000  33.83929             0.00000   0.00000  33.73901
Lengths:  33.83929  33.83929  33.83929  Average:  33.73901  33.73901  33.73901
Angles:   90.00000  90.00000  90.00000  Average:  90.00000  90.00000  90.00000
Rectangular boundary conditions

net charge:   0.00000000

component 0 (CO2) lambda:  0 occupancy:  1 (1.000000)
    net charge:   0.00000000 [e]

Amount of molecules per component :
-------------------------------------------------------------------------------
Component 0 (CO2)
    molecules:      4.300000e+01 molecules  (3.351783e+01 +/- 0.000000e+00)
    number density: 1.109698e-03 molec./A^3 (8.701781e-04 +/- 0.000000e+00)
    density:        8.107640e+01 kg/m^3     (6.357670e+01 +/- 0.000000e+00)

Average pressure tensor: 
-------------------------------------------------------------------------------
 2.4653e+01  7.7635e-02  1.5088e-01 +/- 0.0000e+00 0.0000e+00 0.0000e+00 [bar]
 7.7635e-02  2.2507e+01 -6.9807e-01 +/- 0.0000e+00 0.0000e+00 0.0000e+00 [bar]
 1.5088e-01 -6.9807e-01  2.4984e+01 +/- 0.0000e+00 0.0000e+00 0.0000e+00 [bar]
Ideal-gas pressure:   3.123670e+01 +/ 0.000000e+00 [bar]
Excess pressure:     -7.188540e+00 +/ 0.000000e+00 [bar]
Pressure:             2.404816e+01 +/ 0.000000e+00 [bar]

Total potential energy/kʙ  -1.178490e+04 (-4.809562e+03 +/- 0.000000e+00) [K]
-------------------------------------------------------------------------------
ExternalField-molecule
    Van der Waals/kʙ        0.000000e+00 ( 0.000000e+00 +/- 0.000000e+00) [K]
Framework-molecule
    Van der Waals/kʙ        0.000000e+00 ( 0.000000e+00 +/- 0.000000e+00) [K]
    Van der Waals (Tail)/kʙ 0.000000e+00 ( 0.000000e+00 +/- 0.000000e+00) [K]
    Coulombic Real/kʙ       0.000000e+00 ( 0.000000e+00 +/- 0.000000e+00) [K]
    Coulombic Fourier/kʙ    0.000000e+00 ( 0.000000e+00 +/- 0.000000e+00) [K]
Molecule-molecule
    Van der Waals/kʙ       -7.614737e+03 (-3.455699e+03 +/- 0.000000e+00) [K]
    Van der Waals (Tail)/kʙ-8.861542e+01 (-5.812029e+01 +/- 0.000000e+00) [K]
    Coulombic Real/kʙ      -3.767231e+03 (-1.207156e+03 +/- 0.000000e+00) [K]
    Coulombic Fourier/kʙ   -3.143173e+02 (-8.858707e+01 +/- 0.000000e+00) [K]
    Molecule Intra/kʙ       0.000000e+00 ( 0.000000e+00 +/- 0.000000e+00) [K]

Current cycle: 800 out of 6000
===============================================================================

Box:      34.06441   0.00000   0.00000  Average:  33.76951   0.00000   0.00000
           0.00000  34.06441   0.00000             0.00000  33.76951   0.00000
           0.00000   0.00000  34.06441             0.00000   0.00000  33.76951
Lengths:  34.06441  34.06441  34.06441  Average:  33.76951  33.76951  33.76951
Angles:   90.00000  90.00000  90.00000  Average:  90.00000  90.00000  90.00000
Rectangular boundary conditions

net charge:   0.00000000

component 0 (CO2) lambda:  0 occupancy:  1 (1.000000)
    net charge:   0.00000000 [e]

Amount of molecules per component :
-------------------------------------------------------------------------------
Component 0 (CO2)
    molecules:      5.100000e+01 molecules  (3.499251e+01 +/- 0.000000e+00)
    number density: 1.290232e-03 molec./A^3 (9.056936e-04 +/- 0.000000e+00)
    density:        9.426653e+01 kg/m^3     (6.617152e+01 +/- 0.000000e+00)

Average pressure tensor: 
-------------------------------------------------------------------------------
 2.4885e+01  1.3419e-01 -1.8420e-01 +/- 0.0000e+00 0.0000e+00 0.0000e+00 [bar]
 1.3419e-01  2.3321e+01 -5.2452e-01 +/- 0.0000e+00 0.0000e+00 0.0000e+00 [bar]
-1.8420e-01 -5.2452e-01  2.5902e+01 +/- 0.0000e+00 0.0000e+00 0.0000e+00 [bar]
Ideal-gas pressure:   3.251160e+01 +/ 0.000000e+00 [bar]
Excess pressure:     -7.808915e+00 +/ 0.000000e+00 [bar]
Pressure:             2.470268e+01 +/ 0.000000e+00 [bar]

Total potential energy/kʙ  -8.757842e+03 (-5.102832e+03 +/- 0.000000e+00) [K]
-------------------------------------------------------------------------------
ExternalField-molecule
    Van der Waals/kʙ        0.000000e+00 ( 0.000000e+00 +/- 0.000000e+00) [K]
Framework-molecule
    Van der Waals/kʙ        0.000000e+00 ( 0.000000e+00 +/- 0.000000e+00) [K]
    Van der Waals (Tail)/kʙ 0.000000e+00 ( 0.000000e+00 +/- 0.000000e+00) [K]
    Coulombic Real/kʙ       0.000000e+00 ( 0.000000e+00 +/- 0.000000e+00) [K]
    Coulombic Fourier/kʙ    0.000000e+00 ( 0.000000e+00 +/- 0.000000e+00) [K]
Molecule-molecule
    Van der Waals/kʙ       -6.532423e+03 (-3.678469e+03 +/- 0.000000e+00) [K]
    Van der Waals (Tail)/kʙ-1.222008e+02 (-6.303109e+01 +/- 0.000000e+00) [K]
    Coulombic Real/kʙ      -1.885275e+03 (-1.266688e+03 +/- 0.000000e+00) [K]
    Coulombic Fourier/kʙ   -2.179434e+02 (-9.464415e+01 +/- 0.000000e+00) [K]
    Molecule Intra/kʙ       0.000000e+00 ( 0.000000e+00 +/- 0.000000e+00) [K]

Current cycle: 900 out of 6000
===============================================================================

Box:      33.96863   0.00000   0.00000  Average:  33.79889   0.00000   0.00000
           0.00000  33.96863   0.00000             0.00000  33.79889   0.00000
           0.00000   0.00000  33.96863             0.00000   0.00000  33.79889
Lengths:  33.96863  33.96863  33.96863  Average:  33.79889  33.79889  33.79889
Angles:   90.00000  90.00000  90.00000  Average:  90.00000  90.00000  90.00000
Rectangular boundary conditions

net charge:   0.00000000

component 0 (CO2) lambda:  0 occupancy:  1 (1.000000)
    net charge:   0.00000000 [e]

Amount of molecules per component :
-------------------------------------------------------------------------------
Component 0 (CO2)
    molecules:      4.100000e+01 molecules  (3.635405e+01 +/- 0.000000e+00)
    number density: 1.046043e-03 molec./A^3 (9.382013e-04 +/- 0.000000e+00)
    density:        7.642573e+01 kg/m^3     (6.854659e+01 +/- 0.000000e+00)

Average pressure tensor: 
-------------------------------------------------------------------------------
 2.5194e+01 -4.4872e-01 -2.8333e-01 +/- 0.0000e+00 0.0000e+00 0.0000e+00 [bar]
-4.4872e-01  2.3358e+01 -1.5398e-02 +/- 0.0000e+00 0.0000e+00 0.0000e+00 [bar]
-2.8333e-01 -1.5398e-02  2.7450e+01 +/- 0.0000e+00 0.0000e+00 0.0000e+00 [bar]
Ideal-gas pressure:   3.367852e+01 +/ 0.000000e+00 [bar]
Excess pressure:     -8.344651e+00 +/ 0.000000e+00 [bar]
Pressure:             2.533387e+01 +/ 0.000000e+00 [bar]

Total potential energy/kʙ  -8.126080e+03 (-5.555781e+03 +/- 0.000000e+00) [K]
-------------------------------------------------------------------------------
ExternalField-molecule
    Van der Waals/kʙ        0.000000e+00 ( 0.000000e+00 +/- 0.000000e+00) [K]
Framework-molecule
    Van der Waals/kʙ        0.000000e+00 ( 0.000000e+00 +/- 0.000000e+00) [K]
    Van der Waals (Tail)/kʙ 0.000000e+00 ( 0.000000e+00 +/- 0.000000e+00) [K]
    Coulombic Real/kʙ       0.000000e+00 ( 0.000000e+00 +/- 0.000000e+00) [K]
    Coulombic Fourier/kʙ    0.000000e+00 ( 0.000000e+00 +/- 0.000000e+00) [K]
Molecule-molecule
    Van der Waals/kʙ       -5.888581e+03 (-4.001546e+03 +/- 0.000000e+00) [K]
    Van der Waals (Tail)/kʙ-7.964707e+01 (-6.785682e+01 +/- 0.000000e+00) [K]
    Coulombic Real/kʙ      -1.996271e+03 (-1.376874e+03 +/- 0.000000e+00) [K]
    Coulombic Fourier/kʙ   -1.615806e+02 (-1.095048e+02 +/- 0.000000e+00) [K]
    Molecule Intra/kʙ       0.000000e+00 ( 0.000000e+00 +/- 0.000000e+00) [K]

Current cycle: 1000 out of 6000
===============================================================================

Box:      33.74939   0.00000   0.00000  Average:  33.81026   0.00000   0.00000
           0.00000  33.74939   0.00000             0.00000  33.81026   0.00000
           0.00000   0.00000  33.74939             0.00000   0.00000  33.81026
Lengths:  33.74939  33.74939  33.74939  Average:  33.81026  33.81026  33.81026
Angles:   90.00000  90.00000  90.00000  Average:  90.00000  90.00000  90.00000
Rectangular boundary conditions

net charge:   0.00000000

component 0 (CO2) lambda:  0 occupancy:  1 (1.000000)
    net charge:   0.00000000 [e]

Amount of molecules per component :
-------------------------------------------------------------------------------
Component 0 (CO2)
    molecules:      2.200000e+01 molecules  (3.633666e+01 +/- 0.000000e+00)
    number density: 5.723015e-04 molec./A^3 (9.371021e-04 +/- 0.000000e+00)
    density:        4.181332e+01 kg/m^3     (6.846628e+01 +/- 0.000000e+00)

Average pressure tensor: 
-------------------------------------------------------------------------------
 2.4843e+01  3.4841e-01 -2.7738e-01 +/- 0.0000e+00 0.0000e+00 0.0000e+00 [bar]
 3.4841e-01  2.3507e+01 -5.6746e-01 +/- 0.0000e+00 0.0000e+00 0.0000e+00 [bar]
-2.7738e-01 -5.6746e-01  2.7150e+01 +/- 0.0000e+00 0.0000e+00 0.0000e+00 [bar]
Ideal-gas pressure:   3.363907e+01 +/ 0.000000e+00 [bar]
Excess pressure:     -8.472312e+00 +/ 0.000000e+00 [bar]
Pressure:             2.516676e+01 +/ 0.000000e+00 [bar]

Total potential energy/kʙ  -1.451455e+02 (-5.534658e+03 +/- 0.000000e+00) [K]
-------------------------------------------------------------------------------
ExternalField-molecule
    Van der Waals/kʙ        0.000000e+00 ( 0.000000e+00 +/- 0.000000e+00) [K]
Framework-molecule
    Van der Waals/kʙ        0.000000e+00 ( 0.000000e+00 +/- 0.000000e+00) [K]
    Van der Waals (Tail)/kʙ 0.000000e+00 ( 0.000000e+00 +/- 0.000000e+00) [K]
    Coulombic Real/kʙ       0.000000e+00 ( 0.000000e+00 +/- 0.000000e+00) [K]
    Coulombic Fourier/kʙ    0.000000e+00 ( 0.000000e+00 +/- 0.000000e+00) [K]
Molecule-molecule
    Van der Waals/kʙ       -3.999723e+02 (-3.970840e+03 +/- 0.000000e+00) [K]
    Van der Waals (Tail)/kʙ-2.338211e+01 (-6.726708e+01 +/- 0.000000e+00) [K]
    Coulombic Real/kʙ       3.542670e+02 (-1.386071e+03 +/- 0.000000e+00) [K]
    Coulombic Fourier/kʙ   -7.605802e+01 (-1.104792e+02 +/- 0.000000e+00) [K]
    Molecule Intra/kʙ       0.000000e+00 ( 0.000000e+00 +/- 0.000000e+00) [K]

Current cycle: 1100 out of 6000
===============================================================================

Box:      33.61883   0.00000   0.00000  Average:  33.80465   0.00000   0.00000
           0.00000  33.61883   0.00000             0.00000  33.80465   0.00000
           0.00000   0.00000  33.61883             0.00000   0.00000  33.80465
Lengths:  33.61883  33.61883  33.61883  Average:  33.80465  33.80465  33.80465
Angles:   90.00000  90.00000  90.00000  Average:  90.00000  90.00000  90.00000
Rectangular boundary conditions

net charge:   0.00000000

component 0 (CO2) lambda:  0 occupancy:  1 (1.000000)
    net charge:   0.00000000 [e]

Amount of molecules per component :
-------------------------------------------------------------------------------
Component 0 (CO2)
    molecules:      2.600000e+01 molecules  (3.577293e+01 +/- 0.000000e+00)
    number density: 6.842668e-04 molec./A^3 (9.231735e-04 +/- 0.000000e+00)
    density:        4.999370e+01 kg/m^3     (6.744864e+01 +/- 0.000000e+00)

Average pressure tensor: 
-------------------------------------------------------------------------------
 2.5614e+01  3.0440e-01  1.6886e-01 +/- 0.0000e+00 0.0000e+00 0.0000e+00 [bar]
 3.0440e-01  2.4166e+01 -1.0529e+00 +/- 0.0000e+00 0.0000e+00 0.0000e+00 [bar]
 1.6886e-01 -1.0529e+00  2.7091e+01 +/- 0.0000e+00 0.0000e+00 0.0000e+00 [bar]
Ideal-gas pressure:   3.313908e+01 +/ 0.000000e+00 [bar]
Excess pressure:     -7.515433e+00 +/ 0.000000e+00 [bar]
Pressure:             2.562364e+01 +/ 0.000000e+00 [bar]

Total potential energy/kʙ  -2.576376e+03 (-5.317293e+03 +/- 0.000000e+00) [K]
-------------------------------------------------------------------------------
ExternalField-molecule
    Van der Waals/kʙ        0.000000e+00 ( 0.000000e+00 +/- 0.000000e+00) [K]
Framework-molecule
    Van der Waals/kʙ        0.000000e+00 ( 0.000000e+00 +/- 0.000000e+00) [K]
    Van der Waals (Tail)/kʙ 0.000000e+00 ( 0.000000e+00 +/- 0.000000e+00) [K]
    Coulombic Real/kʙ       0.000000e+00 ( 0.000000e+00 +/- 0.000000e+00) [K]
    Coulombic Fourier/kʙ    0.000000e+00 ( 0.000000e+00 +/- 0.000000e+00) [K]
Molecule-molecule
    Van der Waals/kʙ       -9.871873e+02 (-3.818358e+03 +/- 0.000000e+00) [K]
    Van der Waals (Tail)/kʙ-3.303962e+01 (-6.533574e+01 +/- 0.000000e+00) [K]
    Coulombic Real/kʙ      -1.450017e+03 (-1.330490e+03 +/- 0.000000e+00) [K]
    Coulombic Fourier/kʙ   -1.061317e+02 (-1.031084e+02 +/- 0.000000e+00) [K]
    Molecule Intra/kʙ       0.000000e+00 ( 0.000000e+00 +/- 0.000000e+00) [K]

Current cycle: 1200 out of 6000
===============================================================================

Box:      33.82625   0.00000   0.00000  Average:  33.79798   0.00000   0.00000
           0.00000  33.82625   0.00000             0.00000  33.79798   0.00000
           0.00000   0.00000  33.82625             0.00000   0.00000  33.79798
Lengths:  33.82625  33.82625  33.82625  Average:  33.79798  33.79798  33.79798
Angles:   90.00000  90.00000  90.00000  Average:  90.00000  90.00000  90.00000
Rectangular boundary conditions

net charge:   0.00000000

component 0 (CO2) lambda:  0 occupancy:  1 (1.000000)
    net charge:   0.00000000 [e]

Amount of molecules per component :
-------------------------------------------------------------------------------
Component 0 (CO2)
    molecules:      3.300000e+01 molecules  (3.506661e+01 +/- 0.000000e+00)
    number density: 8.526140e-04 molec./A^3 (9.054841e-04 +/- 0.000000e+00)
    density:        6.229344e+01 kg/m^3     (6.615622e+01 +/- 0.000000e+00)

Average pressure tensor: 
-------------------------------------------------------------------------------
 2.5735e+01  4.3790e-01  1.8526e-01 +/- 0.0000e+00 0.0000e+00 0.0000e+00 [bar]
 4.3790e-01  2.4320e+01 -9.1041e-01 +/- 0.0000e+00 0.0000e+00 0.0000e+00 [bar]
 1.8526e-01 -9.1041e-01  2.6893e+01 +/- 0.0000e+00 0.0000e+00 0.0000e+00 [bar]
Ideal-gas pressure:   3.250408e+01 +/ 0.000000e+00 [bar]
Excess pressure:     -6.854804e+00 +/ 0.000000e+00 [bar]
Pressure:             2.564928e+01 +/ 0.000000e+00 [bar]

Total potential energy/kʙ  -4.725195e+03 (-5.145489e+03 +/- 0.000000e+00) [K]
-------------------------------------------------------------------------------
ExternalField-molecule
    Van der Waals/kʙ        0.000000e+00 ( 0.000000e+00 +/- 0.000000e+00) [K]
Framework-molecule
    Van der Waals/kʙ        0.000000e+00 ( 0.000000e+00 +/- 0.000000e+00) [K]
    Van der Waals (Tail)/kʙ 0.000000e+00 ( 0.000000e+00 +/- 0.000000e+00) [K]
    Coulombic Real/kʙ       0.000000e+00 ( 0.000000e+00 +/- 0.000000e+00) [K]
    Coulombic Fourier/kʙ    0.000000e+00 ( 0.000000e+00 +/- 0.000000e+00) [K]
Molecule-molecule
    Van der Waals/kʙ       -3.675188e+03 (-3.685631e+03 +/- 0.000000e+00) [K]
    Van der Waals (Tail)/kʙ-5.225196e+01 (-6.290823e+01 +/- 0.000000e+00) [K]
    Coulombic Real/kʙ      -9.424232e+02 (-1.298018e+03 +/- 0.000000e+00) [K]
    Coulombic Fourier/kʙ   -5.533199e+01 (-9.893231e+01 +/- 0.000000e+00) [K]
    Molecule Intra/kʙ       0.000000e+00 ( 0.000000e+00 +/- 0.000000e+00) [K]

Current cycle: 1300 out of 6000
===============================================================================

Box:      33.58606   0.00000   0.00000  Average:  33.78526   0.00000   0.00000
           0.00000  33.58606   0.00000             0.00000  33.78526   0.00000
           0.00000   0.00000  33.58606             0.00000   0.00000  33.78526
Lengths:  33.58606  33.58606  33.58606  Average:  33.78526  33.78526  33.78526
Angles:   90.00000  90.00000  90.00000  Average:  90.00000  90.00000  90.00000
Rectangular boundary conditions

net charge:   0.00000000

component 0 (CO2) lambda:  0 occupancy:  1 (1.000000)
    net charge:   0.00000000 [e]

Amount of molecules per component :
-------------------------------------------------------------------------------
Component 0 (CO2)
    molecules:      2.900000e+01 molecules  (3.468025e+01 +/- 0.000000e+00)
    number density: 7.654572e-04 molec./A^3 (8.965169e-04 +/- 0.000000e+00)
    density:        5.592561e+01 kg/m^3     (6.550106e+01 +/- 0.000000e+00)

Average pressure tensor: 
-------------------------------------------------------------------------------
 2.5029e+01  1.9586e-01  2.3468e-02 +/- 0.0000e+00 0.0000e+00 0.0000e+00 [bar]
 1.9586e-01  2.3662e+01 -8.7695e-01 +/- 0.0000e+00 0.0000e+00 0.0000e+00 [bar]
 2.3468e-02 -8.7695e-01  2.6316e+01 +/- 0.0000e+00 0.0000e+00 0.0000e+00 [bar]
Ideal-gas pressure:   3.218219e+01 +/ 0.000000e+00 [bar]
Excess pressure:     -7.179541e+00 +/ 0.000000e+00 [bar]
Pressure:             2.500265e+01 +/ 0.000000e+00 [bar]

Total potential energy/kʙ  -2.797019e+03 (-5.039675e+03 +/- 0.000000e+00) [K]
-------------------------------------------------------------------------------
ExternalField-molecule
    Van der Waals/kʙ        0.000000e+00 ( 0.000000e+00 +/- 0.000000e+00) [K]
Framework-molecule
    Van der Waals/kʙ        0.000000e+00 ( 0.000000e+00 +/- 0.000000e+00) [K]
    Van der Waals (Tail)/kʙ 0.000000e+00 ( 0.000000e+00 +/- 0.000000e+00) [K]
    Coulombic Real/kʙ       0.000000e+00 ( 0.000000e+00 +/- 0.000000e+00) [K]
    Coulombic Fourier/kʙ    0.000000e+00 ( 0.000000e+00 +/- 0.000000e+00) [K]
Molecule-molecule
    Van der Waals/kʙ       -2.508396e+03 (-3.611802e+03 +/- 0.000000e+00) [K]
    Van der Waals (Tail)/kʙ-4.122447e+01 (-6.147338e+01 +/- 0.000000e+00) [K]
    Coulombic Real/kʙ      -2.662497e+02 (-1.268513e+03 +/- 0.000000e+00) [K]
    Coulombic Fourier/kʙ    1.885138e+01 (-9.788677e+01 +/- 0.000000e+00) [K]
    Molecule Intra/kʙ       0.000000e+00 ( 0.000000e+00 +/- 0.000000e+00) [K]

Current cycle: 1400 out of 6000
===============================================================================

Box:      33.49009   0.00000   0.00000  Average:  33.76540   0.00000   0.00000
           0.00000  33.49009   0.00000             0.00000  33.76540   0.00000
           0.00000   0.00000  33.49009             0.00000   0.00000  33.76540
Lengths:  33.49009  33.49009  33.49009  Average:  33.76540  33.76540  33.76540
Angles:   90.00000  90.00000  90.00000  Average:  90.00000  90.00000  90.00000
Rectangular boundary conditions

net charge:   0.00000000

component 0 (CO2) lambda:  0 occupancy:  1 (1.000000)
    net charge:   0.00000000 [e]

Amount of molecules per component :
-------------------------------------------------------------------------------
Component 0 (CO2)
    molecules:      2.600000e+01 molecules  (3.404283e+01 +/- 0.000000e+00)
    number density: 6.921885e-04 molec./A^3 (8.813862e-04 +/- 0.000000e+00)
    density:        5.057248e+01 kg/m^3     (6.439558e+01 +/- 0.000000e+00)

Average pressure tensor: 
-------------------------------------------------------------------------------
 2.4386e+01  1.9498e-01  6.1210e-02 +/- 0.0000e+00 0.0000e+00 0.0000e+00 [bar]
 1.9498e-01  2.3328e+01 -5.8813e-01 +/- 0.0000e+00 0.0000e+00 0.0000e+00 [bar]
 6.1210e-02 -5.8813e-01  2.5822e+01 +/- 0.0000e+00 0.0000e+00 0.0000e+00 [bar]
Ideal-gas pressure:   3.163904e+01 +/ 0.000000e+00 [bar]
Excess pressure:     -7.127125e+00 +/ 0.000000e+00 [bar]
Pressure:             2.451191e+01 +/ 0.000000e+00 [bar]

Total potential energy/kʙ  -2.288400e+03 (-4.864329e+03 +/- 0.000000e+00) [K]
-------------------------------------------------------------------------------
ExternalField-molecule
    Van der Waals/kʙ        0.000000e+00 ( 0.000000e+00 +/- 0.000000e+00) [K]
Framework-molecule
    Van der Waals/kʙ        0.000000e+00 ( 0.000000e+00 +/- 0.000000e+00) [K]
    Van der Waals (Tail)/kʙ 0.000000e+00 ( 0.000000e+00 +/- 0.000000e+00) [K]
    Coulombic Real/kʙ       0.000000e+00 ( 0.000000e+00 +/- 0.000000e+00) [K]
    Coulombic Fourier/kʙ    0.000000e+00 ( 0.000000e+00 +/- 0.000000e+00) [K]
Molecule-molecule
    Van der Waals/kʙ       -1.764445e+03 (-3.487023e+03 +/- 0.000000e+00) [K]
    Van der Waals (Tail)/kʙ-3.342212e+01 (-5.951314e+01 +/- 0.000000e+00) [K]
    Coulombic Real/kʙ      -4.803224e+02 (-1.223303e+03 +/- 0.000000e+00) [K]
    Coulombic Fourier/kʙ   -1.021099e+01 (-9.448915e+01 +/- 0.000000e+00) [K]
    Molecule Intra/kʙ       0.000000e+00 ( 0.000000e+00 +/- 0.000000e+00) [K]

Current cycle: 1500 out of 6000
===============================================================================

Box:      33.59820   0.00000   0.00000  Average:  33.75216   0.00000   0.00000
           0.00000  33.59820   0.00000             0.00000  33.75216   0.00000
           0.00000   0.00000  33.59820             0.00000   0.00000  33.75216
[...]
    number density: 6.718250e-04 molec./A^3 (8.323121e-04 +/- 9.671824e-05)
    density:        4.908469e+01 kg/m^3     (6.081014e+01 +/- 7.066400e+00)

Average pressure tensor: 
-------------------------------------------------------------------------------
 2.3186e+01 -2.1259e-01  6.8426e-02 +/- 2.7722e+00 6.7741e-01 3.8796e-01 [bar]
-2.1259e-01  2.3691e+01 -4.7260e-01 +/- 6.7741e-01 2.7722e+00 9.5523e-01 [bar]
 6.8426e-02 -4.7260e-01  2.3981e+01 +/- 3.8796e-01 9.5523e-01 2.8152e+00 [bar]
Ideal-gas pressure:   2.987743e+01 +/ 3.471886e+00 [bar]
Excess pressure:     -6.258062e+00 +/ 1.207617e+00 [bar]
Pressure:             2.361937e+01 +/ 2.594355e+00 [bar]

Total potential energy/kʙ  -2.136177e+03 (-4.015325e+03 +/- 1.033732e+03) [K]
-------------------------------------------------------------------------------
ExternalField-molecule
    Van der Waals/kʙ        0.000000e+00 ( 0.000000e+00 +/- 0.000000e+00) [K]
Framework-molecule
    Van der Waals/kʙ        0.000000e+00 ( 0.000000e+00 +/- 0.000000e+00) [K]
    Van der Waals (Tail)/kʙ 0.000000e+00 ( 0.000000e+00 +/- 0.000000e+00) [K]
    Coulombic Real/kʙ       0.000000e+00 ( 0.000000e+00 +/- 0.000000e+00) [K]
    Coulombic Fourier/kʙ    0.000000e+00 ( 0.000000e+00 +/- 0.000000e+00) [K]
Molecule-molecule
    Van der Waals/kʙ       -1.571407e+03 (-2.928039e+03 +/- 7.300723e+02) [K]
    Van der Waals (Tail)/kʙ-3.119122e+01 (-5.167576e+01 +/- 1.259187e+01) [K]
    Coulombic Real/kʙ      -4.820489e+02 (-9.507288e+02 +/- 2.855894e+02) [K]
    Coulombic Fourier/kʙ   -5.152924e+01 (-8.488178e+01 +/- 1.585085e+01) [K]
    Molecule Intra/kʙ       0.000000e+00 ( 0.000000e+00 +/- 0.000000e+00) [K]

Current cycle: 5800 out of 6000
===============================================================================

Box:      33.42595   0.00000   0.00000  Average:  33.63044   0.00000   0.00000
           0.00000  33.42595   0.00000             0.00000  33.63044   0.00000
           0.00000   0.00000  33.42595             0.00000   0.00000  33.63044
Lengths:  33.42595  33.42595  33.42595  Average:  33.63044  33.63044  33.63044
Angles:   90.00000  90.00000  90.00000  Average:  90.00000  90.00000  90.00000
Rectangular boundary conditions

net charge:   0.00000000

component 0 (CO2) lambda:  0 occupancy:  1 (1.000000)
    net charge:   0.00000000 [e]

Amount of molecules per component :
-------------------------------------------------------------------------------
Component 0 (CO2)
    molecules:      3.200000e+01 molecules  (3.171988e+01 +/- 4.142216e+00)
    number density: 8.568379e-04 molec./A^3 (8.316149e-04 +/- 9.680755e-05)
    density:        6.260204e+01 kg/m^3     (6.075921e+01 +/- 7.072925e+00)

Average pressure tensor: 
-------------------------------------------------------------------------------
 2.3213e+01 -1.3144e-01  7.2914e-02 +/- 2.7607e+00 5.9722e-01 3.8711e-01 [bar]
-1.3144e-01  2.3735e+01 -4.5513e-01 +/- 5.9722e-01 2.7782e+00 8.5274e-01 [bar]
 7.2914e-02 -4.5513e-01  2.4029e+01 +/- 3.8711e-01 8.5274e-01 2.7825e+00 [bar]
Ideal-gas pressure:   2.985240e+01 +/ 3.475092e+00 [bar]
Excess pressure:     -6.193356e+00 +/ 1.199264e+00 [bar]
Pressure:             2.365905e+01 +/ 2.582312e+00 [bar]

Total potential energy/kʙ  -2.663876e+03 (-4.001790e+03 +/- 1.037551e+03) [K]
-------------------------------------------------------------------------------
ExternalField-molecule
    Van der Waals/kʙ        0.000000e+00 ( 0.000000e+00 +/- 0.000000e+00) [K]
Framework-molecule
    Van der Waals/kʙ        0.000000e+00 ( 0.000000e+00 +/- 0.000000e+00) [K]
    Van der Waals (Tail)/kʙ 0.000000e+00 ( 0.000000e+00 +/- 0.000000e+00) [K]
    Coulombic Real/kʙ       0.000000e+00 ( 0.000000e+00 +/- 0.000000e+00) [K]
    Coulombic Fourier/kʙ    0.000000e+00 ( 0.000000e+00 +/- 0.000000e+00) [K]
Molecule-molecule
    Van der Waals/kʙ       -2.628720e+03 (-2.919728e+03 +/- 7.320737e+02) [K]
    Van der Waals (Tail)/kʙ-5.091959e+01 (-5.157910e+01 +/- 1.261078e+01) [K]
    Coulombic Real/kʙ      -1.021707e+02 (-9.463853e+02 +/- 2.873044e+02) [K]
    Coulombic Fourier/kʙ    1.179338e+02 (-8.409777e+01 +/- 1.508668e+01) [K]
    Molecule Intra/kʙ       0.000000e+00 ( 0.000000e+00 +/- 0.000000e+00) [K]

Current cycle: 5900 out of 6000
===============================================================================

Box:      33.43969   0.00000   0.00000  Average:  33.62773   0.00000   0.00000
           0.00000  33.43969   0.00000             0.00000  33.62773   0.00000
           0.00000   0.00000  33.43969             0.00000   0.00000  33.62773
Lengths:  33.43969  33.43969  33.43969  Average:  33.62773  33.62773  33.62773
Angles:   90.00000  90.00000  90.00000  Average:  90.00000  90.00000  90.00000
Rectangular boundary conditions

net charge:   0.00000000

component 0 (CO2) lambda:  0 occupancy:  1 (1.000000)
    net charge:   0.00000000 [e]

Amount of molecules per component :
-------------------------------------------------------------------------------
Component 0 (CO2)
    molecules:      3.100000e+01 molecules  (3.171988e+01 +/- 4.141068e+00)
    number density: 8.290386e-04 molec./A^3 (8.318563e-04 +/- 9.675075e-05)
    density:        6.057098e+01 kg/m^3     (6.077685e+01 +/- 7.068776e+00)

Average pressure tensor: 
-------------------------------------------------------------------------------
 2.3169e+01 -1.5917e-01  4.5376e-02 +/- 2.7722e+00 6.0677e-01 3.9779e-01 [bar]
-1.5917e-01  2.3643e+01 -4.3403e-01 +/- 6.0677e-01 2.7737e+00 7.6555e-01 [bar]
 4.5376e-02 -4.3403e-01  2.3927e+01 +/- 3.9779e-01 7.6555e-01 2.8304e+00 [bar]
Ideal-gas pressure:   2.986107e+01 +/ 3.473053e+00 [bar]
Excess pressure:     -6.281489e+00 +/ 1.214295e+00 [bar]
Pressure:             2.357958e+01 +/ 2.603451e+00 [bar]

Total potential energy/kʙ  -3.403049e+03 (-4.002961e+03 +/- 1.035963e+03) [K]
-------------------------------------------------------------------------------
ExternalField-molecule
    Van der Waals/kʙ        0.000000e+00 ( 0.000000e+00 +/- 0.000000e+00) [K]
Framework-molecule
    Van der Waals/kʙ        0.000000e+00 ( 0.000000e+00 +/- 0.000000e+00) [K]
    Van der Waals (Tail)/kʙ 0.000000e+00 ( 0.000000e+00 +/- 0.000000e+00) [K]
    Coulombic Real/kʙ       0.000000e+00 ( 0.000000e+00 +/- 0.000000e+00) [K]
    Coulombic Fourier/kʙ    0.000000e+00 ( 0.000000e+00 +/- 0.000000e+00) [K]
Molecule-molecule
    Van der Waals/kʙ       -2.808133e+03 (-2.918975e+03 +/- 7.316869e+02) [K]
    Van der Waals (Tail)/kʙ-4.772794e+01 (-5.157622e+01 +/- 1.260384e+01) [K]
    Coulombic Real/kʙ      -5.131013e+02 (-9.482604e+02 +/- 2.856814e+02) [K]
    Coulombic Fourier/kʙ   -3.408689e+01 (-8.414954e+01 +/- 1.508093e+01) [K]
    Molecule Intra/kʙ       0.000000e+00 ( 0.000000e+00 +/- 0.000000e+00) [K]


Energy statistics             |  Energy [K]   | Recomputed [K]|  Drift [K]    |
===============================================================================
Total potential energy/kʙ     | -3.081599e+03 | -3.081599e+03 | -1.538257e-12 |
    external field VDW/kʙ     |  0.000000e+00 |  0.000000e+00 |  0.000000e+00 |
    external field Real/kʙ    |  0.000000e+00 |  0.000000e+00 |  0.000000e+00 |
    framework-molecule VDW/kʙ |  0.000000e+00 |  0.000000e+00 |  0.000000e+00 |
    framework-molecule Real/kʙ|  0.000000e+00 |  0.000000e+00 |  0.000000e+00 |
    molecule-molecule VDW/kʙ  | -2.757322e+03 | -2.757322e+03 |  5.469357e-13 |
    molecule-molecule Real/kʙ | -1.720137e+02 | -1.720137e+02 | -1.538257e-12 |
    Van der Waals (Tail)/kʙ   | -4.424618e+01 | -4.424618e+01 |  0.000000e+00 |
    Ewald Fourier/kʙ          |  1.656152e+03 |  1.656152e+03 | -5.469357e-13 |
    Ewald self/kʙ             | -5.510035e+05 | -5.510035e+05 |  0.000000e+00 |
    Ewald exclusion/kʙ        |  5.492393e+05 |  5.492393e+05 |  0.000000e+00 |
    intra VDW/kʙ              |  0.000000e+00 |  0.000000e+00 |  0.000000e+00 |
    intra Coulombic/kʙ        |  0.000000e+00 |  0.000000e+00 |  0.000000e+00 |
    polarization/kʙ           |  0.000000e+00 |  0.000000e+00 |  0.000000e+00 |
    dU/dlambda VDW/kʙ         |  0.000000e+00 |  0.000000e+00 |  0.000000e+00 |
    dU/dlambda Real/kʙ        |  0.000000e+00 |  0.000000e+00 |  0.000000e+00 |
    dU/dlambda Ewald/kʙ       |  0.000000e+00 |  0.000000e+00 |  0.000000e+00 |
-------------------------------------------------------------------------------


Monte-Carlo moves statistics
===============================================================================

    Gibbs volume         all:                2944
    Gibbs volume         total:              5996
    Gibbs volume         constructed:        5996
    Gibbs volume         accepted:           3905
    Gibbs volume         fraction:       0.651268
    Gibbs volume         max-change:     0.033323

Component 0 [CO2]
    Reinsertion (CBMC)   all:              149432
    Reinsertion (CBMC)   total:            149432
    Reinsertion (CBMC)   constructed:      149432
    Reinsertion (CBMC)   accepted:         102043
    Reinsertion (CBMC)   fraction:       0.682872
    Reinsertion (CBMC)   max-change:     0.000000

    Gibbs swap (CBMC)    all:              299797
    Gibbs swap (CBMC)    total:            597792
    Gibbs swap (CBMC)    constructed:      578682
    Gibbs swap (CBMC)    accepted:          58043
    Gibbs swap (CBMC)    fraction:       0.097096
    Gibbs swap (CBMC)    max-change:     0.000000

    Translation          all:              148848
    Translation          total:             49661      49642      49545
    Translation          constructed:       49572      49557      49463
    Translation          accepted:          41755      41781      41852
    Translation          fraction:       0.840801   0.841646   0.844727
    Translation          max-change:     1.500000   1.500000   1.500000

    Rotation             all:              149270
    Rotation             total:             50145      49637      49488
    Rotation             constructed:       50131      49609      49465
    Rotation             accepted:          41925      41613      41415
    Rotation             fraction:       0.836075   0.838346   0.836870
    Rotation             max-change:     1.500000   1.500000   1.500000



Production run counting of the MC moves summed over systems and components
===============================================================================

Reinsertion (CBMC)                   299454 (19.9636 [%])
Gibbs volume                           5996 (0.3997 [%])
Gibbs swap (CBMC)                    597792 (39.8528 [%])
Translation                          297952 (19.8635 [%])
Rotation                             298806 (19.9204 [%])

Production count MC-steps:          1500000 [-]
               All summed:          1500000 [-]
               difference:                0 [-]


Production run CPU timings of the MC moves
===============================================================================

Component 0 CO2

Rotation                              7.066324 [s]
    Ewald                             5.201326 [s]
    ExternalField-Molecule            0.007882 [s]
    Framework-Molecule                0.008191 [s]
    Molecule-Molecule                 1.292292 [s]
    Overhead                          0.556633 [s]

Reinsertion (CBMC)                   19.694277 [s]
    Ewald                             5.271029 [s]
    NonEwald                         13.998049 [s]
    Overhead                          0.425199 [s]

Translation                           7.061192 [s]
    Ewald                             5.181947 [s]
    ExternalField-Molecule            0.007968 [s]
    Framework-Molecule                0.012574 [s]
    Molecule-Molecule                 1.298050 [s]
    Overhead                          0.560653 [s]



Gibbs swap (CBMC)                   183.454002 [s]
    Ewald                            16.990590 [s]
    NonEwald                        163.953800 [s]
    Tail                              1.846076 [s]

Gibbs volume                         24.573156 [s]
    Ewald                             5.075612 [s]
    NonEwald                         18.633530 [s]
    Tail                              0.715212 [s]

Property sampling                     0.305859 [s]
Energy/pressure sampling:             0.638936 [s]


Production run CPU timings of the MC moves summed over systems and components
===============================================================================


Translation                          28.844027 [s]
    Ewald                            10.402066 [s]
    ExternalField-Molecule            0.015911 [s]
    Framework-Molecule                0.025121 [s]
    Molecule-Molecule                17.366558 [s]
    Overhead                          1.034371 [s]

Rotation                             28.900066 [s]
    Ewald                            10.496811 [s]
    ExternalField-Molecule            0.015752 [s]
    Framework-Molecule                0.016396 [s]
    Molecule-Molecule                17.351354 [s]
    Overhead                          1.019753 [s]

Reinsertion (CBMC)                  141.458564 [s]
    Ewald                            10.361969 [s]
    NonEwald                        130.537406 [s]
    Overhead                          0.559189 [s]

Gibbs volume                         50.019358 [s]
    Ewald                            10.363742 [s]
    NonEwald                         37.886086 [s]
    Tail                              1.462314 [s]
    Overhead                          0.307216 [s]

Gibbs swap (CBMC)                   349.724481 [s]
    Ewald                            32.805661 [s]
    NonEwald                        312.575632 [s]
    Tail                              3.069687 [s]
    Overhead                          1.273501 [s]

Property sampling:                    0.634745 [s]
Energy/pressure sampling:            10.051503 [s]

Production simulation time:         610.609634 [s]
                All summed:         609.632744 [s]
                  Overhead:           0.976890 [s]


Initalization simulation time:      195.621561 [s]
Equilibration simulation time:        0.000000 [s]
Production simulation time:         610.609634 [s]
Total simulation time:              806.231195 [s]


Energy averages and statistics:
===============================================================================

Framework-molecule energy:
-------------------------------------------------------------------------------



Framework-molecule energy contributions per energy type:
-------------------------------------------------------------------------------



Inter-molecular energy:
-------------------------------------------------------------------------------

    Inter-molecular energy/kʙ 0-0 [CO2-CO2]:
    ---------------------------------------------------------------------------
        Block[  0] -5.148992e+03
        Block[  1] -2.873752e+03
        Block[  2] -4.354352e+03
        Block[  3] -3.792630e+03
        Block[  4] -3.787220e+03
        -----------------------------------------------------------------------
        Average  -3.991389e+03 +/-  1.039071e+03 [K]



Inter-molecular energy contributions per energy type:
-------------------------------------------------------------------------------

    Van der Waals energy/kʙ 0-0 [CO2-CO2]:
    ---------------------------------------------------------------------------
        Block[  0] -3.685718e+03
        Block[  1] -2.109704e+03
        Block[  2] -3.240107e+03
        Block[  3] -2.741035e+03
        Block[  4] -2.805436e+03
        -----------------------------------------------------------------------
        Average  -2.916400e+03 +/-  7.319541e+02 [K]

    VDW Tail-Correction energy/kʙ 0-0 [CO2-CO2]:
    ---------------------------------------------------------------------------
        Block[  0] -6.299703e+01
        Block[  1] -3.646562e+01
        Block[  2] -5.849655e+01
        Block[  3] -4.979439e+01
        Block[  4] -4.991950e+01
        -----------------------------------------------------------------------
        Average  -5.153462e+01 +/-  1.260816e+01 [K]

    Coulomb Real energy/kʙ 0-0 [CO2-CO2]:
    ---------------------------------------------------------------------------
        Block[  0] -1.300981e+03
        Block[  1] -6.616933e+02
        Block[  2] -9.689903e+02
        Block[  3] -9.204516e+02
        Block[  4] -8.462235e+02
        -----------------------------------------------------------------------
        Average  -9.396679e+02 +/-  2.896752e+02 [K]

    Coulomb Fourier energy/kʙ 0-0 [CO2-CO2]:
    ---------------------------------------------------------------------------
        Block[  0] -9.929565e+01
        Block[  1] -6.588912e+01
        Block[  2] -8.675826e+01
        Block[  3] -8.134941e+01
        Block[  4] -8.564055e+01
        -----------------------------------------------------------------------
        Average  -8.378660e+01 +/-  1.493707e+01 [K]


Total energy/kʙ
-------------------------------------------------------------------------------
    Block[  0] -5.148992e+03
    Block[  1] -2.873752e+03
    Block[  2] -4.354352e+03
    Block[  3] -3.792630e+03
    Block[  4] -3.787220e+03
    ---------------------------------------------------------------------------
    Average  -3.991389e+03 +/-  1.039071e+03 [K]

Pressure averages and statistics:
===============================================================================

Average pressure tensor: 
-------------------------------------------------------------------------------
 2.3061e+01 -1.5992e-01  7.2598e-02 +/- 2.8191e+00 6.0578e-01 3.8709e-01 [bar]
-1.5992e-01  2.3621e+01 -4.2345e-01 +/- 6.0578e-01 2.7762e+00 7.1799e-01 [bar]
 7.2598e-02 -4.2345e-01  2.3859e+01 +/- 3.8709e-01 7.1799e-01 2.8665e+00 [bar]

    Block[  0]  3.250566e+06
    Block[  1]  2.548143e+06
    Block[  2]  3.209565e+06
    Block[  3]  2.956784e+06
    Block[  4]  2.966482e+06
    ---------------------------------------------------------------------------
    Ideal gas pressure   2.986308e+06 +/-  2.091117e-02 [Pa]
                         2.986308e+01 +/-  3.472384e+00 [bar]


    Block[  0] -6.849634e+05
    Block[  1] -5.274917e+05
    Block[  2] -7.458406e+05
    Block[  3] -5.272220e+05
    Block[  4] -6.892159e+05
    ---------------------------------------------------------------------------
    Excess pressure  -6.349467e+05 +/-  1.255284e+05 [Pa]
                     -6.349467e+00 +/-  1.255284e+00 [bar]


    Block[  0]  2.565603e+06
    Block[  1]  2.020651e+06
    Block[  2]  2.463724e+06
    Block[  3]  2.429562e+06
    Block[  4]  2.277266e+06
    ---------------------------------------------------------------------------
    Pressure average   2.351361e+06 +/-  2.629882e+05 [Pa]
                       2.351361e+01 +/-  2.629882e+00 [bar]


Enthalpy of adsorption
===============================================================================

Component 0 [CO2]
-------------------------------------------------------------------------------
    Block[  0] -5.369072e+02
    Block[  1] -4.605278e+02
    Block[  2] -5.217618e+02
    Block[  3] -4.802041e+02
    Block[  4] -4.985137e+02
    ---------------------------------------------------------------------------
    Enthalpy of adsorption: -4.995829e+02 +/-  3.819896e+01 [K]
                            -4.153765e+00 +/-  3.176039e-01 [kJ/mol]
    Warning: need to subtract the ideal-gas energy.


Densities
===============================================================================

Component 0 (CO2)
    Block[  0] 35.068333333333335
    Block[  1] 26.580833333333334
    Block[  2] 34.280833333333334
    Block[  3] 31.264166666666668
    Block[  4] 31.378333333333334
    -----------------------------------------------------------------------
    Density average   3.171450e+01 +/-  4.141016e+00 [molecules]
    Density average   8.319123e-04 +/-  9.673212e-05 [molec/A^3]
    Density average   6.078093e+01 +/-  7.067414e+00 [kg.m⁻³]

