Compiler and run-time data
===============================================================================
RASPA 3.0.4

Random seed: 4069817111

Compiled as a 64-bits application
Compiler: gcc Ubuntu Clang 18.1.3 (1ubuntu1)
Compile Date = Mar 15 2025, Compile Time = 19:39:45

2025-06-03 10:59:44.547536
Simulation started on Tue, Jun 03
The start time was 10:59:00

Hostname:    c109
OS type:     Linux on x86_64
OS release:  6.8.0-58-generic
OS version:  #60-Ubuntu SMP PREEMPT_DYNAMIC Fri Mar 14 18:29:48 UTC 2025


Mutual consistent basic set of units:
===============================================================================

Unit of temperature: 1 [K]
Unit of length:      1e-10 [m]
Unit of time:        1e-12 [s]
Unit of mass:        1.6605402e-27 [kg]
Unit of charge:      1.60217733e-19 [C/particle]


Boltzmann constant (internal units):          0.8314464919307584 [-]
represents conversion from energy (internal units) to temperature (in Kelvin)

Derived units and their conversion factors:
===============================================================================

Unit of energy:                           1.6605402000000002e-23 [J]
Unit of energy:                           10.000008872307538 [J.mol⁻¹]
Unit of velocity:                         100 [m.s⁻¹]
Unit of force:                            1.6605402000000002e-13 [N]
Unit of diffusion:                        1.0000000000000002e-08 [m².s⁻¹]
Unit of acceleration:                     1.0000000000000002e-08 [m².s⁻¹]
Unit of torque:                           1.6605402000000002e-23 [N.m]
Unit of pressure:                         16605402 [Pa]
Unit of volume:                           1e-30 [m³]
Unit of density:                          1660.5402 [kg.m⁻³]
Unit of dynamic viscosity:                1.6605401999999997e-05 [N.s.m⁻²]
Unit of enthalpy:                         1.6605402000000002e-23 [J]
Unit of polarizability:                   1.5458657349975198e-35 [-]
Unit of Coulomb potential:                167101.08000665612 [K]
Unit of dielectric constant:              1.5458657349975193e-05 [s².C².kg⁻¹.m⁻³]
Unit of dipole moment:                    1.60217733e-29 [C.m]
Unit of Debye:                            4.803206799099162 [C.m]
Unit of electric potential:               0.00010364272224473431 [V]
Unit of electric field:                   1036427.222447343 [V.m⁻¹]
Unit of isothermal compressibility:       6.02213665167516e-08 [Pa⁻¹]
Unit of heat capacity:                    10.000008872307538 [J.mol⁻¹.K⁻¹]
Unit of volumetric expansion coefficient: 1 [K⁻¹]


Internal conversion factors:
===============================================================================

Energy (internal units) to Kelvin:      1.202724284692786 [-]
Kelvin to energy (internal units):      0.8314457542157567 [-]


System definitions
===============================================================================

Temperature:          260 [K]
Beta:                 0.004625858529058714 [-]
Pressure:             0 [Pa]
Helium void fraction: 1 [-]

Box:      30.00000   0.00000   0.00000
           0.00000  30.00000   0.00000
           0.00000   0.00000  30.00000
Lengths:  30.00000  30.00000  30.00000
Angles:   90.00000  90.00000  90.00000
Rectangular boundary conditions



Property measurement settings
===============================================================================




Pseudo-atoms
===============================================================================

  0 - C_co2    framework-atom: false
  1 - O_co2    framework-atom: false

  0 - C_co2    mass: 12.00000, charge:  0.70000
  1 - O_co2    mass: 15.99940, charge: -0.35000

  0 - C_co2    polarizability:  0.00000
  1 - O_co2    polarizability:  0.00000

  0 - J. J. Potoff et al., AIChE J. 2001, 47, 1676–1682.
  1 - J. J. Potoff et al., AIChE J. 2001, 47, 1676–1682.

Force field status
===============================================================================

Cutoff Framework-Molecule VDW:  12.00000 [Å]
Cutoff Molecule-Molecule VDW:   12.00000 [Å]
Cutoff Coulomb:                 12.00000 [Å]

Overlap-criteria VDW:           1.000000e+05 [K]

C_co2    - C_co2    Lennard-Jones p₀/kʙ:  27.00000 [K], p₁:  2.80000 [Å]
                                  shift:   0.00000 [K], tailcorrections: true
C_co2    - O_co2    Lennard-Jones p₀/kʙ:  46.18441 [K], p₁:  2.92500 [Å]
                                  shift:   0.00000 [K], tailcorrections: true
O_co2    - O_co2    Lennard-Jones p₀/kʙ:  79.00000 [K], p₁:  3.05000 [Å]
                                  shift:   0.00000 [K], tailcorrections: true

Ewald precision: 1e-06
Ewald alpha: 0.26505830360350674
Ewald k-vectors: 8 8 8


Component definitions
===============================================================================

Component 0 [CO2]

    Type: Adsorbate

    Critical temperature:  304.1282 [K]
    Critical pressure:     7377300 [Pa]
    Acentric factor:       0.22394 [-]

    Mol-fraction:                 1 [-]
    Swappable:                   true

    Mass:                         43.9988 [-]
    Fugacity coefficient:         -nan [-]
    Bulk fluid density:           0 [-]
    Compressibility:              1 [-]
    Excess molecules:             0 [-]

    Number Of Atoms:    3
    CBMC starting bead: 0
      0: O_co2  position  0.00000 -0.00000  1.16000, charge -0.35000
      1: C_co2  position  0.00000 -0.00000  0.00000, charge  0.70000
      2: O_co2  position  0.00000 -0.00000 -1.16000, charge -0.35000
    Diagonalized inertia-vector:      43.05758528 43.05758528 0.00000000
    Translational degrees of freedom: 3
    Rotational degrees of freedom:    2
    Shape of the molecule is: 'Linear'
    Net-charge:        0.00000000 [e]

    Move probabilities:
    Translation:                   0.199203 [-]
    Random translation:            0.000000 [-]
    Rotation:                      0.199203 [-]
    Random rotation:               0.000000 [-]
    Volume change:                 0.000000 [-]
    Reinsertion (CBMC):            0.199203 [-]
    Identity change (CBMC):        0.000000 [-]
    Swap:                          0.000000 [-]
    Swap (CBMC):                   0.000000 [-]
    Swap (CFCMC):                  0.000000 [-]
    Swap (CB/CFCMC):               0.000000 [-]
    Gibbs volume:                  0.003984 [-]
    Gibbs swap (CBMC):             0.398406 [-]
    Gibbs swap (CFCMC):            0.000000 [-]
    Widom:                         0.000000 [-]
    Widom (CFCMC):                 0.000000 [-]
    Widom (CB/CFCMC):              0.000000 [-]
    Parallel tempering:            0.000000 [-]
    Hybrid MC:                     0.000000 [-]

    number of blocking-pockets: 0

    number of bonds: 0





Number of pseudo-atoms
===============================================================================

Component   0 (CO2)
-------------------------------------------------------------------------------
    index   0 (C_co2): 210 atoms
    index   1 (O_co2): 420 atoms

Total number of pseudo-atoms:
-------------------------------------------------------------------------------
    index   0 (C_co2): 210 atoms
    index   1 (O_co2): 420 atoms




Energy status Recomputed from scratch
===============================================================================

Total potential energy/kʙ       -1.019384e+05 [K]
    external field VDW/kʙ        0.000000e+00 [K]
    external field Real/kʙ       0.000000e+00 [K]
    framework-molecule VDW/kʙ    0.000000e+00 [K]
    framework-molecule Real/kʙ   0.000000e+00 [K]
    molecule-molecule VDW/kʙ    -7.937198e+04 [K]
    molecule-molecule Real/kʙ   -1.901400e+04 [K]
    Van der Waals (Tail)/kʙ     -3.033270e+03 [K]
    Ewald Fourier/kʙ             1.183006e+04 [K]
    Ewald self/kʙ               -3.857024e+06 [K]
    Ewald exclusion/kʙ           3.844675e+06 [K]
    intra VDW/kʙ                 0.000000e+00 [K]
    intra Coulombic/kʙ           0.000000e+00 [K]
    polarization/kʙ              0.000000e+00 [K]
    dU/dlambda VDW/kʙ            0.000000e+00 [K]
    dU/dlambda Real/kʙ           0.000000e+00 [K]
    dU/dlambda Ewald/kʙ          0.000000e+00 [K]





Initialization: Current cycle: 0 out of 2000
===============================================================================

Box:      30.00000   0.00000   0.00000
           0.00000  30.00000   0.00000
           0.00000   0.00000  30.00000
Lengths:  30.00000  30.00000  30.00000
Angles:   90.00000  90.00000  90.00000
Rectangular boundary conditions

net charge:   0.00000000

component   0 (CO2) lambda:  0 occupancy:  0 (0.000000)
    net charge:   0.00000000 [e]

Amount of molecules per component :
-------------------------------------------------------------------------------
Component 0 (CO2)
    molecules:         2.110000e+02 molecules
    number density:    7.814815e-03 molec/A^3
    density:           5.709637e+02 kg/m^3

Total potential energy/kʙ       -1.312868e+05 [K]
-------------------------------------------------------------------------------
    external field VDW/kʙ        0.000000e+00 [K]
    external field Real/kʙ       0.000000e+00 [K]
    framework-molecule VDW/kʙ    0.000000e+00 [K]
    framework-molecule Real/kʙ   0.000000e+00 [K]
    molecule-molecule VDW/kʙ    -9.689578e+04 [K]
    molecule-molecule Real/kʙ   -2.925601e+04 [K]
    Van der Waals (Tail)/kʙ     -3.062227e+03 [K]
    Ewald Fourier/kʙ             1.033523e+04 [K]
    Ewald self/kʙ               -3.875391e+06 [K]
    Ewald exclusion/kʙ           3.862983e+06 [K]
    intra VDW/kʙ                 0.000000e+00 [K]
    intra Coulombic/kʙ           0.000000e+00 [K]
    polarization/kʙ              0.000000e+00 [K]
    dU/dlambda VDW/kʙ            0.000000e+00 [K]
    dU/dlambda Real/kʙ           0.000000e+00 [K]
    dU/dlambda Ewald/kʙ          0.000000e+00 [K]


Initialization: Current cycle: 100 out of 2000
===============================================================================

Box:      28.70533   0.00000   0.00000
           0.00000  28.70533   0.00000
           0.00000   0.00000  28.70533
Lengths:  28.70533  28.70533  28.70533
Angles:   90.00000  90.00000  90.00000
Rectangular boundary conditions

net charge:   0.00000000

component   0 (CO2) lambda:  0 occupancy:  0 (0.000000)
    net charge:   0.00000000 [e]

Amount of molecules per component :
-------------------------------------------------------------------------------
Component 0 (CO2)
    molecules:         2.330000e+02 molecules
    number density:    9.850730e-03 molec/A^3
    density:           7.197112e+02 kg/m^3

Total potential energy/kʙ       -2.598904e+05 [K]
-------------------------------------------------------------------------------
    external field VDW/kʙ        0.000000e+00 [K]
    external field Real/kʙ       0.000000e+00 [K]
    framework-molecule VDW/kʙ    0.000000e+00 [K]
    framework-molecule Real/kʙ   0.000000e+00 [K]
    molecule-molecule VDW/kʙ    -1.943763e+05 [K]
    molecule-molecule Real/kʙ   -5.522761e+04 [K]
    Van der Waals (Tail)/kʙ     -4.262462e+03 [K]
    Ewald Fourier/kʙ             7.677721e+03 [K]
    Ewald self/kʙ               -4.279460e+06 [K]
    Ewald exclusion/kʙ           4.265759e+06 [K]
    intra VDW/kʙ                 0.000000e+00 [K]
    intra Coulombic/kʙ           0.000000e+00 [K]
    polarization/kʙ              0.000000e+00 [K]
    dU/dlambda VDW/kʙ            0.000000e+00 [K]
    dU/dlambda Real/kʙ           0.000000e+00 [K]
    dU/dlambda Ewald/kʙ          0.000000e+00 [K]


Initialization: Current cycle: 200 out of 2000
===============================================================================

Box:      27.39340   0.00000   0.00000
           0.00000  27.39340   0.00000
           0.00000   0.00000  27.39340
Lengths:  27.39340  27.39340  27.39340
Angles:   90.00000  90.00000  90.00000
Rectangular boundary conditions

net charge:   0.00000000

component   0 (CO2) lambda:  0 occupancy:  0 (0.000000)
    net charge:   0.00000000 [e]

Amount of molecules per component :
-------------------------------------------------------------------------------
Component 0 (CO2)
    molecules:         2.380000e+02 molecules
    number density:    1.157815e-02 molec/A^3
    density:           8.459195e+02 kg/m^3

Total potential energy/kʙ       -2.848132e+05 [K]
-------------------------------------------------------------------------------
    external field VDW/kʙ        0.000000e+00 [K]
    external field Real/kʙ       0.000000e+00 [K]
    framework-molecule VDW/kʙ    0.000000e+00 [K]
    framework-molecule Real/kʙ   0.000000e+00 [K]
    molecule-molecule VDW/kʙ    -2.072404e+05 [K]
    molecule-molecule Real/kʙ   -6.589218e+04 [K]
    Van der Waals (Tail)/kʙ     -5.117436e+03 [K]
    Ewald Fourier/kʙ             7.432544e+03 [K]
    Ewald self/kʙ               -4.371294e+06 [K]
    Ewald exclusion/kʙ           4.357298e+06 [K]
    intra VDW/kʙ                 0.000000e+00 [K]
    intra Coulombic/kʙ           0.000000e+00 [K]
    polarization/kʙ              0.000000e+00 [K]
    dU/dlambda VDW/kʙ            0.000000e+00 [K]
    dU/dlambda Real/kʙ           0.000000e+00 [K]
    dU/dlambda Ewald/kʙ          0.000000e+00 [K]


Initialization: Current cycle: 300 out of 2000
===============================================================================

Box:      26.75587   0.00000   0.00000
           0.00000  26.75587   0.00000
           0.00000   0.00000  26.75587
Lengths:  26.75587  26.75587  26.75587
Angles:   90.00000  90.00000  90.00000
Rectangular boundary conditions

net charge:   0.00000000

component   0 (CO2) lambda:  0 occupancy:  0 (0.000000)
    net charge:   0.00000000 [e]

Amount of molecules per component :
-------------------------------------------------------------------------------
Component 0 (CO2)
    molecules:         2.320000e+02 molecules
    number density:    1.211242e-02 molec/A^3
    density:           8.849539e+02 kg/m^3

Total potential energy/kʙ       -2.899138e+05 [K]
-------------------------------------------------------------------------------
    external field VDW/kʙ        0.000000e+00 [K]
    external field Real/kʙ       0.000000e+00 [K]
    framework-molecule VDW/kʙ    0.000000e+00 [K]
    framework-molecule Real/kʙ   0.000000e+00 [K]
    molecule-molecule VDW/kʙ    -2.155804e+05 [K]
    molecule-molecule Real/kʙ   -6.238061e+04 [K]
    Van der Waals (Tail)/kʙ     -5.218612e+03 [K]
    Ewald Fourier/kʙ             6.908730e+03 [K]
    Ewald self/kʙ               -4.261093e+06 [K]
    Ewald exclusion/kʙ           4.247451e+06 [K]
    intra VDW/kʙ                 0.000000e+00 [K]
    intra Coulombic/kʙ           0.000000e+00 [K]
    polarization/kʙ              0.000000e+00 [K]
    dU/dlambda VDW/kʙ            0.000000e+00 [K]
    dU/dlambda Real/kʙ           0.000000e+00 [K]
    dU/dlambda Ewald/kʙ          0.000000e+00 [K]


Initialization: Current cycle: 400 out of 2000
===============================================================================

Box:      26.80795   0.00000   0.00000
           0.00000  26.80795   0.00000
           0.00000   0.00000  26.80795
Lengths:  26.80795  26.80795  26.80795
Angles:   90.00000  90.00000  90.00000
Rectangular boundary conditions

net charge:   0.00000000

component   0 (CO2) lambda:  0 occupancy:  0 (0.000000)
    net charge:   0.00000000 [e]

Amount of molecules per component :
-------------------------------------------------------------------------------
Component 0 (CO2)
    molecules:         2.320000e+02 molecules
    number density:    1.204196e-02 molec/A^3
    density:           8.798065e+02 kg/m^3

Total potential energy/kʙ       -2.789965e+05 [K]
-------------------------------------------------------------------------------
    external field VDW/kʙ        0.000000e+00 [K]
    external field Real/kʙ       0.000000e+00 [K]
    framework-molecule VDW/kʙ    0.000000e+00 [K]
    framework-molecule Real/kʙ   0.000000e+00 [K]
    molecule-molecule VDW/kʙ    -2.102209e+05 [K]
    molecule-molecule Real/kʙ   -5.746588e+04 [K]
    Van der Waals (Tail)/kʙ     -5.188257e+03 [K]
    Ewald Fourier/kʙ             7.521477e+03 [K]
    Ewald self/kʙ               -4.261093e+06 [K]
    Ewald exclusion/kʙ           4.247451e+06 [K]
    intra VDW/kʙ                 0.000000e+00 [K]
    intra Coulombic/kʙ           0.000000e+00 [K]
    polarization/kʙ              0.000000e+00 [K]
    dU/dlambda VDW/kʙ            0.000000e+00 [K]
    dU/dlambda Real/kʙ           0.000000e+00 [K]
    dU/dlambda Ewald/kʙ          0.000000e+00 [K]


Initialization: Current cycle: 500 out of 2000
===============================================================================

Box:      26.08211   0.00000   0.00000
           0.00000  26.08211   0.00000
           0.00000   0.00000  26.08211
Lengths:  26.08211  26.08211  26.08211
Angles:   90.00000  90.00000  90.00000
Rectangular boundary conditions

net charge:   0.00000000

component   0 (CO2) lambda:  0 occupancy:  0 (0.000000)
    net charge:   0.00000000 [e]

Amount of molecules per component :
-------------------------------------------------------------------------------
Component 0 (CO2)
    molecules:         2.310000e+02 molecules
    number density:    1.301918e-02 molec/A^3
    density:           9.512037e+02 kg/m^3

Total potential energy/kʙ       -3.075707e+05 [K]
-------------------------------------------------------------------------------
    external field VDW/kʙ        0.000000e+00 [K]
    external field Real/kʙ       0.000000e+00 [K]
    framework-molecule VDW/kʙ    0.000000e+00 [K]
    framework-molecule Real/kʙ   0.000000e+00 [K]
    molecule-molecule VDW/kʙ    -2.245291e+05 [K]
    molecule-molecule Real/kʙ   -7.060994e+04 [K]
    Van der Waals (Tail)/kʙ     -5.585112e+03 [K]
    Ewald Fourier/kʙ             6.737645e+03 [K]
    Ewald self/kʙ               -4.242727e+06 [K]
    Ewald exclusion/kʙ           4.229143e+06 [K]
    intra VDW/kʙ                 0.000000e+00 [K]
    intra Coulombic/kʙ           0.000000e+00 [K]
    polarization/kʙ              0.000000e+00 [K]
    dU/dlambda VDW/kʙ            0.000000e+00 [K]
    dU/dlambda Real/kʙ           0.000000e+00 [K]
    dU/dlambda Ewald/kʙ          0.000000e+00 [K]


Initialization: Current cycle: 600 out of 2000
===============================================================================

Box:      26.03023   0.00000   0.00000
           0.00000  26.03023   0.00000
           0.00000   0.00000  26.03023
Lengths:  26.03023  26.03023  26.03023
Angles:   90.00000  90.00000  90.00000
Rectangular boundary conditions

net charge:   0.00000000

component   0 (CO2) lambda:  0 occupancy:  0 (0.000000)
    net charge:   0.00000000 [e]

Amount of molecules per component :
-------------------------------------------------------------------------------
Component 0 (CO2)
    molecules:         2.220000e+02 molecules
    number density:    1.258690e-02 molec/A^3
    density:           9.196208e+02 kg/m^3

Total potential energy/kʙ       -2.947751e+05 [K]
-------------------------------------------------------------------------------
    external field VDW/kʙ        0.000000e+00 [K]
    external field Real/kʙ       0.000000e+00 [K]
    framework-molecule VDW/kʙ    0.000000e+00 [K]
    framework-molecule Real/kʙ   0.000000e+00 [K]
    molecule-molecule VDW/kʙ    -2.152682e+05 [K]
    molecule-molecule Real/kʙ   -6.819959e+04 [K]
    Van der Waals (Tail)/kʙ     -5.189292e+03 [K]
    Ewald Fourier/kʙ             6.936898e+03 [K]
    Ewald self/kʙ               -4.077426e+06 [K]
    Ewald exclusion/kʙ           4.064371e+06 [K]
    intra VDW/kʙ                 0.000000e+00 [K]
    intra Coulombic/kʙ           0.000000e+00 [K]
    polarization/kʙ              0.000000e+00 [K]
    dU/dlambda VDW/kʙ            0.000000e+00 [K]
    dU/dlambda Real/kʙ           0.000000e+00 [K]
    dU/dlambda Ewald/kʙ          0.000000e+00 [K]


Initialization: Current cycle: 700 out of 2000
===============================================================================

Box:      26.09734   0.00000   0.00000
           0.00000  26.09734   0.00000
           0.00000   0.00000  26.09734
Lengths:  26.09734  26.09734  26.09734
Angles:   90.00000  90.00000  90.00000
Rectangular boundary conditions

net charge:   0.00000000

component   0 (CO2) lambda:  0 occupancy:  0 (0.000000)
    net charge:   0.00000000 [e]

Amount of molecules per component :
-------------------------------------------------------------------------------
Component 0 (CO2)
    molecules:         2.280000e+02 molecules
    number density:    1.282762e-02 molec/A^3
    density:           9.372082e+02 kg/m^3

Total potential energy/kʙ       -3.047590e+05 [K]
-------------------------------------------------------------------------------
    external field VDW/kʙ        0.000000e+00 [K]
    external field Real/kʙ       0.000000e+00 [K]
    framework-molecule VDW/kʙ    0.000000e+00 [K]
    framework-molecule Real/kʙ   0.000000e+00 [K]
    molecule-molecule VDW/kʙ    -2.291112e+05 [K]
    molecule-molecule Real/kʙ   -6.362894e+04 [K]
    Van der Waals (Tail)/kʙ     -5.431469e+03 [K]
    Ewald Fourier/kʙ             6.820366e+03 [K]
    Ewald self/kʙ               -4.187626e+06 [K]
    Ewald exclusion/kʙ           4.174219e+06 [K]
    intra VDW/kʙ                 0.000000e+00 [K]
    intra Coulombic/kʙ           0.000000e+00 [K]
    polarization/kʙ              0.000000e+00 [K]
    dU/dlambda VDW/kʙ            0.000000e+00 [K]
    dU/dlambda Real/kʙ           0.000000e+00 [K]
    dU/dlambda Ewald/kʙ          0.000000e+00 [K]


Initialization: Current cycle: 800 out of 2000
===============================================================================

Box:      25.89521   0.00000   0.00000
           0.00000  25.89521   0.00000
           0.00000   0.00000  25.89521
Lengths:  25.89521  25.89521  25.89521
Angles:   90.00000  90.00000  90.00000
Rectangular boundary conditions

net charge:   0.00000000

component   0 (CO2) lambda:  0 occupancy:  0 (0.000000)
    net charge:   0.00000000 [e]

Amount of molecules per component :
-------------------------------------------------------------------------------
Component 0 (CO2)
    molecules:         2.270000e+02 molecules
    number density:    1.307277e-02 molec/A^3
    density:           9.551193e+02 kg/m^3

Total potential energy/kʙ       -3.121194e+05 [K]
-------------------------------------------------------------------------------
    external field VDW/kʙ        0.000000e+00 [K]
    external field Real/kʙ       0.000000e+00 [K]
    framework-molecule VDW/kʙ    0.000000e+00 [K]
    framework-molecule Real/kʙ   0.000000e+00 [K]
    molecule-molecule VDW/kʙ    -2.325077e+05 [K]
    molecule-molecule Real/kʙ   -6.746264e+04 [K]
    Van der Waals (Tail)/kʙ     -5.510993e+03 [K]
    Ewald Fourier/kʙ             6.710834e+03 [K]
    Ewald self/kʙ               -4.169260e+06 [K]
    Ewald exclusion/kʙ           4.155911e+06 [K]
    intra VDW/kʙ                 0.000000e+00 [K]
    intra Coulombic/kʙ           0.000000e+00 [K]
    polarization/kʙ              0.000000e+00 [K]
    dU/dlambda VDW/kʙ            0.000000e+00 [K]
    dU/dlambda Real/kʙ           0.000000e+00 [K]
    dU/dlambda Ewald/kʙ          0.000000e+00 [K]


Initialization: Current cycle: 900 out of 2000
===============================================================================

Box:      25.61873   0.00000   0.00000
           0.00000  25.61873   0.00000
           0.00000   0.00000  25.61873
Lengths:  25.61873  25.61873  25.61873
Angles:   90.00000  90.00000  90.00000
Rectangular boundary conditions

net charge:   0.00000000

component   0 (CO2) lambda:  0 occupancy:  0 (0.000000)
    net charge:   0.00000000 [e]

Amount of molecules per component :
-------------------------------------------------------------------------------
Component 0 (CO2)
    molecules:         2.340000e+02 molecules
    number density:    1.391692e-02 molec/A^3
    density:           1.016794e+03 kg/m^3

Total potential energy/kʙ       -3.383210e+05 [K]
-------------------------------------------------------------------------------
    external field VDW/kʙ        0.000000e+00 [K]
    external field Real/kʙ       0.000000e+00 [K]
    framework-molecule VDW/kʙ    0.000000e+00 [K]
    framework-molecule Real/kʙ   0.000000e+00 [K]
    molecule-molecule VDW/kʙ    -2.477188e+05 [K]
    molecule-molecule Real/kʙ   -7.696607e+04 [K]
    Van der Waals (Tail)/kʙ     -6.047771e+03 [K]
    Ewald Fourier/kʙ             6.172102e+03 [K]
    Ewald self/kʙ               -4.297827e+06 [K]
    Ewald exclusion/kʙ           4.284066e+06 [K]
    intra VDW/kʙ                 0.000000e+00 [K]
    intra Coulombic/kʙ           0.000000e+00 [K]
    polarization/kʙ              0.000000e+00 [K]
    dU/dlambda VDW/kʙ            0.000000e+00 [K]
    dU/dlambda Real/kʙ           0.000000e+00 [K]
    dU/dlambda Ewald/kʙ          0.000000e+00 [K]


Initialization: Current cycle: 1000 out of 2000
===============================================================================

Box:      25.44582   0.00000   0.00000
           0.00000  25.44582   0.00000
           0.00000   0.00000  25.44582
Lengths:  25.44582  25.44582  25.44582
Angles:   90.00000  90.00000  90.00000
Rectangular boundary conditions

net charge:   0.00000000

component   0 (CO2) lambda:  0 occupancy:  0 (0.000000)
    net charge:   0.00000000 [e]

Amount of molecules per component :
-------------------------------------------------------------------------------
Component 0 (CO2)
    molecules:         2.220000e+02 molecules
    number density:    1.347423e-02 molec/A^3
    density:           9.844500e+02 kg/m^3

Total potential energy/kʙ       -3.102624e+05 [K]
-------------------------------------------------------------------------------
    external field VDW/kʙ        0.000000e+00 [K]
    external field Real/kʙ       0.000000e+00 [K]
    framework-molecule VDW/kʙ    0.000000e+00 [K]
    framework-molecule Real/kʙ   0.000000e+00 [K]
    molecule-molecule VDW/kʙ    -2.227271e+05 [K]
    molecule-molecule Real/kʙ   -7.509357e+04 [K]
    Van der Waals (Tail)/kʙ     -5.555115e+03 [K]
    Ewald Fourier/kʙ             6.168279e+03 [K]
    Ewald self/kʙ               -4.077426e+06 [K]
    Ewald exclusion/kʙ           4.064371e+06 [K]
    intra VDW/kʙ                 0.000000e+00 [K]
    intra Coulombic/kʙ           0.000000e+00 [K]
    polarization/kʙ              0.000000e+00 [K]
    dU/dlambda VDW/kʙ            0.000000e+00 [K]
    dU/dlambda Real/kʙ           0.000000e+00 [K]
    dU/dlambda Ewald/kʙ          0.000000e+00 [K]


Initialization: Current cycle: 1100 out of 2000
===============================================================================

Box:      25.66089   0.00000   0.00000
           0.00000  25.66089   0.00000
           0.00000   0.00000  25.66089
Lengths:  25.66089  25.66089  25.66089
Angles:   90.00000  90.00000  90.00000
Rectangular boundary conditions

net charge:   0.00000000

component   0 (CO2) lambda:  0 occupancy:  0 (0.000000)
    net charge:   0.00000000 [e]

Amount of molecules per component :
-------------------------------------------------------------------------------
Component 0 (CO2)
    molecules:         2.380000e+02 molecules
    number density:    1.408515e-02 molec/A^3
    density:           1.029085e+03 kg/m^3

Total potential energy/kʙ       -3.493017e+05 [K]
-------------------------------------------------------------------------------
    external field VDW/kʙ        0.000000e+00 [K]
    external field Real/kʙ       0.000000e+00 [K]
    framework-molecule VDW/kʙ    0.000000e+00 [K]
    framework-molecule Real/kʙ   0.000000e+00 [K]
    molecule-molecule VDW/kʙ    -2.601562e+05 [K]
    molecule-molecule Real/kʙ   -7.546303e+04 [K]
    Van der Waals (Tail)/kʙ     -6.225507e+03 [K]
    Ewald Fourier/kʙ             6.538792e+03 [K]
    Ewald self/kʙ               -4.371294e+06 [K]
    Ewald exclusion/kʙ           4.357298e+06 [K]
    intra VDW/kʙ                 0.000000e+00 [K]
    intra Coulombic/kʙ           0.000000e+00 [K]
    polarization/kʙ              0.000000e+00 [K]
    dU/dlambda VDW/kʙ            0.000000e+00 [K]
    dU/dlambda Real/kʙ           0.000000e+00 [K]
    dU/dlambda Ewald/kʙ          0.000000e+00 [K]


Initialization: Current cycle: 1200 out of 2000
===============================================================================

Box:      25.68018   0.00000   0.00000
           0.00000  25.68018   0.00000
           0.00000   0.00000  25.68018
Lengths:  25.68018  25.68018  25.68018
Angles:   90.00000  90.00000  90.00000
Rectangular boundary conditions

net charge:   0.00000000

component   0 (CO2) lambda:  0 occupancy:  0 (0.000000)
    net charge:   0.00000000 [e]

Amount of molecules per component :
-------------------------------------------------------------------------------
Component 0 (CO2)
    molecules:         2.300000e+02 molecules
    number density:    1.358106e-02 molec/A^3
    density:           9.922556e+02 kg/m^3

Total potential energy/kʙ       -3.229274e+05 [K]
-------------------------------------------------------------------------------
    external field VDW/kʙ        0.000000e+00 [K]
    external field Real/kʙ       0.000000e+00 [K]
    framework-molecule VDW/kʙ    0.000000e+00 [K]
    framework-molecule Real/kʙ   0.000000e+00 [K]
    molecule-molecule VDW/kʙ    -2.353452e+05 [K]
    molecule-molecule Real/kʙ   -7.464953e+04 [K]
    Van der Waals (Tail)/kʙ     -5.800932e+03 [K]
    Ewald Fourier/kʙ             6.393547e+03 [K]
    Ewald self/kʙ               -4.224360e+06 [K]
    Ewald exclusion/kʙ           4.210835e+06 [K]
    intra VDW/kʙ                 0.000000e+00 [K]
    intra Coulombic/kʙ           0.000000e+00 [K]
    polarization/kʙ              0.000000e+00 [K]
    dU/dlambda VDW/kʙ            0.000000e+00 [K]
    dU/dlambda Real/kʙ           0.000000e+00 [K]
    dU/dlambda Ewald/kʙ          0.000000e+00 [K]


Initialization: Current cycle: 1300 out of 2000
===============================================================================

Box:      25.35052   0.00000   0.00000
           0.00000  25.35052   0.00000
           0.00000   0.00000  25.35052
Lengths:  25.35052  25.35052  25.35052
Angles:   90.00000  90.00000  90.00000
Rectangular boundary conditions

net charge:   0.00000000

component   0 (CO2) lambda:  0 occupancy:  0 (0.000000)
    net charge:   0.00000000 [e]

Amount of molecules per component :
-------------------------------------------------------------------------------
Component 0 (CO2)
    molecules:         2.220000e+02 molecules
    number density:    1.362676e-02 molec/A^3
    density:           9.955944e+02 kg/m^3

Total potential energy/kʙ       -3.165033e+05 [K]
-------------------------------------------------------------------------------
    external field VDW/kʙ        0.000000e+00 [K]
    external field Real/kʙ       0.000000e+00 [K]
    framework-molecule VDW/kʙ    0.000000e+00 [K]
    framework-molecule Real/kʙ   0.000000e+00 [K]
    molecule-molecule VDW/kʙ    -2.350437e+05 [K]
    molecule-molecule Real/kʙ   -6.926650e+04 [K]
    Van der Waals (Tail)/kʙ     -5.618000e+03 [K]
    Ewald Fourier/kʙ             6.479788e+03 [K]
    Ewald self/kʙ               -4.077426e+06 [K]
    Ewald exclusion/kʙ           4.064371e+06 [K]
    intra VDW/kʙ                 0.000000e+00 [K]
    intra Coulombic/kʙ           0.000000e+00 [K]
    polarization/kʙ              0.000000e+00 [K]
    dU/dlambda VDW/kʙ            0.000000e+00 [K]
    dU/dlambda Real/kʙ           0.000000e+00 [K]
    dU/dlambda Ewald/kʙ          0.000000e+00 [K]


Initialization: Current cycle: 1400 out of 2000
===============================================================================

Box:      25.20969   0.00000   0.00000
           0.00000  25.20969   0.00000
           0.00000   0.00000  25.20969
Lengths:  25.20969  25.20969  25.20969
Angles:   90.00000  90.00000  90.00000
Rectangular boundary conditions

net charge:   0.00000000

component   0 (CO2) lambda:  0 occupancy:  0 (0.000000)
    net charge:   0.00000000 [e]

Amount of molecules per component :
-------------------------------------------------------------------------------
Component 0 (CO2)
    molecules:         2.180000e+02 molecules
    number density:    1.360673e-02 molec/A^3
    density:           9.941313e+02 kg/m^3

Total potential energy/kʙ       -3.035666e+05 [K]
-------------------------------------------------------------------------------
    external field VDW/kʙ        0.000000e+00 [K]
    external field Real/kʙ       0.000000e+00 [K]
    framework-molecule VDW/kʙ    0.000000e+00 [K]
    framework-molecule Real/kʙ   0.000000e+00 [K]
    molecule-molecule VDW/kʙ    -2.259746e+05 [K]
    molecule-molecule Real/kʙ   -6.524556e+04 [K]
    Van der Waals (Tail)/kʙ     -5.508668e+03 [K]
    Ewald Fourier/kʙ             5.981820e+03 [K]
    Ewald self/kʙ               -4.003958e+06 [K]
    Ewald exclusion/kʙ           3.991139e+06 [K]
    intra VDW/kʙ                 0.000000e+00 [K]
    intra Coulombic/kʙ           0.000000e+00 [K]
    polarization/kʙ              0.000000e+00 [K]
    dU/dlambda VDW/kʙ            0.000000e+00 [K]
    dU/dlambda Real/kʙ           0.000000e+00 [K]
    dU/dlambda Ewald/kʙ          0.000000e+00 [K]


Initialization: Current cycle: 1500 out of 2000
===============================================================================

Box:      25.03017   0.00000   0.00000
           0.00000  25.03017   0.00000
           0.00000   0.00000  25.03017
Lengths:  25.03017  25.03017  25.03017
Angles:   90.00000  90.00000  90.00000
Rectangular boundary conditions

net charge:   0.00000000

component   0 (CO2) lambda:  0 occupancy:  0 (0.000000)
    net charge:   0.00000000 [e]

Amount of molecules per component :
-------------------------------------------------------------------------------
Component 0 (CO2)
    molecules:         2.110000e+02 molecules
    number density:    1.345523e-02 molec/A^3
    density:           9.830625e+02 kg/m^3

Total potential energy/kʙ       -2.929142e+05 [K]
-------------------------------------------------------------------------------
    external field VDW/kʙ        0.000000e+00 [K]
    external field Real/kʙ       0.000000e+00 [K]
    framework-molecule VDW/kʙ    0.000000e+00 [K]
    framework-molecule Real/kʙ   0.000000e+00 [K]
    molecule-molecule VDW/kʙ    -2.150580e+05 [K]
    molecule-molecule Real/kʙ   -6.547804e+04 [K]
    Van der Waals (Tail)/kʙ     -5.272419e+03 [K]
    Ewald Fourier/kʙ             5.302282e+03 [K]
    Ewald self/kʙ               -3.875391e+06 [K]
    Ewald exclusion/kʙ           3.862983e+06 [K]
    intra VDW/kʙ                 0.000000e+00 [K]
    intra Coulombic/kʙ           0.000000e+00 [K]
    polarization/kʙ              0.000000e+00 [K]
    dU/dlambda VDW/kʙ            0.000000e+00 [K]
    dU/dlambda Real/kʙ           0.000000e+00 [K]
    dU/dlambda Ewald/kʙ          0.000000e+00 [K]


Initialization: Current cycle: 1600 out of 2000
===============================================================================

Box:      25.24443   0.00000   0.00000
           0.00000  25.24443   0.00000
           0.00000   0.00000  25.24443
Lengths:  25.24443  25.24443  25.24443
Angles:   90.00000  90.00000  90.00000
Rectangular boundary conditions

net charge:   0.00000000

component   0 (CO2) lambda:  0 occupancy:  0 (0.000000)
    net charge:   0.00000000 [e]

Amount of molecules per component :
-------------------------------------------------------------------------------
Component 0 (CO2)
    molecules:         2.290000e+02 molecules
    number density:    1.423439e-02 molec/A^3
    density:           1.039989e+03 kg/m^3

Total potential energy/kʙ       -3.363112e+05 [K]
-------------------------------------------------------------------------------
    external field VDW/kʙ        0.000000e+00 [K]
    external field Real/kʙ       0.000000e+00 [K]
    framework-molecule VDW/kʙ    0.000000e+00 [K]
    framework-molecule Real/kʙ   0.000000e+00 [K]
    molecule-molecule VDW/kʙ    -2.475298e+05 [K]
    molecule-molecule Real/kʙ   -7.444542e+04 [K]
    Van der Waals (Tail)/kʙ     -6.053558e+03 [K]
    Ewald Fourier/kʙ             5.184090e+03 [K]
    Ewald self/kʙ               -4.205993e+06 [K]
    Ewald exclusion/kʙ           4.192527e+06 [K]
    intra VDW/kʙ                 0.000000e+00 [K]
    intra Coulombic/kʙ           0.000000e+00 [K]
    polarization/kʙ              0.000000e+00 [K]
    dU/dlambda VDW/kʙ            0.000000e+00 [K]
    dU/dlambda Real/kʙ           0.000000e+00 [K]
    dU/dlambda Ewald/kʙ          0.000000e+00 [K]


Initialization: Current cycle: 1700 out of 2000
===============================================================================

Box:      25.36032   0.00000   0.00000
           0.00000  25.36032   0.00000
           0.00000   0.00000  25.36032
Lengths:  25.36032  25.36032  25.36032
Angles:   90.00000  90.00000  90.00000
Rectangular boundary conditions

net charge:   0.00000000

component   0 (CO2) lambda:  0 occupancy:  0 (0.000000)
    net charge:   0.00000000 [e]

Amount of molecules per component :
-------------------------------------------------------------------------------
Component 0 (CO2)
    molecules:         2.100000e+02 molecules
    number density:    1.287523e-02 molec/A^3
    density:           9.406866e+02 kg/m^3

Total potential energy/kʙ       -2.796681e+05 [K]
-------------------------------------------------------------------------------
    external field VDW/kʙ        0.000000e+00 [K]
    external field Real/kʙ       0.000000e+00 [K]
    framework-molecule VDW/kʙ    0.000000e+00 [K]
    framework-molecule Real/kʙ   0.000000e+00 [K]
    molecule-molecule VDW/kʙ    -2.046832e+05 [K]
    molecule-molecule Real/kʙ   -6.409905e+04 [K]
    Van der Waals (Tail)/kʙ     -5.021236e+03 [K]
    Ewald Fourier/kʙ             6.484582e+03 [K]
    Ewald self/kʙ               -3.857024e+06 [K]
    Ewald exclusion/kʙ           3.844675e+06 [K]
    intra VDW/kʙ                 0.000000e+00 [K]
    intra Coulombic/kʙ           0.000000e+00 [K]
    polarization/kʙ              0.000000e+00 [K]
    dU/dlambda VDW/kʙ            0.000000e+00 [K]
    dU/dlambda Real/kʙ           0.000000e+00 [K]
    dU/dlambda Ewald/kʙ          0.000000e+00 [K]


Initialization: Current cycle: 1800 out of 2000
===============================================================================

Box:      25.36696   0.00000   0.00000
           0.00000  25.36696   0.00000
           0.00000   0.00000  25.36696
Lengths:  25.36696  25.36696  25.36696
Angles:   90.00000  90.00000  90.00000
Rectangular boundary conditions

net charge:   0.00000000

component   0 (CO2) lambda:  0 occupancy:  0 (0.000000)
    net charge:   0.00000000 [e]

Amount of molecules per component :
-------------------------------------------------------------------------------
Component 0 (CO2)
    molecules:         2.120000e+02 molecules
    number density:    1.298765e-02 molec/A^3
    density:           9.489003e+02 kg/m^3

Total potential energy/kʙ       -2.862698e+05 [K]
-------------------------------------------------------------------------------
    external field VDW/kʙ        0.000000e+00 [K]
    external field Real/kʙ       0.000000e+00 [K]
    framework-molecule VDW/kʙ    0.000000e+00 [K]
    framework-molecule Real/kʙ   0.000000e+00 [K]
    molecule-molecule VDW/kʙ    -2.101454e+05 [K]
    molecule-molecule Real/kʙ   -6.448858e+04 [K]
    Van der Waals (Tail)/kʙ     -5.113318e+03 [K]
    Ewald Fourier/kʙ             5.944248e+03 [K]
    Ewald self/kʙ               -3.893758e+06 [K]
    Ewald exclusion/kʙ           3.881291e+06 [K]
    intra VDW/kʙ                 0.000000e+00 [K]
    intra Coulombic/kʙ           0.000000e+00 [K]
    polarization/kʙ              0.000000e+00 [K]
    dU/dlambda VDW/kʙ            0.000000e+00 [K]
    dU/dlambda Real/kʙ           0.000000e+00 [K]
    dU/dlambda Ewald/kʙ          0.000000e+00 [K]


Initialization: Current cycle: 1900 out of 2000
===============================================================================

Box:      25.34901   0.00000   0.00000
           0.00000  25.34901   0.00000
           0.00000   0.00000  25.34901
Lengths:  25.34901  25.34901  25.34901
Angles:   90.00000  90.00000  90.00000
Rectangular boundary conditions

net charge:   0.00000000

component   0 (CO2) lambda:  0 occupancy:  0 (0.000000)
    net charge:   0.00000000 [e]

Amount of molecules per component :
-------------------------------------------------------------------------------
Component 0 (CO2)
    molecules:         2.260000e+02 molecules
    number density:    1.387476e-02 molec/A^3
    density:           1.013714e+03 kg/m^3

Total potential energy/kʙ       -3.243617e+05 [K]
-------------------------------------------------------------------------------
    external field VDW/kʙ        0.000000e+00 [K]
    external field Real/kʙ       0.000000e+00 [K]
    framework-molecule VDW/kʙ    0.000000e+00 [K]
    framework-molecule Real/kʙ   0.000000e+00 [K]
    molecule-molecule VDW/kʙ    -2.384404e+05 [K]
    molecule-molecule Real/kʙ   -7.283309e+04 [K]
    Van der Waals (Tail)/kʙ     -5.823314e+03 [K]
    Ewald Fourier/kʙ             6.025166e+03 [K]
    Ewald self/kʙ               -4.150893e+06 [K]
    Ewald exclusion/kʙ           4.137603e+06 [K]
    intra VDW/kʙ                 0.000000e+00 [K]
    intra Coulombic/kʙ           0.000000e+00 [K]
    polarization/kʙ              0.000000e+00 [K]
    dU/dlambda VDW/kʙ            0.000000e+00 [K]
    dU/dlambda Real/kʙ           0.000000e+00 [K]
    dU/dlambda Ewald/kʙ          0.000000e+00 [K]


Current cycle: 0 out of 6000
===============================================================================

Box:      25.22853   0.00000   0.00000  Average:  25.22853   0.00000   0.00000
           0.00000  25.22853   0.00000             0.00000  25.22853   0.00000
           0.00000   0.00000  25.22853             0.00000   0.00000  25.22853
Lengths:  25.22853  25.22853  25.22853  Average:  25.22853  25.22853  25.22853
Angles:   90.00000  90.00000  90.00000  Average:  90.00000  90.00000  90.00000
Rectangular boundary conditions

net charge:   0.00000000

component 0 (CO2) lambda:  0 occupancy:  0 (0.000000)
    net charge:   0.00000000 [e]

Amount of molecules per component :
-------------------------------------------------------------------------------
Component 0 (CO2)
    molecules:      2.170000e+02 molecules  (2.170000e+02 +/- 0.000000e+00)
    number density: 1.351400e-02 molec./A^3 (1.351400e-02 +/- 0.000000e+00)
    density:        9.873562e+02 kg/m^3     (9.873562e+02 +/- 0.000000e+00)

Average pressure tensor: 
-------------------------------------------------------------------------------
 4.8511e+02  0.0000e+00  0.0000e+00 +/- 0.0000e+00 0.0000e+00 0.0000e+00 [bar]
 0.0000e+00  4.8511e+02  0.0000e+00 +/- 0.0000e+00 0.0000e+00 0.0000e+00 [bar]
 0.0000e+00  0.0000e+00  4.8511e+02 +/- 0.0000e+00 0.0000e+00 0.0000e+00 [bar]
Ideal-gas pressure:   4.851109e+02 +/ 0.000000e+00 [bar]
Excess pressure:      0.000000e+00 +/ 0.000000e+00 [bar]
Pressure:             4.851109e+02 +/ 0.000000e+00 [bar]

Total potential energy/kʙ  -3.035642e+05 (-3.035642e+05 +/- 0.000000e+00) [K]
-------------------------------------------------------------------------------
ExternalField-molecule
    Van der Waals/kʙ        0.000000e+00 ( 0.000000e+00 +/- 0.000000e+00) [K]
Framework-molecule
    Van der Waals/kʙ        0.000000e+00 ( 0.000000e+00 +/- 0.000000e+00) [K]
    Van der Waals (Tail)/kʙ 0.000000e+00 ( 0.000000e+00 +/- 0.000000e+00) [K]
    Coulombic Real/kʙ       0.000000e+00 ( 0.000000e+00 +/- 0.000000e+00) [K]
    Coulombic Fourier/kʙ    0.000000e+00 ( 0.000000e+00 +/- 0.000000e+00) [K]
Molecule-molecule
    Van der Waals/kʙ       -2.229454e+05 (-2.229454e+05 +/- 0.000000e+00) [K]
    Van der Waals (Tail)/kʙ-5.446029e+03 (-5.446029e+03 +/- 0.000000e+00) [K]
    Coulombic Real/kʙ      -6.834265e+04 (-6.834265e+04 +/- 0.000000e+00) [K]
    Coulombic Fourier/kʙ   -6.830139e+03 (-6.830139e+03 +/- 0.000000e+00) [K]
    Molecule Intra/kʙ       0.000000e+00 ( 0.000000e+00 +/- 0.000000e+00) [K]

Current cycle: 100 out of 6000
===============================================================================

Box:      25.25662   0.00000   0.00000  Average:  25.32181   0.00000   0.00000
           0.00000  25.25662   0.00000             0.00000  25.32181   0.00000
           0.00000   0.00000  25.25662             0.00000   0.00000  25.32181
Lengths:  25.25662  25.25662  25.25662  Average:  25.32181  25.32181  25.32181
Angles:   90.00000  90.00000  90.00000  Average:  90.00000  90.00000  90.00000
Rectangular boundary conditions

net charge:   0.00000000

component 0 (CO2) lambda:  0 occupancy:  0 (0.000000)
    net charge:   0.00000000 [e]

Amount of molecules per component :
-------------------------------------------------------------------------------
Component 0 (CO2)
    molecules:      2.270000e+02 molecules  (2.243663e+02 +/- 0.000000e+00)
    number density: 1.408965e-02 molec./A^3 (1.382019e-02 +/- 0.000000e+00)
    density:        1.029414e+03 kg/m^3     (1.009727e+03 +/- 0.000000e+00)

Average pressure tensor: 
-------------------------------------------------------------------------------
 2.4584e+01  2.0184e+01  1.9419e+02 +/- 0.0000e+00 0.0000e+00 0.0000e+00 [bar]
 2.0184e+01  1.7989e+02  5.3315e+01 +/- 0.0000e+00 0.0000e+00 0.0000e+00 [bar]
 1.9419e+02  5.3315e+01 -8.9829e+01 +/- 0.0000e+00 0.0000e+00 0.0000e+00 [bar]
Ideal-gas pressure:   4.961020e+02 +/ 0.000000e+00 [bar]
Excess pressure:     -4.578864e+02 +/ 0.000000e+00 [bar]
Pressure:             3.821562e+01 +/ 0.000000e+00 [bar]

Total potential energy/kʙ  -3.311650e+05 (-3.246219e+05 +/- 0.000000e+00) [K]
-------------------------------------------------------------------------------
ExternalField-molecule
    Van der Waals/kʙ        0.000000e+00 ( 0.000000e+00 +/- 0.000000e+00) [K]
Framework-molecule
    Van der Waals/kʙ        0.000000e+00 ( 0.000000e+00 +/- 0.000000e+00) [K]
    Van der Waals (Tail)/kʙ 0.000000e+00 ( 0.000000e+00 +/- 0.000000e+00) [K]
    Coulombic Real/kʙ       0.000000e+00 ( 0.000000e+00 +/- 0.000000e+00) [K]
    Coulombic Fourier/kʙ    0.000000e+00 ( 0.000000e+00 +/- 0.000000e+00) [K]
Molecule-molecule
    Van der Waals/kʙ       -2.405190e+05 (-2.358457e+05 +/- 0.000000e+00) [K]
    Van der Waals (Tail)/kʙ-5.939670e+03 (-5.737002e+03 +/- 0.000000e+00) [K]
    Coulombic Real/kʙ      -7.726650e+04 (-7.562586e+04 +/- 0.000000e+00) [K]
    Coulombic Fourier/kʙ   -7.439879e+03 (-7.413312e+03 +/- 0.000000e+00) [K]
    Molecule Intra/kʙ       0.000000e+00 ( 0.000000e+00 +/- 0.000000e+00) [K]

Current cycle: 200 out of 6000
===============================================================================

Box:      25.12520   0.00000   0.00000  Average:  25.25237   0.00000   0.00000
           0.00000  25.12520   0.00000             0.00000  25.25237   0.00000
           0.00000   0.00000  25.12520             0.00000   0.00000  25.25237
Lengths:  25.12520  25.12520  25.12520  Average:  25.25237  25.25237  25.25237
Angles:   90.00000  90.00000  90.00000  Average:  90.00000  90.00000  90.00000
Rectangular boundary conditions

net charge:   0.00000000

component 0 (CO2) lambda:  0 occupancy:  0 (0.000000)
    net charge:   0.00000000 [e]

Amount of molecules per component :
-------------------------------------------------------------------------------
Component 0 (CO2)
    molecules:      2.260000e+02 molecules  (2.246269e+02 +/- 0.000000e+00)
    number density: 1.424885e-02 molec./A^3 (1.395081e-02 +/- 0.000000e+00)
    density:        1.041045e+03 kg/m^3     (1.019270e+03 +/- 0.000000e+00)

Average pressure tensor: 
-------------------------------------------------------------------------------
 4.0651e-02  1.7486e+02  1.2323e+02 +/- 0.0000e+00 0.0000e+00 0.0000e+00 [bar]
 1.7486e+02  1.7546e+02  5.8338e+00 +/- 0.0000e+00 0.0000e+00 0.0000e+00 [bar]
 1.2323e+02  5.8338e+00 -5.8533e+01 +/- 0.0000e+00 0.0000e+00 0.0000e+00 [bar]
Ideal-gas pressure:   5.007909e+02 +/ 0.000000e+00 [bar]
Excess pressure:     -4.618018e+02 +/ 0.000000e+00 [bar]
Pressure:             3.898909e+01 +/ 0.000000e+00 [bar]

Total potential energy/kʙ  -3.326108e+05 (-3.291425e+05 +/- 0.000000e+00) [K]
-------------------------------------------------------------------------------
ExternalField-molecule
    Van der Waals/kʙ        0.000000e+00 ( 0.000000e+00 +/- 0.000000e+00) [K]
Framework-molecule
    Van der Waals/kʙ        0.000000e+00 ( 0.000000e+00 +/- 0.000000e+00) [K]
    Van der Waals (Tail)/kʙ 0.000000e+00 ( 0.000000e+00 +/- 0.000000e+00) [K]
    Coulombic Real/kʙ       0.000000e+00 ( 0.000000e+00 +/- 0.000000e+00) [K]
    Coulombic Fourier/kʙ    0.000000e+00 ( 0.000000e+00 +/- 0.000000e+00) [K]
Molecule-molecule
    Van der Waals/kʙ       -2.413389e+05 (-2.395729e+05 +/- 0.000000e+00) [K]
    Van der Waals (Tail)/kʙ-5.980320e+03 (-5.819641e+03 +/- 0.000000e+00) [K]
    Coulombic Real/kʙ      -7.730348e+04 (-7.655421e+04 +/- 0.000000e+00) [K]
    Coulombic Fourier/kʙ   -7.988140e+03 (-7.195802e+03 +/- 0.000000e+00) [K]
    Molecule Intra/kʙ       0.000000e+00 ( 0.000000e+00 +/- 0.000000e+00) [K]

Current cycle: 300 out of 6000
===============================================================================

Box:      25.23653   0.00000   0.00000  Average:  25.23802   0.00000   0.00000
           0.00000  25.23653   0.00000             0.00000  25.23802   0.00000
           0.00000   0.00000  25.23653             0.00000   0.00000  25.23802
Lengths:  25.23653  25.23653  25.23653  Average:  25.23802  25.23802  25.23802
Angles:   90.00000  90.00000  90.00000  Average:  90.00000  90.00000  90.00000
Rectangular boundary conditions

net charge:   0.00000000

component 0 (CO2) lambda:  0 occupancy:  0 (0.000000)
    net charge:   0.00000000 [e]

Amount of molecules per component :
-------------------------------------------------------------------------------
Component 0 (CO2)
    molecules:      2.200000e+02 molecules  (2.237874e+02 +/- 0.000000e+00)
    number density: 1.368780e-02 molec./A^3 (1.392215e-02 +/- 0.000000e+00)
    density:        1.000054e+03 kg/m^3     (1.017176e+03 +/- 0.000000e+00)

Average pressure tensor: 
-------------------------------------------------------------------------------
-1.8465e+01  1.2133e+02  6.3995e+01 +/- 0.0000e+00 0.0000e+00 0.0000e+00 [bar]
 1.2133e+02  1.4235e+02 -9.1109e+00 +/- 0.0000e+00 0.0000e+00 0.0000e+00 [bar]
 6.3995e+01 -9.1109e+00 -5.8119e+01 +/- 0.0000e+00 0.0000e+00 0.0000e+00 [bar]
Ideal-gas pressure:   4.997622e+02 +/ 0.000000e+00 [bar]
Excess pressure:     -4.778404e+02 +/ 0.000000e+00 [bar]
Pressure:             2.192181e+01 +/ 0.000000e+00 [bar]

Total potential energy/kʙ  -3.180078e+05 (-3.260676e+05 +/- 0.000000e+00) [K]
-------------------------------------------------------------------------------
ExternalField-molecule
    Van der Waals/kʙ        0.000000e+00 ( 0.000000e+00 +/- 0.000000e+00) [K]
Framework-molecule
    Van der Waals/kʙ        0.000000e+00 ( 0.000000e+00 +/- 0.000000e+00) [K]
    Van der Waals (Tail)/kʙ 0.000000e+00 ( 0.000000e+00 +/- 0.000000e+00) [K]
    Coulombic Real/kʙ       0.000000e+00 ( 0.000000e+00 +/- 0.000000e+00) [K]
    Coulombic Fourier/kʙ    0.000000e+00 ( 0.000000e+00 +/- 0.000000e+00) [K]
Molecule-molecule
    Van der Waals/kʙ       -2.318507e+05 (-2.379921e+05 +/- 0.000000e+00) [K]
    Van der Waals (Tail)/kʙ-5.592327e+03 (-5.771693e+03 +/- 0.000000e+00) [K]
    Coulombic Real/kʙ      -7.345974e+04 (-7.519570e+04 +/- 0.000000e+00) [K]
    Coulombic Fourier/kʙ   -7.105031e+03 (-7.108107e+03 +/- 0.000000e+00) [K]
    Molecule Intra/kʙ       0.000000e+00 ( 0.000000e+00 +/- 0.000000e+00) [K]

Current cycle: 400 out of 6000
===============================================================================

Box:      24.97558   0.00000   0.00000  Average:  25.16914   0.00000   0.00000
           0.00000  24.97558   0.00000             0.00000  25.16914   0.00000
           0.00000   0.00000  24.97558             0.00000   0.00000  25.16914
Lengths:  24.97558  24.97558  24.97558  Average:  25.16914  25.16914  25.16914
Angles:   90.00000  90.00000  90.00000  Average:  90.00000  90.00000  90.00000
Rectangular boundary conditions

net charge:   0.00000000

component 0 (CO2) lambda:  0 occupancy:  0 (0.000000)
    net charge:   0.00000000 [e]

Amount of molecules per component :
-------------------------------------------------------------------------------
Component 0 (CO2)
    molecules:      2.160000e+02 molecules  (2.220349e+02 +/- 0.000000e+00)
    number density: 1.386459e-02 molec./A^3 (1.392617e-02 +/- 0.000000e+00)
    density:        1.012971e+03 kg/m^3     (1.017470e+03 +/- 0.000000e+00)

Average pressure tensor: 
-------------------------------------------------------------------------------
-1.1455e+01  1.0923e+02  4.1362e+01 +/- 0.0000e+00 0.0000e+00 0.0000e+00 [bar]
 1.0923e+02  1.8335e+02  2.1548e+01 +/- 0.0000e+00 0.0000e+00 0.0000e+00 [bar]
 4.1362e+01  2.1548e+01 -3.6011e+01 +/- 0.0000e+00 0.0000e+00 0.0000e+00 [bar]
Ideal-gas pressure:   4.999063e+02 +/ 0.000000e+00 [bar]
Excess pressure:     -4.546107e+02 +/ 0.000000e+00 [bar]
Pressure:             4.529559e+01 +/ 0.000000e+00 [bar]

Total potential energy/kʙ  -3.143725e+05 (-3.240552e+05 +/- 0.000000e+00) [K]
-------------------------------------------------------------------------------
ExternalField-molecule
    Van der Waals/kʙ        0.000000e+00 ( 0.000000e+00 +/- 0.000000e+00) [K]
Framework-molecule
    Van der Waals/kʙ        0.000000e+00 ( 0.000000e+00 +/- 0.000000e+00) [K]
    Van der Waals (Tail)/kʙ 0.000000e+00 ( 0.000000e+00 +/- 0.000000e+00) [K]
    Coulombic Real/kʙ       0.000000e+00 ( 0.000000e+00 +/- 0.000000e+00) [K]
    Coulombic Fourier/kʙ    0.000000e+00 ( 0.000000e+00 +/- 0.000000e+00) [K]
Molecule-molecule
    Van der Waals/kʙ       -2.346541e+05 (-2.368226e+05 +/- 0.000000e+00) [K]
    Van der Waals (Tail)/kʙ-5.561564e+03 (-5.742340e+03 +/- 0.000000e+00) [K]
    Coulombic Real/kʙ      -6.671604e+04 (-7.443170e+04 +/- 0.000000e+00) [K]
    Coulombic Fourier/kʙ   -7.440829e+03 (-7.058645e+03 +/- 0.000000e+00) [K]
    Molecule Intra/kʙ       0.000000e+00 ( 0.000000e+00 +/- 0.000000e+00) [K]

Current cycle: 500 out of 6000
===============================================================================

Box:      24.74644   0.00000   0.00000  Average:  25.13640   0.00000   0.00000
           0.00000  24.74644   0.00000             0.00000  25.13640   0.00000
           0.00000   0.00000  24.74644             0.00000   0.00000  25.13640
Lengths:  24.74644  24.74644  24.74644  Average:  25.13640  25.13640  25.13640
Angles:   90.00000  90.00000  90.00000  Average:  90.00000  90.00000  90.00000
Rectangular boundary conditions

net charge:   0.00000000

component 0 (CO2) lambda:  0 occupancy:  0 (0.000000)
    net charge:   0.00000000 [e]

Amount of molecules per component :
-------------------------------------------------------------------------------
Component 0 (CO2)
    molecules:      2.080000e+02 molecules  (2.207325e+02 +/- 0.000000e+00)
    number density: 1.372540e-02 molec./A^3 (1.389774e-02 +/- 0.000000e+00)
    density:        1.002801e+03 kg/m^3     (1.015393e+03 +/- 0.000000e+00)

Average pressure tensor: 
-------------------------------------------------------------------------------
-2.4360e+01  8.4388e+01  1.2715e+01 +/- 0.0000e+00 0.0000e+00 0.0000e+00 [bar]
 8.4388e+01  1.6722e+02  1.2369e+00 +/- 0.0000e+00 0.0000e+00 0.0000e+00 [bar]
 1.2715e+01  1.2369e+00 -4.0011e+01 +/- 0.0000e+00 0.0000e+00 0.0000e+00 [bar]
Ideal-gas pressure:   4.988859e+02 +/ 0.000000e+00 [bar]
Excess pressure:     -4.646025e+02 +/ 0.000000e+00 [bar]
Pressure:             3.428346e+01 +/ 0.000000e+00 [bar]

Total potential energy/kʙ  -2.983266e+05 (-3.213716e+05 +/- 0.000000e+00) [K]
-------------------------------------------------------------------------------
ExternalField-molecule
    Van der Waals/kʙ        0.000000e+00 ( 0.000000e+00 +/- 0.000000e+00) [K]
Framework-molecule
    Van der Waals/kʙ        0.000000e+00 ( 0.000000e+00 +/- 0.000000e+00) [K]
    Van der Waals (Tail)/kʙ 0.000000e+00 ( 0.000000e+00 +/- 0.000000e+00) [K]
    Coulombic Real/kʙ       0.000000e+00 ( 0.000000e+00 +/- 0.000000e+00) [K]
    Coulombic Fourier/kʙ    0.000000e+00 ( 0.000000e+00 +/- 0.000000e+00) [K]
Molecule-molecule
    Van der Waals/kʙ       -2.178756e+05 (-2.347916e+05 +/- 0.000000e+00) [K]
    Van der Waals (Tail)/kʙ-5.301816e+03 (-5.705716e+03 +/- 0.000000e+00) [K]
    Coulombic Real/kʙ      -6.859905e+04 (-7.379678e+04 +/- 0.000000e+00) [K]
    Coulombic Fourier/kʙ   -6.550079e+03 (-7.077489e+03 +/- 0.000000e+00) [K]
    Molecule Intra/kʙ       0.000000e+00 ( 0.000000e+00 +/- 0.000000e+00) [K]

Current cycle: 600 out of 6000
===============================================================================

Box:      24.60443   0.00000   0.00000  Average:  25.03968   0.00000   0.00000
           0.00000  24.60443   0.00000             0.00000  25.03968   0.00000
           0.00000   0.00000  24.60443             0.00000   0.00000  25.03968
Lengths:  24.60443  24.60443  24.60443  Average:  25.03968  25.03968  25.03968
Angles:   90.00000  90.00000  90.00000  Average:  90.00000  90.00000  90.00000
Rectangular boundary conditions

net charge:   0.00000000

component 0 (CO2) lambda:  0 occupancy:  0 (0.000000)
    net charge:   0.00000000 [e]

Amount of molecules per component :
-------------------------------------------------------------------------------
Component 0 (CO2)
    molecules:      2.010000e+02 molecules  (2.183195e+02 +/- 0.000000e+00)
    number density: 1.349448e-02 molec./A^3 (1.390297e-02 +/- 0.000000e+00)
    density:        9.859301e+02 kg/m^3     (1.015775e+03 +/- 0.000000e+00)

Average pressure tensor: 
-------------------------------------------------------------------------------
-1.9428e+01  5.3765e+01  3.8046e+00 +/- 0.0000e+00 0.0000e+00 0.0000e+00 [bar]
 5.3765e+01  1.5353e+02  1.3453e+01 +/- 0.0000e+00 0.0000e+00 0.0000e+00 [bar]
 3.8046e+00  1.3453e+01 -2.4899e+01 +/- 0.0000e+00 0.0000e+00 0.0000e+00 [bar]
Ideal-gas pressure:   4.990738e+02 +/ 0.000000e+00 [bar]
Excess pressure:     -4.626736e+02 +/ 0.000000e+00 [bar]
Pressure:             3.640020e+01 +/ 0.000000e+00 [bar]

Total potential energy/kʙ  -2.820615e+05 (-3.165784e+05 +/- 0.000000e+00) [K]
-------------------------------------------------------------------------------
ExternalField-molecule
    Van der Waals/kʙ        0.000000e+00 ( 0.000000e+00 +/- 0.000000e+00) [K]
Framework-molecule
    Van der Waals/kʙ        0.000000e+00 ( 0.000000e+00 +/- 0.000000e+00) [K]
    Van der Waals (Tail)/kʙ 0.000000e+00 ( 0.000000e+00 +/- 0.000000e+00) [K]
    Coulombic Real/kʙ       0.000000e+00 ( 0.000000e+00 +/- 0.000000e+00) [K]
    Coulombic Fourier/kʙ    0.000000e+00 ( 0.000000e+00 +/- 0.000000e+00) [K]
Molecule-molecule
    Van der Waals/kʙ       -2.079561e+05 (-2.316720e+05 +/- 0.000000e+00) [K]
    Van der Waals (Tail)/kʙ-5.037193e+03 (-5.630150e+03 +/- 0.000000e+00) [K]
    Coulombic Real/kʙ      -6.237723e+04 (-7.227979e+04 +/- 0.000000e+00) [K]
    Coulombic Fourier/kʙ   -6.690924e+03 (-6.996475e+03 +/- 0.000000e+00) [K]
    Molecule Intra/kʙ       0.000000e+00 ( 0.000000e+00 +/- 0.000000e+00) [K]

Current cycle: 700 out of 6000
===============================================================================

Box:      24.79876   0.00000   0.00000  Average:  24.97869   0.00000   0.00000
           0.00000  24.79876   0.00000             0.00000  24.97869   0.00000
           0.00000   0.00000  24.79876             0.00000   0.00000  24.97869
Lengths:  24.79876  24.79876  24.79876  Average:  24.97869  24.97869  24.97869
Angles:   90.00000  90.00000  90.00000  Average:  90.00000  90.00000  90.00000
Rectangular boundary conditions

net charge:   0.00000000

component 0 (CO2) lambda:  0 occupancy:  0 (0.000000)
    net charge:   0.00000000 [e]

Amount of molecules per component :
-------------------------------------------------------------------------------
Component 0 (CO2)
    molecules:      2.070000e+02 molecules  (2.164822e+02 +/- 0.000000e+00)
    number density: 1.357315e-02 molec./A^3 (1.388544e-02 +/- 0.000000e+00)
    density:        9.916773e+02 kg/m^3     (1.014494e+03 +/- 0.000000e+00)

Average pressure tensor: 
-------------------------------------------------------------------------------
-3.5661e+00  7.1762e+01  7.4691e+00 +/- 0.0000e+00 0.0000e+00 0.0000e+00 [bar]
 7.1762e+01  1.1305e+02  6.3571e+00 +/- 0.0000e+00 0.0000e+00 0.0000e+00 [bar]
 7.4691e+00  6.3571e+00  1.1041e+01 +/- 0.0000e+00 0.0000e+00 0.0000e+00 [bar]
Ideal-gas pressure:   4.984443e+02 +/ 0.000000e+00 [bar]
Excess pressure:     -4.582701e+02 +/ 0.000000e+00 [bar]
Pressure:             4.017424e+01 +/ 0.000000e+00 [bar]

Total potential energy/kʙ  -2.964925e+05 (-3.133996e+05 +/- 0.000000e+00) [K]
-------------------------------------------------------------------------------
ExternalField-molecule
    Van der Waals/kʙ        0.000000e+00 ( 0.000000e+00 +/- 0.000000e+00) [K]
Framework-molecule
    Van der Waals/kʙ        0.000000e+00 ( 0.000000e+00 +/- 0.000000e+00) [K]
    Van der Waals (Tail)/kʙ 0.000000e+00 ( 0.000000e+00 +/- 0.000000e+00) [K]
    Coulombic Real/kʙ       0.000000e+00 ( 0.000000e+00 +/- 0.000000e+00) [K]
    Coulombic Fourier/kʙ    0.000000e+00 ( 0.000000e+00 +/- 0.000000e+00) [K]
Molecule-molecule
    Van der Waals/kʙ       -2.116034e+05 (-2.292323e+05 +/- 0.000000e+00) [K]
    Van der Waals (Tail)/kʙ-5.217796e+03 (-5.578770e+03 +/- 0.000000e+00) [K]
    Coulombic Real/kʙ      -7.229909e+04 (-7.163361e+04 +/- 0.000000e+00) [K]
    Coulombic Fourier/kʙ   -7.372244e+03 (-6.955013e+03 +/- 0.000000e+00) [K]
    Molecule Intra/kʙ       0.000000e+00 ( 0.000000e+00 +/- 0.000000e+00) [K]

Current cycle: 800 out of 6000
===============================================================================

Box:      24.36941   0.00000   0.00000  Average:  24.92205   0.00000   0.00000
           0.00000  24.36941   0.00000             0.00000  24.92205   0.00000
           0.00000   0.00000  24.36941             0.00000   0.00000  24.92205
Lengths:  24.36941  24.36941  24.36941  Average:  24.92205  24.92205  24.92205
Angles:   90.00000  90.00000  90.00000  Average:  90.00000  90.00000  90.00000
Rectangular boundary conditions

net charge:   0.00000000

component 0 (CO2) lambda:  0 occupancy:  0 (0.000000)
    net charge:   0.00000000 [e]

Amount of molecules per component :
-------------------------------------------------------------------------------
Component 0 (CO2)
    molecules:      1.990000e+02 molecules  (2.150075e+02 +/- 0.000000e+00)
    number density: 1.375049e-02 molec./A^3 (1.388420e-02 +/- 0.000000e+00)
    density:        1.004634e+03 kg/m^3     (1.014403e+03 +/- 0.000000e+00)

Average pressure tensor: 
-------------------------------------------------------------------------------
 3.3446e+01  7.1823e+01  1.7704e+01 +/- 0.0000e+00 0.0000e+00 0.0000e+00 [bar]
 7.1823e+01  9.8193e+01  4.4354e+00 +/- 0.0000e+00 0.0000e+00 0.0000e+00 [bar]
 1.7704e+01  4.4354e+00  7.4277e+00 +/- 0.0000e+00 0.0000e+00 0.0000e+00 [bar]
Ideal-gas pressure:   4.983999e+02 +/ 0.000000e+00 [bar]
Excess pressure:     -4.520443e+02 +/ 0.000000e+00 [bar]
Pressure:             4.635559e+01 +/ 0.000000e+00 [bar]

Total potential energy/kʙ  -2.837682e+05 (-3.111983e+05 +/- 0.000000e+00) [K]
-------------------------------------------------------------------------------
ExternalField-molecule
    Van der Waals/kʙ        0.000000e+00 ( 0.000000e+00 +/- 0.000000e+00) [K]
Framework-molecule
    Van der Waals/kʙ        0.000000e+00 ( 0.000000e+00 +/- 0.000000e+00) [K]
    Van der Waals (Tail)/kʙ 0.000000e+00 ( 0.000000e+00 +/- 0.000000e+00) [K]
    Coulombic Real/kʙ       0.000000e+00 ( 0.000000e+00 +/- 0.000000e+00) [K]
    Coulombic Fourier/kʙ    0.000000e+00 ( 0.000000e+00 +/- 0.000000e+00) [K]
Molecule-molecule
    Van der Waals/kʙ       -2.087441e+05 (-2.274742e+05 +/- 0.000000e+00) [K]
    Van der Waals (Tail)/kʙ-5.081681e+03 (-5.542219e+03 +/- 0.000000e+00) [K]
    Coulombic Real/kʙ      -6.357419e+04 (-7.121031e+04 +/- 0.000000e+00) [K]
    Coulombic Fourier/kʙ   -6.368313e+03 (-6.971570e+03 +/- 0.000000e+00) [K]
    Molecule Intra/kʙ       0.000000e+00 ( 0.000000e+00 +/- 0.000000e+00) [K]

Current cycle: 900 out of 6000
===============================================================================

Box:      24.55461   0.00000   0.00000  Average:  24.86718   0.00000   0.00000
           0.00000  24.55461   0.00000             0.00000  24.86718   0.00000
           0.00000   0.00000  24.55461             0.00000   0.00000  24.86718
Lengths:  24.55461  24.55461  24.55461  Average:  24.86718  24.86718  24.86718
Angles:   90.00000  90.00000  90.00000  Average:  90.00000  90.00000  90.00000
Rectangular boundary conditions

net charge:   0.00000000

component 0 (CO2) lambda:  0 occupancy:  0 (0.000000)
    net charge:   0.00000000 [e]

Amount of molecules per component :
-------------------------------------------------------------------------------
Component 0 (CO2)
    molecules:      2.090000e+02 molecules  (2.136459e+02 +/- 0.000000e+00)
    number density: 1.411715e-02 molec./A^3 (1.388691e-02 +/- 0.000000e+00)
    density:        1.031423e+03 kg/m^3     (1.014602e+03 +/- 0.000000e+00)

Average pressure tensor: 
-------------------------------------------------------------------------------
 2.1182e+01  9.0611e+01  9.1717e+00 +/- 0.0000e+00 0.0000e+00 0.0000e+00 [bar]
 9.0611e+01  1.1845e+02 -1.9573e+01 +/- 0.0000e+00 0.0000e+00 0.0000e+00 [bar]
 9.1717e+00 -1.9573e+01 -3.8179e+00 +/- 0.0000e+00 0.0000e+00 0.0000e+00 [bar]
Ideal-gas pressure:   4.984972e+02 +/ 0.000000e+00 [bar]
Excess pressure:     -4.532267e+02 +/ 0.000000e+00 [bar]
Pressure:             4.527053e+01 +/ 0.000000e+00 [bar]

Total potential energy/kʙ  -3.093705e+05 (-3.093643e+05 +/- 0.000000e+00) [K]
-------------------------------------------------------------------------------
ExternalField-molecule
    Van der Waals/kʙ        0.000000e+00 ( 0.000000e+00 +/- 0.000000e+00) [K]
Framework-molecule
    Van der Waals/kʙ        0.000000e+00 ( 0.000000e+00 +/- 0.000000e+00) [K]
    Van der Waals (Tail)/kʙ 0.000000e+00 ( 0.000000e+00 +/- 0.000000e+00) [K]
    Coulombic Real/kʙ       0.000000e+00 ( 0.000000e+00 +/- 0.000000e+00) [K]
    Coulombic Fourier/kʙ    0.000000e+00 ( 0.000000e+00 +/- 0.000000e+00) [K]
Molecule-molecule
    Van der Waals/kʙ       -2.285224e+05 (-2.260836e+05 +/- 0.000000e+00) [K]
    Van der Waals (Tail)/kʙ-5.479356e+03 (-5.505844e+03 +/- 0.000000e+00) [K]
    Coulombic Real/kʙ      -6.878410e+04 (-7.085582e+04 +/- 0.000000e+00) [K]
    Coulombic Fourier/kʙ   -6.584722e+03 (-6.919020e+03 +/- 0.000000e+00) [K]
    Molecule Intra/kʙ       0.000000e+00 ( 0.000000e+00 +/- 0.000000e+00) [K]

Current cycle: 1000 out of 6000
===============================================================================

Box:      24.96460   0.00000   0.00000  Average:  24.84651   0.00000   0.00000
           0.00000  24.96460   0.00000             0.00000  24.84651   0.00000
           0.00000   0.00000  24.96460             0.00000   0.00000  24.84651
Lengths:  24.96460  24.96460  24.96460  Average:  24.84651  24.84651  24.84651
Angles:   90.00000  90.00000  90.00000  Average:  90.00000  90.00000  90.00000
Rectangular boundary conditions

net charge:   0.00000000

component 0 (CO2) lambda:  0 occupancy:  0 (0.000000)
    net charge:   0.00000000 [e]

Amount of molecules per component :
-------------------------------------------------------------------------------
Component 0 (CO2)
    molecules:      2.280000e+02 molecules  (2.136633e+02 +/- 0.000000e+00)
    number density: 1.465416e-02 molec./A^3 (1.392388e-02 +/- 0.000000e+00)
    density:        1.070658e+03 kg/m^3     (1.017303e+03 +/- 0.000000e+00)

Average pressure tensor: 
-------------------------------------------------------------------------------
 2.9631e+01  6.4888e+01  1.2539e+01 +/- 0.0000e+00 0.0000e+00 0.0000e+00 [bar]
 6.4888e+01  1.1946e+02 -2.1131e+01 +/- 0.0000e+00 0.0000e+00 0.0000e+00 [bar]
 1.2539e+01 -2.1131e+01 -1.4402e+01 +/- 0.0000e+00 0.0000e+00 0.0000e+00 [bar]
Ideal-gas pressure:   4.998243e+02 +/ 0.000000e+00 [bar]
Excess pressure:     -4.549266e+02 +/ 0.000000e+00 [bar]
Pressure:             4.489773e+01 +/ 0.000000e+00 [bar]

Total potential energy/kʙ  -3.507426e+05 (-3.106457e+05 +/- 0.000000e+00) [K]
-------------------------------------------------------------------------------
ExternalField-molecule
    Van der Waals/kʙ        0.000000e+00 ( 0.000000e+00 +/- 0.000000e+00) [K]
Framework-molecule
    Van der Waals/kʙ        0.000000e+00 ( 0.000000e+00 +/- 0.000000e+00) [K]
    Van der Waals (Tail)/kʙ 0.000000e+00 ( 0.000000e+00 +/- 0.000000e+00) [K]
    Coulombic Real/kʙ       0.000000e+00 ( 0.000000e+00 +/- 0.000000e+00) [K]
    Coulombic Fourier/kʙ    0.000000e+00 ( 0.000000e+00 +/- 0.000000e+00) [K]
Molecule-molecule
    Van der Waals/kʙ       -2.527106e+05 (-2.267736e+05 +/- 0.000000e+00) [K]
    Van der Waals (Tail)/kʙ-6.204860e+03 (-5.523240e+03 +/- 0.000000e+00) [K]
    Coulombic Real/kʙ      -8.418651e+04 (-7.140826e+04 +/- 0.000000e+00) [K]
    Coulombic Fourier/kʙ   -7.640621e+03 (-6.940608e+03 +/- 0.000000e+00) [K]
    Molecule Intra/kʙ       0.000000e+00 ( 0.000000e+00 +/- 0.000000e+00) [K]

Current cycle: 1100 out of 6000
===============================================================================

Box:      25.20006   0.00000   0.00000  Average:  24.85733   0.00000   0.00000
           0.00000  25.20006   0.00000             0.00000  24.85733   0.00000
           0.00000   0.00000  25.20006             0.00000   0.00000  24.85733
Lengths:  25.20006  25.20006  25.20006  Average:  24.85733  24.85733  24.85733
Angles:   90.00000  90.00000  90.00000  Average:  90.00000  90.00000  90.00000
Rectangular boundary conditions

net charge:   0.00000000

component 0 (CO2) lambda:  0 occupancy:  0 (0.000000)
    net charge:   0.00000000 [e]

Amount of molecules per component :
-------------------------------------------------------------------------------
Component 0 (CO2)
    molecules:      2.240000e+02 molecules  (2.142271e+02 +/- 0.000000e+00)
    number density: 1.399727e-02 molec./A^3 (1.394264e-02 +/- 0.000000e+00)
    density:        1.022664e+03 kg/m^3     (1.018673e+03 +/- 0.000000e+00)

Average pressure tensor: 
-------------------------------------------------------------------------------
 5.0810e+01  5.2409e+01  1.5066e+01 +/- 0.0000e+00 0.0000e+00 0.0000e+00 [bar]
 5.2409e+01  1.1572e+02 -1.1658e+01 +/- 0.0000e+00 0.0000e+00 0.0000e+00 [bar]
 1.5066e+01 -1.1658e+01 -3.4805e+01 +/- 0.0000e+00 0.0000e+00 0.0000e+00 [bar]
Ideal-gas pressure:   5.004978e+02 +/ 0.000000e+00 [bar]
Excess pressure:     -4.565908e+02 +/ 0.000000e+00 [bar]
Pressure:             4.390700e+01 +/ 0.000000e+00 [bar]

Total potential energy/kʙ  -3.334892e+05 (-3.121560e+05 +/- 0.000000e+00) [K]
-------------------------------------------------------------------------------
ExternalField-molecule
    Van der Waals/kʙ        0.000000e+00 ( 0.000000e+00 +/- 0.000000e+00) [K]
Framework-molecule
    Van der Waals/kʙ        0.000000e+00 ( 0.000000e+00 +/- 0.000000e+00) [K]
    Van der Waals (Tail)/kʙ 0.000000e+00 ( 0.000000e+00 +/- 0.000000e+00) [K]
    Coulombic Real/kʙ       0.000000e+00 ( 0.000000e+00 +/- 0.000000e+00) [K]
    Coulombic Fourier/kʙ    0.000000e+00 ( 0.000000e+00 +/- 0.000000e+00) [K]
Molecule-molecule
    Van der Waals/kʙ       -2.422352e+05 (-2.276053e+05 +/- 0.000000e+00) [K]
    Van der Waals (Tail)/kʙ-5.822741e+03 (-5.542398e+03 +/- 0.000000e+00) [K]
    Coulombic Real/kʙ      -7.796587e+04 (-7.207302e+04 +/- 0.000000e+00) [K]
    Coulombic Fourier/kʙ   -7.465393e+03 (-6.935281e+03 +/- 0.000000e+00) [K]
    Molecule Intra/kʙ       0.000000e+00 ( 0.000000e+00 +/- 0.000000e+00) [K]

Current cycle: 1200 out of 6000
===============================================================================

Box:      24.82302   0.00000   0.00000  Average:  24.86990   0.00000   0.00000
           0.00000  24.82302   0.00000             0.00000  24.86990   0.00000
           0.00000   0.00000  24.82302             0.00000   0.00000  24.86990
Lengths:  24.82302  24.82302  24.82302  Average:  24.86990  24.86990  24.86990
Angles:   90.00000  90.00000  90.00000  Average:  90.00000  90.00000  90.00000
Rectangular boundary conditions

net charge:   0.00000000

component 0 (CO2) lambda:  0 occupancy:  0 (0.000000)
    net charge:   0.00000000 [e]

Amount of molecules per component :
-------------------------------------------------------------------------------
Component 0 (CO2)
    molecules:      2.170000e+02 molecules  (2.149334e+02 +/- 0.000000e+00)
    number density: 1.418718e-02 molec./A^3 (1.396724e-02 +/- 0.000000e+00)
    density:        1.036540e+03 kg/m^3     (1.020470e+03 +/- 0.000000e+00)

Average pressure tensor: 
-------------------------------------------------------------------------------
 5.1594e+01  4.2684e+01  1.6583e+01 +/- 0.0000e+00 0.0000e+00 0.0000e+00 [bar]
 4.2684e+01  1.0901e+02 -1.7841e+00 +/- 0.0000e+00 0.0000e+00 0.0000e+00 [bar]
 1.6583e+01 -1.7841e+00 -3.6189e+01 +/- 0.0000e+00 0.0000e+00 0.0000e+00 [bar]
Ideal-gas pressure:   5.013807e+02 +/ 0.000000e+00 [bar]
Excess pressure:     -4.599090e+02 +/ 0.000000e+00 [bar]
Pressure:             4.147162e+01 +/ 0.000000e+00 [bar]

Total potential energy/kʙ  -3.237955e+05 (-3.141139e+05 +/- 0.000000e+00) [K]
-------------------------------------------------------------------------------
ExternalField-molecule
    Van der Waals/kʙ        0.000000e+00 ( 0.000000e+00 +/- 0.000000e+00) [K]
Framework-molecule
    Van der Waals/kʙ        0.000000e+00 ( 0.000000e+00 +/- 0.000000e+00) [K]
    Van der Waals (Tail)/kʙ 0.000000e+00 ( 0.000000e+00 +/- 0.000000e+00) [K]
    Coulombic Real/kʙ       0.000000e+00 ( 0.000000e+00 +/- 0.000000e+00) [K]
    Coulombic Fourier/kʙ    0.000000e+00 ( 0.000000e+00 +/- 0.000000e+00) [K]
Molecule-molecule
    Van der Waals/kʙ       -2.377787e+05 (-2.290260e+05 +/- 0.000000e+00) [K]
    Van der Waals (Tail)/kʙ-5.717314e+03 (-5.573349e+03 +/- 0.000000e+00) [K]
    Coulombic Real/kʙ      -7.259043e+04 (-7.253063e+04 +/- 0.000000e+00) [K]
    Coulombic Fourier/kʙ   -7.709103e+03 (-6.983908e+03 +/- 0.000000e+00) [K]
    Molecule Intra/kʙ       0.000000e+00 ( 0.000000e+00 +/- 0.000000e+00) [K]

Current cycle: 1300 out of 6000
===============================================================================

Box:      25.25820   0.00000   0.00000  Average:  24.89320   0.00000   0.00000
           0.00000  25.25820   0.00000             0.00000  24.89320   0.00000
           0.00000   0.00000  25.25820             0.00000   0.00000  24.89320
Lengths:  25.25820  25.25820  25.25820  Average:  24.89320  24.89320  24.89320
Angles:   90.00000  90.00000  90.00000  Average:  90.00000  90.00000  90.00000
Rectangular boundary conditions

net charge:   0.00000000

component 0 (CO2) lambda:  0 occupancy:  0 (0.000000)
    net charge:   0.00000000 [e]

Amount of molecules per component :
-------------------------------------------------------------------------------
Component 0 (CO2)
    molecules:      2.210000e+02 molecules  (2.153198e+02 +/- 0.000000e+00)
    number density: 1.371466e-02 molec./A^3 (1.395367e-02 +/- 0.000000e+00)
    density:        1.002016e+03 kg/m^3     (1.019479e+03 +/- 0.000000e+00)

Average pressure tensor: 
-------------------------------------------------------------------------------
 4.6008e+01  2.4408e+01  2.4117e+01 +/- 0.0000e+00 0.0000e+00 0.0000e+00 [bar]
 2.4408e+01  9.4566e+01  2.7718e-01 +/- 0.0000e+00 0.0000e+00 0.0000e+00 [bar]
 2.4117e+01  2.7718e-01 -3.7870e+01 +/- 0.0000e+00 0.0000e+00 0.0000e+00 [bar]
Ideal-gas pressure:   5.008936e+02 +/ 0.000000e+00 [bar]
Excess pressure:     -4.666589e+02 +/ 0.000000e+00 [bar]
Pressure:             3.423473e+01 +/ 0.000000e+00 [bar]

Total potential energy/kʙ  -3.151806e+05 (-3.142404e+05 +/- 0.000000e+00) [K]
-------------------------------------------------------------------------------
ExternalField-molecule
    Van der Waals/kʙ        0.000000e+00 ( 0.000000e+00 +/- 0.000000e+00) [K]
Framework-molecule
    Van der Waals/kʙ        0.000000e+00 ( 0.000000e+00 +/- 0.000000e+00) [K]
    Van der Waals (Tail)/kʙ 0.000000e+00 ( 0.000000e+00 +/- 0.000000e+00) [K]
    Coulombic Real/kʙ       0.000000e+00 ( 0.000000e+00 +/- 0.000000e+00) [K]
    Coulombic Fourier/kʙ    0.000000e+00 ( 0.000000e+00 +/- 0.000000e+00) [K]
Molecule-molecule
    Van der Waals/kʙ       -2.275091e+05 (-2.292396e+05 +/- 0.000000e+00) [K]
    Van der Waals (Tail)/kʙ-5.628769e+03 (-5.577157e+03 +/- 0.000000e+00) [K]
    Coulombic Real/kʙ      -7.513055e+04 (-7.243832e+04 +/- 0.000000e+00) [K]
    Coulombic Fourier/kʙ   -6.912178e+03 (-6.985367e+03 +/- 0.000000e+00) [K]
    Molecule Intra/kʙ       0.000000e+00 ( 0.000000e+00 +/- 0.000000e+00) [K]

Current cycle: 1400 out of 6000
===============================================================================

Box:      25.42628   0.00000   0.00000  Average:  24.92910   0.00000   0.00000
           0.00000  25.42628   0.00000             0.00000  24.92910   0.00000
           0.00000   0.00000  25.42628             0.00000   0.00000  24.92910
Lengths:  25.42628  25.42628  25.42628  Average:  24.92910  24.92910  24.92910
Angles:   90.00000  90.00000  90.00000  Average:  90.00000  90.00000  90.00000
Rectangular boundary conditions

net charge:   0.00000000

component 0 (CO2) lambda:  0 occupancy:  0 (0.000000)
    net charge:   0.00000000 [e]

Amount of molecules per component :
-------------------------------------------------------------------------------
Component 0 (CO2)
    molecules:      2.240000e+02 molecules  (2.159572e+02 +/- 0.000000e+00)
    number density: 1.362698e-02 molec./A^3 (1.393500e-02 +/- 0.000000e+00)
    density:        9.956106e+02 kg/m^3     (1.018115e+03 +/- 0.000000e+00)

Average pressure tensor: 
-------------------------------------------------------------------------------
 6.3459e+01  1.8266e+01  3.3539e+01 +/- 0.0000e+00 0.0000e+00 0.0000e+00 [bar]
 1.8266e+01  8.5750e+01  5.2312e+00 +/- 0.0000e+00 0.0000e+00 0.0000e+00 [bar]
 3.3539e+01  5.2312e+00 -4.0172e+01 +/- 0.0000e+00 0.0000e+00 0.0000e+00 [bar]
Ideal-gas pressure:   5.002233e+02 +/ 0.000000e+00 [bar]
Excess pressure:     -4.638776e+02 +/ 0.000000e+00 [bar]
Pressure:             3.634571e+01 +/ 0.000000e+00 [bar]

Total potential energy/kʙ  -3.127644e+05 (-3.147677e+05 +/- 0.000000e+00) [K]
-------------------------------------------------------------------------------
ExternalField-molecule
    Van der Waals/kʙ        0.000000e+00 ( 0.000000e+00 +/- 0.000000e+00) [K]
Framework-molecule
    Van der Waals/kʙ        0.000000e+00 ( 0.000000e+00 +/- 0.000000e+00) [K]
    Van der Waals (Tail)/kʙ 0.000000e+00 ( 0.000000e+00 +/- 0.000000e+00) [K]
    Coulombic Real/kʙ       0.000000e+00 ( 0.000000e+00 +/- 0.000000e+00) [K]
    Coulombic Fourier/kʙ    0.000000e+00 ( 0.000000e+00 +/- 0.000000e+00) [K]
Molecule-molecule
    Van der Waals/kʙ       -2.282270e+05 (-2.294218e+05 +/- 0.000000e+00) [K]
    Van der Waals (Tail)/kʙ-5.668705e+03 (-5.585163e+03 +/- 0.000000e+00) [K]
    Coulombic Real/kʙ      -7.179455e+04 (-7.275779e+04 +/- 0.000000e+00) [K]
    Coulombic Fourier/kʙ   -7.074178e+03 (-7.002951e+03 +/- 0.000000e+00) [K]
    Molecule Intra/kʙ       0.000000e+00 ( 0.000000e+00 +/- 0.000000e+00) [K]

Current cycle: 1500 out of 6000
===============================================================================

Box:      25.23670   0.00000   0.00000  Average:  24.95326   0.00000   0.00000
           0.00000  25.23670   0.00000             0.00000  24.95326   0.00000
           0.00000   0.00000  25.23670             0.00000   0.00000  24.95326
[...]
    number density: 1.340249e-02 molec./A^3 (1.369293e-02 +/- 2.288336e-04)
    density:        9.792086e+02 kg/m^3     (1.000429e+03 +/- 1.671897e+01)

Average pressure tensor: 
-------------------------------------------------------------------------------
 3.6278e+01  1.7742e+01  6.6851e+00 +/- 2.4451e+01 5.4158e+01 5.2860e+01 [bar]
 1.7742e+01  4.5461e+01 -9.5189e+00 +/- 5.4158e+01 5.9881e+01 3.0392e+01 [bar]
 6.6851e+00 -9.5189e+00 -1.1946e+01 +/- 5.2860e+01 3.0392e+01 4.5098e+01 [bar]
Ideal-gas pressure:   4.915338e+02 +/ 8.214417e+00 [bar]
Excess pressure:     -4.682696e+02 +/ 1.930862e+01 [bar]
Pressure:             2.326418e+01 +/ 2.193343e+01 [bar]

Total potential energy/kʙ  -3.120283e+05 (-3.109137e+05 +/- 3.818399e+03) [K]
-------------------------------------------------------------------------------
ExternalField-molecule
    Van der Waals/kʙ        0.000000e+00 ( 0.000000e+00 +/- 0.000000e+00) [K]
Framework-molecule
    Van der Waals/kʙ        0.000000e+00 ( 0.000000e+00 +/- 0.000000e+00) [K]
    Van der Waals (Tail)/kʙ 0.000000e+00 ( 0.000000e+00 +/- 0.000000e+00) [K]
    Coulombic Real/kʙ       0.000000e+00 ( 0.000000e+00 +/- 0.000000e+00) [K]
    Coulombic Fourier/kʙ    0.000000e+00 ( 0.000000e+00 +/- 0.000000e+00) [K]
Molecule-molecule
    Van der Waals/kʙ       -2.328679e+05 (-2.277050e+05 +/- 2.001452e+03) [K]
    Van der Waals (Tail)/kʙ-5.600207e+03 (-5.549016e+03 +/- 4.470967e+01) [K]
    Coulombic Real/kʙ      -6.696442e+04 (-7.064902e+04 +/- 1.866549e+03) [K]
    Coulombic Fourier/kʙ   -6.595765e+03 (-7.010671e+03 +/- 7.850555e+01) [K]
    Molecule Intra/kʙ       0.000000e+00 ( 0.000000e+00 +/- 0.000000e+00) [K]

Current cycle: 5800 out of 6000
===============================================================================

Box:      25.53686   0.00000   0.00000  Average:  25.17228   0.00000   0.00000
           0.00000  25.53686   0.00000             0.00000  25.17228   0.00000
           0.00000   0.00000  25.53686             0.00000   0.00000  25.17228
Lengths:  25.53686  25.53686  25.53686  Average:  25.17228  25.17228  25.17228
Angles:   90.00000  90.00000  90.00000  Average:  90.00000  90.00000  90.00000
Rectangular boundary conditions

net charge:   0.00000000

component 0 (CO2) lambda:  0 occupancy:  0 (0.000000)
    net charge:   0.00000000 [e]

Amount of molecules per component :
-------------------------------------------------------------------------------
Component 0 (CO2)
    molecules:      2.180000e+02 molecules  (2.182801e+02 +/- 4.142216e+00)
    number density: 1.309044e-02 molec./A^3 (1.368695e-02 +/- 2.306577e-04)
    density:        9.564096e+02 kg/m^3     (9.999922e+02 +/- 1.685224e+01)

Average pressure tensor: 
-------------------------------------------------------------------------------
 3.5386e+01  1.7357e+01  7.9026e+00 +/- 2.5336e+01 5.4137e+01 4.6408e+01 [bar]
 1.7357e+01  4.3429e+01 -8.8619e+00 +/- 5.4137e+01 6.1963e+01 2.6307e+01 [bar]
 7.9026e+00 -8.8619e+00 -1.3322e+01 +/- 4.6408e+01 2.6307e+01 3.8238e+01 [bar]
Ideal-gas pressure:   4.913193e+02 +/ 8.279897e+00 [bar]
Excess pressure:     -4.694883e+02 +/ 1.964553e+01 [bar]
Pressure:             2.183103e+01 +/ 2.245059e+01 [bar]

Total potential energy/kʙ  -2.985164e+05 (-3.108150e+05 +/- 3.820177e+03) [K]
-------------------------------------------------------------------------------
ExternalField-molecule
    Van der Waals/kʙ        0.000000e+00 ( 0.000000e+00 +/- 0.000000e+00) [K]
Framework-molecule
    Van der Waals/kʙ        0.000000e+00 ( 0.000000e+00 +/- 0.000000e+00) [K]
    Van der Waals (Tail)/kʙ 0.000000e+00 ( 0.000000e+00 +/- 0.000000e+00) [K]
    Coulombic Real/kʙ       0.000000e+00 ( 0.000000e+00 +/- 0.000000e+00) [K]
    Coulombic Fourier/kʙ    0.000000e+00 ( 0.000000e+00 +/- 0.000000e+00) [K]
Molecule-molecule
    Van der Waals/kʙ       -2.169755e+05 (-2.276247e+05 +/- 2.007506e+03) [K]
    Van der Waals (Tail)/kʙ-5.299645e+03 (-5.547436e+03 +/- 4.387116e+01) [K]
    Coulombic Real/kʙ      -6.873832e+04 (-7.062295e+04 +/- 1.868744e+03) [K]
    Coulombic Fourier/kʙ   -7.503003e+03 (-7.019992e+03 +/- 9.790859e+01) [K]
    Molecule Intra/kʙ       0.000000e+00 ( 0.000000e+00 +/- 0.000000e+00) [K]

Current cycle: 5900 out of 6000
===============================================================================

Box:      25.51328   0.00000   0.00000  Average:  25.17715   0.00000   0.00000
           0.00000  25.51328   0.00000             0.00000  25.17715   0.00000
           0.00000   0.00000  25.51328             0.00000   0.00000  25.17715
Lengths:  25.51328  25.51328  25.51328  Average:  25.17715  25.17715  25.17715
Angles:   90.00000  90.00000  90.00000  Average:  90.00000  90.00000  90.00000
Rectangular boundary conditions

net charge:   0.00000000

component 0 (CO2) lambda:  0 occupancy:  0 (0.000000)
    net charge:   0.00000000 [e]

Amount of molecules per component :
-------------------------------------------------------------------------------
Component 0 (CO2)
    molecules:      2.190000e+02 molecules  (2.182801e+02 +/- 4.141068e+00)
    number density: 1.318698e-02 molec./A^3 (1.367919e-02 +/- 2.344364e-04)
    density:        9.634632e+02 kg/m^3     (9.994249e+02 +/- 1.712833e+01)

Average pressure tensor: 
-------------------------------------------------------------------------------
 3.8564e+01  1.7985e+01  7.7260e+00 +/- 2.2395e+01 5.4174e+01 4.4582e+01 [bar]
 1.7985e+01  4.5072e+01 -7.4189e+00 +/- 5.4174e+01 5.8090e+01 2.1120e+01 [bar]
 7.7260e+00 -7.4189e+00 -1.1631e+01 +/- 4.4582e+01 2.1120e+01 4.0417e+01 [bar]
Ideal-gas pressure:   4.910406e+02 +/ 8.415544e+00 [bar]
Excess pressure:     -4.670389e+02 +/ 1.970287e+01 [bar]
Pressure:             2.400163e+01 +/ 2.202693e+01 [bar]

Total potential energy/kʙ  -2.979530e+05 (-3.105823e+05 +/- 3.911251e+03) [K]
-------------------------------------------------------------------------------
ExternalField-molecule
    Van der Waals/kʙ        0.000000e+00 ( 0.000000e+00 +/- 0.000000e+00) [K]
Framework-molecule
    Van der Waals/kʙ        0.000000e+00 ( 0.000000e+00 +/- 0.000000e+00) [K]
    Van der Waals (Tail)/kʙ 0.000000e+00 ( 0.000000e+00 +/- 0.000000e+00) [K]
    Coulombic Real/kʙ       0.000000e+00 ( 0.000000e+00 +/- 0.000000e+00) [K]
    Coulombic Fourier/kʙ    0.000000e+00 ( 0.000000e+00 +/- 0.000000e+00) [K]
Molecule-molecule
    Van der Waals/kʙ       -2.228214e+05 (-2.274539e+05 +/- 2.108740e+03) [K]
    Van der Waals (Tail)/kʙ-5.363220e+03 (-5.544307e+03 +/- 4.416027e+01) [K]
    Coulombic Real/kʙ      -6.258287e+04 (-7.056739e+04 +/- 1.882978e+03) [K]
    Coulombic Fourier/kʙ   -7.185513e+03 (-7.016647e+03 +/- 8.513701e+01) [K]
    Molecule Intra/kʙ       0.000000e+00 ( 0.000000e+00 +/- 0.000000e+00) [K]


Energy statistics             |  Energy [K]   | Recomputed [K]|  Drift [K]    |
===============================================================================
Total potential energy/kʙ     | -3.119818e+05 | -3.119818e+05 |  4.200466e-10 |
    external field VDW/kʙ     |  0.000000e+00 |  0.000000e+00 |  0.000000e+00 |
    external field Real/kʙ    |  0.000000e+00 |  0.000000e+00 |  0.000000e+00 |
    framework-molecule VDW/kʙ |  0.000000e+00 |  0.000000e+00 |  0.000000e+00 |
    framework-molecule Real/kʙ|  0.000000e+00 |  0.000000e+00 |  0.000000e+00 |
    molecule-molecule VDW/kʙ  | -2.291981e+05 | -2.291981e+05 |  3.850427e-10 |
    molecule-molecule Real/kʙ | -7.071555e+04 | -7.071555e+04 |  5.250583e-11 |
    Van der Waals (Tail)/kʙ   | -5.539791e+03 | -5.539791e+03 |  0.000000e+00 |
    Ewald Fourier/kʙ          |  6.408865e+03 |  6.408865e+03 | -1.750194e-11 |
    Ewald self/kʙ             | -4.040692e+06 | -4.040692e+06 |  0.000000e+00 |
    Ewald exclusion/kʙ        |  4.027755e+06 |  4.027755e+06 |  0.000000e+00 |
    intra VDW/kʙ              |  0.000000e+00 |  0.000000e+00 |  0.000000e+00 |
    intra Coulombic/kʙ        |  0.000000e+00 |  0.000000e+00 |  0.000000e+00 |
    polarization/kʙ           |  0.000000e+00 |  0.000000e+00 |  0.000000e+00 |
    dU/dlambda VDW/kʙ         |  0.000000e+00 |  0.000000e+00 |  0.000000e+00 |
    dU/dlambda Real/kʙ        |  0.000000e+00 |  0.000000e+00 |  0.000000e+00 |
    dU/dlambda Ewald/kʙ       |  0.000000e+00 |  0.000000e+00 |  0.000000e+00 |
-------------------------------------------------------------------------------


Monte-Carlo moves statistics
===============================================================================

    Gibbs volume         all:                3052
    Gibbs volume         total:              5996
    Gibbs volume         constructed:        5996
    Gibbs volume         accepted:           3905
    Gibbs volume         fraction:       0.651268
    Gibbs volume         max-change:     0.033323

Component 0 [CO2]
    Reinsertion (CBMC)   all:              150022
    Reinsertion (CBMC)   total:            150022
    Reinsertion (CBMC)   constructed:      140845
    Reinsertion (CBMC)   accepted:           4743
    Reinsertion (CBMC)   fraction:       0.031615
    Reinsertion (CBMC)   max-change:     0.000000

    Gibbs swap (CBMC)    all:              297995
    Gibbs swap (CBMC)    total:            597792
    Gibbs swap (CBMC)    constructed:      578682
    Gibbs swap (CBMC)    accepted:          58043
    Gibbs swap (CBMC)    fraction:       0.097096
    Gibbs swap (CBMC)    max-change:     0.000000

    Translation          all:              149104
    Translation          total:             49679      49885      49540
    Translation          constructed:       49679      49402      49540
    Translation          accepted:          33897      16844      28645
    Translation          fraction:       0.682320   0.337657   0.578220
    Translation          max-change:     0.523209   0.832357   0.651550

    Rotation             all:              149536
    Rotation             total:             50237      49919      49380
    Rotation             constructed:       50186      49919      49380
    Rotation             accepted:          19663      32136      26396
    Rotation             fraction:       0.391405   0.643763   0.534548
    Rotation             max-change:     0.849026   0.583480   0.715392



Production run counting of the MC moves summed over systems and components
===============================================================================

Reinsertion (CBMC)                   299454 (19.9636 [%])
Gibbs volume                           5996 (0.3997 [%])
Gibbs swap (CBMC)                    597792 (39.8528 [%])
Translation                          297952 (19.8635 [%])
Rotation                             298806 (19.9204 [%])

Production count MC-steps:          1500000 [-]
               All summed:          1500000 [-]
               difference:                0 [-]


Production run CPU timings of the MC moves
===============================================================================

Component 0 CO2

Rotation                             21.833742 [s]
    Ewald                             5.295485 [s]
    ExternalField-Molecule            0.007870 [s]
    Framework-Molecule                0.008205 [s]
    Molecule-Molecule                16.059062 [s]
    Overhead                          0.463120 [s]

Reinsertion (CBMC)                  121.764287 [s]
    Ewald                             5.090940 [s]
    NonEwald                        116.539357 [s]
    Overhead                          0.133990 [s]

Translation                          21.782835 [s]
    Ewald                             5.220119 [s]
    ExternalField-Molecule            0.007943 [s]
    Framework-Molecule                0.012547 [s]
    Molecule-Molecule                16.068508 [s]
    Overhead                          0.473718 [s]



Gibbs swap (CBMC)                   166.270479 [s]
    Ewald                            15.815071 [s]
    NonEwald                        148.621832 [s]
    Tail                              1.223611 [s]

Gibbs volume                         25.446202 [s]
    Ewald                             5.288130 [s]
    NonEwald                         19.252556 [s]
    Tail                              0.747102 [s]

Property sampling                     0.328886 [s]
Energy/pressure sampling:             9.412567 [s]


Production run CPU timings of the MC moves summed over systems and components
===============================================================================


Translation                          28.844027 [s]
    Ewald                            10.402066 [s]
    ExternalField-Molecule            0.015911 [s]
    Framework-Molecule                0.025121 [s]
    Molecule-Molecule                17.366558 [s]
    Overhead                          1.034371 [s]

Rotation                             28.900066 [s]
    Ewald                            10.496811 [s]
    ExternalField-Molecule            0.015752 [s]
    Framework-Molecule                0.016396 [s]
    Molecule-Molecule                17.351354 [s]
    Overhead                          1.019753 [s]

Reinsertion (CBMC)                  141.458564 [s]
    Ewald                            10.361969 [s]
    NonEwald                        130.537406 [s]
    Overhead                          0.559189 [s]

Gibbs volume                         50.019358 [s]
    Ewald                            10.363742 [s]
    NonEwald                         37.886086 [s]
    Tail                              1.462314 [s]
    Overhead                          0.307216 [s]

Gibbs swap (CBMC)                   349.724481 [s]
    Ewald                            32.805661 [s]
    NonEwald                        312.575632 [s]
    Tail                              3.069687 [s]
    Overhead                          1.273501 [s]

Property sampling:                    0.634745 [s]
Energy/pressure sampling:            10.051503 [s]

Production simulation time:         610.609634 [s]
                All summed:         609.632744 [s]
                  Overhead:           0.976890 [s]


Initalization simulation time:      195.621561 [s]
Equilibration simulation time:        0.000000 [s]
Production simulation time:         610.609634 [s]
Total simulation time:              806.231195 [s]


Energy averages and statistics:
===============================================================================

Framework-molecule energy:
-------------------------------------------------------------------------------



Framework-molecule energy contributions per energy type:
-------------------------------------------------------------------------------



Inter-molecular energy:
-------------------------------------------------------------------------------

    Inter-molecular energy/kʙ 0-0 [CO2-CO2]:
    ---------------------------------------------------------------------------
        Block[  0] -3.140332e+05
        Block[  1] -3.138412e+05
        Block[  2] -3.074878e+05
        Block[  3] -3.081289e+05
        Block[  4] -3.085511e+05
        -----------------------------------------------------------------------
        Average  -3.104085e+05 +/-  4.027538e+03 [K]



Inter-molecular energy contributions per energy type:
-------------------------------------------------------------------------------

    Van der Waals energy/kʙ 0-0 [CO2-CO2]:
    ---------------------------------------------------------------------------
        Block[  0] -2.289531e+05
        Block[  1] -2.295791e+05
        Block[  2] -2.263424e+05
        Block[  3] -2.258468e+05
        Block[  4] -2.260688e+05
        -----------------------------------------------------------------------
        Average  -2.273580e+05 +/-  2.190642e+03 [K]

    VDW Tail-Correction energy/kʙ 0-0 [CO2-CO2]:
    ---------------------------------------------------------------------------
        Block[  0] -5.572150e+03
        Block[  1] -5.589426e+03
        Block[  2] -5.505758e+03
        Block[  3] -5.518138e+03
        Block[  4] -5.527224e+03
        -----------------------------------------------------------------------
        Average  -5.542539e+03 +/-  4.501063e+01 [K]

    Coulomb Real energy/kʙ 0-0 [CO2-CO2]:
    ---------------------------------------------------------------------------
        Block[  0] -7.253013e+04
        Block[  1] -7.160937e+04
        Block[  2] -6.869878e+04
        Block[  3] -6.976716e+04
        Block[  4] -6.987929e+04
        -----------------------------------------------------------------------
        Average  -7.049695e+04 +/-  1.915119e+03 [K]

    Coulomb Fourier energy/kʙ 0-0 [CO2-CO2]:
    ---------------------------------------------------------------------------
        Block[  0] -6.977864e+03
        Block[  1] -7.063338e+03
        Block[  2] -6.940891e+03
        Block[  3] -6.996771e+03
        Block[  4] -7.075875e+03
        -----------------------------------------------------------------------
        Average  -7.010948e+03 +/-  7.121857e+01 [K]


Total energy/kʙ
-------------------------------------------------------------------------------
    Block[  0] -3.140332e+05
    Block[  1] -3.138412e+05
    Block[  2] -3.074878e+05
    Block[  3] -3.081289e+05
    Block[  4] -3.085511e+05
    ---------------------------------------------------------------------------
    Average  -3.104085e+05 +/-  4.027538e+03 [K]

Pressure averages and statistics:
===============================================================================

Average pressure tensor: 
-------------------------------------------------------------------------------
 3.9006e+01  1.9520e+01  7.3499e+00 +/- 2.2341e+01 5.4482e+01 4.3577e+01 [bar]
 1.9520e+01  4.6822e+01 -7.3106e+00 +/- 5.4482e+01 5.5298e+01 1.9949e+01 [bar]
 7.3499e+00 -7.3106e+00 -1.0035e+01 +/- 4.3577e+01 1.9949e+01 4.2219e+01 [bar]

    Block[  0]  5.013741e+07
    Block[  1]  4.835916e+07
    Block[  2]  4.934958e+07
    Block[  3]  4.882517e+07
    Block[  4]  4.874287e+07
    ---------------------------------------------------------------------------
    Ideal gas pressure   4.908284e+07 +/-  5.137658e-02 [Pa]
                         4.908284e+02 +/-  8.531288e+00 [bar]


    Block[  0] -4.599379e+07
    Block[  1] -4.779723e+07
    Block[  2] -4.878071e+07
    Block[  3] -4.477249e+07
    Block[  4] -4.543792e+07
    ---------------------------------------------------------------------------
    Excess pressure  -4.655643e+07 +/-  2.080805e+06 [Pa]
                     -4.655643e+02 +/-  2.080805e+01 [bar]


    Block[  0]  4.143617e+06
    Block[  1]  5.619320e+05
    Block[  2]  5.688614e+05
    Block[  3]  4.052686e+06
    Block[  4]  3.304947e+06
    ---------------------------------------------------------------------------
    Pressure average   2.526409e+06 +/-  2.258833e+06 [Pa]
                       2.526409e+01 +/-  2.258833e+01 [bar]


Enthalpy of adsorption
===============================================================================

Component 0 [CO2]
-------------------------------------------------------------------------------
    Block[  0] -2.197082e+03
    Block[  1] -2.563423e+03
    Block[  2] -2.473372e+03
    Block[  3] -2.267606e+03
    Block[  4] -1.790243e+03
    ---------------------------------------------------------------------------
    Enthalpy of adsorption: -2.258345e+03 +/-  3.736103e+02 [K]
                            -1.877693e+01 +/-  3.106370e+00 [kJ/mol]
    Warning: need to subtract the ideal-gas energy.


Densities
===============================================================================

Component 0 (CO2)
    Block[  0] 214.93166666666667
    Block[  1] 223.41916666666668
    Block[  2] 215.7191666666667
    Block[  3] 218.73583333333335
    Block[  4] 218.62166666666667
    -----------------------------------------------------------------------
    Density average   2.182855e+02 +/-  4.141016e+00 [molecules]
    Density average   1.367328e-02 +/-  2.376608e-04 [molec/A^3]
    Density average   9.989930e+02 +/-  1.736390e+01 [kg.m⁻³]

