Compiler and run-time data
===============================================================================
RASPA 3.0.4

Random seed: 2223732001

Compiled as a 64-bits application
Compiler: gcc Ubuntu Clang 18.1.3 (1ubuntu1)
Compile Date = Mar 15 2025, Compile Time = 19:39:45

2025-06-02 12:44:41.153298
Simulation started on Mon, Jun 02
The start time was 12:44:00

Hostname:    c061
OS type:     Linux on x86_64
OS release:  6.8.0-58-generic
OS version:  #60-Ubuntu SMP PREEMPT_DYNAMIC Fri Mar 14 18:29:48 UTC 2025


Mutual consistent basic set of units:
===============================================================================

Unit of temperature: 1 [K]
Unit of length:      1e-10 [m]
Unit of time:        1e-12 [s]
Unit of mass:        1.6605402e-27 [kg]
Unit of charge:      1.60217733e-19 [C/particle]


Boltzmann constant (internal units):          0.8314464919307584 [-]
represents conversion from energy (internal units) to temperature (in Kelvin)

Derived units and their conversion factors:
===============================================================================

Unit of energy:                           1.6605402000000002e-23 [J]
Unit of energy:                           10.000008872307538 [J.mol⁻¹]
Unit of velocity:                         100 [m.s⁻¹]
Unit of force:                            1.6605402000000002e-13 [N]
Unit of diffusion:                        1.0000000000000002e-08 [m².s⁻¹]
Unit of acceleration:                     1.0000000000000002e-08 [m².s⁻¹]
Unit of torque:                           1.6605402000000002e-23 [N.m]
Unit of pressure:                         16605402 [Pa]
Unit of volume:                           1e-30 [m³]
Unit of density:                          1660.5402 [kg.m⁻³]
Unit of dynamic viscosity:                1.6605401999999997e-05 [N.s.m⁻²]
Unit of enthalpy:                         1.6605402000000002e-23 [J]
Unit of polarizability:                   1.5458657349975198e-35 [-]
Unit of Coulomb potential:                167101.08000665612 [K]
Unit of dielectric constant:              1.5458657349975193e-05 [s².C².kg⁻¹.m⁻³]
Unit of dipole moment:                    1.60217733e-29 [C.m]
Unit of Debye:                            4.803206799099162 [C.m]
Unit of electric potential:               0.00010364272224473431 [V]
Unit of electric field:                   1036427.222447343 [V.m⁻¹]
Unit of isothermal compressibility:       6.02213665167516e-08 [Pa⁻¹]
Unit of heat capacity:                    10.000008872307538 [J.mol⁻¹.K⁻¹]
Unit of volumetric expansion coefficient: 1 [K⁻¹]


Internal conversion factors:
===============================================================================

Energy (internal units) to Kelvin:      1.202724284692786 [-]
Kelvin to energy (internal units):      0.8314457542157567 [-]


System definitions
===============================================================================

Temperature:          250 [K]
Beta:                 0.0048108928702210625 [-]
Pressure:             1e+07 [Pa]
Helium void fraction: 1 [-]

Box:      30.00000   0.00000   0.00000
           0.00000  30.00000   0.00000
           0.00000   0.00000  30.00000
Lengths:  30.00000  30.00000  30.00000
Angles:   90.00000  90.00000  90.00000
Rectangular boundary conditions



Property measurement settings
===============================================================================




Pseudo-atoms
===============================================================================

  0 - C_co2    framework-atom: false
  1 - O_co2    framework-atom: false

  0 - C_co2    mass: 12.00000, charge:  0.70000
  1 - O_co2    mass: 15.99940, charge: -0.35000

  0 - C_co2    polarizability:  0.00000
  1 - O_co2    polarizability:  0.00000

  0 - J. J. Potoff et al., AIChE J. 2001, 47, 1676–1682.
  1 - J. J. Potoff et al., AIChE J. 2001, 47, 1676–1682.

Force field status
===============================================================================

Cutoff Framework-Molecule VDW:  12.00000 [Å]
Cutoff Molecule-Molecule VDW:   12.00000 [Å]
Cutoff Coulomb:                 12.00000 [Å]

Overlap-criteria VDW:           1.000000e+05 [K]

C_co2    - C_co2    Lennard-Jones p₀/kʙ:  27.00000 [K], p₁:  2.80000 [Å]
                                  shift:   0.00000 [K], tailcorrections: true
C_co2    - O_co2    Lennard-Jones p₀/kʙ:  46.18441 [K], p₁:  2.92500 [Å]
                                  shift:   0.00000 [K], tailcorrections: true
O_co2    - O_co2    Lennard-Jones p₀/kʙ:  79.00000 [K], p₁:  3.05000 [Å]
                                  shift:   0.00000 [K], tailcorrections: true

Ewald precision: 1e-06
Ewald alpha: 0.26505830360350674
Ewald k-vectors: 8 8 8


Component definitions
===============================================================================

Component 0 [CO2]

    Type: Adsorbate

    Critical temperature:  304.1282 [K]
    Critical pressure:     7377300 [Pa]
    Acentric factor:       0.22394 [-]

    Mol-fraction:                 1 [-]
    Swappable:                   false

    Mass:                         43.9988 [-]
    Bulk fluid density:           0 [-]
    Compressibility:              0 [-]
    Excess molecules:             0 [-]

    Number Of Atoms:    3
    CBMC starting bead: 0
      0: O_co2  position  0.00000 -0.00000  1.16000, charge -0.35000
      1: C_co2  position  0.00000 -0.00000  0.00000, charge  0.70000
      2: O_co2  position  0.00000 -0.00000 -1.16000, charge -0.35000
    Diagonalized inertia-vector:      43.05758528 43.05758528 0.00000000
    Translational degrees of freedom: 3
    Rotational degrees of freedom:    2
    Shape of the molecule is: 'Linear'
    Net-charge:        0.00000000 [e]

    Move probabilities:
    Translation:                   0.331126 [-]
    Random translation:            0.000000 [-]
    Rotation:                      0.331126 [-]
    Random rotation:               0.000000 [-]
    Volume change:                 0.006623 [-]
    Reinsertion (CBMC):            0.331126 [-]
    Identity change (CBMC):        0.000000 [-]
    Swap:                          0.000000 [-]
    Swap (CBMC):                   0.000000 [-]
    Swap (CFCMC):                  0.000000 [-]
    Swap (CB/CFCMC):               0.000000 [-]
    Gibbs volume:                  0.000000 [-]
    Gibbs swap (CBMC):             0.000000 [-]
    Gibbs swap (CFCMC):            0.000000 [-]
    Widom:                         0.000000 [-]
    Widom (CFCMC):                 0.000000 [-]
    Widom (CB/CFCMC):              0.000000 [-]
    Parallel tempering:            0.000000 [-]
    Hybrid MC:                     0.000000 [-]

    number of blocking-pockets: 0

    number of bonds: 0





Number of pseudo-atoms
===============================================================================

Component   0 (CO2)
-------------------------------------------------------------------------------
    index   0 (C_co2): 200 atoms
    index   1 (O_co2): 400 atoms

Total number of pseudo-atoms:
-------------------------------------------------------------------------------
    index   0 (C_co2): 200 atoms
    index   1 (O_co2): 400 atoms




Energy status Recomputed from scratch
===============================================================================

Total potential energy/kʙ       -6.015558e+04 [K]
    external field VDW/kʙ        0.000000e+00 [K]
    external field Real/kʙ       0.000000e+00 [K]
    framework-molecule VDW/kʙ    0.000000e+00 [K]
    framework-molecule Real/kʙ   0.000000e+00 [K]
    molecule-molecule VDW/kʙ    -3.563205e+04 [K]
    molecule-molecule Real/kʙ   -2.089570e+04 [K]
    Van der Waals (Tail)/kʙ     -2.751265e+03 [K]
    Ewald Fourier/kʙ             1.088457e+04 [K]
    Ewald self/kʙ               -3.673356e+06 [K]
    Ewald exclusion/kʙ           3.661595e+06 [K]
    intra VDW/kʙ                 0.000000e+00 [K]
    intra Coulombic/kʙ           0.000000e+00 [K]
    polarization/kʙ              0.000000e+00 [K]
    dU/dlambda VDW/kʙ            0.000000e+00 [K]
    dU/dlambda Real/kʙ           0.000000e+00 [K]
    dU/dlambda Ewald/kʙ          0.000000e+00 [K]





Initialization: Current cycle: 0 out of 1000
===============================================================================

Box:      30.00000   0.00000   0.00000
           0.00000  30.00000   0.00000
           0.00000   0.00000  30.00000
Lengths:  30.00000  30.00000  30.00000
Angles:   90.00000  90.00000  90.00000
Rectangular boundary conditions

net charge:   0.00000000

component   0 (CO2) lambda:  0 occupancy:  1 (1.000000)
    net charge:   0.00000000 [e]

Amount of molecules per component :
-------------------------------------------------------------------------------
Component 0 (CO2)
    molecules:         2.000000e+02 molecules
    number density:    7.407407e-03 molec/A^3
    density:           5.411979e+02 kg/m^3

Total potential energy/kʙ       -6.838605e+04 [K]
-------------------------------------------------------------------------------
    external field VDW/kʙ        0.000000e+00 [K]
    external field Real/kʙ       0.000000e+00 [K]
    framework-molecule VDW/kʙ    0.000000e+00 [K]
    framework-molecule Real/kʙ   0.000000e+00 [K]
    molecule-molecule VDW/kʙ    -3.789016e+04 [K]
    molecule-molecule Real/kʙ   -2.617208e+04 [K]
    Van der Waals (Tail)/kʙ     -2.751265e+03 [K]
    Ewald Fourier/kʙ             1.018858e+04 [K]
    Ewald self/kʙ               -3.673356e+06 [K]
    Ewald exclusion/kʙ           3.661595e+06 [K]
    intra VDW/kʙ                 0.000000e+00 [K]
    intra Coulombic/kʙ           0.000000e+00 [K]
    polarization/kʙ              0.000000e+00 [K]
    dU/dlambda VDW/kʙ            0.000000e+00 [K]
    dU/dlambda Real/kʙ           0.000000e+00 [K]
    dU/dlambda Ewald/kʙ          0.000000e+00 [K]


Initialization: Current cycle: 100 out of 1000
===============================================================================

Box:      27.43120   0.00000   0.00000
           0.00000  27.43120   0.00000
           0.00000   0.00000  27.43120
Lengths:  27.43120  27.43120  27.43120
Angles:   90.00000  90.00000  90.00000
Rectangular boundary conditions

net charge:   0.00000000

component   0 (CO2) lambda:  0 occupancy:  1 (1.000000)
    net charge:   0.00000000 [e]

Amount of molecules per component :
-------------------------------------------------------------------------------
Component 0 (CO2)
    molecules:         2.000000e+02 molecules
    number density:    9.689370e-03 molec/A^3
    density:           7.079219e+02 kg/m^3

Total potential energy/kʙ       -2.154965e+05 [K]
-------------------------------------------------------------------------------
    external field VDW/kʙ        0.000000e+00 [K]
    external field Real/kʙ       0.000000e+00 [K]
    framework-molecule VDW/kʙ    0.000000e+00 [K]
    framework-molecule Real/kʙ   0.000000e+00 [K]
    molecule-molecule VDW/kʙ    -1.566638e+05 [K]
    molecule-molecule Real/kʙ   -5.125558e+04 [K]
    Van der Waals (Tail)/kʙ     -3.598833e+03 [K]
    Ewald Fourier/kʙ             7.782844e+03 [K]
    Ewald self/kʙ               -3.673356e+06 [K]
    Ewald exclusion/kʙ           3.661595e+06 [K]
    intra VDW/kʙ                 0.000000e+00 [K]
    intra Coulombic/kʙ           0.000000e+00 [K]
    polarization/kʙ              0.000000e+00 [K]
    dU/dlambda VDW/kʙ            0.000000e+00 [K]
    dU/dlambda Real/kʙ           0.000000e+00 [K]
    dU/dlambda Ewald/kʙ          0.000000e+00 [K]


Initialization: Current cycle: 200 out of 1000
===============================================================================

Box:      24.95123   0.00000   0.00000
           0.00000  24.95123   0.00000
           0.00000   0.00000  24.95123
Lengths:  24.95123  24.95123  24.95123
Angles:   90.00000  90.00000  90.00000
Rectangular boundary conditions

net charge:   0.00000000

component   0 (CO2) lambda:  0 occupancy:  1 (1.000000)
    net charge:   0.00000000 [e]

Amount of molecules per component :
-------------------------------------------------------------------------------
Component 0 (CO2)
    molecules:         2.000000e+02 molecules
    number density:    1.287520e-02 molec/A^3
    density:           9.406843e+02 kg/m^3

Total potential energy/kʙ       -2.658995e+05 [K]
-------------------------------------------------------------------------------
    external field VDW/kʙ        0.000000e+00 [K]
    external field Real/kʙ       0.000000e+00 [K]
    framework-molecule VDW/kʙ    0.000000e+00 [K]
    framework-molecule Real/kʙ   0.000000e+00 [K]
    molecule-molecule VDW/kʙ    -2.004090e+05 [K]
    molecule-molecule Real/kʙ   -5.494790e+04 [K]
    Van der Waals (Tail)/kʙ     -4.782118e+03 [K]
    Ewald Fourier/kʙ             6.000641e+03 [K]
    Ewald self/kʙ               -3.673356e+06 [K]
    Ewald exclusion/kʙ           3.661595e+06 [K]
    intra VDW/kʙ                 0.000000e+00 [K]
    intra Coulombic/kʙ           0.000000e+00 [K]
    polarization/kʙ              0.000000e+00 [K]
    dU/dlambda VDW/kʙ            0.000000e+00 [K]
    dU/dlambda Real/kʙ           0.000000e+00 [K]
    dU/dlambda Ewald/kʙ          0.000000e+00 [K]


Initialization: Current cycle: 300 out of 1000
===============================================================================

Box:      24.08704   0.00000   0.00000
           0.00000  24.08704   0.00000
           0.00000   0.00000  24.08704
Lengths:  24.08704  24.08704  24.08704
Angles:   90.00000  90.00000  90.00000
Rectangular boundary conditions

net charge:   0.00000000

component   0 (CO2) lambda:  0 occupancy:  1 (1.000000)
    net charge:   0.00000000 [e]

Amount of molecules per component :
-------------------------------------------------------------------------------
Component 0 (CO2)
    molecules:         2.000000e+02 molecules
    number density:    1.431133e-02 molec/A^3
    density:           1.045610e+03 kg/m^3

Total potential energy/kʙ       -2.957131e+05 [K]
-------------------------------------------------------------------------------
    external field VDW/kʙ        0.000000e+00 [K]
    external field Real/kʙ       0.000000e+00 [K]
    framework-molecule VDW/kʙ    0.000000e+00 [K]
    framework-molecule Real/kʙ   0.000000e+00 [K]
    molecule-molecule VDW/kʙ    -2.158756e+05 [K]
    molecule-molecule Real/kʙ   -6.786981e+04 [K]
    Van der Waals (Tail)/kʙ     -5.315524e+03 [K]
    Ewald Fourier/kʙ             5.108975e+03 [K]
    Ewald self/kʙ               -3.673356e+06 [K]
    Ewald exclusion/kʙ           3.661595e+06 [K]
    intra VDW/kʙ                 0.000000e+00 [K]
    intra Coulombic/kʙ           0.000000e+00 [K]
    polarization/kʙ              0.000000e+00 [K]
    dU/dlambda VDW/kʙ            0.000000e+00 [K]
    dU/dlambda Real/kʙ           0.000000e+00 [K]
    dU/dlambda Ewald/kʙ          0.000000e+00 [K]


Initialization: Current cycle: 400 out of 1000
===============================================================================

Box:      23.83971   0.00000   0.00000
           0.00000  23.83971   0.00000
           0.00000   0.00000  23.83971
Lengths:  23.83971  23.83971  23.83971
Angles:   90.00000  90.00000  90.00000
Rectangular boundary conditions

net charge:   0.00000000

component   0 (CO2) lambda:  0 occupancy:  1 (1.000000)
    net charge:   0.00000000 [e]

Amount of molecules per component :
-------------------------------------------------------------------------------
Component 0 (CO2)
    molecules:         2.000000e+02 molecules
    number density:    1.476138e-02 molec/A^3
    density:           1.078492e+03 kg/m^3

Total potential energy/kʙ       -3.138843e+05 [K]
-------------------------------------------------------------------------------
    external field VDW/kʙ        0.000000e+00 [K]
    external field Real/kʙ       0.000000e+00 [K]
    framework-molecule VDW/kʙ    0.000000e+00 [K]
    framework-molecule Real/kʙ   0.000000e+00 [K]
    molecule-molecule VDW/kʙ    -2.306083e+05 [K]
    molecule-molecule Real/kʙ   -7.087290e+04 [K]
    Van der Waals (Tail)/kʙ     -5.482684e+03 [K]
    Ewald Fourier/kʙ             4.840727e+03 [K]
    Ewald self/kʙ               -3.673356e+06 [K]
    Ewald exclusion/kʙ           3.661595e+06 [K]
    intra VDW/kʙ                 0.000000e+00 [K]
    intra Coulombic/kʙ           0.000000e+00 [K]
    polarization/kʙ              0.000000e+00 [K]
    dU/dlambda VDW/kʙ            0.000000e+00 [K]
    dU/dlambda Real/kʙ           0.000000e+00 [K]
    dU/dlambda Ewald/kʙ          0.000000e+00 [K]


Initialization: Current cycle: 500 out of 1000
===============================================================================

Box:      23.91206   0.00000   0.00000
           0.00000  23.91206   0.00000
           0.00000   0.00000  23.91206
Lengths:  23.91206  23.91206  23.91206
Angles:   90.00000  90.00000  90.00000
Rectangular boundary conditions

net charge:   0.00000000

component   0 (CO2) lambda:  0 occupancy:  1 (1.000000)
    net charge:   0.00000000 [e]

Amount of molecules per component :
-------------------------------------------------------------------------------
Component 0 (CO2)
    molecules:         2.000000e+02 molecules
    number density:    1.462780e-02 molec/A^3
    density:           1.068732e+03 kg/m^3

Total potential energy/kʙ       -3.015441e+05 [K]
-------------------------------------------------------------------------------
    external field VDW/kʙ        0.000000e+00 [K]
    external field Real/kʙ       0.000000e+00 [K]
    framework-molecule VDW/kʙ    0.000000e+00 [K]
    framework-molecule Real/kʙ   0.000000e+00 [K]
    molecule-molecule VDW/kʙ    -2.168073e+05 [K]
    molecule-molecule Real/kʙ   -7.278506e+04 [K]
    Van der Waals (Tail)/kʙ     -5.433068e+03 [K]
    Ewald Fourier/kʙ             5.242516e+03 [K]
    Ewald self/kʙ               -3.673356e+06 [K]
    Ewald exclusion/kʙ           3.661595e+06 [K]
    intra VDW/kʙ                 0.000000e+00 [K]
    intra Coulombic/kʙ           0.000000e+00 [K]
    polarization/kʙ              0.000000e+00 [K]
    dU/dlambda VDW/kʙ            0.000000e+00 [K]
    dU/dlambda Real/kʙ           0.000000e+00 [K]
    dU/dlambda Ewald/kʙ          0.000000e+00 [K]


Initialization: Current cycle: 600 out of 1000
===============================================================================

Box:      23.86930   0.00000   0.00000
           0.00000  23.86930   0.00000
           0.00000   0.00000  23.86930
Lengths:  23.86930  23.86930  23.86930
Angles:   90.00000  90.00000  90.00000
Rectangular boundary conditions

net charge:   0.00000000

component   0 (CO2) lambda:  0 occupancy:  1 (1.000000)
    net charge:   0.00000000 [e]

Amount of molecules per component :
-------------------------------------------------------------------------------
Component 0 (CO2)
    molecules:         2.000000e+02 molecules
    number density:    1.470656e-02 molec/A^3
    density:           1.074487e+03 kg/m^3

Total potential energy/kʙ       -3.062890e+05 [K]
-------------------------------------------------------------------------------
    external field VDW/kʙ        0.000000e+00 [K]
    external field Real/kʙ       0.000000e+00 [K]
    framework-molecule VDW/kʙ    0.000000e+00 [K]
    framework-molecule Real/kʙ   0.000000e+00 [K]
    molecule-molecule VDW/kʙ    -2.234248e+05 [K]
    molecule-molecule Real/kʙ   -7.038265e+04 [K]
    Van der Waals (Tail)/kʙ     -5.462323e+03 [K]
    Ewald Fourier/kʙ             4.741923e+03 [K]
    Ewald self/kʙ               -3.673356e+06 [K]
    Ewald exclusion/kʙ           3.661595e+06 [K]
    intra VDW/kʙ                 0.000000e+00 [K]
    intra Coulombic/kʙ           0.000000e+00 [K]
    polarization/kʙ              0.000000e+00 [K]
    dU/dlambda VDW/kʙ            0.000000e+00 [K]
    dU/dlambda Real/kʙ           0.000000e+00 [K]
    dU/dlambda Ewald/kʙ          0.000000e+00 [K]


Initialization: Current cycle: 700 out of 1000
===============================================================================

Box:      24.00599   0.00000   0.00000
           0.00000  24.00599   0.00000
           0.00000   0.00000  24.00599
Lengths:  24.00599  24.00599  24.00599
Angles:   90.00000  90.00000  90.00000
Rectangular boundary conditions

net charge:   0.00000000

component   0 (CO2) lambda:  0 occupancy:  1 (1.000000)
    net charge:   0.00000000 [e]

Amount of molecules per component :
-------------------------------------------------------------------------------
Component 0 (CO2)
    molecules:         2.000000e+02 molecules
    number density:    1.445676e-02 molec/A^3
    density:           1.056236e+03 kg/m^3

Total potential energy/kʙ       -2.994647e+05 [K]
-------------------------------------------------------------------------------
    external field VDW/kʙ        0.000000e+00 [K]
    external field Real/kʙ       0.000000e+00 [K]
    framework-molecule VDW/kʙ    0.000000e+00 [K]
    framework-molecule Real/kʙ   0.000000e+00 [K]
    molecule-molecule VDW/kʙ    -2.190944e+05 [K]
    molecule-molecule Real/kʙ   -6.884648e+04 [K]
    Van der Waals (Tail)/kʙ     -5.369541e+03 [K]
    Ewald Fourier/kʙ             5.606861e+03 [K]
    Ewald self/kʙ               -3.673356e+06 [K]
    Ewald exclusion/kʙ           3.661595e+06 [K]
    intra VDW/kʙ                 0.000000e+00 [K]
    intra Coulombic/kʙ           0.000000e+00 [K]
    polarization/kʙ              0.000000e+00 [K]
    dU/dlambda VDW/kʙ            0.000000e+00 [K]
    dU/dlambda Real/kʙ           0.000000e+00 [K]
    dU/dlambda Ewald/kʙ          0.000000e+00 [K]


Initialization: Current cycle: 800 out of 1000
===============================================================================

Box:      23.90920   0.00000   0.00000
           0.00000  23.90920   0.00000
           0.00000   0.00000  23.90920
Lengths:  23.90920  23.90920  23.90920
Angles:   90.00000  90.00000  90.00000
Rectangular boundary conditions

net charge:   0.00000000

component   0 (CO2) lambda:  0 occupancy:  1 (1.000000)
    net charge:   0.00000000 [e]

Amount of molecules per component :
-------------------------------------------------------------------------------
Component 0 (CO2)
    molecules:         2.000000e+02 molecules
    number density:    1.463305e-02 molec/A^3
    density:           1.069115e+03 kg/m^3

Total potential energy/kʙ       -3.154048e+05 [K]
-------------------------------------------------------------------------------
    external field VDW/kʙ        0.000000e+00 [K]
    external field Real/kʙ       0.000000e+00 [K]
    framework-molecule VDW/kʙ    0.000000e+00 [K]
    framework-molecule Real/kʙ   0.000000e+00 [K]
    molecule-molecule VDW/kʙ    -2.236805e+05 [K]
    molecule-molecule Real/kʙ   -7.921535e+04 [K]
    Van der Waals (Tail)/kʙ     -5.435017e+03 [K]
    Ewald Fourier/kʙ             4.687228e+03 [K]
    Ewald self/kʙ               -3.673356e+06 [K]
    Ewald exclusion/kʙ           3.661595e+06 [K]
    intra VDW/kʙ                 0.000000e+00 [K]
    intra Coulombic/kʙ           0.000000e+00 [K]
    polarization/kʙ              0.000000e+00 [K]
    dU/dlambda VDW/kʙ            0.000000e+00 [K]
    dU/dlambda Real/kʙ           0.000000e+00 [K]
    dU/dlambda Ewald/kʙ          0.000000e+00 [K]


Initialization: Current cycle: 900 out of 1000
===============================================================================

Box:      23.82527   0.00000   0.00000
           0.00000  23.82527   0.00000
           0.00000   0.00000  23.82527
Lengths:  23.82527  23.82527  23.82527
Angles:   90.00000  90.00000  90.00000
Rectangular boundary conditions

net charge:   0.00000000

component   0 (CO2) lambda:  0 occupancy:  1 (1.000000)
    net charge:   0.00000000 [e]

Amount of molecules per component :
-------------------------------------------------------------------------------
Component 0 (CO2)
    molecules:         2.000000e+02 molecules
    number density:    1.478824e-02 molec/A^3
    density:           1.080454e+03 kg/m^3

Total potential energy/kʙ       -3.069062e+05 [K]
-------------------------------------------------------------------------------
    external field VDW/kʙ        0.000000e+00 [K]
    external field Real/kʙ       0.000000e+00 [K]
    framework-molecule VDW/kʙ    0.000000e+00 [K]
    framework-molecule Real/kʙ   0.000000e+00 [K]
    molecule-molecule VDW/kʙ    -2.217517e+05 [K]
    molecule-molecule Real/kʙ   -7.237279e+04 [K]
    Van der Waals (Tail)/kʙ     -5.492660e+03 [K]
    Ewald Fourier/kʙ             4.472079e+03 [K]
    Ewald self/kʙ               -3.673356e+06 [K]
    Ewald exclusion/kʙ           3.661595e+06 [K]
    intra VDW/kʙ                 0.000000e+00 [K]
    intra Coulombic/kʙ           0.000000e+00 [K]
    polarization/kʙ              0.000000e+00 [K]
    dU/dlambda VDW/kʙ            0.000000e+00 [K]
    dU/dlambda Real/kʙ           0.000000e+00 [K]
    dU/dlambda Ewald/kʙ          0.000000e+00 [K]


Current cycle: 0 out of 5000
===============================================================================

Box:      23.80871   0.00000   0.00000  Average:  23.80871   0.00000   0.00000
           0.00000  23.80871   0.00000             0.00000  23.80871   0.00000
           0.00000   0.00000  23.80871             0.00000   0.00000  23.80871
Lengths:  23.80871  23.80871  23.80871  Average:  23.80871  23.80871  23.80871
Angles:   90.00000  90.00000  90.00000  Average:  90.00000  90.00000  90.00000
Rectangular boundary conditions

net charge:   0.00000000

component 0 (CO2) lambda:  0 occupancy:  1 (1.000000)
    net charge:   0.00000000 [e]

Amount of molecules per component :
-------------------------------------------------------------------------------
Component 0 (CO2)
    molecules:      2.000000e+02 molecules  (2.000000e+02 +/- 0.000000e+00)
    number density: 1.481911e-02 molec./A^3 (1.481911e-02 +/- 0.000000e+00)
    density:        1.082710e+03 kg/m^3     (1.082710e+03 +/- 0.000000e+00)

Average pressure tensor: 
-------------------------------------------------------------------------------
 5.1150e+02  0.0000e+00  0.0000e+00 +/- 0.0000e+00 0.0000e+00 0.0000e+00 [bar]
 0.0000e+00  5.1150e+02  0.0000e+00 +/- 0.0000e+00 0.0000e+00 0.0000e+00 [bar]
 0.0000e+00  0.0000e+00  5.1150e+02 +/- 0.0000e+00 0.0000e+00 0.0000e+00 [bar]
Ideal-gas pressure:   5.115003e+02 +/ 0.000000e+00 [bar]
Excess pressure:      0.000000e+00 +/ 0.000000e+00 [bar]
Pressure:             5.115003e+02 +/ 0.000000e+00 [bar]

Total potential energy/kʙ  -3.221914e+05 (-3.221914e+05 +/- 0.000000e+00) [K]
-------------------------------------------------------------------------------
ExternalField-molecule
    Van der Waals/kʙ        0.000000e+00 ( 0.000000e+00 +/- 0.000000e+00) [K]
Framework-molecule
    Van der Waals/kʙ        0.000000e+00 ( 0.000000e+00 +/- 0.000000e+00) [K]
    Van der Waals (Tail)/kʙ 0.000000e+00 ( 0.000000e+00 +/- 0.000000e+00) [K]
    Coulombic Real/kʙ       0.000000e+00 ( 0.000000e+00 +/- 0.000000e+00) [K]
    Coulombic Fourier/kʙ    0.000000e+00 ( 0.000000e+00 +/- 0.000000e+00) [K]
Molecule-molecule
    Van der Waals/kʙ       -2.274624e+05 (-2.274624e+05 +/- 0.000000e+00) [K]
    Van der Waals (Tail)/kʙ-5.504126e+03 (-5.504126e+03 +/- 0.000000e+00) [K]
    Coulombic Real/kʙ      -8.198798e+04 (-8.198798e+04 +/- 0.000000e+00) [K]
    Coulombic Fourier/kʙ   -7.236939e+03 (-7.236939e+03 +/- 0.000000e+00) [K]
    Molecule Intra/kʙ       0.000000e+00 ( 0.000000e+00 +/- 0.000000e+00) [K]

Current cycle: 100 out of 5000
===============================================================================

Box:      23.70079   0.00000   0.00000  Average:  23.75120   0.00000   0.00000
           0.00000  23.70079   0.00000             0.00000  23.75120   0.00000
           0.00000   0.00000  23.70079             0.00000   0.00000  23.75120
Lengths:  23.70079  23.70079  23.70079  Average:  23.75120  23.75120  23.75120
Angles:   90.00000  90.00000  90.00000  Average:  90.00000  90.00000  90.00000
Rectangular boundary conditions

net charge:   0.00000000

component 0 (CO2) lambda:  0 occupancy:  1 (1.000000)
    net charge:   0.00000000 [e]

Amount of molecules per component :
-------------------------------------------------------------------------------
Component 0 (CO2)
    molecules:      2.000000e+02 molecules  (2.000000e+02 +/- 0.000000e+00)
    number density: 1.502247e-02 molec./A^3 (1.492858e-02 +/- 0.000000e+00)
    density:        1.097567e+03 kg/m^3     (1.090708e+03 +/- 0.000000e+00)

Average pressure tensor: 
-------------------------------------------------------------------------------
 3.4763e+00  1.2135e+02  1.6697e+02 +/- 0.0000e+00 0.0000e+00 0.0000e+00 [bar]
 1.2135e+02 -1.1414e+02  8.4019e+01 +/- 0.0000e+00 0.0000e+00 0.0000e+00 [bar]
 1.6697e+02  8.4019e+01  2.6878e+01 +/- 0.0000e+00 0.0000e+00 0.0000e+00 [bar]
Ideal-gas pressure:   5.152789e+02 +/ 0.000000e+00 [bar]
Excess pressure:     -5.432087e+02 +/ 0.000000e+00 [bar]
Pressure:            -2.792983e+01 +/ 0.000000e+00 [bar]

Total potential energy/kʙ  -3.155305e+05 (-3.215017e+05 +/- 0.000000e+00) [K]
-------------------------------------------------------------------------------
ExternalField-molecule
    Van der Waals/kʙ        0.000000e+00 ( 0.000000e+00 +/- 0.000000e+00) [K]
Framework-molecule
    Van der Waals/kʙ        0.000000e+00 ( 0.000000e+00 +/- 0.000000e+00) [K]
    Van der Waals (Tail)/kʙ 0.000000e+00 ( 0.000000e+00 +/- 0.000000e+00) [K]
    Coulombic Real/kʙ       0.000000e+00 ( 0.000000e+00 +/- 0.000000e+00) [K]
    Coulombic Fourier/kʙ    0.000000e+00 ( 0.000000e+00 +/- 0.000000e+00) [K]
Molecule-molecule
    Van der Waals/kʙ       -2.293386e+05 (-2.320437e+05 +/- 0.000000e+00) [K]
    Van der Waals (Tail)/kʙ-5.579657e+03 (-5.533743e+03 +/- 0.000000e+00) [K]
    Coulombic Real/kʙ      -7.443586e+04 (-7.696753e+04 +/- 0.000000e+00) [K]
    Coulombic Fourier/kʙ   -6.176316e+03 (-6.956812e+03 +/- 0.000000e+00) [K]
    Molecule Intra/kʙ       0.000000e+00 ( 0.000000e+00 +/- 0.000000e+00) [K]

Current cycle: 200 out of 5000
===============================================================================

Box:      23.78749   0.00000   0.00000  Average:  23.78904   0.00000   0.00000
           0.00000  23.78749   0.00000             0.00000  23.78904   0.00000
           0.00000   0.00000  23.78749             0.00000   0.00000  23.78904
Lengths:  23.78749  23.78749  23.78749  Average:  23.78904  23.78904  23.78904
Angles:   90.00000  90.00000  90.00000  Average:  90.00000  90.00000  90.00000
Rectangular boundary conditions

net charge:   0.00000000

component 0 (CO2) lambda:  0 occupancy:  1 (1.000000)
    net charge:   0.00000000 [e]

Amount of molecules per component :
-------------------------------------------------------------------------------
Component 0 (CO2)
    molecules:      2.000000e+02 molecules  (2.000000e+02 +/- 0.000000e+00)
    number density: 1.485882e-02 molec./A^3 (1.485741e-02 +/- 0.000000e+00)
    density:        1.085611e+03 kg/m^3     (1.085508e+03 +/- 0.000000e+00)

Average pressure tensor: 
-------------------------------------------------------------------------------
 7.3074e+01  1.2266e+02  8.6174e+01 +/- 0.0000e+00 0.0000e+00 0.0000e+00 [bar]
 1.2266e+02 -1.0153e+02  6.4564e+01 +/- 0.0000e+00 0.0000e+00 0.0000e+00 [bar]
 8.6174e+01  6.4564e+01  9.1178e+01 +/- 0.0000e+00 0.0000e+00 0.0000e+00 [bar]
Ideal-gas pressure:   5.128223e+02 +/ 0.000000e+00 [bar]
Excess pressure:     -4.919167e+02 +/ 0.000000e+00 [bar]
Pressure:             2.090558e+01 +/ 0.000000e+00 [bar]

Total potential energy/kʙ  -3.163989e+05 (-3.181064e+05 +/- 0.000000e+00) [K]
-------------------------------------------------------------------------------
ExternalField-molecule
    Van der Waals/kʙ        0.000000e+00 ( 0.000000e+00 +/- 0.000000e+00) [K]
Framework-molecule
    Van der Waals/kʙ        0.000000e+00 ( 0.000000e+00 +/- 0.000000e+00) [K]
    Van der Waals (Tail)/kʙ 0.000000e+00 ( 0.000000e+00 +/- 0.000000e+00) [K]
    Coulombic Real/kʙ       0.000000e+00 ( 0.000000e+00 +/- 0.000000e+00) [K]
    Coulombic Fourier/kʙ    0.000000e+00 ( 0.000000e+00 +/- 0.000000e+00) [K]
Molecule-molecule
    Van der Waals/kʙ       -2.255030e+05 (-2.295782e+05 +/- 0.000000e+00) [K]
    Van der Waals (Tail)/kʙ-5.518873e+03 (-5.511103e+03 +/- 0.000000e+00) [K]
    Coulombic Real/kʙ      -7.875230e+04 (-7.624921e+04 +/- 0.000000e+00) [K]
    Coulombic Fourier/kʙ   -6.624685e+03 (-6.767892e+03 +/- 0.000000e+00) [K]
    Molecule Intra/kʙ       0.000000e+00 ( 0.000000e+00 +/- 0.000000e+00) [K]

Current cycle: 300 out of 5000
===============================================================================

Box:      24.01934   0.00000   0.00000  Average:  23.86407   0.00000   0.00000
           0.00000  24.01934   0.00000             0.00000  23.86407   0.00000
           0.00000   0.00000  24.01934             0.00000   0.00000  23.86407
Lengths:  24.01934  24.01934  24.01934  Average:  23.86407  23.86407  23.86407
Angles:   90.00000  90.00000  90.00000  Average:  90.00000  90.00000  90.00000
Rectangular boundary conditions

net charge:   0.00000000

component 0 (CO2) lambda:  0 occupancy:  1 (1.000000)
    net charge:   0.00000000 [e]

Amount of molecules per component :
-------------------------------------------------------------------------------
Component 0 (CO2)
    molecules:      2.000000e+02 molecules  (2.000000e+02 +/- 0.000000e+00)
    number density: 1.443268e-02 molec./A^3 (1.471955e-02 +/- 0.000000e+00)
    density:        1.054476e+03 kg/m^3     (1.075436e+03 +/- 0.000000e+00)

Average pressure tensor: 
-------------------------------------------------------------------------------
 1.3221e+02  9.5635e+01  9.0795e+01 +/- 0.0000e+00 0.0000e+00 0.0000e+00 [bar]
 9.5635e+01  3.7446e+00  5.5070e+01 +/- 0.0000e+00 0.0000e+00 0.0000e+00 [bar]
 9.0795e+01  5.5070e+01  1.0067e+02 +/- 0.0000e+00 0.0000e+00 0.0000e+00 [bar]
Ideal-gas pressure:   5.080638e+02 +/ 0.000000e+00 [bar]
Excess pressure:     -4.291889e+02 +/ 0.000000e+00 [bar]
Pressure:             7.887495e+01 +/ 0.000000e+00 [bar]

Total potential energy/kʙ  -3.046086e+05 (-3.140677e+05 +/- 0.000000e+00) [K]
-------------------------------------------------------------------------------
ExternalField-molecule
    Van der Waals/kʙ        0.000000e+00 ( 0.000000e+00 +/- 0.000000e+00) [K]
Framework-molecule
    Van der Waals/kʙ        0.000000e+00 ( 0.000000e+00 +/- 0.000000e+00) [K]
    Van der Waals (Tail)/kʙ 0.000000e+00 ( 0.000000e+00 +/- 0.000000e+00) [K]
    Coulombic Real/kʙ       0.000000e+00 ( 0.000000e+00 +/- 0.000000e+00) [K]
    Coulombic Fourier/kʙ    0.000000e+00 ( 0.000000e+00 +/- 0.000000e+00) [K]
Molecule-molecule
    Van der Waals/kʙ       -2.149351e+05 (-2.264022e+05 +/- 0.000000e+00) [K]
    Van der Waals (Tail)/kʙ-5.360597e+03 (-5.462975e+03 +/- 0.000000e+00) [K]
    Coulombic Real/kʙ      -7.728341e+04 (-7.541532e+04 +/- 0.000000e+00) [K]
    Coulombic Fourier/kʙ   -7.029562e+03 (-6.787241e+03 +/- 0.000000e+00) [K]
    Molecule Intra/kʙ       0.000000e+00 ( 0.000000e+00 +/- 0.000000e+00) [K]

Current cycle: 400 out of 5000
===============================================================================

Box:      23.95038   0.00000   0.00000  Average:  23.89842   0.00000   0.00000
           0.00000  23.95038   0.00000             0.00000  23.89842   0.00000
           0.00000   0.00000  23.95038             0.00000   0.00000  23.89842
Lengths:  23.95038  23.95038  23.95038  Average:  23.89842  23.89842  23.89842
Angles:   90.00000  90.00000  90.00000  Average:  90.00000  90.00000  90.00000
Rectangular boundary conditions

net charge:   0.00000000

component 0 (CO2) lambda:  0 occupancy:  1 (1.000000)
    net charge:   0.00000000 [e]

Amount of molecules per component :
-------------------------------------------------------------------------------
Component 0 (CO2)
    molecules:      2.000000e+02 molecules  (2.000000e+02 +/- 0.000000e+00)
    number density: 1.455771e-02 molec./A^3 (1.465703e-02 +/- 0.000000e+00)
    density:        1.063611e+03 kg/m^3     (1.070867e+03 +/- 0.000000e+00)

Average pressure tensor: 
-------------------------------------------------------------------------------
 2.4190e+02  7.0366e+01  5.8547e+01 +/- 0.0000e+00 0.0000e+00 0.0000e+00 [bar]
 7.0366e+01 -4.2575e+01  8.1745e+01 +/- 0.0000e+00 0.0000e+00 0.0000e+00 [bar]
 5.8547e+01  8.1745e+01  1.1285e+02 +/- 0.0000e+00 0.0000e+00 0.0000e+00 [bar]
Ideal-gas pressure:   5.059057e+02 +/ 0.000000e+00 [bar]
Excess pressure:     -4.018467e+02 +/ 0.000000e+00 [bar]
Pressure:             1.040590e+02 +/ 0.000000e+00 [bar]

Total potential energy/kʙ  -3.115192e+05 (-3.116153e+05 +/- 0.000000e+00) [K]
-------------------------------------------------------------------------------
ExternalField-molecule
    Van der Waals/kʙ        0.000000e+00 ( 0.000000e+00 +/- 0.000000e+00) [K]
Framework-molecule
    Van der Waals/kʙ        0.000000e+00 ( 0.000000e+00 +/- 0.000000e+00) [K]
    Van der Waals (Tail)/kʙ 0.000000e+00 ( 0.000000e+00 +/- 0.000000e+00) [K]
    Coulombic Real/kʙ       0.000000e+00 ( 0.000000e+00 +/- 0.000000e+00) [K]
    Coulombic Fourier/kʙ    0.000000e+00 ( 0.000000e+00 +/- 0.000000e+00) [K]
Molecule-molecule
    Van der Waals/kʙ       -2.286273e+05 (-2.253263e+05 +/- 0.000000e+00) [K]
    Van der Waals (Tail)/kʙ-5.407034e+03 (-5.441748e+03 +/- 0.000000e+00) [K]
    Coulombic Real/kʙ      -7.056820e+04 (-7.404132e+04 +/- 0.000000e+00) [K]
    Coulombic Fourier/kʙ   -6.916666e+03 (-6.805995e+03 +/- 0.000000e+00) [K]
    Molecule Intra/kʙ       0.000000e+00 ( 0.000000e+00 +/- 0.000000e+00) [K]

Current cycle: 500 out of 5000
===============================================================================

Box:      23.41938   0.00000   0.00000  Average:  23.85917   0.00000   0.00000
           0.00000  23.41938   0.00000             0.00000  23.85917   0.00000
           0.00000   0.00000  23.41938             0.00000   0.00000  23.85917
Lengths:  23.41938  23.41938  23.41938  Average:  23.85917  23.85917  23.85917
Angles:   90.00000  90.00000  90.00000  Average:  90.00000  90.00000  90.00000
Rectangular boundary conditions

net charge:   0.00000000

component 0 (CO2) lambda:  0 occupancy:  1 (1.000000)
    net charge:   0.00000000 [e]

Amount of molecules per component :
-------------------------------------------------------------------------------
Component 0 (CO2)
    molecules:      2.000000e+02 molecules  (2.000000e+02 +/- 0.000000e+00)
    number density: 1.557054e-02 molec./A^3 (1.472990e-02 +/- 0.000000e+00)
    density:        1.137610e+03 kg/m^3     (1.076192e+03 +/- 0.000000e+00)

Average pressure tensor: 
-------------------------------------------------------------------------------
 1.8853e+02  3.4182e+01  3.7131e+01 +/- 0.0000e+00 0.0000e+00 0.0000e+00 [bar]
 3.4182e+01 -9.5178e+01  9.4629e+01 +/- 0.0000e+00 0.0000e+00 0.0000e+00 [bar]
 3.7131e+01  9.4629e+01  8.5879e+01 +/- 0.0000e+00 0.0000e+00 0.0000e+00 [bar]
Ideal-gas pressure:   5.084211e+02 +/ 0.000000e+00 [bar]
Excess pressure:     -4.486767e+02 +/ 0.000000e+00 [bar]
Pressure:             5.974448e+01 +/ 0.000000e+00 [bar]

Total potential energy/kʙ  -3.268308e+05 (-3.130196e+05 +/- 0.000000e+00) [K]
-------------------------------------------------------------------------------
ExternalField-molecule
    Van der Waals/kʙ        0.000000e+00 ( 0.000000e+00 +/- 0.000000e+00) [K]
Framework-molecule
    Van der Waals/kʙ        0.000000e+00 ( 0.000000e+00 +/- 0.000000e+00) [K]
    Van der Waals (Tail)/kʙ 0.000000e+00 ( 0.000000e+00 +/- 0.000000e+00) [K]
    Coulombic Real/kʙ       0.000000e+00 ( 0.000000e+00 +/- 0.000000e+00) [K]
    Coulombic Fourier/kʙ    0.000000e+00 ( 0.000000e+00 +/- 0.000000e+00) [K]
Molecule-molecule
    Van der Waals/kʙ       -2.325155e+05 (-2.264985e+05 +/- 0.000000e+00) [K]
    Van der Waals (Tail)/kʙ-5.783223e+03 (-5.469958e+03 +/- 0.000000e+00) [K]
    Coulombic Real/kʙ      -8.146947e+04 (-7.425859e+04 +/- 0.000000e+00) [K]
    Coulombic Fourier/kʙ   -7.062636e+03 (-6.792508e+03 +/- 0.000000e+00) [K]
    Molecule Intra/kʙ       0.000000e+00 ( 0.000000e+00 +/- 0.000000e+00) [K]

Current cycle: 600 out of 5000
===============================================================================

Box:      23.42101   0.00000   0.00000  Average:  23.80148   0.00000   0.00000
           0.00000  23.42101   0.00000             0.00000  23.80148   0.00000
           0.00000   0.00000  23.42101             0.00000   0.00000  23.80148
Lengths:  23.42101  23.42101  23.42101  Average:  23.80148  23.80148  23.80148
Angles:   90.00000  90.00000  90.00000  Average:  90.00000  90.00000  90.00000
Rectangular boundary conditions

net charge:   0.00000000

component 0 (CO2) lambda:  0 occupancy:  1 (1.000000)
    net charge:   0.00000000 [e]

Amount of molecules per component :
-------------------------------------------------------------------------------
Component 0 (CO2)
    molecules:      2.000000e+02 molecules  (2.000000e+02 +/- 0.000000e+00)
    number density: 1.556729e-02 molec./A^3 (1.483942e-02 +/- 0.000000e+00)
    density:        1.137373e+03 kg/m^3     (1.084194e+03 +/- 0.000000e+00)

Average pressure tensor: 
-------------------------------------------------------------------------------
 1.6194e+02  3.9062e+01  5.3767e+01 +/- 0.0000e+00 0.0000e+00 0.0000e+00 [bar]
 3.9062e+01 -8.5714e+01  5.5891e+01 +/- 0.0000e+00 0.0000e+00 0.0000e+00 [bar]
 5.3767e+01  5.5891e+01  6.4456e+01 +/- 0.0000e+00 0.0000e+00 0.0000e+00 [bar]
Ideal-gas pressure:   5.122013e+02 +/ 0.000000e+00 [bar]
Excess pressure:     -4.653087e+02 +/ 0.000000e+00 [bar]
Pressure:             4.689260e+01 +/ 0.000000e+00 [bar]

Total potential energy/kʙ  -3.308785e+05 (-3.155668e+05 +/- 0.000000e+00) [K]
-------------------------------------------------------------------------------
ExternalField-molecule
    Van der Waals/kʙ        0.000000e+00 ( 0.000000e+00 +/- 0.000000e+00) [K]
Framework-molecule
    Van der Waals/kʙ        0.000000e+00 ( 0.000000e+00 +/- 0.000000e+00) [K]
    Van der Waals (Tail)/kʙ 0.000000e+00 ( 0.000000e+00 +/- 0.000000e+00) [K]
    Coulombic Real/kʙ       0.000000e+00 ( 0.000000e+00 +/- 0.000000e+00) [K]
    Coulombic Fourier/kʙ    0.000000e+00 ( 0.000000e+00 +/- 0.000000e+00) [K]
Molecule-molecule
    Van der Waals/kʙ       -2.349805e+05 (-2.282297e+05 +/- 0.000000e+00) [K]
    Van der Waals (Tail)/kʙ-5.782014e+03 (-5.506562e+03 +/- 0.000000e+00) [K]
    Coulombic Real/kʙ      -8.250726e+04 (-7.496662e+04 +/- 0.000000e+00) [K]
    Coulombic Fourier/kʙ   -7.608685e+03 (-6.864014e+03 +/- 0.000000e+00) [K]
    Molecule Intra/kʙ       0.000000e+00 ( 0.000000e+00 +/- 0.000000e+00) [K]

Current cycle: 700 out of 5000
===============================================================================

Box:      23.78669   0.00000   0.00000  Average:  23.76838   0.00000   0.00000
           0.00000  23.78669   0.00000             0.00000  23.76838   0.00000
           0.00000   0.00000  23.78669             0.00000   0.00000  23.76838
Lengths:  23.78669  23.78669  23.78669  Average:  23.76838  23.76838  23.76838
Angles:   90.00000  90.00000  90.00000  Average:  90.00000  90.00000  90.00000
Rectangular boundary conditions

net charge:   0.00000000

component 0 (CO2) lambda:  0 occupancy:  1 (1.000000)
    net charge:   0.00000000 [e]

Amount of molecules per component :
-------------------------------------------------------------------------------
Component 0 (CO2)
    molecules:      2.000000e+02 molecules  (2.000000e+02 +/- 0.000000e+00)
    number density: 1.486030e-02 molec./A^3 (1.490187e-02 +/- 0.000000e+00)
    density:        1.085719e+03 kg/m^3     (1.088756e+03 +/- 0.000000e+00)

Average pressure tensor: 
-------------------------------------------------------------------------------
 1.3154e+02  6.4432e+01  5.1486e+01 +/- 0.0000e+00 0.0000e+00 0.0000e+00 [bar]
 6.4432e+01 -8.3144e+01  5.1034e+01 +/- 0.0000e+00 0.0000e+00 0.0000e+00 [bar]
 5.1486e+01  5.1034e+01  8.8188e+01 +/- 0.0000e+00 0.0000e+00 0.0000e+00 [bar]
Ideal-gas pressure:   5.143566e+02 +/ 0.000000e+00 [bar]
Excess pressure:     -4.688281e+02 +/ 0.000000e+00 [bar]
Pressure:             4.552856e+01 +/ 0.000000e+00 [bar]

Total potential energy/kʙ  -3.191393e+05 (-3.170977e+05 +/- 0.000000e+00) [K]
-------------------------------------------------------------------------------
ExternalField-molecule
    Van der Waals/kʙ        0.000000e+00 ( 0.000000e+00 +/- 0.000000e+00) [K]
Framework-molecule
    Van der Waals/kʙ        0.000000e+00 ( 0.000000e+00 +/- 0.000000e+00) [K]
    Van der Waals (Tail)/kʙ 0.000000e+00 ( 0.000000e+00 +/- 0.000000e+00) [K]
    Coulombic Real/kʙ       0.000000e+00 ( 0.000000e+00 +/- 0.000000e+00) [K]
    Coulombic Fourier/kʙ    0.000000e+00 ( 0.000000e+00 +/- 0.000000e+00) [K]
Molecule-molecule
    Van der Waals/kʙ       -2.318647e+05 (-2.291911e+05 +/- 0.000000e+00) [K]
    Van der Waals (Tail)/kʙ-5.519426e+03 (-5.525556e+03 +/- 0.000000e+00) [K]
    Coulombic Real/kʙ      -7.512307e+04 (-7.545828e+04 +/- 0.000000e+00) [K]
    Coulombic Fourier/kʙ   -6.632156e+03 (-6.922818e+03 +/- 0.000000e+00) [K]
    Molecule Intra/kʙ       0.000000e+00 ( 0.000000e+00 +/- 0.000000e+00) [K]

Current cycle: 800 out of 5000
===============================================================================

Box:      23.72367   0.00000   0.00000  Average:  23.76050   0.00000   0.00000
           0.00000  23.72367   0.00000             0.00000  23.76050   0.00000
           0.00000   0.00000  23.72367             0.00000   0.00000  23.76050
Lengths:  23.72367  23.72367  23.72367  Average:  23.76050  23.76050  23.76050
Angles:   90.00000  90.00000  90.00000  Average:  90.00000  90.00000  90.00000
Rectangular boundary conditions

net charge:   0.00000000

component 0 (CO2) lambda:  0 occupancy:  1 (1.000000)
    net charge:   0.00000000 [e]

Amount of molecules per component :
-------------------------------------------------------------------------------
Component 0 (CO2)
    molecules:      2.000000e+02 molecules  (2.000000e+02 +/- 0.000000e+00)
    number density: 1.497905e-02 molec./A^3 (1.491596e-02 +/- 0.000000e+00)
    density:        1.094395e+03 kg/m^3     (1.089785e+03 +/- 0.000000e+00)

Average pressure tensor: 
-------------------------------------------------------------------------------
 1.2561e+02  6.9228e+01  4.8994e+01 +/- 0.0000e+00 0.0000e+00 0.0000e+00 [bar]
 6.9228e+01 -7.7581e+01  4.8586e+01 +/- 0.0000e+00 0.0000e+00 0.0000e+00 [bar]
 4.8994e+01  4.8586e+01  6.8454e+01 +/- 0.0000e+00 0.0000e+00 0.0000e+00 [bar]
Ideal-gas pressure:   5.148430e+02 +/ 0.000000e+00 [bar]
Excess pressure:     -4.760152e+02 +/ 0.000000e+00 [bar]
Pressure:             3.882784e+01 +/ 0.000000e+00 [bar]

Total potential energy/kʙ  -3.163571e+05 (-3.174393e+05 +/- 0.000000e+00) [K]
-------------------------------------------------------------------------------
ExternalField-molecule
    Van der Waals/kʙ        0.000000e+00 ( 0.000000e+00 +/- 0.000000e+00) [K]
Framework-molecule
    Van der Waals/kʙ        0.000000e+00 ( 0.000000e+00 +/- 0.000000e+00) [K]
    Van der Waals (Tail)/kʙ 0.000000e+00 ( 0.000000e+00 +/- 0.000000e+00) [K]
    Coulombic Real/kʙ       0.000000e+00 ( 0.000000e+00 +/- 0.000000e+00) [K]
    Coulombic Fourier/kʙ    0.000000e+00 ( 0.000000e+00 +/- 0.000000e+00) [K]
Molecule-molecule
    Van der Waals/kʙ       -2.341654e+05 (-2.295194e+05 +/- 0.000000e+00) [K]
    Van der Waals (Tail)/kʙ-5.563530e+03 (-5.532212e+03 +/- 0.000000e+00) [K]
    Coulombic Real/kʙ      -6.938371e+04 (-7.541855e+04 +/- 0.000000e+00) [K]
    Coulombic Fourier/kʙ   -7.244443e+03 (-6.969148e+03 +/- 0.000000e+00) [K]
    Molecule Intra/kʙ       0.000000e+00 ( 0.000000e+00 +/- 0.000000e+00) [K]

Current cycle: 900 out of 5000
===============================================================================

Box:      23.82414   0.00000   0.00000  Average:  23.75985   0.00000   0.00000
           0.00000  23.82414   0.00000             0.00000  23.75985   0.00000
           0.00000   0.00000  23.82414             0.00000   0.00000  23.75985
Lengths:  23.82414  23.82414  23.82414  Average:  23.75985  23.75985  23.75985
Angles:   90.00000  90.00000  90.00000  Average:  90.00000  90.00000  90.00000
Rectangular boundary conditions

net charge:   0.00000000

component 0 (CO2) lambda:  0 occupancy:  1 (1.000000)
    net charge:   0.00000000 [e]

Amount of molecules per component :
-------------------------------------------------------------------------------
Component 0 (CO2)
    molecules:      2.000000e+02 molecules  (2.000000e+02 +/- 0.000000e+00)
    number density: 1.479034e-02 molec./A^3 (1.491672e-02 +/- 0.000000e+00)
    density:        1.080608e+03 kg/m^3     (1.089841e+03 +/- 0.000000e+00)

Average pressure tensor: 
-------------------------------------------------------------------------------
 1.4970e+02  6.8835e+01  1.9763e+01 +/- 0.0000e+00 0.0000e+00 0.0000e+00 [bar]
 6.8835e+01 -9.3985e+01  5.1354e+01 +/- 0.0000e+00 0.0000e+00 0.0000e+00 [bar]
 1.9763e+01  5.1354e+01  9.5048e+01 +/- 0.0000e+00 0.0000e+00 0.0000e+00 [bar]
Ideal-gas pressure:   5.148692e+02 +/ 0.000000e+00 [bar]
Excess pressure:     -4.646158e+02 +/ 0.000000e+00 [bar]
Pressure:             5.025345e+01 +/ 0.000000e+00 [bar]

Total potential energy/kʙ  -3.087251e+05 (-3.171388e+05 +/- 0.000000e+00) [K]
-------------------------------------------------------------------------------
ExternalField-molecule
    Van der Waals/kʙ        0.000000e+00 ( 0.000000e+00 +/- 0.000000e+00) [K]
Framework-molecule
    Van der Waals/kʙ        0.000000e+00 ( 0.000000e+00 +/- 0.000000e+00) [K]
    Van der Waals (Tail)/kʙ 0.000000e+00 ( 0.000000e+00 +/- 0.000000e+00) [K]
    Coulombic Real/kʙ       0.000000e+00 ( 0.000000e+00 +/- 0.000000e+00) [K]
    Coulombic Fourier/kʙ    0.000000e+00 ( 0.000000e+00 +/- 0.000000e+00) [K]
Molecule-molecule
    Van der Waals/kʙ       -2.257007e+05 (-2.293394e+05 +/- 0.000000e+00) [K]
    Van der Waals (Tail)/kʙ-5.493440e+03 (-5.533375e+03 +/- 0.000000e+00) [K]
    Coulombic Real/kʙ      -7.117571e+04 (-7.531680e+04 +/- 0.000000e+00) [K]
    Coulombic Fourier/kʙ   -6.355285e+03 (-6.949222e+03 +/- 0.000000e+00) [K]
    Molecule Intra/kʙ       0.000000e+00 ( 0.000000e+00 +/- 0.000000e+00) [K]

Current cycle: 1000 out of 5000
===============================================================================

Box:      24.02961   0.00000   0.00000  Average:  23.76251   0.00000   0.00000
           0.00000  24.02961   0.00000             0.00000  23.76251   0.00000
           0.00000   0.00000  24.02961             0.00000   0.00000  23.76251
Lengths:  24.02961  24.02961  24.02961  Average:  23.76251  23.76251  23.76251
Angles:   90.00000  90.00000  90.00000  Average:  90.00000  90.00000  90.00000
Rectangular boundary conditions

net charge:   0.00000000

component 0 (CO2) lambda:  0 occupancy:  1 (1.000000)
    net charge:   0.00000000 [e]

Amount of molecules per component :
-------------------------------------------------------------------------------
Component 0 (CO2)
    molecules:      2.000000e+02 molecules  (2.000000e+02 +/- 0.000000e+00)
    number density: 1.441418e-02 molec./A^3 (1.491135e-02 +/- 0.000000e+00)
    density:        1.053124e+03 kg/m^3     (1.089449e+03 +/- 0.000000e+00)

Average pressure tensor: 
-------------------------------------------------------------------------------
 1.5335e+02  5.8368e+01  5.9507e+00 +/- 0.0000e+00 0.0000e+00 0.0000e+00 [bar]
 5.8368e+01 -9.8176e+01  3.6401e+01 +/- 0.0000e+00 0.0000e+00 0.0000e+00 [bar]
 5.9507e+00  3.6401e+01  9.5845e+01 +/- 0.0000e+00 0.0000e+00 0.0000e+00 [bar]
Ideal-gas pressure:   5.146842e+02 +/ 0.000000e+00 [bar]
Excess pressure:     -4.643435e+02 +/ 0.000000e+00 [bar]
Pressure:             5.034067e+01 +/ 0.000000e+00 [bar]

Total potential energy/kʙ  -3.047429e+05 (-3.165489e+05 +/- 0.000000e+00) [K]
-------------------------------------------------------------------------------
ExternalField-molecule
    Van der Waals/kʙ        0.000000e+00 ( 0.000000e+00 +/- 0.000000e+00) [K]
Framework-molecule
    Van der Waals/kʙ        0.000000e+00 ( 0.000000e+00 +/- 0.000000e+00) [K]
    Van der Waals (Tail)/kʙ 0.000000e+00 ( 0.000000e+00 +/- 0.000000e+00) [K]
    Coulombic Real/kʙ       0.000000e+00 ( 0.000000e+00 +/- 0.000000e+00) [K]
    Coulombic Fourier/kʙ    0.000000e+00 ( 0.000000e+00 +/- 0.000000e+00) [K]
Molecule-molecule
    Van der Waals/kʙ       -2.232922e+05 (-2.291247e+05 +/- 0.000000e+00) [K]
    Van der Waals (Tail)/kʙ-5.353725e+03 (-5.529853e+03 +/- 0.000000e+00) [K]
    Coulombic Real/kʙ      -6.871186e+04 (-7.494191e+04 +/- 0.000000e+00) [K]
    Coulombic Fourier/kʙ   -7.385122e+03 (-6.952484e+03 +/- 0.000000e+00) [K]
    Molecule Intra/kʙ       0.000000e+00 ( 0.000000e+00 +/- 0.000000e+00) [K]

Current cycle: 1100 out of 5000
===============================================================================

Box:      23.74952   0.00000   0.00000  Average:  23.76653   0.00000   0.00000
           0.00000  23.74952   0.00000             0.00000  23.76653   0.00000
           0.00000   0.00000  23.74952             0.00000   0.00000  23.76653
Lengths:  23.74952  23.74952  23.74952  Average:  23.76653  23.76653  23.76653
Angles:   90.00000  90.00000  90.00000  Average:  90.00000  90.00000  90.00000
Rectangular boundary conditions

net charge:   0.00000000

component 0 (CO2) lambda:  0 occupancy:  1 (1.000000)
    net charge:   0.00000000 [e]

Amount of molecules per component :
-------------------------------------------------------------------------------
Component 0 (CO2)
    molecules:      2.000000e+02 molecules  (2.000000e+02 +/- 0.000000e+00)
    number density: 1.493020e-02 molec./A^3 (1.490342e-02 +/- 0.000000e+00)
    density:        1.090826e+03 kg/m^3     (1.088869e+03 +/- 0.000000e+00)

Average pressure tensor: 
-------------------------------------------------------------------------------
 1.2686e+02  4.6739e+01  1.4839e+01 +/- 0.0000e+00 0.0000e+00 0.0000e+00 [bar]
 4.6739e+01 -8.9052e+01  1.3474e+01 +/- 0.0000e+00 0.0000e+00 0.0000e+00 [bar]
 1.4839e+01  1.3474e+01  9.4147e+01 +/- 0.0000e+00 0.0000e+00 0.0000e+00 [bar]
Ideal-gas pressure:   5.144103e+02 +/ 0.000000e+00 [bar]
Excess pressure:     -4.704251e+02 +/ 0.000000e+00 [bar]
Pressure:             4.398517e+01 +/ 0.000000e+00 [bar]

Total potential energy/kʙ  -3.142841e+05 (-3.163623e+05 +/- 0.000000e+00) [K]
-------------------------------------------------------------------------------
ExternalField-molecule
    Van der Waals/kʙ        0.000000e+00 ( 0.000000e+00 +/- 0.000000e+00) [K]
Framework-molecule
    Van der Waals/kʙ        0.000000e+00 ( 0.000000e+00 +/- 0.000000e+00) [K]
    Van der Waals (Tail)/kʙ 0.000000e+00 ( 0.000000e+00 +/- 0.000000e+00) [K]
    Coulombic Real/kʙ       0.000000e+00 ( 0.000000e+00 +/- 0.000000e+00) [K]
    Coulombic Fourier/kʙ    0.000000e+00 ( 0.000000e+00 +/- 0.000000e+00) [K]
Molecule-molecule
    Van der Waals/kʙ       -2.268456e+05 (-2.289560e+05 +/- 0.000000e+00) [K]
    Van der Waals (Tail)/kʙ-5.545387e+03 (-5.527633e+03 +/- 0.000000e+00) [K]
    Coulombic Real/kʙ      -7.494479e+04 (-7.491654e+04 +/- 0.000000e+00) [K]
    Coulombic Fourier/kʙ   -6.948276e+03 (-6.962099e+03 +/- 0.000000e+00) [K]
    Molecule Intra/kʙ       0.000000e+00 ( 0.000000e+00 +/- 0.000000e+00) [K]

Current cycle: 1200 out of 5000
===============================================================================

Box:      23.57744   0.00000   0.00000  Average:  23.76008   0.00000   0.00000
           0.00000  23.57744   0.00000             0.00000  23.76008   0.00000
           0.00000   0.00000  23.57744             0.00000   0.00000  23.76008
Lengths:  23.57744  23.57744  23.57744  Average:  23.76008  23.76008  23.76008
Angles:   90.00000  90.00000  90.00000  Average:  90.00000  90.00000  90.00000
Rectangular boundary conditions

net charge:   0.00000000

component 0 (CO2) lambda:  0 occupancy:  1 (1.000000)
    net charge:   0.00000000 [e]

Amount of molecules per component :
-------------------------------------------------------------------------------
Component 0 (CO2)
    molecules:      2.000000e+02 molecules  (2.000000e+02 +/- 0.000000e+00)
    number density: 1.525950e-02 molec./A^3 (1.491536e-02 +/- 0.000000e+00)
    density:        1.114885e+03 kg/m^3     (1.089741e+03 +/- 0.000000e+00)

Average pressure tensor: 
-------------------------------------------------------------------------------
 1.2856e+02  3.4669e+01  1.1109e+01 +/- 0.0000e+00 0.0000e+00 0.0000e+00 [bar]
 3.4669e+01 -7.8000e+01  1.0935e+01 +/- 0.0000e+00 0.0000e+00 0.0000e+00 [bar]
 1.1109e+01  1.0935e+01  9.1458e+01 +/- 0.0000e+00 0.0000e+00 0.0000e+00 [bar]
Ideal-gas pressure:   5.148222e+02 +/ 0.000000e+00 [bar]
Excess pressure:     -4.674847e+02 +/ 0.000000e+00 [bar]
Pressure:             4.733756e+01 +/ 0.000000e+00 [bar]

Total potential energy/kʙ  -3.246171e+05 (-3.165083e+05 +/- 0.000000e+00) [K]
-------------------------------------------------------------------------------
ExternalField-molecule
    Van der Waals/kʙ        0.000000e+00 ( 0.000000e+00 +/- 0.000000e+00) [K]
Framework-molecule
    Van der Waals/kʙ        0.000000e+00 ( 0.000000e+00 +/- 0.000000e+00) [K]
    Van der Waals (Tail)/kʙ 0.000000e+00 ( 0.000000e+00 +/- 0.000000e+00) [K]
    Coulombic Real/kʙ       0.000000e+00 ( 0.000000e+00 +/- 0.000000e+00) [K]
    Coulombic Fourier/kʙ    0.000000e+00 ( 0.000000e+00 +/- 0.000000e+00) [K]
Molecule-molecule
    Van der Waals/kʙ       -2.354680e+05 (-2.292586e+05 +/- 0.000000e+00) [K]
    Van der Waals (Tail)/kʙ-5.667695e+03 (-5.533045e+03 +/- 0.000000e+00) [K]
    Coulombic Real/kʙ      -7.652212e+04 (-7.476484e+04 +/- 0.000000e+00) [K]
    Coulombic Fourier/kʙ   -6.959308e+03 (-6.951806e+03 +/- 0.000000e+00) [K]
    Molecule Intra/kʙ       0.000000e+00 ( 0.000000e+00 +/- 0.000000e+00) [K]

Current cycle: 1300 out of 5000
===============================================================================

Box:      23.51015   0.00000   0.00000  Average:  23.74262   0.00000   0.00000
           0.00000  23.51015   0.00000             0.00000  23.74262   0.00000
           0.00000   0.00000  23.51015             0.00000   0.00000  23.74262
Lengths:  23.51015  23.51015  23.51015  Average:  23.74262  23.74262  23.74262
Angles:   90.00000  90.00000  90.00000  Average:  90.00000  90.00000  90.00000
Rectangular boundary conditions

net charge:   0.00000000

component 0 (CO2) lambda:  0 occupancy:  1 (1.000000)
    net charge:   0.00000000 [e]

Amount of molecules per component :
-------------------------------------------------------------------------------
Component 0 (CO2)
    molecules:      2.000000e+02 molecules  (2.000000e+02 +/- 0.000000e+00)
    number density: 1.539088e-02 molec./A^3 (1.494855e-02 +/- 0.000000e+00)
    density:        1.124484e+03 kg/m^3     (1.092167e+03 +/- 0.000000e+00)

Average pressure tensor: 
-------------------------------------------------------------------------------
 1.4215e+02  3.9057e+01  1.4776e+01 +/- 0.0000e+00 0.0000e+00 0.0000e+00 [bar]
 3.9057e+01 -5.8592e+01  2.9403e+01 +/- 0.0000e+00 0.0000e+00 0.0000e+00 [bar]
 1.4776e+01  2.9403e+01  8.7813e+01 +/- 0.0000e+00 0.0000e+00 0.0000e+00 [bar]
Ideal-gas pressure:   5.159680e+02 +/ 0.000000e+00 [bar]
Excess pressure:     -4.588437e+02 +/ 0.000000e+00 [bar]
Pressure:             5.712436e+01 +/ 0.000000e+00 [bar]

Total potential energy/kʙ  -3.252632e+05 (-3.174637e+05 +/- 0.000000e+00) [K]
-------------------------------------------------------------------------------
ExternalField-molecule
    Van der Waals/kʙ        0.000000e+00 ( 0.000000e+00 +/- 0.000000e+00) [K]
Framework-molecule
    Van der Waals/kʙ        0.000000e+00 ( 0.000000e+00 +/- 0.000000e+00) [K]
    Van der Waals (Tail)/kʙ 0.000000e+00 ( 0.000000e+00 +/- 0.000000e+00) [K]
    Coulombic Real/kʙ       0.000000e+00 ( 0.000000e+00 +/- 0.000000e+00) [K]
    Coulombic Fourier/kʙ    0.000000e+00 ( 0.000000e+00 +/- 0.000000e+00) [K]
Molecule-molecule
    Van der Waals/kʙ       -2.318790e+05 (-2.296826e+05 +/- 0.000000e+00) [K]
    Van der Waals (Tail)/kʙ-5.716494e+03 (-5.546209e+03 +/- 0.000000e+00) [K]
    Coulombic Real/kʙ      -8.031874e+04 (-7.525412e+04 +/- 0.000000e+00) [K]
    Coulombic Fourier/kʙ   -7.349046e+03 (-6.980834e+03 +/- 0.000000e+00) [K]
    Molecule Intra/kʙ       0.000000e+00 ( 0.000000e+00 +/- 0.000000e+00) [K]

Current cycle: 1400 out of 5000
===============================================================================

Box:      24.00052   0.00000   0.00000  Average:  23.74749   0.00000   0.00000
           0.00000  24.00052   0.00000             0.00000  23.74749   0.00000
           0.00000   0.00000  24.00052             0.00000   0.00000  23.74749
Lengths:  24.00052  24.00052  24.00052  Average:  23.74749  23.74749  23.74749
Angles:   90.00000  90.00000  90.00000  Average:  90.00000  90.00000  90.00000
Rectangular boundary conditions

net charge:   0.00000000

component 0 (CO2) lambda:  0 occupancy:  1 (1.000000)
    net charge:   0.00000000 [e]

Amount of molecules per component :
-------------------------------------------------------------------------------
Component 0 (CO2)
    molecules:      2.000000e+02 molecules  (2.000000e+02 +/- 0.000000e+00)
    number density: 1.446665e-02 molec./A^3 (1.493933e-02 +/- 0.000000e+00)
    density:        1.056958e+03 kg/m^3     (1.091493e+03 +/- 0.000000e+00)

Average pressure tensor: 
-------------------------------------------------------------------------------
 1.2877e+02  3.5322e+01  1.3994e+01 +/- 0.0000e+00 0.0000e+00 0.0000e+00 [bar]
 3.5322e+01 -3.5408e+01  4.1499e+01 +/- 0.0000e+00 0.0000e+00 0.0000e+00 [bar]
 1.3994e+01  4.1499e+01  9.1345e+01 +/- 0.0000e+00 0.0000e+00 0.0000e+00 [bar]
Ideal-gas pressure:   5.156496e+02 +/ 0.000000e+00 [bar]
Excess pressure:     -4.540817e+02 +/ 0.000000e+00 [bar]
Pressure:             6.156793e+01 +/ 0.000000e+00 [bar]

Total potential energy/kʙ  -3.047659e+05 (-3.172423e+05 +/- 0.000000e+00) [K]
-------------------------------------------------------------------------------
ExternalField-molecule
    Van der Waals/kʙ        0.000000e+00 ( 0.000000e+00 +/- 0.000000e+00) [K]
Framework-molecule
    Van der Waals/kʙ        0.000000e+00 ( 0.000000e+00 +/- 0.000000e+00) [K]
    Van der Waals (Tail)/kʙ 0.000000e+00 ( 0.000000e+00 +/- 0.000000e+00) [K]
    Coulombic Real/kʙ       0.000000e+00 ( 0.000000e+00 +/- 0.000000e+00) [K]
    Coulombic Fourier/kʙ    0.000000e+00 ( 0.000000e+00 +/- 0.000000e+00) [K]
Molecule-molecule
    Van der Waals/kʙ       -2.211548e+05 (-2.294318e+05 +/- 0.000000e+00) [K]
    Van der Waals (Tail)/kʙ-5.373214e+03 (-5.542549e+03 +/- 0.000000e+00) [K]
    Coulombic Real/kʙ      -7.188324e+04 (-7.528200e+04 +/- 0.000000e+00) [K]
    Coulombic Fourier/kʙ   -6.354591e+03 (-6.985963e+03 +/- 0.000000e+00) [K]
    Molecule Intra/kʙ       0.000000e+00 ( 0.000000e+00 +/- 0.000000e+00) [K]

Current cycle: 1500 out of 5000
===============================================================================

Box:      23.82092   0.00000   0.00000  Average:  23.75161   0.00000   0.00000
           0.00000  23.82092   0.00000             0.00000  23.75161   0.00000
           0.00000   0.00000  23.82092             0.00000   0.00000  23.75161
Lengths:  23.82092  23.82092  23.82092  Average:  23.75161  23.75161  23.75161
Angles:   90.00000  90.00000  90.00000  Average:  90.00000  90.00000  90.00000
Rectangular boundary conditions

net charge:   0.00000000

component 0 (CO2) lambda:  0 occupancy:  1 (1.000000)
    net charge:   0.00000000 [e]

Amount of molecules per component :
-------------------------------------------------------------------------------
Component 0 (CO2)
    molecules:      2.000000e+02 molecules  (2.000000e+02 +/- 0.000000e+00)
    number density: 1.479634e-02 molec./A^3 (1.493134e-02 +/- 0.000000e+00)
    density:        1.081046e+03 kg/m^3     (1.090909e+03 +/- 0.000000e+00)

Average pressure tensor: 
-------------------------------------------------------------------------------
 1.2722e+02  2.8007e+01  1.8963e+01 +/- 0.0000e+00 0.0000e+00 0.0000e+00 [bar]
 2.8007e+01 -1.2424e+01  4.2674e+01 +/- 0.0000e+00 0.0000e+00 0.0000e+00 [bar]
 1.8963e+01  4.2674e+01  8.2081e+01 +/- 0.0000e+00 0.0000e+00 0.0000e+00 [bar]
Ideal-gas pressure:   5.153738e+02 +/ 0.000000e+00 [bar]
Excess pressure:     -4.497486e+02 +/ 0.000000e+00 [bar]
Pressure:             6.562517e+01 +/ 0.000000e+00 [bar]

Total potential energy/kʙ  -3.196736e+05 (-3.171689e+05 +/- 0.000000e+00) [K]
-------------------------------------------------------------------------------
ExternalField-molecule
    Van der Waals/kʙ        0.000000e+00 ( 0.000000e+00 +/- 0.000000e+00) [K]
Framework-molecule
    Van der Waals/kʙ        0.000000e+00 ( 0.000000e+00 +/- 0.000000e+00) [K]
    Van der Waals (Tail)/kʙ 0.000000e+00 ( 0.000000e+00 +/- 0.000000e+00) [K]
    Coulombic Real/kʙ       0.000000e+00 ( 0.000000e+00 +/- 0.000000e+00) [K]
    Coulombic Fourier/kʙ    0.000000e+00 ( 0.000000e+00 +/- 0.000000e+00) [K]
Molecule-molecule
    Van der Waals/kʙ       -2.260416e+05 (-2.293203e+05 +/- 0.000000e+00) [K]
    Van der Waals (Tail)/kʙ-5.495666e+03 (-5.541104e+03 +/- 0.000000e+00) [K]
    Coulombic Real/kʙ      -8.102965e+04 (-7.533315e+04 +/- 0.000000e+00) [K]
    Coulombic Fourier/kʙ   -7.106708e+03 (-6.974276e+03 +/- 0.000000e+00) [K]
    Molecule Intra/kʙ       0.000000e+00 ( 0.000000e+00 +/- 0.000000e+00) [K]

Current cycle: 1600 out of 5000
===============================================================================

Box:      23.89873   0.00000   0.00000  Average:  23.75763   0.00000   0.00000
           0.00000  23.89873   0.00000             0.00000  23.75763   0.00000
           0.00000   0.00000  23.89873             0.00000   0.00000  23.75763
Lengths:  23.89873  23.89873  23.89873  Average:  23.75763  23.75763  23.75763
Angles:   90.00000  90.00000  90.00000  Average:  90.00000  90.00000  90.00000
Rectangular boundary conditions

net charge:   0.00000000

component 0 (CO2) lambda:  0 occupancy:  1 (1.000000)
    net charge:   0.00000000 [e]

Amount of molecules per component :
-------------------------------------------------------------------------------
Component 0 (CO2)
    molecules:      2.000000e+02 molecules  (2.000000e+02 +/- 0.000000e+00)
    number density: 1.465228e-02 molec./A^3 (1.491982e-02 +/- 0.000000e+00)
    density:        1.070521e+03 kg/m^3     (1.090068e+03 +/- 0.000000e+00)

Average pressure tensor: 
-------------------------------------------------------------------------------
 1.2602e+02  2.5579e+01  9.8822e+00 +/- 0.0000e+00 0.0000e+00 0.0000e+00 [bar]
 2.5579e+01 -9.0300e-02  4.0842e+01 +/- 0.0000e+00 0.0000e+00 0.0000e+00 [bar]
 9.8822e+00  4.0842e+01  7.3279e+01 +/- 0.0000e+00 0.0000e+00 0.0000e+00 [bar]
Ideal-gas pressure:   5.149763e+02 +/ 0.000000e+00 [bar]
Excess pressure:     -4.485747e+02 +/ 0.000000e+00 [bar]
Pressure:             6.640168e+01 +/ 0.000000e+00 [bar]

Total potential energy/kʙ  -3.090665e+05 (-3.167611e+05 +/- 0.000000e+00) [K]
-------------------------------------------------------------------------------
ExternalField-molecule
    Van der Waals/kʙ        0.000000e+00 ( 0.000000e+00 +/- 0.000000e+00) [K]
Framework-molecule
    Van der Waals/kʙ        0.000000e+00 ( 0.000000e+00 +/- 0.000000e+00) [K]
    Van der Waals (Tail)/kʙ 0.000000e+00 ( 0.000000e+00 +/- 0.000000e+00) [K]
    Coulombic Real/kʙ       0.000000e+00 ( 0.000000e+00 +/- 0.000000e+00) [K]
    Coulombic Fourier/kʙ    0.000000e+00 ( 0.000000e+00 +/- 0.000000e+00) [K]
Molecule-molecule
    Van der Waals/kʙ       -2.248043e+05 (-2.291350e+05 +/- 0.000000e+00) [K]
    Van der Waals (Tail)/kʙ-5.442163e+03 (-5.537251e+03 +/- 0.000000e+00) [K]
    Coulombic Real/kʙ      -7.214029e+04 (-7.514869e+04 +/- 0.000000e+00) [K]
    Coulombic Fourier/kʙ   -6.679827e+03 (-6.940136e+03 +/- 0.000000e+00) [K]
    Molecule Intra/kʙ       0.000000e+00 ( 0.000000e+00 +/- 0.000000e+00) [K]

Current cycle: 1700 out of 5000
===============================================================================

Box:      23.95419   0.00000   0.00000  Average:  23.77430   0.00000   0.00000
           0.00000  23.95419   0.00000             0.00000  23.77430   0.00000
           0.00000   0.00000  23.95419             0.00000   0.00000  23.77430
Lengths:  23.95419  23.95419  23.95419  Average:  23.77430  23.77430  23.77430
Angles:   90.00000  90.00000  90.00000  Average:  90.00000  90.00000  90.00000
Rectangular boundary conditions

net charge:   0.00000000

component 0 (CO2) lambda:  0 occupancy:  1 (1.000000)
    net charge:   0.00000000 [e]

Amount of molecules per component :
-------------------------------------------------------------------------------
Component 0 (CO2)
    molecules:      2.000000e+02 molecules  (2.000000e+02 +/- 0.000000e+00)
    number density: 1.455075e-02 molec./A^3 (1.488895e-02 +/- 0.000000e+00)
    density:        1.063103e+03 kg/m^3     (1.087812e+03 +/- 0.000000e+00)

Average pressure tensor: 
-------------------------------------------------------------------------------
 1.2589e+02  2.8929e+01  8.9058e+00 +/- 0.0000e+00 0.0000e+00 0.0000e+00 [bar]
 2.8929e+01  1.6019e+01  4.8425e+01 +/- 0.0000e+00 0.0000e+00 0.0000e+00 [bar]
 8.9058e+00  4.8425e+01  6.6965e+01 +/- 0.0000e+00 0.0000e+00 0.0000e+00 [bar]
Ideal-gas pressure:   5.139109e+02 +/ 0.000000e+00 [bar]
Excess pressure:     -4.442861e+02 +/ 0.000000e+00 [bar]
Pressure:             6.962478e+01 +/ 0.000000e+00 [bar]

Total potential energy/kʙ  -3.021172e+05 (-3.159117e+05 +/- 0.000000e+00) [K]
-------------------------------------------------------------------------------
ExternalField-molecule
    Van der Waals/kʙ        0.000000e+00 ( 0.000000e+00 +/- 0.000000e+00) [K]
Framework-molecule
    Van der Waals/kʙ        0.000000e+00 ( 0.000000e+00 +/- 0.000000e+00) [K]
    Van der Waals (Tail)/kʙ 0.000000e+00 ( 0.000000e+00 +/- 0.000000e+00) [K]
    Coulombic Real/kʙ       0.000000e+00 ( 0.000000e+00 +/- 0.000000e+00) [K]
    Coulombic Fourier/kʙ    0.000000e+00 ( 0.000000e+00 +/- 0.000000e+00) [K]
Molecule-molecule
    Van der Waals/kʙ       -2.209124e+05 (-2.285220e+05 +/- 0.000000e+00) [K]
    Van der Waals (Tail)/kʙ-5.404451e+03 (-5.526270e+03 +/- 0.000000e+00) [K]
    Coulombic Real/kʙ      -6.937350e+04 (-7.494037e+04 +/- 0.000000e+00) [K]
    Coulombic Fourier/kʙ   -6.426815e+03 (-6.923021e+03 +/- 0.000000e+00) [K]
    Molecule Intra/kʙ       0.000000e+00 ( 0.000000e+00 +/- 0.000000e+00) [K]

Current cycle: 1800 out of 5000
===============================================================================

Box:      23.83028   0.00000   0.00000  Average:  23.78311   0.00000   0.00000
           0.00000  23.83028   0.00000             0.00000  23.78311   0.00000
           0.00000   0.00000  23.83028             0.00000   0.00000  23.78311
Lengths:  23.83028  23.83028  23.83028  Average:  23.78311  23.78311  23.78311
Angles:   90.00000  90.00000  90.00000  Average:  90.00000  90.00000  90.00000
Rectangular boundary conditions

net charge:   0.00000000

component 0 (CO2) lambda:  0 occupancy:  1 (1.000000)
    net charge:   0.00000000 [e]

Amount of molecules per component :
-------------------------------------------------------------------------------
Component 0 (CO2)
    molecules:      2.000000e+02 molecules  (2.000000e+02 +/- 0.000000e+00)
    number density: 1.477891e-02 molec./A^3 (1.487238e-02 +/- 0.000000e+00)
    density:        1.079772e+03 kg/m^3     (1.086602e+03 +/- 0.000000e+00)

Average pressure tensor: 
-------------------------------------------------------------------------------
 1.2499e+02  2.6287e+01  1.3014e+01 +/- 0.0000e+00 0.0000e+00 0.0000e+00 [bar]
 2.6287e+01  1.6931e+01  5.1210e+01 +/- 0.0000e+00 0.0000e+00 0.0000e+00 [bar]
 1.3014e+01  5.1210e+01  6.3301e+01 +/- 0.0000e+00 0.0000e+00 0.0000e+00 [bar]
Ideal-gas pressure:   5.133389e+02 +/ 0.000000e+00 [bar]
Excess pressure:     -4.449311e+02 +/ 0.000000e+00 [bar]
Pressure:             6.840782e+01 +/ 0.000000e+00 [bar]

Total potential energy/kʙ  -3.099970e+05 (-3.155302e+05 +/- 0.000000e+00) [K]
-------------------------------------------------------------------------------
ExternalField-molecule
    Van der Waals/kʙ        0.000000e+00 ( 0.000000e+00 +/- 0.000000e+00) [K]
Framework-molecule
    Van der Waals/kʙ        0.000000e+00 ( 0.000000e+00 +/- 0.000000e+00) [K]
    Van der Waals (Tail)/kʙ 0.000000e+00 ( 0.000000e+00 +/- 0.000000e+00) [K]
    Coulombic Real/kʙ       0.000000e+00 ( 0.000000e+00 +/- 0.000000e+00) [K]
    Coulombic Fourier/kʙ    0.000000e+00 ( 0.000000e+00 +/- 0.000000e+00) [K]
Molecule-molecule
    Van der Waals/kʙ       -2.286158e+05 (-2.282499e+05 +/- 0.000000e+00) [K]
    Van der Waals (Tail)/kʙ-5.489194e+03 (-5.520456e+03 +/- 0.000000e+00) [K]
    Coulombic Real/kʙ      -6.943975e+04 (-7.484909e+04 +/- 0.000000e+00) [K]
    Coulombic Fourier/kʙ   -6.452333e+03 (-6.910707e+03 +/- 0.000000e+00) [K]
    Molecule Intra/kʙ       0.000000e+00 ( 0.000000e+00 +/- 0.000000e+00) [K]

Current cycle: 1900 out of 5000
===============================================================================

Box:      23.99226   0.00000   0.00000  Average:  23.79326   0.00000   0.00000
           0.00000  23.99226   0.00000             0.00000  23.79326   0.00000
           0.00000   0.00000  23.99226             0.00000   0.00000  23.79326
Lengths:  23.99226  23.99226  23.99226  Average:  23.79326  23.79326  23.79326
Angles:   90.00000  90.00000  90.00000  Average:  90.00000  90.00000  90.00000
Rectangular boundary conditions

net charge:   0.00000000

component 0 (CO2) lambda:  0 occupancy:  1 (1.000000)
    net charge:   0.00000000 [e]

Amount of molecules per component :
-------------------------------------------------------------------------------
Component 0 (CO2)
    molecules:      2.000000e+02 molecules  (2.000000e+02 +/- 0.000000e+00)
    number density: 1.448161e-02 molec./A^3 (1.485362e-02 +/- 0.000000e+00)
    density:        1.058051e+03 kg/m^3     (1.085231e+03 +/- 0.000000e+00)

Average pressure tensor: 
-------------------------------------------------------------------------------
 1.2718e+02  3.3480e+01  2.2446e+00 +/- 0.0000e+00 0.0000e+00 0.0000e+00 [bar]
 3.3480e+01  1.8139e+01  5.3178e+01 +/- 0.0000e+00 0.0000e+00 0.0000e+00 [bar]
 2.2446e+00  5.3178e+01  6.7254e+01 +/- 0.0000e+00 0.0000e+00 0.0000e+00 [bar]
Ideal-gas pressure:   5.126914e+02 +/ 0.000000e+00 [bar]
Excess pressure:     -4.418348e+02 +/ 0.000000e+00 [bar]
Pressure:             7.085662e+01 +/ 0.000000e+00 [bar]

Total potential energy/kʙ  -3.026149e+05 (-3.148802e+05 +/- 0.000000e+00) [K]
-------------------------------------------------------------------------------
ExternalField-molecule
    Van der Waals/kʙ        0.000000e+00 ( 0.000000e+00 +/- 0.000000e+00) [K]
Framework-molecule
    Van der Waals/kʙ        0.000000e+00 ( 0.000000e+00 +/- 0.000000e+00) [K]
    Van der Waals (Tail)/kʙ 0.000000e+00 ( 0.000000e+00 +/- 0.000000e+00) [K]
    Coulombic Real/kʙ       0.000000e+00 ( 0.000000e+00 +/- 0.000000e+00) [K]
    Coulombic Fourier/kʙ    0.000000e+00 ( 0.000000e+00 +/- 0.000000e+00) [K]
Molecule-molecule
    Van der Waals/kʙ       -2.238896e+05 (-2.279788e+05 +/- 0.000000e+00) [K]
    Van der Waals (Tail)/kʙ-5.378769e+03 (-5.513322e+03 +/- 0.000000e+00) [K]
    Coulombic Real/kʙ      -6.728425e+04 (-7.451703e+04 +/- 0.000000e+00) [K]
    Coulombic Fourier/kʙ   -6.062264e+03 (-6.870999e+03 +/- 0.000000e+00) [K]
    Molecule Intra/kʙ       0.000000e+00 ( 0.000000e+00 +/- 0.000000e+00) [K]

Current cycle: 2000 out of 5000
===============================================================================

Box:      23.81968   0.00000   0.00000  Average:  23.80046   0.00000   0.00000
           0.00000  23.81968   0.00000             0.00000  23.80046   0.00000
           0.00000   0.00000  23.81968             0.00000   0.00000  23.80046
Lengths:  23.81968  23.81968  23.81968  Average:  23.80046  23.80046  23.80046
Angles:   90.00000  90.00000  90.00000  Average:  90.00000  90.00000  90.00000
Rectangular boundary conditions

net charge:   0.00000000

component 0 (CO2) lambda:  0 occupancy:  1 (1.000000)
    net charge:   0.00000000 [e]

Amount of molecules per component :
-------------------------------------------------------------------------------
Component 0 (CO2)
    molecules:      2.000000e+02 molecules  (2.000000e+02 +/- 0.000000e+00)
    number density: 1.479865e-02 molec./A^3 (1.484013e-02 +/- 0.000000e+00)
    density:        1.081215e+03 kg/m^3     (1.084245e+03 +/- 0.000000e+00)

Average pressure tensor: 
-------------------------------------------------------------------------------
 1.2768e+02  3.5028e+01  7.6437e+00 +/- 0.0000e+00 0.0000e+00 0.0000e+00 [bar]
 3.5028e+01  1.8736e+01  4.5104e+01 +/- 0.0000e+00 0.0000e+00 0.0000e+00 [bar]
 7.6437e+00  4.5104e+01  7.9594e+01 +/- 0.0000e+00 0.0000e+00 0.0000e+00 [bar]
Ideal-gas pressure:   5.122257e+02 +/ 0.000000e+00 [bar]
Excess pressure:     -4.368882e+02 +/ 0.000000e+00 [bar]
Pressure:             7.533754e+01 +/ 0.000000e+00 [bar]

Total potential energy/kʙ  -3.106931e+05 (-3.143990e+05 +/- 0.000000e+00) [K]
-------------------------------------------------------------------------------
ExternalField-molecule
    Van der Waals/kʙ        0.000000e+00 ( 0.000000e+00 +/- 0.000000e+00) [K]
Framework-molecule
    Van der Waals/kʙ        0.000000e+00 ( 0.000000e+00 +/- 0.000000e+00) [K]
    Van der Waals (Tail)/kʙ 0.000000e+00 ( 0.000000e+00 +/- 0.000000e+00) [K]
    Coulombic Real/kʙ       0.000000e+00 ( 0.000000e+00 +/- 0.000000e+00) [K]
    Coulombic Fourier/kʙ    0.000000e+00 ( 0.000000e+00 +/- 0.000000e+00) [K]
Molecule-molecule
    Van der Waals/kʙ       -2.297406e+05 (-2.278179e+05 +/- 0.000000e+00) [K]
    Van der Waals (Tail)/kʙ-5.496527e+03 (-5.509824e+03 +/- 0.000000e+00) [K]
    Coulombic Real/kʙ      -6.897389e+04 (-7.421386e+04 +/- 0.000000e+00) [K]
    Coulombic Fourier/kʙ   -6.482082e+03 (-6.857372e+03 +/- 0.000000e+00) [K]
    Molecule Intra/kʙ       0.000000e+00 ( 0.000000e+00 +/- 0.000000e+00) [K]

Current cycle: 2100 out of 5000
===============================================================================

Box:      23.87762   0.00000   0.00000  Average:  23.80367   0.00000   0.00000
           0.00000  23.87762   0.00000             0.00000  23.80367   0.00000
           0.00000   0.00000  23.87762             0.00000   0.00000  23.80367
Lengths:  23.87762  23.87762  23.87762  Average:  23.80367  23.80367  23.80367
Angles:   90.00000  90.00000  90.00000  Average:  90.00000  90.00000  90.00000
Rectangular boundary conditions

net charge:   0.00000000

component 0 (CO2) lambda:  0 occupancy:  1 (1.000000)
    net charge:   0.00000000 [e]

Amount of molecules per component :
-------------------------------------------------------------------------------
Component 0 (CO2)
    molecules:      2.000000e+02 molecules  (2.000000e+02 +/- 0.000000e+00)
    number density: 1.469119e-02 molec./A^3 (1.483395e-02 +/- 0.000000e+00)
    density:        1.073363e+03 kg/m^3     (1.083794e+03 +/- 0.000000e+00)

Average pressure tensor: 
-------------------------------------------------------------------------------
 1.3834e+02  3.8103e+01  9.3973e+00 +/- 0.0000e+00 0.0000e+00 0.0000e+00 [bar]
 3.8103e+01  2.5215e+01  4.0472e+01 +/- 0.0000e+00 0.0000e+00 0.0000e+00 [bar]
 9.3973e+00  4.0472e+01  8.4112e+01 +/- 0.0000e+00 0.0000e+00 0.0000e+00 [bar]
Ideal-gas pressure:   5.120123e+02 +/ 0.000000e+00 [bar]
Excess pressure:     -4.294572e+02 +/ 0.000000e+00 [bar]
Pressure:             8.255512e+01 +/ 0.000000e+00 [bar]

Total potential energy/kʙ  -3.180272e+05 (-3.142428e+05 +/- 0.000000e+00) [K]
-------------------------------------------------------------------------------
ExternalField-molecule
    Van der Waals/kʙ        0.000000e+00 ( 0.000000e+00 +/- 0.000000e+00) [K]
Framework-molecule
    Van der Waals/kʙ        0.000000e+00 ( 0.000000e+00 +/- 0.000000e+00) [K]
    Van der Waals (Tail)/kʙ 0.000000e+00 ( 0.000000e+00 +/- 0.000000e+00) [K]
[...]
    Coulombic Fourier/kʙ    0.000000e+00 ( 0.000000e+00 +/- 0.000000e+00) [K]
Molecule-molecule
    Van der Waals/kʙ       -2.293163e+05 (-2.260605e+05 +/- 5.355048e+03) [K]
    Van der Waals (Tail)/kʙ-5.479588e+03 (-5.483082e+03 +/- 1.153721e+02) [K]
    Coulombic Real/kʙ      -7.274692e+04 (-7.356837e+04 +/- 1.461963e+03) [K]
    Coulombic Fourier/kʙ   -6.760665e+03 (-6.879148e+03 +/- 1.343689e+02) [K]
    Molecule Intra/kʙ       0.000000e+00 ( 0.000000e+00 +/- 0.000000e+00) [K]

Current cycle: 4700 out of 5000
===============================================================================

Box:      23.57048   0.00000   0.00000  Average:  23.84173   0.00000   0.00000
           0.00000  23.57048   0.00000             0.00000  23.84173   0.00000
           0.00000   0.00000  23.57048             0.00000   0.00000  23.84173
Lengths:  23.57048  23.57048  23.57048  Average:  23.84173  23.84173  23.84173
Angles:   90.00000  90.00000  90.00000  Average:  90.00000  90.00000  90.00000
Rectangular boundary conditions

net charge:   0.00000000

component 0 (CO2) lambda:  0 occupancy:  1 (1.000000)
    net charge:   0.00000000 [e]

Amount of molecules per component :
-------------------------------------------------------------------------------
Component 0 (CO2)
    molecules:      2.000000e+02 molecules  (2.000000e+02 +/- 0.000000e+00)
    number density: 1.527302e-02 molec./A^3 (1.476471e-02 +/- 3.118903e-04)
    density:        1.115873e+03 kg/m^3     (1.078735e+03 +/- 2.278724e+01)

Average pressure tensor: 
-------------------------------------------------------------------------------
 9.9974e+01  1.5424e+01 -1.3546e+01 +/- 5.6186e+01 4.6925e+01 2.6528e+01 [bar]
 1.5424e+01  6.3857e+01  1.1445e+01 +/- 4.6925e+01 1.1590e+02 4.7572e+01 [bar]
-1.3546e+01  1.1445e+01  1.1082e+02 +/- 2.6528e+01 4.7572e+01 4.1854e+01 [bar]
Ideal-gas pressure:   5.096225e+02 +/ 1.076529e+01 [bar]
Excess pressure:     -4.180722e+02 +/ 3.624292e+01 [bar]
Pressure:             9.155033e+01 +/ 3.025001e+01 [bar]

Total potential energy/kʙ  -3.220355e+05 (-3.121166e+05 +/- 6.550789e+03) [K]
-------------------------------------------------------------------------------
ExternalField-molecule
    Van der Waals/kʙ        0.000000e+00 ( 0.000000e+00 +/- 0.000000e+00) [K]
Framework-molecule
    Van der Waals/kʙ        0.000000e+00 ( 0.000000e+00 +/- 0.000000e+00) [K]
    Van der Waals (Tail)/kʙ 0.000000e+00 ( 0.000000e+00 +/- 0.000000e+00) [K]
    Coulombic Real/kʙ       0.000000e+00 ( 0.000000e+00 +/- 0.000000e+00) [K]
    Coulombic Fourier/kʙ    0.000000e+00 ( 0.000000e+00 +/- 0.000000e+00) [K]
Molecule-molecule
    Van der Waals/kʙ       -2.341840e+05 (-2.261453e+05 +/- 5.360235e+03) [K]
    Van der Waals (Tail)/kʙ-5.672718e+03 (-5.485203e+03 +/- 1.151573e+02) [K]
    Coulombic Real/kʙ      -7.543654e+04 (-7.360591e+04 +/- 1.386633e+03) [K]
    Coulombic Fourier/kʙ   -6.742275e+03 (-6.880156e+03 +/- 1.273535e+02) [K]
    Molecule Intra/kʙ       0.000000e+00 ( 0.000000e+00 +/- 0.000000e+00) [K]

Current cycle: 4800 out of 5000
===============================================================================

Box:      23.74935   0.00000   0.00000  Average:  23.83905   0.00000   0.00000
           0.00000  23.74935   0.00000             0.00000  23.83905   0.00000
           0.00000   0.00000  23.74935             0.00000   0.00000  23.83905
Lengths:  23.74935  23.74935  23.74935  Average:  23.83905  23.83905  23.83905
Angles:   90.00000  90.00000  90.00000  Average:  90.00000  90.00000  90.00000
Rectangular boundary conditions

net charge:   0.00000000

component 0 (CO2) lambda:  0 occupancy:  1 (1.000000)
    net charge:   0.00000000 [e]

Amount of molecules per component :
-------------------------------------------------------------------------------
Component 0 (CO2)
    molecules:      2.000000e+02 molecules  (2.000000e+02 +/- 0.000000e+00)
    number density: 1.493051e-02 molec./A^3 (1.476963e-02 +/- 3.106115e-04)
    density:        1.090849e+03 kg/m^3     (1.079094e+03 +/- 2.269381e+01)

Average pressure tensor: 
-------------------------------------------------------------------------------
 9.9441e+01  1.6175e+01 -1.7205e+01 +/- 5.4379e+01 4.6956e+01 3.0537e+01 [bar]
 1.6175e+01  6.6712e+01  1.5291e+01 +/- 4.6956e+01 1.1757e+02 5.1450e+01 [bar]
-1.7205e+01  1.5291e+01  1.1828e+02 +/- 3.0537e+01 5.1450e+01 5.2209e+01 [bar]
Ideal-gas pressure:   5.097923e+02 +/ 1.072115e+01 [bar]
Excess pressure:     -4.149798e+02 +/ 3.556958e+01 [bar]
Pressure:             9.481252e+01 +/ 3.156923e+01 [bar]

Total potential energy/kʙ  -3.194237e+05 (-3.122528e+05 +/- 6.625028e+03) [K]
-------------------------------------------------------------------------------
ExternalField-molecule
    Van der Waals/kʙ        0.000000e+00 ( 0.000000e+00 +/- 0.000000e+00) [K]
Framework-molecule
    Van der Waals/kʙ        0.000000e+00 ( 0.000000e+00 +/- 0.000000e+00) [K]
    Van der Waals (Tail)/kʙ 0.000000e+00 ( 0.000000e+00 +/- 0.000000e+00) [K]
    Coulombic Real/kʙ       0.000000e+00 ( 0.000000e+00 +/- 0.000000e+00) [K]
    Coulombic Fourier/kʙ    0.000000e+00 ( 0.000000e+00 +/- 0.000000e+00) [K]
Molecule-molecule
    Van der Waals/kʙ       -2.345453e+05 (-2.262573e+05 +/- 5.410593e+03) [K]
    Van der Waals (Tail)/kʙ-5.545502e+03 (-5.487247e+03 +/- 1.150355e+02) [K]
    Coulombic Real/kʙ      -7.204243e+04 (-7.362188e+04 +/- 1.363172e+03) [K]
    Coulombic Fourier/kʙ   -7.290403e+03 (-6.886383e+03 +/- 1.351926e+02) [K]
    Molecule Intra/kʙ       0.000000e+00 ( 0.000000e+00 +/- 0.000000e+00) [K]

Current cycle: 4900 out of 5000
===============================================================================

Box:      23.84450   0.00000   0.00000  Average:  23.83787   0.00000   0.00000
           0.00000  23.84450   0.00000             0.00000  23.83787   0.00000
           0.00000   0.00000  23.84450             0.00000   0.00000  23.83787
Lengths:  23.84450  23.84450  23.84450  Average:  23.83787  23.83787  23.83787
Angles:   90.00000  90.00000  90.00000  Average:  90.00000  90.00000  90.00000
Rectangular boundary conditions

net charge:   0.00000000

component 0 (CO2) lambda:  0 occupancy:  1 (1.000000)
    net charge:   0.00000000 [e]

Amount of molecules per component :
-------------------------------------------------------------------------------
Component 0 (CO2)
    molecules:      2.000000e+02 molecules  (2.000000e+02 +/- 0.000000e+00)
    number density: 1.475249e-02 molec./A^3 (1.477171e-02 +/- 3.055095e-04)
    density:        1.077842e+03 kg/m^3     (1.079246e+03 +/- 2.232105e+01)

Average pressure tensor: 
-------------------------------------------------------------------------------
 9.8948e+01  1.1691e+01 -1.9306e+01 +/- 5.3018e+01 4.1895e+01 3.3290e+01 [bar]
 1.1691e+01  7.1038e+01  1.2005e+01 +/- 4.1895e+01 1.2071e+02 4.7489e+01 [bar]
-1.9306e+01  1.2005e+01  1.1550e+02 +/- 3.3290e+01 4.7489e+01 4.6008e+01 [bar]
Ideal-gas pressure:   5.098641e+02 +/ 1.054505e+01 [bar]
Excess pressure:     -4.147011e+02 +/ 3.562314e+01 [bar]
Pressure:             9.516297e+01 +/ 3.162362e+01 [bar]

Total potential energy/kʙ  -3.105413e+05 (-3.122927e+05 +/- 6.589284e+03) [K]
-------------------------------------------------------------------------------
ExternalField-molecule
    Van der Waals/kʙ        0.000000e+00 ( 0.000000e+00 +/- 0.000000e+00) [K]
Framework-molecule
    Van der Waals/kʙ        0.000000e+00 ( 0.000000e+00 +/- 0.000000e+00) [K]
    Van der Waals (Tail)/kʙ 0.000000e+00 ( 0.000000e+00 +/- 0.000000e+00) [K]
    Coulombic Real/kʙ       0.000000e+00 ( 0.000000e+00 +/- 0.000000e+00) [K]
    Coulombic Fourier/kʙ    0.000000e+00 ( 0.000000e+00 +/- 0.000000e+00) [K]
Molecule-molecule
    Van der Waals/kʙ       -2.277221e+05 (-2.263174e+05 +/- 5.386409e+03) [K]
    Van der Waals (Tail)/kʙ-5.479383e+03 (-5.487794e+03 +/- 1.126816e+02) [K]
    Coulombic Real/kʙ      -7.034555e+04 (-7.359469e+04 +/- 1.375805e+03) [K]
    Coulombic Fourier/kʙ   -6.994247e+03 (-6.892791e+03 +/- 1.426125e+02) [K]
    Molecule Intra/kʙ       0.000000e+00 ( 0.000000e+00 +/- 0.000000e+00) [K]


Energy statistics             |  Energy [K]   | Recomputed [K]|  Drift [K]    |
===============================================================================
Total potential energy/kʙ     | -3.039169e+05 | -3.039169e+05 | -1.416016e-09 |
    external field VDW/kʙ     |  0.000000e+00 |  0.000000e+00 |  0.000000e+00 |
    external field Real/kʙ    |  0.000000e+00 |  0.000000e+00 |  0.000000e+00 |
    framework-molecule VDW/kʙ |  0.000000e+00 |  0.000000e+00 |  0.000000e+00 |
    framework-molecule Real/kʙ|  0.000000e+00 |  0.000000e+00 |  0.000000e+00 |
    molecule-molecule VDW/kʙ  | -2.206649e+05 | -2.206649e+05 | -1.260140e-09 |
    molecule-molecule Real/kʙ | -7.087183e+04 | -7.087183e+04 | -1.487665e-10 |
    Van der Waals (Tail)/kʙ   | -5.335062e+03 | -5.335062e+03 |  0.000000e+00 |
    Ewald Fourier/kʙ          |  4.716035e+03 |  4.716035e+03 | -7.110164e-12 |
    Ewald self/kʙ             | -3.673356e+06 | -3.673356e+06 |  0.000000e+00 |
    Ewald exclusion/kʙ        |  3.661595e+06 |  3.661595e+06 |  0.000000e+00 |
    intra VDW/kʙ              |  0.000000e+00 |  0.000000e+00 |  0.000000e+00 |
    intra Coulombic/kʙ        |  0.000000e+00 |  0.000000e+00 |  0.000000e+00 |
    polarization/kʙ           |  0.000000e+00 |  0.000000e+00 |  0.000000e+00 |
    dU/dlambda VDW/kʙ         |  0.000000e+00 |  0.000000e+00 |  0.000000e+00 |
    dU/dlambda Real/kʙ        |  0.000000e+00 |  0.000000e+00 |  0.000000e+00 |
    dU/dlambda Ewald/kʙ       |  0.000000e+00 |  0.000000e+00 |  0.000000e+00 |
-------------------------------------------------------------------------------


Monte-Carlo moves statistics
===============================================================================

    Volume change        all:                6708
    Volume change        total:              6708
    Volume change        constructed:        6708
    Volume change        accepted:           2006
    Volume change        fraction:       0.299046
    Volume change        max-change:     0.050000

Component 0 [CO2]
    Reinsertion (CBMC)   all:              330708
    Reinsertion (CBMC)   total:            330708
    Reinsertion (CBMC)   constructed:      288840
    Reinsertion (CBMC)   accepted:           3729
    Reinsertion (CBMC)   fraction:       0.011276
    Reinsertion (CBMC)   max-change:     0.000000

    Translation          all:              331572
    Translation          total:            109846     110853     110873
    Translation          constructed:      109846     110853     110873
    Translation          accepted:          53063      57127      64775
    Translation          fraction:       0.483067   0.515340   0.584227
    Translation          max-change:     0.690909   0.625000   0.500000

    Rotation             all:              331012
    Rotation             total:            110263     110524     110225
    Rotation             constructed:      110263     110501     110223
    Rotation             accepted:          52441      43951      49393
    Rotation             fraction:       0.475599   0.397660   0.448111
    Rotation             max-change:     0.734694   0.954545   0.807692



Production run counting of the MC moves summed over systems and components
===============================================================================

Volume change                          6708 (0.6708 [%])
Reinsertion (CBMC)                   330708 (33.0708 [%])
Translation                          331572 (33.1572 [%])
Rotation                             331012 (33.1012 [%])

Production count MC-steps:          1000000 [-]
               All summed:          1000000 [-]
               difference:                0 [-]


Production run CPU timings of the MC moves
===============================================================================

Component 0 CO2

Rotation                             46.520204 [s]
    Ewald                            13.190906 [s]
    ExternalField-Molecule            0.010502 [s]
    Framework-Molecule                0.010606 [s]
    Molecule-Molecule                32.245331 [s]
    Overhead                          1.062859 [s]

Reinsertion (CBMC)                  220.265017 [s]
    Ewald                            11.679231 [s]
    NonEwald                        208.294640 [s]
    Overhead                          0.291146 [s]

Translation                          46.802882 [s]
    Ewald                            13.211231 [s]
    ExternalField-Molecule            0.010398 [s]
    Framework-Molecule                0.016220 [s]
    Molecule-Molecule                32.378419 [s]
    Overhead                          1.186614 [s]



Volume change                         47.466953 [s]
    Ewald                              9.684570 [s]
    NonEwald                          36.329300 [s]
    Tail                               1.245324 [s]

Property sampling                     0.276844 [s]
Energy/pressure sampling:             6.324888 [s]


Production run CPU timings of the MC moves summed over systems and components
===============================================================================


Translation                          46.802882 [s]
    Ewald                            13.211231 [s]
    ExternalField-Molecule            0.010398 [s]
    Framework-Molecule                0.016220 [s]
    Molecule-Molecule                32.378419 [s]
    Overhead                          1.186614 [s]

Rotation                             46.520204 [s]
    Ewald                            13.190906 [s]
    ExternalField-Molecule            0.010502 [s]
    Framework-Molecule                0.010606 [s]
    Molecule-Molecule                32.245331 [s]
    Overhead                          1.062859 [s]

Volume change                        47.466953 [s]
    Ewald                             9.684570 [s]
    NonEwald                         36.329300 [s]
    Tail                              1.245324 [s]
    Overhead                          0.207759 [s]

Reinsertion (CBMC)                  220.265017 [s]
    Ewald                            11.679231 [s]
    NonEwald                        208.294640 [s]
    Overhead                          0.291146 [s]

Property sampling:                    0.276844 [s]
Energy/pressure sampling:             6.324888 [s]

Production simulation time:         368.353498 [s]
                All summed:         367.656788 [s]
                  Overhead:           0.696710 [s]


Initalization simulation time:       70.825977 [s]
Equilibration simulation time:        0.000000 [s]
Production simulation time:         368.353498 [s]
Total simulation time:              439.179475 [s]


Energy averages and statistics:
===============================================================================

Framework-molecule energy:
-------------------------------------------------------------------------------



Framework-molecule energy contributions per energy type:
-------------------------------------------------------------------------------



Inter-molecular energy:
-------------------------------------------------------------------------------

    Inter-molecular energy/kʙ 0-0 [CO2-CO2]:
    ---------------------------------------------------------------------------
        Block[  0] -3.166670e+05
        Block[  1] -3.121681e+05
        Block[  2] -3.139511e+05
        Block[  3] -3.033622e+05
        Block[  4] -3.141842e+05
        -----------------------------------------------------------------------
        Average  -3.120665e+05 +/-  6.359861e+03 [K]



Inter-molecular energy contributions per energy type:
-------------------------------------------------------------------------------

    Van der Waals energy/kʙ 0-0 [CO2-CO2]:
    ---------------------------------------------------------------------------
        Block[  0] -2.291830e+05
        Block[  1] -2.264336e+05
        Block[  2] -2.273732e+05
        Block[  3] -2.190256e+05
        Block[  4] -2.287062e+05
        -----------------------------------------------------------------------
        Average  -2.261443e+05 +/-  5.121187e+03 [K]

    VDW Tail-Correction energy/kʙ 0-0 [CO2-CO2]:
    ---------------------------------------------------------------------------
        Block[  0] -5.531615e+03
        Block[  1] -5.488166e+03
        Block[  2] -5.514692e+03
        Block[  3] -5.337205e+03
        Block[  4] -5.549277e+03
        -----------------------------------------------------------------------
        Average  -5.484191e+03 +/-  1.057726e+02 [K]

    Coulomb Real energy/kʙ 0-0 [CO2-CO2]:
    ---------------------------------------------------------------------------
        Block[  0] -7.500421e+04
        Block[  1] -7.347591e+04
        Block[  2] -7.425524e+04
        Block[  3] -7.210562e+04
        Block[  4] -7.285928e+04
        -----------------------------------------------------------------------
        Average  -7.354005e+04 +/-  1.412820e+03 [K]

    Coulomb Fourier energy/kʙ 0-0 [CO2-CO2]:
    ---------------------------------------------------------------------------
        Block[  0] -6.948158e+03
        Block[  1] -6.770340e+03
        Block[  2] -6.807912e+03
        Block[  3] -6.893792e+03
        Block[  4] -7.069480e+03
        -----------------------------------------------------------------------
        Average  -6.897936e+03 +/-  1.473527e+02 [K]


Total energy/kʙ
-------------------------------------------------------------------------------
    Block[  0] -3.166670e+05
    Block[  1] -3.121681e+05
    Block[  2] -3.139511e+05
    Block[  3] -3.033622e+05
    Block[  4] -3.141842e+05
    ---------------------------------------------------------------------------
    Average  -3.120665e+05 +/-  6.359861e+03 [K]

Pressure averages and statistics:
===============================================================================

Average pressure tensor: 
-------------------------------------------------------------------------------
 9.6558e+01  1.1557e+01 -1.9810e+01 +/- 5.5587e+01 4.1764e+01 3.3124e+01 [bar]
 1.1557e+01  7.1857e+01  1.2373e+01 +/- 4.1764e+01 1.2030e+02 4.7530e+01 [bar]
-1.9810e+01  1.2373e+01  1.1826e+02 +/- 3.3124e+01 4.7530e+01 4.8999e+01 [bar]

    Block[  0]  5.147013e+07
    Block[  1]  5.097516e+07
    Block[  2]  5.119295e+07
    Block[  3]  4.958448e+07
    Block[  4]  5.154646e+07
    ---------------------------------------------------------------------------
    Ideal gas pressure   5.095384e+07 +/-  5.969925e-02 [Pa]
                         5.095384e+02 +/-  9.913301e+00 [bar]


    Block[  0] -4.640049e+07
    Block[  1] -4.099343e+07
    Block[  2] -3.991338e+07
    Block[  3] -3.909531e+07
    Block[  4] -4.058673e+07
    ---------------------------------------------------------------------------
    Excess pressure  -4.139787e+07 +/-  3.584871e+06 [Pa]
                     -4.139787e+02 +/-  3.584871e+01 [bar]


    Block[  0]  5.069639e+06
    Block[  1]  9.981732e+06
    Block[  2]  1.127956e+07
    Block[  3]  1.048918e+07
    Block[  4]  1.095972e+07
    ---------------------------------------------------------------------------
    Pressure average   9.555967e+06 +/-  3.172460e+06 [Pa]
                       9.555967e+01 +/-  3.172460e+01 [bar]


Enthalpy of adsorption
===============================================================================

No fluctuating components present.


Densities
===============================================================================

Component 0 (CO2)
    Block[  0] 200
    Block[  1] 200
    Block[  2] 200
    Block[  3] 200
    Block[  4] 200
    -----------------------------------------------------------------------
    Density average   2.000000e+02 +/-  0.000000e+00 [molecules]
    Density average   1.476227e-02 +/-  2.872067e-04 [molec/A^3]
    Density average   1.078557e+03 +/-  2.098381e+01 [kg.m⁻³]

