Compiler and run-time data
===============================================================================
RASPA 3.0.4

Random seed: 2443534800

Compiled as a 64-bits application
Compiler: gcc Ubuntu Clang 18.1.3 (1ubuntu1)
Compile Date = Mar 15 2025, Compile Time = 19:39:45

2025-06-03 11:00:44.299582
Simulation started on Tue, Jun 03
The start time was 11:00:00

Hostname:    c108
OS type:     Linux on x86_64
OS release:  6.8.0-58-generic
OS version:  #60-Ubuntu SMP PREEMPT_DYNAMIC Fri Mar 14 18:29:48 UTC 2025


Mutual consistent basic set of units:
===============================================================================

Unit of temperature: 1 [K]
Unit of length:      1e-10 [m]
Unit of time:        1e-12 [s]
Unit of mass:        1.6605402e-27 [kg]
Unit of charge:      1.60217733e-19 [C/particle]


Boltzmann constant (internal units):          0.8314464919307584 [-]
represents conversion from energy (internal units) to temperature (in Kelvin)

Derived units and their conversion factors:
===============================================================================

Unit of energy:                           1.6605402000000002e-23 [J]
Unit of energy:                           10.000008872307538 [J.mol⁻¹]
Unit of velocity:                         100 [m.s⁻¹]
Unit of force:                            1.6605402000000002e-13 [N]
Unit of diffusion:                        1.0000000000000002e-08 [m².s⁻¹]
Unit of acceleration:                     1.0000000000000002e-08 [m².s⁻¹]
Unit of torque:                           1.6605402000000002e-23 [N.m]
Unit of pressure:                         16605402 [Pa]
Unit of volume:                           1e-30 [m³]
Unit of density:                          1660.5402 [kg.m⁻³]
Unit of dynamic viscosity:                1.6605401999999997e-05 [N.s.m⁻²]
Unit of enthalpy:                         1.6605402000000002e-23 [J]
Unit of polarizability:                   1.5458657349975198e-35 [-]
Unit of Coulomb potential:                167101.08000665612 [K]
Unit of dielectric constant:              1.5458657349975193e-05 [s².C².kg⁻¹.m⁻³]
Unit of dipole moment:                    1.60217733e-29 [C.m]
Unit of Debye:                            4.803206799099162 [C.m]
Unit of electric potential:               0.00010364272224473431 [V]
Unit of electric field:                   1036427.222447343 [V.m⁻¹]
Unit of isothermal compressibility:       6.02213665167516e-08 [Pa⁻¹]
Unit of heat capacity:                    10.000008872307538 [J.mol⁻¹.K⁻¹]
Unit of volumetric expansion coefficient: 1 [K⁻¹]


Internal conversion factors:
===============================================================================

Energy (internal units) to Kelvin:      1.202724284692786 [-]
Kelvin to energy (internal units):      0.8314457542157567 [-]


System definitions
===============================================================================

Temperature:          260 [K]
Beta:                 0.004625858529058714 [-]
Pressure:             0 [Pa]
Helium void fraction: 1 [-]

Box:      30.00000   0.00000   0.00000
           0.00000  30.00000   0.00000
           0.00000   0.00000  30.00000
Lengths:  30.00000  30.00000  30.00000
Angles:   90.00000  90.00000  90.00000
Rectangular boundary conditions



Property measurement settings
===============================================================================




Pseudo-atoms
===============================================================================

  0 - C_co2    framework-atom: false
  1 - O_co2    framework-atom: false

  0 - C_co2    mass: 12.00000, charge:  0.70000
  1 - O_co2    mass: 15.99940, charge: -0.35000

  0 - C_co2    polarizability:  0.00000
  1 - O_co2    polarizability:  0.00000

  0 - J. J. Potoff et al., AIChE J. 2001, 47, 1676–1682.
  1 - J. J. Potoff et al., AIChE J. 2001, 47, 1676–1682.

Force field status
===============================================================================

Cutoff Framework-Molecule VDW:  12.00000 [Å]
Cutoff Molecule-Molecule VDW:   12.00000 [Å]
Cutoff Coulomb:                 12.00000 [Å]

Overlap-criteria VDW:           1.000000e+05 [K]

C_co2    - C_co2    Lennard-Jones p₀/kʙ:  27.00000 [K], p₁:  2.80000 [Å]
                                  shift:   0.00000 [K], tailcorrections: true
C_co2    - O_co2    Lennard-Jones p₀/kʙ:  46.18441 [K], p₁:  2.92500 [Å]
                                  shift:   0.00000 [K], tailcorrections: true
O_co2    - O_co2    Lennard-Jones p₀/kʙ:  79.00000 [K], p₁:  3.05000 [Å]
                                  shift:   0.00000 [K], tailcorrections: true

Ewald precision: 1e-06
Ewald alpha: 0.26505830360350674
Ewald k-vectors: 8 8 8


Component definitions
===============================================================================

Component 0 [CO2]

    Type: Adsorbate

    Critical temperature:  304.1282 [K]
    Critical pressure:     7377300 [Pa]
    Acentric factor:       0.22394 [-]

    Mol-fraction:                 1 [-]
    Swappable:                   true

    Mass:                         43.9988 [-]
    Fugacity coefficient:         -nan [-]
    Bulk fluid density:           0 [-]
    Compressibility:              1 [-]
    Excess molecules:             0 [-]

    Number Of Atoms:    3
    CBMC starting bead: 0
      0: O_co2  position  0.00000 -0.00000  1.16000, charge -0.35000
      1: C_co2  position  0.00000 -0.00000  0.00000, charge  0.70000
      2: O_co2  position  0.00000 -0.00000 -1.16000, charge -0.35000
    Diagonalized inertia-vector:      43.05758528 43.05758528 0.00000000
    Translational degrees of freedom: 3
    Rotational degrees of freedom:    2
    Shape of the molecule is: 'Linear'
    Net-charge:        0.00000000 [e]

    Move probabilities:
    Translation:                   0.199203 [-]
    Random translation:            0.000000 [-]
    Rotation:                      0.199203 [-]
    Random rotation:               0.000000 [-]
    Volume change:                 0.000000 [-]
    Reinsertion (CBMC):            0.199203 [-]
    Identity change (CBMC):        0.000000 [-]
    Swap:                          0.000000 [-]
    Swap (CBMC):                   0.000000 [-]
    Swap (CFCMC):                  0.000000 [-]
    Swap (CB/CFCMC):               0.000000 [-]
    Gibbs volume:                  0.003984 [-]
    Gibbs swap (CBMC):             0.398406 [-]
    Gibbs swap (CFCMC):            0.000000 [-]
    Widom:                         0.000000 [-]
    Widom (CFCMC):                 0.000000 [-]
    Widom (CB/CFCMC):              0.000000 [-]
    Parallel tempering:            0.000000 [-]
    Hybrid MC:                     0.000000 [-]

    number of blocking-pockets: 0

    number of bonds: 0





Number of pseudo-atoms
===============================================================================

Component   0 (CO2)
-------------------------------------------------------------------------------
    index   0 (C_co2): 40 atoms
    index   1 (O_co2): 80 atoms

Total number of pseudo-atoms:
-------------------------------------------------------------------------------
    index   0 (C_co2): 40 atoms
    index   1 (O_co2): 80 atoms




Energy status Recomputed from scratch
===============================================================================

Total potential energy/kʙ       -7.659218e+03 [K]
    external field VDW/kʙ        0.000000e+00 [K]
    external field Real/kʙ       0.000000e+00 [K]
    framework-molecule VDW/kʙ    0.000000e+00 [K]
    framework-molecule Real/kʙ   0.000000e+00 [K]
    molecule-molecule VDW/kʙ    -5.733511e+03 [K]
    molecule-molecule Real/kʙ   -1.791780e+03 [K]
    Van der Waals (Tail)/kʙ     -1.100506e+02 [K]
    Ewald Fourier/kʙ             2.328349e+03 [K]
    Ewald self/kʙ               -7.346713e+05 [K]
    Ewald exclusion/kʙ           7.323191e+05 [K]
    intra VDW/kʙ                 0.000000e+00 [K]
    intra Coulombic/kʙ           0.000000e+00 [K]
    polarization/kʙ              0.000000e+00 [K]
    dU/dlambda VDW/kʙ            0.000000e+00 [K]
    dU/dlambda Real/kʙ           0.000000e+00 [K]
    dU/dlambda Ewald/kʙ          0.000000e+00 [K]





Initialization: Current cycle: 0 out of 2000
===============================================================================

Box:      30.00000   0.00000   0.00000
           0.00000  30.00000   0.00000
           0.00000   0.00000  30.00000
Lengths:  30.00000  30.00000  30.00000
Angles:   90.00000  90.00000  90.00000
Rectangular boundary conditions

net charge:   0.00000000

component   0 (CO2) lambda:  0 occupancy:  1 (1.000000)
    net charge:   0.00000000 [e]

Amount of molecules per component :
-------------------------------------------------------------------------------
Component 0 (CO2)
    molecules:         4.600000e+01 molecules
    number density:    1.703704e-03 molec/A^3
    density:           1.244755e+02 kg/m^3

Total potential energy/kʙ       -9.859764e+03 [K]
-------------------------------------------------------------------------------
    external field VDW/kʙ        0.000000e+00 [K]
    external field Real/kʙ       0.000000e+00 [K]
    framework-molecule VDW/kʙ    0.000000e+00 [K]
    framework-molecule Real/kʙ   0.000000e+00 [K]
    molecule-molecule VDW/kʙ    -7.198424e+03 [K]
    molecule-molecule Real/kʙ   -2.229529e+03 [K]
    Van der Waals (Tail)/kʙ     -1.455419e+02 [K]
    Ewald Fourier/kʙ             2.418790e+03 [K]
    Ewald self/kʙ               -8.448720e+05 [K]
    Ewald exclusion/kʙ           8.421669e+05 [K]
    intra VDW/kʙ                 0.000000e+00 [K]
    intra Coulombic/kʙ           0.000000e+00 [K]
    polarization/kʙ              0.000000e+00 [K]
    dU/dlambda VDW/kʙ            0.000000e+00 [K]
    dU/dlambda Real/kʙ           0.000000e+00 [K]
    dU/dlambda Ewald/kʙ          0.000000e+00 [K]


Initialization: Current cycle: 100 out of 2000
===============================================================================

Box:      31.23895   0.00000   0.00000
           0.00000  31.23895   0.00000
           0.00000   0.00000  31.23895
Lengths:  31.23895  31.23895  31.23895
Angles:   90.00000  90.00000  90.00000
Rectangular boundary conditions

net charge:   0.00000000

component   0 (CO2) lambda:  0 occupancy:  1 (1.000000)
    net charge:   0.00000000 [e]

Amount of molecules per component :
-------------------------------------------------------------------------------
Component 0 (CO2)
    molecules:         2.000000e+01 molecules
    number density:    6.560560e-04 molec/A^3
    density:           4.793257e+01 kg/m^3

Total potential energy/kʙ       -8.412013e+02 [K]
-------------------------------------------------------------------------------
    external field VDW/kʙ        0.000000e+00 [K]
    external field Real/kʙ       0.000000e+00 [K]
    framework-molecule VDW/kʙ    0.000000e+00 [K]
    framework-molecule Real/kʙ   0.000000e+00 [K]
    molecule-molecule VDW/kʙ    -1.039500e+03 [K]
    molecule-molecule Real/kʙ    2.524938e+02 [K]
    Van der Waals (Tail)/kʙ     -2.436728e+01 [K]
    Ewald Fourier/kʙ             1.146285e+03 [K]
    Ewald self/kʙ               -3.673356e+05 [K]
    Ewald exclusion/kʙ           3.661595e+05 [K]
    intra VDW/kʙ                 0.000000e+00 [K]
    intra Coulombic/kʙ           0.000000e+00 [K]
    polarization/kʙ              0.000000e+00 [K]
    dU/dlambda VDW/kʙ            0.000000e+00 [K]
    dU/dlambda Real/kʙ           0.000000e+00 [K]
    dU/dlambda Ewald/kʙ          0.000000e+00 [K]


Initialization: Current cycle: 200 out of 2000
===============================================================================

Box:      31.81684   0.00000   0.00000
           0.00000  31.81684   0.00000
           0.00000   0.00000  31.81684
Lengths:  31.81684  31.81684  31.81684
Angles:   90.00000  90.00000  90.00000
Rectangular boundary conditions

net charge:   0.00000000

component   0 (CO2) lambda:  0 occupancy:  1 (1.000000)
    net charge:   0.00000000 [e]

Amount of molecules per component :
-------------------------------------------------------------------------------
Component 0 (CO2)
    molecules:         1.500000e+01 molecules
    number density:    4.657149e-04 molec/A^3
    density:           3.402593e+01 kg/m^3

Total potential energy/kʙ       -8.159118e+02 [K]
-------------------------------------------------------------------------------
    external field VDW/kʙ        0.000000e+00 [K]
    external field Real/kʙ       0.000000e+00 [K]
    framework-molecule VDW/kʙ    0.000000e+00 [K]
    framework-molecule Real/kʙ   0.000000e+00 [K]
    molecule-molecule VDW/kʙ    -5.870603e+02 [K]
    molecule-molecule Real/kʙ   -2.059272e+02 [K]
    Van der Waals (Tail)/kʙ     -1.297321e+01 [K]
    Ewald Fourier/kʙ             8.721335e+02 [K]
    Ewald self/kʙ               -2.755017e+05 [K]
    Ewald exclusion/kʙ           2.746196e+05 [K]
    intra VDW/kʙ                 0.000000e+00 [K]
    intra Coulombic/kʙ           0.000000e+00 [K]
    polarization/kʙ              0.000000e+00 [K]
    dU/dlambda VDW/kʙ            0.000000e+00 [K]
    dU/dlambda Real/kʙ           0.000000e+00 [K]
    dU/dlambda Ewald/kʙ          0.000000e+00 [K]


Initialization: Current cycle: 300 out of 2000
===============================================================================

Box:      32.00366   0.00000   0.00000
           0.00000  32.00366   0.00000
           0.00000   0.00000  32.00366
Lengths:  32.00366  32.00366  32.00366
Angles:   90.00000  90.00000  90.00000
Rectangular boundary conditions

net charge:   0.00000000

component   0 (CO2) lambda:  0 occupancy:  1 (1.000000)
    net charge:   0.00000000 [e]

Amount of molecules per component :
-------------------------------------------------------------------------------
Component 0 (CO2)
    molecules:         1.000000e+01 molecules
    number density:    3.050710e-04 molec/A^3
    density:           2.228901e+01 kg/m^3

Total potential energy/kʙ       -8.109522e+02 [K]
-------------------------------------------------------------------------------
    external field VDW/kʙ        0.000000e+00 [K]
    external field Real/kʙ       0.000000e+00 [K]
    framework-molecule VDW/kʙ    0.000000e+00 [K]
    framework-molecule Real/kʙ   0.000000e+00 [K]
    molecule-molecule VDW/kʙ    -5.620832e+02 [K]
    molecule-molecule Real/kʙ   -2.352988e+02 [K]
    Van der Waals (Tail)/kʙ     -5.665486e+00 [K]
    Ewald Fourier/kʙ             5.801518e+02 [K]
    Ewald self/kʙ               -1.836678e+05 [K]
    Ewald exclusion/kʙ           1.830798e+05 [K]
    intra VDW/kʙ                 0.000000e+00 [K]
    intra Coulombic/kʙ           0.000000e+00 [K]
    polarization/kʙ              0.000000e+00 [K]
    dU/dlambda VDW/kʙ            0.000000e+00 [K]
    dU/dlambda Real/kʙ           0.000000e+00 [K]
    dU/dlambda Ewald/kʙ          0.000000e+00 [K]


Initialization: Current cycle: 400 out of 2000
===============================================================================

Box:      32.77074   0.00000   0.00000
           0.00000  32.77074   0.00000
           0.00000   0.00000  32.77074
Lengths:  32.77074  32.77074  32.77074
Angles:   90.00000  90.00000  90.00000
Rectangular boundary conditions

net charge:   0.00000000

component   0 (CO2) lambda:  0 occupancy:  1 (1.000000)
    net charge:   0.00000000 [e]

Amount of molecules per component :
-------------------------------------------------------------------------------
Component 0 (CO2)
    molecules:         2.400000e+01 molecules
    number density:    6.819499e-04 molec/A^3
    density:           4.982443e+01 kg/m^3

Total potential energy/kʙ       -3.118829e+03 [K]
-------------------------------------------------------------------------------
    external field VDW/kʙ        0.000000e+00 [K]
    external field Real/kʙ       0.000000e+00 [K]
    framework-molecule VDW/kʙ    0.000000e+00 [K]
    framework-molecule Real/kʙ   0.000000e+00 [K]
    molecule-molecule VDW/kʙ    -2.436345e+03 [K]
    molecule-molecule Real/kʙ   -7.353702e+02 [K]
    Van der Waals (Tail)/kʙ     -3.039485e+01 [K]
    Ewald Fourier/kʙ             1.494616e+03 [K]
    Ewald self/kʙ               -4.408028e+05 [K]
    Ewald exclusion/kʙ           4.393914e+05 [K]
    intra VDW/kʙ                 0.000000e+00 [K]
    intra Coulombic/kʙ           0.000000e+00 [K]
    polarization/kʙ              0.000000e+00 [K]
    dU/dlambda VDW/kʙ            0.000000e+00 [K]
    dU/dlambda Real/kʙ           0.000000e+00 [K]
    dU/dlambda Ewald/kʙ          0.000000e+00 [K]


Initialization: Current cycle: 500 out of 2000
===============================================================================

Box:      33.11957   0.00000   0.00000
           0.00000  33.11957   0.00000
           0.00000   0.00000  33.11957
Lengths:  33.11957  33.11957  33.11957
Angles:   90.00000  90.00000  90.00000
Rectangular boundary conditions

net charge:   0.00000000

component   0 (CO2) lambda:  0 occupancy:  1 (1.000000)
    net charge:   0.00000000 [e]

Amount of molecules per component :
-------------------------------------------------------------------------------
Component 0 (CO2)
    molecules:         1.500000e+01 molecules
    number density:    4.128925e-04 molec/A^3
    density:           3.016663e+01 kg/m^3

Total potential energy/kʙ       -2.006261e+02 [K]
-------------------------------------------------------------------------------
    external field VDW/kʙ        0.000000e+00 [K]
    external field Real/kʙ       0.000000e+00 [K]
    framework-molecule VDW/kʙ    0.000000e+00 [K]
    framework-molecule Real/kʙ   0.000000e+00 [K]
    molecule-molecule VDW/kʙ    -2.218601e+02 [K]
    molecule-molecule Real/kʙ    1.587969e+01 [K]
    Van der Waals (Tail)/kʙ     -1.150176e+01 [K]
    Ewald Fourier/kʙ             8.989407e+02 [K]
    Ewald self/kʙ               -2.755017e+05 [K]
    Ewald exclusion/kʙ           2.746196e+05 [K]
    intra VDW/kʙ                 0.000000e+00 [K]
    intra Coulombic/kʙ           0.000000e+00 [K]
    polarization/kʙ              0.000000e+00 [K]
    dU/dlambda VDW/kʙ            0.000000e+00 [K]
    dU/dlambda Real/kʙ           0.000000e+00 [K]
    dU/dlambda Ewald/kʙ          0.000000e+00 [K]


Initialization: Current cycle: 600 out of 2000
===============================================================================

Box:      33.19729   0.00000   0.00000
           0.00000  33.19729   0.00000
           0.00000   0.00000  33.19729
Lengths:  33.19729  33.19729  33.19729
Angles:   90.00000  90.00000  90.00000
Rectangular boundary conditions

net charge:   0.00000000

component   0 (CO2) lambda:  0 occupancy:  1 (1.000000)
    net charge:   0.00000000 [e]

Amount of molecules per component :
-------------------------------------------------------------------------------
Component 0 (CO2)
    molecules:         2.300000e+01 molecules
    number density:    6.286659e-04 molec/A^3
    density:           4.593140e+01 kg/m^3

Total potential energy/kʙ       -2.018624e+03 [K]
-------------------------------------------------------------------------------
    external field VDW/kʙ        0.000000e+00 [K]
    external field Real/kʙ       0.000000e+00 [K]
    framework-molecule VDW/kʙ    0.000000e+00 [K]
    framework-molecule Real/kʙ   0.000000e+00 [K]
    molecule-molecule VDW/kʙ    -1.532458e+03 [K]
    molecule-molecule Real/kʙ   -5.009785e+02 [K]
    Van der Waals (Tail)/kʙ     -2.685245e+01 [K]
    Ewald Fourier/kʙ             1.394194e+03 [K]
    Ewald self/kʙ               -4.224360e+05 [K]
    Ewald exclusion/kʙ           4.210835e+05 [K]
    intra VDW/kʙ                 0.000000e+00 [K]
    intra Coulombic/kʙ           0.000000e+00 [K]
    polarization/kʙ              0.000000e+00 [K]
    dU/dlambda VDW/kʙ            0.000000e+00 [K]
    dU/dlambda Real/kʙ           0.000000e+00 [K]
    dU/dlambda Ewald/kʙ          0.000000e+00 [K]


Initialization: Current cycle: 700 out of 2000
===============================================================================

Box:      33.37405   0.00000   0.00000
           0.00000  33.37405   0.00000
           0.00000   0.00000  33.37405
Lengths:  33.37405  33.37405  33.37405
Angles:   90.00000  90.00000  90.00000
Rectangular boundary conditions

net charge:   0.00000000

component   0 (CO2) lambda:  0 occupancy:  1 (1.000000)
    net charge:   0.00000000 [e]

Amount of molecules per component :
-------------------------------------------------------------------------------
Component 0 (CO2)
    molecules:         2.400000e+01 molecules
    number density:    6.456311e-04 molec/A^3
    density:           4.717091e+01 kg/m^3

Total potential energy/kʙ       -1.548873e+03 [K]
-------------------------------------------------------------------------------
    external field VDW/kʙ        0.000000e+00 [K]
    external field Real/kʙ       0.000000e+00 [K]
    framework-molecule VDW/kʙ    0.000000e+00 [K]
    framework-molecule Real/kʙ   0.000000e+00 [K]
    molecule-molecule VDW/kʙ    -1.555357e+03 [K]
    molecule-molecule Real/kʙ   -2.771078e+01 [K]
    Van der Waals (Tail)/kʙ     -2.877610e+01 [K]
    Ewald Fourier/kʙ             1.474306e+03 [K]
    Ewald self/kʙ               -4.408028e+05 [K]
    Ewald exclusion/kʙ           4.393914e+05 [K]
    intra VDW/kʙ                 0.000000e+00 [K]
    intra Coulombic/kʙ           0.000000e+00 [K]
    polarization/kʙ              0.000000e+00 [K]
    dU/dlambda VDW/kʙ            0.000000e+00 [K]
    dU/dlambda Real/kʙ           0.000000e+00 [K]
    dU/dlambda Ewald/kʙ          0.000000e+00 [K]


Initialization: Current cycle: 800 out of 2000
===============================================================================

Box:      33.51536   0.00000   0.00000
           0.00000  33.51536   0.00000
           0.00000   0.00000  33.51536
Lengths:  33.51536  33.51536  33.51536
Angles:   90.00000  90.00000  90.00000
Rectangular boundary conditions

net charge:   0.00000000

component   0 (CO2) lambda:  0 occupancy:  1 (1.000000)
    net charge:   0.00000000 [e]

Amount of molecules per component :
-------------------------------------------------------------------------------
Component 0 (CO2)
    molecules:         2.700000e+01 molecules
    number density:    7.171862e-04 molec/A^3
    density:           5.239885e+01 kg/m^3

Total potential energy/kʙ       -2.030256e+03 [K]
-------------------------------------------------------------------------------
    external field VDW/kʙ        0.000000e+00 [K]
    external field Real/kʙ       0.000000e+00 [K]
    framework-molecule VDW/kʙ    0.000000e+00 [K]
    framework-molecule Real/kʙ   0.000000e+00 [K]
    molecule-molecule VDW/kʙ    -2.471587e+03 [K]
    molecule-molecule Real/kʙ    5.036941e+02 [K]
    Van der Waals (Tail)/kʙ     -3.596101e+01 [K]
    Ewald Fourier/kʙ             1.561350e+03 [K]
    Ewald self/kʙ               -4.959031e+05 [K]
    Ewald exclusion/kʙ           4.943154e+05 [K]
    intra VDW/kʙ                 0.000000e+00 [K]
    intra Coulombic/kʙ           0.000000e+00 [K]
    polarization/kʙ              0.000000e+00 [K]
    dU/dlambda VDW/kʙ            0.000000e+00 [K]
    dU/dlambda Real/kʙ           0.000000e+00 [K]
    dU/dlambda Ewald/kʙ          0.000000e+00 [K]


Initialization: Current cycle: 900 out of 2000
===============================================================================

Box:      33.28133   0.00000   0.00000
           0.00000  33.28133   0.00000
           0.00000   0.00000  33.28133
Lengths:  33.28133  33.28133  33.28133
Angles:   90.00000  90.00000  90.00000
Rectangular boundary conditions

net charge:   0.00000000

component   0 (CO2) lambda:  0 occupancy:  1 (1.000000)
    net charge:   0.00000000 [e]

Amount of molecules per component :
-------------------------------------------------------------------------------
Component 0 (CO2)
    molecules:         2.500000e+01 molecules
    number density:    6.781692e-04 molec/A^3
    density:           4.954821e+01 kg/m^3

Total potential energy/kʙ       -3.504740e+03 [K]
-------------------------------------------------------------------------------
    external field VDW/kʙ        0.000000e+00 [K]
    external field Real/kʙ       0.000000e+00 [K]
    framework-molecule VDW/kʙ    0.000000e+00 [K]
    framework-molecule Real/kʙ   0.000000e+00 [K]
    molecule-molecule VDW/kʙ    -2.348166e+03 [K]
    molecule-molecule Real/kʙ   -1.102957e+03 [K]
    Van der Waals (Tail)/kʙ     -3.148577e+01 [K]
    Ewald Fourier/kʙ             1.448010e+03 [K]
    Ewald self/kʙ               -4.591696e+05 [K]
    Ewald exclusion/kʙ           4.576994e+05 [K]
    intra VDW/kʙ                 0.000000e+00 [K]
    intra Coulombic/kʙ           0.000000e+00 [K]
    polarization/kʙ              0.000000e+00 [K]
    dU/dlambda VDW/kʙ            0.000000e+00 [K]
    dU/dlambda Real/kʙ           0.000000e+00 [K]
    dU/dlambda Ewald/kʙ          0.000000e+00 [K]


Initialization: Current cycle: 1000 out of 2000
===============================================================================

Box:      33.61502   0.00000   0.00000
           0.00000  33.61502   0.00000
           0.00000   0.00000  33.61502
Lengths:  33.61502  33.61502  33.61502
Angles:   90.00000  90.00000  90.00000
Rectangular boundary conditions

net charge:   0.00000000

component   0 (CO2) lambda:  0 occupancy:  1 (1.000000)
    net charge:   0.00000000 [e]

Amount of molecules per component :
-------------------------------------------------------------------------------
Component 0 (CO2)
    molecules:         2.700000e+01 molecules
    number density:    7.108268e-04 molec/A^3
    density:           5.193423e+01 kg/m^3

Total potential energy/kʙ       -1.879964e+03 [K]
-------------------------------------------------------------------------------
    external field VDW/kʙ        0.000000e+00 [K]
    external field Real/kʙ       0.000000e+00 [K]
    framework-molecule VDW/kʙ    0.000000e+00 [K]
    framework-molecule Real/kʙ   0.000000e+00 [K]
    molecule-molecule VDW/kʙ    -1.508522e+03 [K]
    molecule-molecule Real/kʙ   -2.920101e+02 [K]
    Van der Waals (Tail)/kʙ     -3.564214e+01 [K]
    Ewald Fourier/kʙ             1.543963e+03 [K]
    Ewald self/kʙ               -4.959031e+05 [K]
    Ewald exclusion/kʙ           4.943154e+05 [K]
    intra VDW/kʙ                 0.000000e+00 [K]
    intra Coulombic/kʙ           0.000000e+00 [K]
    polarization/kʙ              0.000000e+00 [K]
    dU/dlambda VDW/kʙ            0.000000e+00 [K]
    dU/dlambda Real/kʙ           0.000000e+00 [K]
    dU/dlambda Ewald/kʙ          0.000000e+00 [K]


Initialization: Current cycle: 1100 out of 2000
===============================================================================

Box:      33.58393   0.00000   0.00000
           0.00000  33.58393   0.00000
           0.00000   0.00000  33.58393
Lengths:  33.58393  33.58393  33.58393
Angles:   90.00000  90.00000  90.00000
Rectangular boundary conditions

net charge:   0.00000000

component   0 (CO2) lambda:  0 occupancy:  1 (1.000000)
    net charge:   0.00000000 [e]

Amount of molecules per component :
-------------------------------------------------------------------------------
Component 0 (CO2)
    molecules:         3.200000e+01 molecules
    number density:    8.448027e-04 molec/A^3
    density:           6.172273e+01 kg/m^3

Total potential energy/kʙ       -4.963065e+03 [K]
-------------------------------------------------------------------------------
    external field VDW/kʙ        0.000000e+00 [K]
    external field Real/kʙ       0.000000e+00 [K]
    framework-molecule VDW/kʙ    0.000000e+00 [K]
    framework-molecule Real/kʙ   0.000000e+00 [K]
    molecule-molecule VDW/kʙ    -3.465249e+03 [K]
    molecule-molecule Real/kʙ   -1.352641e+03 [K]
    Van der Waals (Tail)/kʙ     -5.020437e+01 [K]
    Ewald Fourier/kʙ             1.786810e+03 [K]
    Ewald self/kʙ               -5.877370e+05 [K]
    Ewald exclusion/kʙ           5.858552e+05 [K]
    intra VDW/kʙ                 0.000000e+00 [K]
    intra Coulombic/kʙ           0.000000e+00 [K]
    polarization/kʙ              0.000000e+00 [K]
    dU/dlambda VDW/kʙ            0.000000e+00 [K]
    dU/dlambda Real/kʙ           0.000000e+00 [K]
    dU/dlambda Ewald/kʙ          0.000000e+00 [K]


Initialization: Current cycle: 1200 out of 2000
===============================================================================

Box:      33.55154   0.00000   0.00000
           0.00000  33.55154   0.00000
           0.00000   0.00000  33.55154
Lengths:  33.55154  33.55154  33.55154
Angles:   90.00000  90.00000  90.00000
Rectangular boundary conditions

net charge:   0.00000000

component   0 (CO2) lambda:  0 occupancy:  1 (1.000000)
    net charge:   0.00000000 [e]

Amount of molecules per component :
-------------------------------------------------------------------------------
Component 0 (CO2)
    molecules:         2.500000e+01 molecules
    number density:    6.619155e-04 molec/A^3
    density:           4.836068e+01 kg/m^3

Total potential energy/kʙ       -1.465222e+03 [K]
-------------------------------------------------------------------------------
    external field VDW/kʙ        0.000000e+00 [K]
    external field Real/kʙ       0.000000e+00 [K]
    framework-molecule VDW/kʙ    0.000000e+00 [K]
    framework-molecule Real/kʙ   0.000000e+00 [K]
    molecule-molecule VDW/kʙ    -1.081021e+03 [K]
    molecule-molecule Real/kʙ   -2.526175e+02 [K]
    Van der Waals (Tail)/kʙ     -3.073115e+01 [K]
    Ewald Fourier/kʙ             1.369289e+03 [K]
    Ewald self/kʙ               -4.591696e+05 [K]
    Ewald exclusion/kʙ           4.576994e+05 [K]
    intra VDW/kʙ                 0.000000e+00 [K]
    intra Coulombic/kʙ           0.000000e+00 [K]
    polarization/kʙ              0.000000e+00 [K]
    dU/dlambda VDW/kʙ            0.000000e+00 [K]
    dU/dlambda Real/kʙ           0.000000e+00 [K]
    dU/dlambda Ewald/kʙ          0.000000e+00 [K]


Initialization: Current cycle: 1300 out of 2000
===============================================================================

Box:      33.73798   0.00000   0.00000
           0.00000  33.73798   0.00000
           0.00000   0.00000  33.73798
Lengths:  33.73798  33.73798  33.73798
Angles:   90.00000  90.00000  90.00000
Rectangular boundary conditions

net charge:   0.00000000

component   0 (CO2) lambda:  0 occupancy:  1 (1.000000)
    net charge:   0.00000000 [e]

Amount of molecules per component :
-------------------------------------------------------------------------------
Component 0 (CO2)
    molecules:         3.000000e+01 molecules
    number density:    7.812030e-04 molec/A^3
    density:           5.707603e+01 kg/m^3

Total potential energy/kʙ       -4.337029e+03 [K]
-------------------------------------------------------------------------------
    external field VDW/kʙ        0.000000e+00 [K]
    external field Real/kʙ       0.000000e+00 [K]
    framework-molecule VDW/kʙ    0.000000e+00 [K]
    framework-molecule Real/kʙ   0.000000e+00 [K]
    molecule-molecule VDW/kʙ    -2.973134e+03 [K]
    molecule-molecule Real/kʙ   -1.256585e+03 [K]
    Van der Waals (Tail)/kʙ     -4.352326e+01 [K]
    Ewald Fourier/kʙ             1.700383e+03 [K]
    Ewald self/kʙ               -5.510035e+05 [K]
    Ewald exclusion/kʙ           5.492393e+05 [K]
    intra VDW/kʙ                 0.000000e+00 [K]
    intra Coulombic/kʙ           0.000000e+00 [K]
    polarization/kʙ              0.000000e+00 [K]
    dU/dlambda VDW/kʙ            0.000000e+00 [K]
    dU/dlambda Real/kʙ           0.000000e+00 [K]
    dU/dlambda Ewald/kʙ          0.000000e+00 [K]


Initialization: Current cycle: 1400 out of 2000
===============================================================================

Box:      33.68727   0.00000   0.00000
           0.00000  33.68727   0.00000
           0.00000   0.00000  33.68727
Lengths:  33.68727  33.68727  33.68727
Angles:   90.00000  90.00000  90.00000
Rectangular boundary conditions

net charge:   0.00000000

component   0 (CO2) lambda:  0 occupancy:  1 (1.000000)
    net charge:   0.00000000 [e]

Amount of molecules per component :
-------------------------------------------------------------------------------
Component 0 (CO2)
    molecules:         2.500000e+01 molecules
    number density:    6.539470e-04 molec/A^3
    density:           4.777849e+01 kg/m^3

Total potential energy/kʙ       -2.522496e+03 [K]
-------------------------------------------------------------------------------
    external field VDW/kʙ        0.000000e+00 [K]
    external field Real/kʙ       0.000000e+00 [K]
    framework-molecule VDW/kʙ    0.000000e+00 [K]
    framework-molecule Real/kʙ   0.000000e+00 [K]
    molecule-molecule VDW/kʙ    -1.391124e+03 [K]
    molecule-molecule Real/kʙ   -1.063533e+03 [K]
    Van der Waals (Tail)/kʙ     -3.036119e+01 [K]
    Ewald Fourier/kʙ             1.432663e+03 [K]
    Ewald self/kʙ               -4.591696e+05 [K]
    Ewald exclusion/kʙ           4.576994e+05 [K]
    intra VDW/kʙ                 0.000000e+00 [K]
    intra Coulombic/kʙ           0.000000e+00 [K]
    polarization/kʙ              0.000000e+00 [K]
    dU/dlambda VDW/kʙ            0.000000e+00 [K]
    dU/dlambda Real/kʙ           0.000000e+00 [K]
    dU/dlambda Ewald/kʙ          0.000000e+00 [K]


Initialization: Current cycle: 1500 out of 2000
===============================================================================

Box:      33.54041   0.00000   0.00000
           0.00000  33.54041   0.00000
           0.00000   0.00000  33.54041
Lengths:  33.54041  33.54041  33.54041
Angles:   90.00000  90.00000  90.00000
Rectangular boundary conditions

net charge:   0.00000000

component   0 (CO2) lambda:  0 occupancy:  1 (1.000000)
    net charge:   0.00000000 [e]

Amount of molecules per component :
-------------------------------------------------------------------------------
Component 0 (CO2)
    molecules:         3.500000e+01 molecules
    number density:    9.276049e-04 molec/A^3
    density:           6.777240e+01 kg/m^3

Total potential energy/kʙ       -8.210102e+03 [K]
-------------------------------------------------------------------------------
    external field VDW/kʙ        0.000000e+00 [K]
    external field Real/kʙ       0.000000e+00 [K]
    framework-molecule VDW/kʙ    0.000000e+00 [K]
    framework-molecule Real/kʙ   0.000000e+00 [K]
    molecule-molecule VDW/kʙ    -5.138779e+03 [K]
    molecule-molecule Real/kʙ   -2.744021e+03 [K]
    Van der Waals (Tail)/kʙ     -6.029306e+01 [K]
    Ewald Fourier/kʙ             1.791189e+03 [K]
    Ewald self/kʙ               -6.428374e+05 [K]
    Ewald exclusion/kʙ           6.407792e+05 [K]
    intra VDW/kʙ                 0.000000e+00 [K]
    intra Coulombic/kʙ           0.000000e+00 [K]
    polarization/kʙ              0.000000e+00 [K]
    dU/dlambda VDW/kʙ            0.000000e+00 [K]
    dU/dlambda Real/kʙ           0.000000e+00 [K]
    dU/dlambda Ewald/kʙ          0.000000e+00 [K]


Initialization: Current cycle: 1600 out of 2000
===============================================================================

Box:      33.51632   0.00000   0.00000
           0.00000  33.51632   0.00000
           0.00000   0.00000  33.51632
Lengths:  33.51632  33.51632  33.51632
Angles:   90.00000  90.00000  90.00000
Rectangular boundary conditions

net charge:   0.00000000

component   0 (CO2) lambda:  0 occupancy:  1 (1.000000)
    net charge:   0.00000000 [e]

Amount of molecules per component :
-------------------------------------------------------------------------------
Component 0 (CO2)
    molecules:         2.700000e+01 molecules
    number density:    7.171251e-04 molec/A^3
    density:           5.239438e+01 kg/m^3

Total potential energy/kʙ       -2.473069e+03 [K]
-------------------------------------------------------------------------------
    external field VDW/kʙ        0.000000e+00 [K]
    external field Real/kʙ       0.000000e+00 [K]
    framework-molecule VDW/kʙ    0.000000e+00 [K]
    framework-molecule Real/kʙ   0.000000e+00 [K]
    molecule-molecule VDW/kʙ    -1.265508e+03 [K]
    molecule-molecule Real/kʙ   -1.113623e+03 [K]
    Van der Waals (Tail)/kʙ     -3.595795e+01 [K]
    Ewald Fourier/kʙ             1.529773e+03 [K]
    Ewald self/kʙ               -4.959031e+05 [K]
    Ewald exclusion/kʙ           4.943154e+05 [K]
    intra VDW/kʙ                 0.000000e+00 [K]
    intra Coulombic/kʙ           0.000000e+00 [K]
    polarization/kʙ              0.000000e+00 [K]
    dU/dlambda VDW/kʙ            0.000000e+00 [K]
    dU/dlambda Real/kʙ           0.000000e+00 [K]
    dU/dlambda Ewald/kʙ          0.000000e+00 [K]


Initialization: Current cycle: 1700 out of 2000
===============================================================================

Box:      33.34234   0.00000   0.00000
           0.00000  33.34234   0.00000
           0.00000   0.00000  33.34234
Lengths:  33.34234  33.34234  33.34234
Angles:   90.00000  90.00000  90.00000
Rectangular boundary conditions

net charge:   0.00000000

component   0 (CO2) lambda:  0 occupancy:  1 (1.000000)
    net charge:   0.00000000 [e]

Amount of molecules per component :
-------------------------------------------------------------------------------
Component 0 (CO2)
    molecules:         2.700000e+01 molecules
    number density:    7.284096e-04 molec/A^3
    density:           5.321885e+01 kg/m^3

Total potential energy/kʙ       -2.534782e+03 [K]
-------------------------------------------------------------------------------
    external field VDW/kʙ        0.000000e+00 [K]
    external field Real/kʙ       0.000000e+00 [K]
    framework-molecule VDW/kʙ    0.000000e+00 [K]
    framework-molecule Real/kʙ   0.000000e+00 [K]
    molecule-molecule VDW/kʙ    -1.737794e+03 [K]
    molecule-molecule Real/kʙ   -7.377206e+02 [K]
    Van der Waals (Tail)/kʙ     -3.652377e+01 [K]
    Ewald Fourier/kʙ             1.565009e+03 [K]
    Ewald self/kʙ               -4.959031e+05 [K]
    Ewald exclusion/kʙ           4.943154e+05 [K]
    intra VDW/kʙ                 0.000000e+00 [K]
    intra Coulombic/kʙ           0.000000e+00 [K]
    polarization/kʙ              0.000000e+00 [K]
    dU/dlambda VDW/kʙ            0.000000e+00 [K]
    dU/dlambda Real/kʙ           0.000000e+00 [K]
    dU/dlambda Ewald/kʙ          0.000000e+00 [K]


Initialization: Current cycle: 1800 out of 2000
===============================================================================

Box:      33.62323   0.00000   0.00000
           0.00000  33.62323   0.00000
           0.00000   0.00000  33.62323
Lengths:  33.62323  33.62323  33.62323
Angles:   90.00000  90.00000  90.00000
Rectangular boundary conditions

net charge:   0.00000000

component   0 (CO2) lambda:  0 occupancy:  1 (1.000000)
    net charge:   0.00000000 [e]

Amount of molecules per component :
-------------------------------------------------------------------------------
Component 0 (CO2)
    molecules:         2.300000e+01 molecules
    number density:    6.050757e-04 molec/A^3
    density:           4.420786e+01 kg/m^3

Total potential energy/kʙ       -3.269279e+03 [K]
-------------------------------------------------------------------------------
    external field VDW/kʙ        0.000000e+00 [K]
    external field Real/kʙ       0.000000e+00 [K]
    framework-molecule VDW/kʙ    0.000000e+00 [K]
    framework-molecule Real/kʙ   0.000000e+00 [K]
    molecule-molecule VDW/kʙ    -2.582026e+03 [K]
    molecule-molecule Real/kʙ   -6.578127e+02 [K]
    Van der Waals (Tail)/kʙ     -2.584483e+01 [K]
    Ewald Fourier/kʙ             1.348934e+03 [K]
    Ewald self/kʙ               -4.224360e+05 [K]
    Ewald exclusion/kʙ           4.210835e+05 [K]
    intra VDW/kʙ                 0.000000e+00 [K]
    intra Coulombic/kʙ           0.000000e+00 [K]
    polarization/kʙ              0.000000e+00 [K]
    dU/dlambda VDW/kʙ            0.000000e+00 [K]
    dU/dlambda Real/kʙ           0.000000e+00 [K]
    dU/dlambda Ewald/kʙ          0.000000e+00 [K]


Initialization: Current cycle: 1900 out of 2000
===============================================================================

Box:      33.92717   0.00000   0.00000
           0.00000  33.92717   0.00000
           0.00000   0.00000  33.92717
Lengths:  33.92717  33.92717  33.92717
Angles:   90.00000  90.00000  90.00000
Rectangular boundary conditions

net charge:   0.00000000

component   0 (CO2) lambda:  0 occupancy:  1 (1.000000)
    net charge:   0.00000000 [e]

Amount of molecules per component :
-------------------------------------------------------------------------------
Component 0 (CO2)
    molecules:         4.200000e+01 molecules
    number density:    1.075490e-03 molec/A^3
    density:           7.857714e+01 kg/m^3

Total potential energy/kʙ       -4.069998e+03 [K]
-------------------------------------------------------------------------------
    external field VDW/kʙ        0.000000e+00 [K]
    external field Real/kʙ       0.000000e+00 [K]
    framework-molecule VDW/kʙ    0.000000e+00 [K]
    framework-molecule Real/kʙ   0.000000e+00 [K]
    molecule-molecule VDW/kʙ    -3.509729e+03 [K]
    molecule-molecule Real/kʙ   -3.566007e+02 [K]
    Van der Waals (Tail)/kʙ     -8.388647e+01 [K]
    Ewald Fourier/kʙ             2.350055e+03 [K]
    Ewald self/kʙ               -7.714048e+05 [K]
    Ewald exclusion/kʙ           7.689350e+05 [K]
    intra VDW/kʙ                 0.000000e+00 [K]
    intra Coulombic/kʙ           0.000000e+00 [K]
    polarization/kʙ              0.000000e+00 [K]
    dU/dlambda VDW/kʙ            0.000000e+00 [K]
    dU/dlambda Real/kʙ           0.000000e+00 [K]
    dU/dlambda Ewald/kʙ          0.000000e+00 [K]


Current cycle: 0 out of 6000
===============================================================================

Box:      34.01438   0.00000   0.00000  Average:  34.01438   0.00000   0.00000
           0.00000  34.01438   0.00000             0.00000  34.01438   0.00000
           0.00000   0.00000  34.01438             0.00000   0.00000  34.01438
Lengths:  34.01438  34.01438  34.01438  Average:  34.01438  34.01438  34.01438
Angles:   90.00000  90.00000  90.00000  Average:  90.00000  90.00000  90.00000
Rectangular boundary conditions

net charge:   0.00000000

component 0 (CO2) lambda:  0 occupancy:  1 (1.000000)
    net charge:   0.00000000 [e]

Amount of molecules per component :
-------------------------------------------------------------------------------
Component 0 (CO2)
    molecules:      3.100000e+01 molecules  (3.100000e+01 +/- 0.000000e+00)
    number density: 7.877242e-04 molec./A^3 (7.877242e-04 +/- 0.000000e+00)
    density:        5.755248e+01 kg/m^3     (5.755248e+01 +/- 0.000000e+00)

Average pressure tensor: 
-------------------------------------------------------------------------------
 2.8277e+01  0.0000e+00  0.0000e+00 +/- 0.0000e+00 0.0000e+00 0.0000e+00 [bar]
 0.0000e+00  2.8277e+01  0.0000e+00 +/- 0.0000e+00 0.0000e+00 0.0000e+00 [bar]
 0.0000e+00  0.0000e+00  2.8277e+01 +/- 0.0000e+00 0.0000e+00 0.0000e+00 [bar]
Ideal-gas pressure:   2.827686e+01 +/ 0.000000e+00 [bar]
Excess pressure:      0.000000e+00 +/ 0.000000e+00 [bar]
Pressure:             2.827686e+01 +/ 0.000000e+00 [bar]

Total potential energy/kʙ  -1.871427e+03 (-1.871427e+03 +/- 0.000000e+00) [K]
-------------------------------------------------------------------------------
ExternalField-molecule
    Van der Waals/kʙ        0.000000e+00 ( 0.000000e+00 +/- 0.000000e+00) [K]
Framework-molecule
    Van der Waals/kʙ        0.000000e+00 ( 0.000000e+00 +/- 0.000000e+00) [K]
    Van der Waals (Tail)/kʙ 0.000000e+00 ( 0.000000e+00 +/- 0.000000e+00) [K]
    Coulombic Real/kʙ       0.000000e+00 ( 0.000000e+00 +/- 0.000000e+00) [K]
    Coulombic Fourier/kʙ    0.000000e+00 ( 0.000000e+00 +/- 0.000000e+00) [K]
Molecule-molecule
    Van der Waals/kʙ       -1.586460e+03 (-1.586460e+03 +/- 0.000000e+00) [K]
    Van der Waals (Tail)/kʙ-4.534946e+01 (-4.534946e+01 +/- 0.000000e+00) [K]
    Coulombic Real/kʙ      -2.456285e+02 (-2.456285e+02 +/- 0.000000e+00) [K]
    Coulombic Fourier/kʙ    6.011216e+00 ( 6.011216e+00 +/- 0.000000e+00) [K]
    Molecule Intra/kʙ       0.000000e+00 ( 0.000000e+00 +/- 0.000000e+00) [K]

Current cycle: 100 out of 6000
===============================================================================

Box:      33.91923   0.00000   0.00000  Average:  33.94053   0.00000   0.00000
           0.00000  33.91923   0.00000             0.00000  33.94053   0.00000
           0.00000   0.00000  33.91923             0.00000   0.00000  33.94053
Lengths:  33.91923  33.91923  33.91923  Average:  33.94053  33.94053  33.94053
Angles:   90.00000  90.00000  90.00000  Average:  90.00000  90.00000  90.00000
Rectangular boundary conditions

net charge:   0.00000000

component 0 (CO2) lambda:  0 occupancy:  1 (1.000000)
    net charge:   0.00000000 [e]

Amount of molecules per component :
-------------------------------------------------------------------------------
Component 0 (CO2)
    molecules:      3.500000e+01 molecules  (3.369307e+01 +/- 0.000000e+00)
    number density: 8.968713e-04 molec./A^3 (8.616922e-04 +/- 0.000000e+00)
    density:        6.552695e+01 kg/m^3     (6.295670e+01 +/- 0.000000e+00)

Average pressure tensor: 
-------------------------------------------------------------------------------
 2.2036e+01  2.2831e+00 -2.1258e+00 +/- 0.0000e+00 0.0000e+00 0.0000e+00 [bar]
 2.2831e+00  2.2758e+01  2.1116e-01 +/- 0.0000e+00 0.0000e+00 0.0000e+00 [bar]
-2.1258e+00  2.1116e-01  2.4706e+01 +/- 0.0000e+00 0.0000e+00 0.0000e+00 [bar]
Ideal-gas pressure:   3.093208e+01 +/ 0.000000e+00 [bar]
Excess pressure:     -7.765458e+00 +/ 0.000000e+00 [bar]
Pressure:             2.316663e+01 +/ 0.000000e+00 [bar]

Total potential energy/kʙ  -5.829716e+03 (-3.934794e+03 +/- 0.000000e+00) [K]
-------------------------------------------------------------------------------
ExternalField-molecule
    Van der Waals/kʙ        0.000000e+00 ( 0.000000e+00 +/- 0.000000e+00) [K]
Framework-molecule
    Van der Waals/kʙ        0.000000e+00 ( 0.000000e+00 +/- 0.000000e+00) [K]
    Van der Waals (Tail)/kʙ 0.000000e+00 ( 0.000000e+00 +/- 0.000000e+00) [K]
    Coulombic Real/kʙ       0.000000e+00 ( 0.000000e+00 +/- 0.000000e+00) [K]
    Coulombic Fourier/kʙ    0.000000e+00 ( 0.000000e+00 +/- 0.000000e+00) [K]
Molecule-molecule
    Van der Waals/kʙ       -4.250628e+03 (-2.933220e+03 +/- 0.000000e+00) [K]
    Van der Waals (Tail)/kʙ-5.829541e+01 (-5.534673e+01 +/- 0.000000e+00) [K]
    Coulombic Real/kʙ      -1.353005e+03 (-8.326520e+02 +/- 0.000000e+00) [K]
    Coulombic Fourier/kʙ   -1.677873e+02 (-1.135756e+02 +/- 0.000000e+00) [K]
    Molecule Intra/kʙ       0.000000e+00 ( 0.000000e+00 +/- 0.000000e+00) [K]

Current cycle: 200 out of 6000
===============================================================================

Box:      33.87729   0.00000   0.00000  Average:  33.92592   0.00000   0.00000
           0.00000  33.87729   0.00000             0.00000  33.92592   0.00000
           0.00000   0.00000  33.87729             0.00000   0.00000  33.92592
Lengths:  33.87729  33.87729  33.87729  Average:  33.92592  33.92592  33.92592
Angles:   90.00000  90.00000  90.00000  Average:  90.00000  90.00000  90.00000
Rectangular boundary conditions

net charge:   0.00000000

component 0 (CO2) lambda:  0 occupancy:  1 (1.000000)
    net charge:   0.00000000 [e]

Amount of molecules per component :
-------------------------------------------------------------------------------
Component 0 (CO2)
    molecules:      3.400000e+01 molecules  (3.638308e+01 +/- 0.000000e+00)
    number density: 8.744858e-04 molec./A^3 (9.316837e-04 +/- 0.000000e+00)
    density:        6.389143e+01 kg/m^3     (6.807040e+01 +/- 0.000000e+00)

Average pressure tensor: 
-------------------------------------------------------------------------------
 3.2050e+01  2.4700e+00 -2.8176e+00 +/- 0.0000e+00 0.0000e+00 0.0000e+00 [bar]
 2.4700e+00  2.2443e+01  3.8484e-01 +/- 0.0000e+00 0.0000e+00 0.0000e+00 [bar]
-2.8176e+00  3.8484e-01  2.8405e+01 +/- 0.0000e+00 0.0000e+00 0.0000e+00 [bar]
Ideal-gas pressure:   3.344456e+01 +/ 0.000000e+00 [bar]
Excess pressure:     -5.811658e+00 +/ 0.000000e+00 [bar]
Pressure:             2.763290e+01 +/ 0.000000e+00 [bar]

Total potential energy/kʙ  -4.918748e+03 (-4.462131e+03 +/- 0.000000e+00) [K]
-------------------------------------------------------------------------------
ExternalField-molecule
    Van der Waals/kʙ        0.000000e+00 ( 0.000000e+00 +/- 0.000000e+00) [K]
Framework-molecule
    Van der Waals/kʙ        0.000000e+00 ( 0.000000e+00 +/- 0.000000e+00) [K]
    Van der Waals (Tail)/kʙ 0.000000e+00 ( 0.000000e+00 +/- 0.000000e+00) [K]
    Coulombic Real/kʙ       0.000000e+00 ( 0.000000e+00 +/- 0.000000e+00) [K]
    Coulombic Fourier/kʙ    0.000000e+00 ( 0.000000e+00 +/- 0.000000e+00) [K]
Molecule-molecule
    Van der Waals/kʙ       -3.511647e+03 (-3.211920e+03 +/- 0.000000e+00) [K]
    Van der Waals (Tail)/kʙ-5.521638e+01 (-6.346112e+01 +/- 0.000000e+00) [K]
    Coulombic Real/kʙ      -1.167114e+03 (-1.054704e+03 +/- 0.000000e+00) [K]
    Coulombic Fourier/kʙ   -1.847705e+02 (-1.320453e+02 +/- 0.000000e+00) [K]
    Molecule Intra/kʙ       0.000000e+00 ( 0.000000e+00 +/- 0.000000e+00) [K]

Current cycle: 300 out of 6000
===============================================================================

Box:      33.95941   0.00000   0.00000  Average:  33.93548   0.00000   0.00000
           0.00000  33.95941   0.00000             0.00000  33.93548   0.00000
           0.00000   0.00000  33.95941             0.00000   0.00000  33.93548
Lengths:  33.95941  33.95941  33.95941  Average:  33.93548  33.93548  33.93548
Angles:   90.00000  90.00000  90.00000  Average:  90.00000  90.00000  90.00000
Rectangular boundary conditions

net charge:   0.00000000

component 0 (CO2) lambda:  0 occupancy:  1 (1.000000)
    net charge:   0.00000000 [e]

Amount of molecules per component :
-------------------------------------------------------------------------------
Component 0 (CO2)
    molecules:      4.600000e+01 molecules  (3.867442e+01 +/- 0.000000e+00)
    number density: 1.174566e-03 molec./A^3 (9.893470e-04 +/- 0.000000e+00)
    density:        8.581583e+01 kg/m^3     (7.228338e+01 +/- 0.000000e+00)

Average pressure tensor: 
-------------------------------------------------------------------------------
 2.9431e+01  7.5069e-01 -6.9981e-01 +/- 0.0000e+00 0.0000e+00 0.0000e+00 [bar]
 7.5069e-01  2.0921e+01  4.3528e-01 +/- 0.0000e+00 0.0000e+00 0.0000e+00 [bar]
-6.9981e-01  4.3528e-01  2.7205e+01 +/- 0.0000e+00 0.0000e+00 0.0000e+00 [bar]
Ideal-gas pressure:   3.551450e+01 +/ 0.000000e+00 [bar]
Excess pressure:     -9.662203e+00 +/ 0.000000e+00 [bar]
Pressure:             2.585230e+01 +/ 0.000000e+00 [bar]

Total potential energy/kʙ  -6.391907e+03 (-5.389475e+03 +/- 0.000000e+00) [K]
-------------------------------------------------------------------------------
ExternalField-molecule
    Van der Waals/kʙ        0.000000e+00 ( 0.000000e+00 +/- 0.000000e+00) [K]
Framework-molecule
    Van der Waals/kʙ        0.000000e+00 ( 0.000000e+00 +/- 0.000000e+00) [K]
    Van der Waals (Tail)/kʙ 0.000000e+00 ( 0.000000e+00 +/- 0.000000e+00) [K]
    Coulombic Real/kʙ       0.000000e+00 ( 0.000000e+00 +/- 0.000000e+00) [K]
    Coulombic Fourier/kʙ    0.000000e+00 ( 0.000000e+00 +/- 0.000000e+00) [K]
Molecule-molecule
    Van der Waals/kʙ       -5.034721e+03 (-3.938259e+03 +/- 0.000000e+00) [K]
    Van der Waals (Tail)/kʙ-1.003394e+02 (-7.343708e+01 +/- 0.000000e+00) [K]
    Coulombic Real/kʙ      -1.060891e+03 (-1.234959e+03 +/- 0.000000e+00) [K]
    Coulombic Fourier/kʙ   -1.959553e+02 (-1.428198e+02 +/- 0.000000e+00) [K]
    Molecule Intra/kʙ       0.000000e+00 ( 0.000000e+00 +/- 0.000000e+00) [K]

Current cycle: 400 out of 6000
===============================================================================

Box:      33.72418   0.00000   0.00000  Average:  33.91305   0.00000   0.00000
           0.00000  33.72418   0.00000             0.00000  33.91305   0.00000
           0.00000   0.00000  33.72418             0.00000   0.00000  33.91305
Lengths:  33.72418  33.72418  33.72418  Average:  33.91305  33.91305  33.91305
Angles:   90.00000  90.00000  90.00000  Average:  90.00000  90.00000  90.00000
Rectangular boundary conditions

net charge:   0.00000000

component 0 (CO2) lambda:  0 occupancy:  1 (1.000000)
    net charge:   0.00000000 [e]

Amount of molecules per component :
-------------------------------------------------------------------------------
Component 0 (CO2)
    molecules:      3.500000e+01 molecules  (3.913965e+01 +/- 0.000000e+00)
    number density: 9.125231e-04 molec./A^3 (1.003167e-03 +/- 0.000000e+00)
    density:        6.667050e+01 kg/m^3     (7.329312e+01 +/- 0.000000e+00)

Average pressure tensor: 
-------------------------------------------------------------------------------
 2.8351e+01 -5.9082e-01 -7.8448e-01 +/- 0.0000e+00 0.0000e+00 0.0000e+00 [bar]
-5.9082e-01  2.1472e+01 -2.5722e-01 +/- 0.0000e+00 0.0000e+00 0.0000e+00 [bar]
-7.8448e-01 -2.5722e-01  2.7410e+01 +/- 0.0000e+00 0.0000e+00 0.0000e+00 [bar]
Ideal-gas pressure:   3.601060e+01 +/ 0.000000e+00 [bar]
Excess pressure:     -1.026599e+01 +/ 0.000000e+00 [bar]
Pressure:             2.574461e+01 +/ 0.000000e+00 [bar]

Total potential energy/kʙ  -5.791703e+03 (-5.396155e+03 +/- 0.000000e+00) [K]
-------------------------------------------------------------------------------
ExternalField-molecule
    Van der Waals/kʙ        0.000000e+00 ( 0.000000e+00 +/- 0.000000e+00) [K]
Framework-molecule
    Van der Waals/kʙ        0.000000e+00 ( 0.000000e+00 +/- 0.000000e+00) [K]
    Van der Waals (Tail)/kʙ 0.000000e+00 ( 0.000000e+00 +/- 0.000000e+00) [K]
    Coulombic Real/kʙ       0.000000e+00 ( 0.000000e+00 +/- 0.000000e+00) [K]
    Coulombic Fourier/kʙ    0.000000e+00 ( 0.000000e+00 +/- 0.000000e+00) [K]
Molecule-molecule
    Van der Waals/kʙ       -3.973010e+03 (-3.970289e+03 +/- 0.000000e+00) [K]
    Van der Waals (Tail)/kʙ-5.931276e+01 (-7.390193e+01 +/- 0.000000e+00) [K]
    Coulombic Real/kʙ      -1.656995e+03 (-1.213647e+03 +/- 0.000000e+00) [K]
    Coulombic Fourier/kʙ   -1.023864e+02 (-1.383173e+02 +/- 0.000000e+00) [K]
    Molecule Intra/kʙ       0.000000e+00 ( 0.000000e+00 +/- 0.000000e+00) [K]

Current cycle: 500 out of 6000
===============================================================================

Box:      33.69042   0.00000   0.00000  Average:  33.88271   0.00000   0.00000
           0.00000  33.69042   0.00000             0.00000  33.88271   0.00000
           0.00000   0.00000  33.69042             0.00000   0.00000  33.88271
Lengths:  33.69042  33.69042  33.69042  Average:  33.88271  33.88271  33.88271
Angles:   90.00000  90.00000  90.00000  Average:  90.00000  90.00000  90.00000
Rectangular boundary conditions

net charge:   0.00000000

component 0 (CO2) lambda:  0 occupancy:  1 (1.000000)
    net charge:   0.00000000 [e]

Amount of molecules per component :
-------------------------------------------------------------------------------
Component 0 (CO2)
    molecules:      3.400000e+01 molecules  (3.834930e+01 +/- 0.000000e+00)
    number density: 8.891182e-04 molec./A^3 (9.854141e-04 +/- 0.000000e+00)
    density:        6.496050e+01 kg/m^3     (7.199604e+01 +/- 0.000000e+00)

Average pressure tensor: 
-------------------------------------------------------------------------------
 2.7656e+01 -8.7253e-02 -8.2541e-01 +/- 0.0000e+00 0.0000e+00 0.0000e+00 [bar]
-8.7253e-02  2.2766e+01 -9.5745e-01 +/- 0.0000e+00 0.0000e+00 0.0000e+00 [bar]
-8.2541e-01 -9.5745e-01  2.6491e+01 +/- 0.0000e+00 0.0000e+00 0.0000e+00 [bar]
Ideal-gas pressure:   3.537332e+01 +/ 0.000000e+00 [bar]
Excess pressure:     -9.735532e+00 +/ 0.000000e+00 [bar]
Pressure:             2.563779e+01 +/ 0.000000e+00 [bar]

Total potential energy/kʙ  -7.263269e+03 (-5.365678e+03 +/- 0.000000e+00) [K]
-------------------------------------------------------------------------------
ExternalField-molecule
    Van der Waals/kʙ        0.000000e+00 ( 0.000000e+00 +/- 0.000000e+00) [K]
Framework-molecule
    Van der Waals/kʙ        0.000000e+00 ( 0.000000e+00 +/- 0.000000e+00) [K]
    Van der Waals (Tail)/kʙ 0.000000e+00 ( 0.000000e+00 +/- 0.000000e+00) [K]
    Coulombic Real/kʙ       0.000000e+00 ( 0.000000e+00 +/- 0.000000e+00) [K]
    Coulombic Fourier/kʙ    0.000000e+00 ( 0.000000e+00 +/- 0.000000e+00) [K]
Molecule-molecule
    Van der Waals/kʙ       -5.224329e+03 (-3.937170e+03 +/- 0.000000e+00) [K]
    Van der Waals (Tail)/kʙ-5.614029e+01 (-7.151765e+01 +/- 0.000000e+00) [K]
    Coulombic Real/kʙ      -1.889320e+03 (-1.223478e+03 +/- 0.000000e+00) [K]
    Coulombic Fourier/kʙ   -9.347951e+01 (-1.335125e+02 +/- 0.000000e+00) [K]
    Molecule Intra/kʙ       0.000000e+00 ( 0.000000e+00 +/- 0.000000e+00) [K]

Current cycle: 600 out of 6000
===============================================================================

Box:      33.71916   0.00000   0.00000  Average:  33.84569   0.00000   0.00000
           0.00000  33.71916   0.00000             0.00000  33.84569   0.00000
           0.00000   0.00000  33.71916             0.00000   0.00000  33.84569
Lengths:  33.71916  33.71916  33.71916  Average:  33.84569  33.84569  33.84569
Angles:   90.00000  90.00000  90.00000  Average:  90.00000  90.00000  90.00000
Rectangular boundary conditions

net charge:   0.00000000

component 0 (CO2) lambda:  0 occupancy:  1 (1.000000)
    net charge:   0.00000000 [e]

Amount of molecules per component :
-------------------------------------------------------------------------------
Component 0 (CO2)
    molecules:      2.800000e+01 molecules  (3.671547e+01 +/- 0.000000e+00)
    number density: 7.303446e-04 molec./A^3 (9.459678e-04 +/- 0.000000e+00)
    density:        5.336022e+01 kg/m^3     (6.911402e+01 +/- 0.000000e+00)

Average pressure tensor: 
-------------------------------------------------------------------------------
 2.7020e+01  2.6322e-01 -1.1459e+00 +/- 0.0000e+00 0.0000e+00 0.0000e+00 [bar]
 2.6322e-01  2.2439e+01 -1.6229e+00 +/- 0.0000e+00 0.0000e+00 0.0000e+00 [bar]
-1.1459e+00 -1.6229e+00  2.5678e+01 +/- 0.0000e+00 0.0000e+00 0.0000e+00 [bar]
Ideal-gas pressure:   3.395732e+01 +/ 0.000000e+00 [bar]
Excess pressure:     -8.911718e+00 +/ 0.000000e+00 [bar]
Pressure:             2.504560e+01 +/ 0.000000e+00 [bar]

Total potential energy/kʙ  -2.429378e+03 (-4.880826e+03 +/- 0.000000e+00) [K]
-------------------------------------------------------------------------------
ExternalField-molecule
    Van der Waals/kʙ        0.000000e+00 ( 0.000000e+00 +/- 0.000000e+00) [K]
Framework-molecule
    Van der Waals/kʙ        0.000000e+00 ( 0.000000e+00 +/- 0.000000e+00) [K]
    Van der Waals (Tail)/kʙ 0.000000e+00 ( 0.000000e+00 +/- 0.000000e+00) [K]
    Coulombic Real/kʙ       0.000000e+00 ( 0.000000e+00 +/- 0.000000e+00) [K]
    Coulombic Fourier/kʙ    0.000000e+00 ( 0.000000e+00 +/- 0.000000e+00) [K]
Molecule-molecule
    Van der Waals/kʙ       -1.859868e+03 (-3.597828e+03 +/- 0.000000e+00) [K]
    Van der Waals (Tail)/kʙ-3.797712e+01 (-6.618988e+01 +/- 0.000000e+00) [K]
    Coulombic Real/kʙ      -4.947338e+02 (-1.092599e+03 +/- 0.000000e+00) [K]
    Coulombic Fourier/kʙ   -3.679892e+01 (-1.242091e+02 +/- 0.000000e+00) [K]
    Molecule Intra/kʙ       0.000000e+00 ( 0.000000e+00 +/- 0.000000e+00) [K]

Current cycle: 700 out of 6000
===============================================================================

Box:      33.69005   0.00000   0.00000  Average:  33.82850   0.00000   0.00000
           0.00000  33.69005   0.00000             0.00000  33.82850   0.00000
           0.00000   0.00000  33.69005             0.00000   0.00000  33.82850
Lengths:  33.69005  33.69005  33.69005  Average:  33.82850  33.82850  33.82850
Angles:   90.00000  90.00000  90.00000  Average:  90.00000  90.00000  90.00000
Rectangular boundary conditions

net charge:   0.00000000

component 0 (CO2) lambda:  0 occupancy:  1 (1.000000)
    net charge:   0.00000000 [e]

Amount of molecules per component :
-------------------------------------------------------------------------------
Component 0 (CO2)
    molecules:      3.200000e+01 molecules  (3.629529e+01 +/- 0.000000e+00)
    number density: 8.368451e-04 molec./A^3 (9.365826e-04 +/- 0.000000e+00)
    density:        6.114134e+01 kg/m^3     (6.842833e+01 +/- 0.000000e+00)

Average pressure tensor: 
-------------------------------------------------------------------------------
 2.6360e+01  4.2059e-01 -1.3220e+00 +/- 0.0000e+00 0.0000e+00 0.0000e+00 [bar]
 4.2059e-01  2.2498e+01 -1.7364e+00 +/- 0.0000e+00 0.0000e+00 0.0000e+00 [bar]
-1.3220e+00 -1.7364e+00  2.5076e+01 +/- 0.0000e+00 0.0000e+00 0.0000e+00 [bar]
Ideal-gas pressure:   3.362042e+01 +/ 0.000000e+00 [bar]
Excess pressure:     -8.975809e+00 +/ 0.000000e+00 [bar]
Pressure:             2.464461e+01 +/ 0.000000e+00 [bar]

Total potential energy/kʙ  -3.434235e+03 (-4.816254e+03 +/- 0.000000e+00) [K]
-------------------------------------------------------------------------------
ExternalField-molecule
    Van der Waals/kʙ        0.000000e+00 ( 0.000000e+00 +/- 0.000000e+00) [K]
Framework-molecule
    Van der Waals/kʙ        0.000000e+00 ( 0.000000e+00 +/- 0.000000e+00) [K]
    Van der Waals (Tail)/kʙ 0.000000e+00 ( 0.000000e+00 +/- 0.000000e+00) [K]
    Coulombic Real/kʙ       0.000000e+00 ( 0.000000e+00 +/- 0.000000e+00) [K]
    Coulombic Fourier/kʙ    0.000000e+00 ( 0.000000e+00 +/- 0.000000e+00) [K]
Molecule-molecule
    Van der Waals/kʙ       -2.393155e+03 (-3.541006e+03 +/- 0.000000e+00) [K]
    Van der Waals (Tail)/kʙ-4.973147e+01 (-6.491714e+01 +/- 0.000000e+00) [K]
    Coulombic Real/kʙ      -8.734982e+02 (-1.089108e+03 +/- 0.000000e+00) [K]
    Coulombic Fourier/kʙ   -1.178507e+02 (-1.212225e+02 +/- 0.000000e+00) [K]
    Molecule Intra/kʙ       0.000000e+00 ( 0.000000e+00 +/- 0.000000e+00) [K]

Current cycle: 800 out of 6000
===============================================================================

Box:      33.84358   0.00000   0.00000  Average:  33.82902   0.00000   0.00000
           0.00000  33.84358   0.00000             0.00000  33.82902   0.00000
           0.00000   0.00000  33.84358             0.00000   0.00000  33.82902
Lengths:  33.84358  33.84358  33.84358  Average:  33.82902  33.82902  33.82902
Angles:   90.00000  90.00000  90.00000  Average:  90.00000  90.00000  90.00000
Rectangular boundary conditions

net charge:   0.00000000

component 0 (CO2) lambda:  0 occupancy:  1 (1.000000)
    net charge:   0.00000000 [e]

Amount of molecules per component :
-------------------------------------------------------------------------------
Component 0 (CO2)
    molecules:      3.900000e+01 molecules  (3.629713e+01 +/- 0.000000e+00)
    number density: 1.006087e-03 molec./A^3 (9.366529e-04 +/- 0.000000e+00)
    density:        7.350647e+01 kg/m^3     (6.843347e+01 +/- 0.000000e+00)

Average pressure tensor: 
-------------------------------------------------------------------------------
 2.6105e+01  2.4841e-01 -1.3023e+00 +/- 0.0000e+00 0.0000e+00 0.0000e+00 [bar]
 2.4841e-01  2.3973e+01 -1.7671e+00 +/- 0.0000e+00 0.0000e+00 0.0000e+00 [bar]
-1.3023e+00 -1.7671e+00  2.5059e+01 +/- 0.0000e+00 0.0000e+00 0.0000e+00 [bar]
Ideal-gas pressure:   3.362294e+01 +/ 0.000000e+00 [bar]
Excess pressure:     -8.577550e+00 +/ 0.000000e+00 [bar]
Pressure:             2.504539e+01 +/ 0.000000e+00 [bar]

Total potential energy/kʙ  -4.365126e+03 (-4.738027e+03 +/- 0.000000e+00) [K]
-------------------------------------------------------------------------------
ExternalField-molecule
    Van der Waals/kʙ        0.000000e+00 ( 0.000000e+00 +/- 0.000000e+00) [K]
Framework-molecule
    Van der Waals/kʙ        0.000000e+00 ( 0.000000e+00 +/- 0.000000e+00) [K]
    Van der Waals (Tail)/kʙ 0.000000e+00 ( 0.000000e+00 +/- 0.000000e+00) [K]
    Coulombic Real/kʙ       0.000000e+00 ( 0.000000e+00 +/- 0.000000e+00) [K]
    Coulombic Fourier/kʙ    0.000000e+00 ( 0.000000e+00 +/- 0.000000e+00) [K]
Molecule-molecule
    Van der Waals/kʙ       -4.201562e+03 (-3.492825e+03 +/- 0.000000e+00) [K]
    Van der Waals (Tail)/kʙ-7.286795e+01 (-6.453130e+01 +/- 0.000000e+00) [K]
    Coulombic Real/kʙ      -4.636633e+01 (-1.063824e+03 +/- 0.000000e+00) [K]
    Coulombic Fourier/kʙ   -4.432922e+01 (-1.168467e+02 +/- 0.000000e+00) [K]
    Molecule Intra/kʙ       0.000000e+00 ( 0.000000e+00 +/- 0.000000e+00) [K]

Current cycle: 900 out of 6000
===============================================================================

Box:      33.54658   0.00000   0.00000  Average:  33.80788   0.00000   0.00000
           0.00000  33.54658   0.00000             0.00000  33.80788   0.00000
           0.00000   0.00000  33.54658             0.00000   0.00000  33.80788
Lengths:  33.54658  33.54658  33.54658  Average:  33.80788  33.80788  33.80788
Angles:   90.00000  90.00000  90.00000  Average:  90.00000  90.00000  90.00000
Rectangular boundary conditions

net charge:   0.00000000

component 0 (CO2) lambda:  0 occupancy:  1 (1.000000)
    net charge:   0.00000000 [e]

Amount of molecules per component :
-------------------------------------------------------------------------------
Component 0 (CO2)
    molecules:      2.800000e+01 molecules  (3.583685e+01 +/- 0.000000e+00)
    number density: 7.416742e-04 molec./A^3 (9.263614e-04 +/- 0.000000e+00)
    density:        5.418799e+01 kg/m^3     (6.768155e+01 +/- 0.000000e+00)

Average pressure tensor: 
-------------------------------------------------------------------------------
 2.6308e+01  1.8039e-01 -1.2344e+00 +/- 0.0000e+00 0.0000e+00 0.0000e+00 [bar]
 1.8039e-01  2.4593e+01 -2.1563e+00 +/- 0.0000e+00 0.0000e+00 0.0000e+00 [bar]
-1.2344e+00 -2.1563e+00  2.5206e+01 +/- 0.0000e+00 0.0000e+00 0.0000e+00 [bar]
Ideal-gas pressure:   3.325351e+01 +/ 0.000000e+00 [bar]
Excess pressure:     -7.884434e+00 +/ 0.000000e+00 [bar]
Pressure:             2.536908e+01 +/ 0.000000e+00 [bar]

Total potential energy/kʙ  -4.181750e+03 (-4.642433e+03 +/- 0.000000e+00) [K]
-------------------------------------------------------------------------------
ExternalField-molecule
    Van der Waals/kʙ        0.000000e+00 ( 0.000000e+00 +/- 0.000000e+00) [K]
Framework-molecule
    Van der Waals/kʙ        0.000000e+00 ( 0.000000e+00 +/- 0.000000e+00) [K]
    Van der Waals (Tail)/kʙ 0.000000e+00 ( 0.000000e+00 +/- 0.000000e+00) [K]
    Coulombic Real/kʙ       0.000000e+00 ( 0.000000e+00 +/- 0.000000e+00) [K]
    Coulombic Fourier/kʙ    0.000000e+00 ( 0.000000e+00 +/- 0.000000e+00) [K]
Molecule-molecule
    Van der Waals/kʙ       -2.945234e+03 (-3.407132e+03 +/- 0.000000e+00) [K]
    Van der Waals (Tail)/kʙ-3.856625e+01 (-6.276369e+01 +/- 0.000000e+00) [K]
    Coulombic Real/kʙ      -1.135586e+03 (-1.060758e+03 +/- 0.000000e+00) [K]
    Coulombic Fourier/kʙ   -6.236337e+01 (-1.117793e+02 +/- 0.000000e+00) [K]
    Molecule Intra/kʙ       0.000000e+00 ( 0.000000e+00 +/- 0.000000e+00) [K]

Current cycle: 1000 out of 6000
===============================================================================

Box:      33.28179   0.00000   0.00000  Average:  33.76581   0.00000   0.00000
           0.00000  33.28179   0.00000             0.00000  33.76581   0.00000
           0.00000   0.00000  33.28179             0.00000   0.00000  33.76581
Lengths:  33.28179  33.28179  33.28179  Average:  33.76581  33.76581  33.76581
Angles:   90.00000  90.00000  90.00000  Average:  90.00000  90.00000  90.00000
Rectangular boundary conditions

net charge:   0.00000000

component 0 (CO2) lambda:  0 occupancy:  1 (1.000000)
    net charge:   0.00000000 [e]

Amount of molecules per component :
-------------------------------------------------------------------------------
Component 0 (CO2)
    molecules:      2.300000e+01 molecules  (3.489211e+01 +/- 0.000000e+00)
    number density: 6.238895e-04 molec./A^3 (9.045995e-04 +/- 0.000000e+00)
    density:        4.558243e+01 kg/m^3     (6.609158e+01 +/- 0.000000e+00)

Average pressure tensor: 
-------------------------------------------------------------------------------
 2.5969e+01 -1.2960e-01 -8.1796e-01 +/- 0.0000e+00 0.0000e+00 0.0000e+00 [bar]
-1.2960e-01  2.4100e+01 -2.0560e+00 +/- 0.0000e+00 0.0000e+00 0.0000e+00 [bar]
-8.1796e-01 -2.0560e+00  2.5130e+01 +/- 0.0000e+00 0.0000e+00 0.0000e+00 [bar]
Ideal-gas pressure:   3.247232e+01 +/ 0.000000e+00 [bar]
Excess pressure:     -7.406138e+00 +/ 0.000000e+00 [bar]
Pressure:             2.506619e+01 +/ 0.000000e+00 [bar]

Total potential energy/kʙ  -2.056519e+03 (-4.414523e+03 +/- 0.000000e+00) [K]
-------------------------------------------------------------------------------
ExternalField-molecule
    Van der Waals/kʙ        0.000000e+00 ( 0.000000e+00 +/- 0.000000e+00) [K]
Framework-molecule
    Van der Waals/kʙ        0.000000e+00 ( 0.000000e+00 +/- 0.000000e+00) [K]
    Van der Waals (Tail)/kʙ 0.000000e+00 ( 0.000000e+00 +/- 0.000000e+00) [K]
    Coulombic Real/kʙ       0.000000e+00 ( 0.000000e+00 +/- 0.000000e+00) [K]
    Coulombic Fourier/kʙ    0.000000e+00 ( 0.000000e+00 +/- 0.000000e+00) [K]
Molecule-molecule
    Van der Waals/kʙ       -2.106265e+03 (-3.241169e+03 +/- 0.000000e+00) [K]
    Van der Waals (Tail)/kʙ-2.664844e+01 (-5.970525e+01 +/- 0.000000e+00) [K]
    Coulombic Real/kʙ       4.155993e+01 (-1.007817e+03 +/- 0.000000e+00) [K]
    Coulombic Fourier/kʙ    3.483396e+01 (-1.058326e+02 +/- 0.000000e+00) [K]
    Molecule Intra/kʙ       0.000000e+00 ( 0.000000e+00 +/- 0.000000e+00) [K]

Current cycle: 1100 out of 6000
===============================================================================

Box:      33.38881   0.00000   0.00000  Average:  33.72394   0.00000   0.00000
           0.00000  33.38881   0.00000             0.00000  33.72394   0.00000
           0.00000   0.00000  33.38881             0.00000   0.00000  33.72394
Lengths:  33.38881  33.38881  33.38881  Average:  33.72394  33.72394  33.72394
Angles:   90.00000  90.00000  90.00000  Average:  90.00000  90.00000  90.00000
Rectangular boundary conditions

net charge:   0.00000000

component 0 (CO2) lambda:  0 occupancy:  1 (1.000000)
    net charge:   0.00000000 [e]

Amount of molecules per component :
-------------------------------------------------------------------------------
Component 0 (CO2)
    molecules:      2.800000e+01 molecules  (3.390736e+01 +/- 0.000000e+00)
    number density: 7.522376e-04 molec./A^3 (8.815702e-04 +/- 0.000000e+00)
    density:        5.495977e+01 kg/m^3     (6.440903e+01 +/- 0.000000e+00)

Average pressure tensor: 
-------------------------------------------------------------------------------
 2.5469e+01 -1.1291e-01 -7.8798e-01 +/- 0.0000e+00 0.0000e+00 0.0000e+00 [bar]
-1.1291e-01  2.4089e+01 -1.7276e+00 +/- 0.0000e+00 0.0000e+00 0.0000e+00 [bar]
-7.8798e-01 -1.7276e+00  2.5009e+01 +/- 0.0000e+00 0.0000e+00 0.0000e+00 [bar]
Ideal-gas pressure:   3.164565e+01 +/ 0.000000e+00 [bar]
Excess pressure:     -6.790262e+00 +/ 0.000000e+00 [bar]
Pressure:             2.485538e+01 +/ 0.000000e+00 [bar]

Total potential energy/kʙ  -2.188534e+03 (-4.217110e+03 +/- 0.000000e+00) [K]
-------------------------------------------------------------------------------
ExternalField-molecule
    Van der Waals/kʙ        0.000000e+00 ( 0.000000e+00 +/- 0.000000e+00) [K]
Framework-molecule
    Van der Waals/kʙ        0.000000e+00 ( 0.000000e+00 +/- 0.000000e+00) [K]
    Van der Waals (Tail)/kʙ 0.000000e+00 ( 0.000000e+00 +/- 0.000000e+00) [K]
    Coulombic Real/kʙ       0.000000e+00 ( 0.000000e+00 +/- 0.000000e+00) [K]
    Coulombic Fourier/kʙ    0.000000e+00 ( 0.000000e+00 +/- 0.000000e+00) [K]
Molecule-molecule
    Van der Waals/kʙ       -1.663332e+03 (-3.097090e+03 +/- 0.000000e+00) [K]
    Van der Waals (Tail)/kʙ-3.911554e+01 (-5.720838e+01 +/- 0.000000e+00) [K]
    Coulombic Real/kʙ      -2.458595e+02 (-9.590618e+02 +/- 0.000000e+00) [K]
    Coulombic Fourier/kʙ   -2.402272e+02 (-1.037497e+02 +/- 0.000000e+00) [K]
    Molecule Intra/kʙ       0.000000e+00 ( 0.000000e+00 +/- 0.000000e+00) [K]

Current cycle: 1200 out of 6000
===============================================================================

Box:      33.37416   0.00000   0.00000  Average:  33.70167   0.00000   0.00000
           0.00000  33.37416   0.00000             0.00000  33.70167   0.00000
           0.00000   0.00000  33.37416             0.00000   0.00000  33.70167
Lengths:  33.37416  33.37416  33.37416  Average:  33.70167  33.70167  33.70167
Angles:   90.00000  90.00000  90.00000  Average:  90.00000  90.00000  90.00000
Rectangular boundary conditions

net charge:   0.00000000

component 0 (CO2) lambda:  0 occupancy:  1 (1.000000)
    net charge:   0.00000000 [e]

Amount of molecules per component :
-------------------------------------------------------------------------------
Component 0 (CO2)
    molecules:      2.000000e+01 molecules  (3.330891e+01 +/- 0.000000e+00)
    number density: 5.380206e-04 molec./A^3 (8.675650e-04 +/- 0.000000e+00)
    density:        3.930871e+01 kg/m^3     (6.338579e+01 +/- 0.000000e+00)

Average pressure tensor: 
-------------------------------------------------------------------------------
 2.4572e+01 -2.4990e-01 -6.9704e-01 +/- 0.0000e+00 0.0000e+00 0.0000e+00 [bar]
-2.4990e-01  2.3550e+01 -1.7456e+00 +/- 0.0000e+00 0.0000e+00 0.0000e+00 [bar]
-6.9704e-01 -1.7456e+00  2.4356e+01 +/- 0.0000e+00 0.0000e+00 0.0000e+00 [bar]
Ideal-gas pressure:   3.114290e+01 +/ 0.000000e+00 [bar]
Excess pressure:     -6.983399e+00 +/ 0.000000e+00 [bar]
Pressure:             2.415950e+01 +/ 0.000000e+00 [bar]

Total potential energy/kʙ  -1.039100e+03 (-4.122246e+03 +/- 0.000000e+00) [K]
-------------------------------------------------------------------------------
ExternalField-molecule
    Van der Waals/kʙ        0.000000e+00 ( 0.000000e+00 +/- 0.000000e+00) [K]
Framework-molecule
    Van der Waals/kʙ        0.000000e+00 ( 0.000000e+00 +/- 0.000000e+00) [K]
    Van der Waals (Tail)/kʙ 0.000000e+00 ( 0.000000e+00 +/- 0.000000e+00) [K]
    Coulombic Real/kʙ       0.000000e+00 ( 0.000000e+00 +/- 0.000000e+00) [K]
    Coulombic Fourier/kʙ    0.000000e+00 ( 0.000000e+00 +/- 0.000000e+00) [K]
Molecule-molecule
    Van der Waals/kʙ       -9.415754e+02 (-3.027580e+03 +/- 0.000000e+00) [K]
    Van der Waals (Tail)/kʙ-1.998320e+01 (-5.563943e+01 +/- 0.000000e+00) [K]
    Coulombic Real/kʙ      -5.859508e+01 (-9.374158e+02 +/- 0.000000e+00) [K]
    Coulombic Fourier/kʙ   -1.894670e+01 (-1.016110e+02 +/- 0.000000e+00) [K]
    Molecule Intra/kʙ       0.000000e+00 ( 0.000000e+00 +/- 0.000000e+00) [K]

Current cycle: 1300 out of 6000
===============================================================================

Box:      33.49178   0.00000   0.00000  Average:  33.68528   0.00000   0.00000
           0.00000  33.49178   0.00000             0.00000  33.68528   0.00000
           0.00000   0.00000  33.49178             0.00000   0.00000  33.68528
Lengths:  33.49178  33.49178  33.49178  Average:  33.68528  33.68528  33.68528
Angles:   90.00000  90.00000  90.00000  Average:  90.00000  90.00000  90.00000
Rectangular boundary conditions

net charge:   0.00000000

component 0 (CO2) lambda:  0 occupancy:  1 (1.000000)
    net charge:   0.00000000 [e]

Amount of molecules per component :
-------------------------------------------------------------------------------
Component 0 (CO2)
    molecules:      2.800000e+01 molecules  (3.247809e+01 +/- 0.000000e+00)
    number density: 7.453213e-04 molec./A^3 (8.469221e-04 +/- 0.000000e+00)
    density:        5.445445e+01 kg/m^3     (6.187758e+01 +/- 0.000000e+00)

Average pressure tensor: 
-------------------------------------------------------------------------------
 2.4210e+01 -5.3736e-01 -6.7973e-01 +/- 0.0000e+00 0.0000e+00 0.0000e+00 [bar]
-5.3736e-01  2.3775e+01 -1.5912e+00 +/- 0.0000e+00 0.0000e+00 0.0000e+00 [bar]
-6.7973e-01 -1.5912e+00  2.3711e+01 +/- 0.0000e+00 0.0000e+00 0.0000e+00 [bar]
Ideal-gas pressure:   3.040188e+01 +/ 0.000000e+00 [bar]
Excess pressure:     -6.503040e+00 +/ 0.000000e+00 [bar]
Pressure:             2.389885e+01 +/ 0.000000e+00 [bar]

Total potential energy/kʙ  -3.215618e+03 (-3.978065e+03 +/- 0.000000e+00) [K]
-------------------------------------------------------------------------------
ExternalField-molecule
    Van der Waals/kʙ        0.000000e+00 ( 0.000000e+00 +/- 0.000000e+00) [K]
Framework-molecule
    Van der Waals/kʙ        0.000000e+00 ( 0.000000e+00 +/- 0.000000e+00) [K]
    Van der Waals (Tail)/kʙ 0.000000e+00 ( 0.000000e+00 +/- 0.000000e+00) [K]
    Coulombic Real/kʙ       0.000000e+00 ( 0.000000e+00 +/- 0.000000e+00) [K]
    Coulombic Fourier/kʙ    0.000000e+00 ( 0.000000e+00 +/- 0.000000e+00) [K]
Molecule-molecule
    Van der Waals/kʙ       -2.161957e+03 (-2.912459e+03 +/- 0.000000e+00) [K]
    Van der Waals (Tail)/kʙ-3.875589e+01 (-5.362669e+01 +/- 0.000000e+00) [K]
    Coulombic Real/kʙ      -9.300713e+02 (-9.130060e+02 +/- 0.000000e+00) [K]
    Coulombic Fourier/kʙ   -8.483411e+01 (-9.897334e+01 +/- 0.000000e+00) [K]
    Molecule Intra/kʙ       0.000000e+00 ( 0.000000e+00 +/- 0.000000e+00) [K]

Current cycle: 1400 out of 6000
===============================================================================

Box:      33.51712   0.00000   0.00000  Average:  33.67130   0.00000   0.00000
           0.00000  33.51712   0.00000             0.00000  33.67130   0.00000
           0.00000   0.00000  33.51712             0.00000   0.00000  33.67130
Lengths:  33.51712  33.51712  33.51712  Average:  33.67130  33.67130  33.67130
Angles:   90.00000  90.00000  90.00000  Average:  90.00000  90.00000  90.00000
Rectangular boundary conditions

net charge:   0.00000000

component 0 (CO2) lambda:  0 occupancy:  1 (1.000000)
    net charge:   0.00000000 [e]

Amount of molecules per component :
-------------------------------------------------------------------------------
Component 0 (CO2)
    molecules:      2.700000e+01 molecules  (3.182084e+01 +/- 0.000000e+00)
    number density: 7.170734e-04 molec./A^3 (8.306886e-04 +/- 0.000000e+00)
    density:        5.239061e+01 kg/m^3     (6.069153e+01 +/- 0.000000e+00)

Average pressure tensor: 
-------------------------------------------------------------------------------
 2.3535e+01 -4.2265e-01 -6.8829e-01 +/- 0.0000e+00 0.0000e+00 0.0000e+00 [bar]
-4.2265e-01  2.3417e+01 -1.5390e+00 +/- 0.0000e+00 0.0000e+00 0.0000e+00 [bar]
-6.8829e-01 -1.5390e+00  2.3053e+01 +/- 0.0000e+00 0.0000e+00 0.0000e+00 [bar]
Ideal-gas pressure:   2.981915e+01 +/ 0.000000e+00 [bar]
Excess pressure:     -6.484070e+00 +/ 0.000000e+00 [bar]
Pressure:             2.333508e+01 +/ 0.000000e+00 [bar]

Total potential energy/kʙ  -2.670398e+03 (-3.856153e+03 +/- 0.000000e+00) [K]
-------------------------------------------------------------------------------
ExternalField-molecule
    Van der Waals/kʙ        0.000000e+00 ( 0.000000e+00 +/- 0.000000e+00) [K]
Framework-molecule
    Van der Waals/kʙ        0.000000e+00 ( 0.000000e+00 +/- 0.000000e+00) [K]
    Van der Waals (Tail)/kʙ 0.000000e+00 ( 0.000000e+00 +/- 0.000000e+00) [K]
    Coulombic Real/kʙ       0.000000e+00 ( 0.000000e+00 +/- 0.000000e+00) [K]
    Coulombic Fourier/kʙ    0.000000e+00 ( 0.000000e+00 +/- 0.000000e+00) [K]
Molecule-molecule
    Van der Waals/kʙ       -1.880343e+03 (-2.818470e+03 +/- 0.000000e+00) [K]
    Van der Waals (Tail)/kʙ-3.595536e+01 (-5.168157e+01 +/- 0.000000e+00) [K]
    Coulombic Real/kʙ      -7.251540e+02 (-8.906883e+02 +/- 0.000000e+00) [K]
    Coulombic Fourier/kʙ   -2.894516e+01 (-9.531275e+01 +/- 0.000000e+00) [K]
    Molecule Intra/kʙ       0.000000e+00 ( 0.000000e+00 +/- 0.000000e+00) [K]

Current cycle: 1500 out of 6000
===============================================================================

Box:      33.61312   0.00000   0.00000  Average:  33.65376   0.00000   0.00000
           0.00000  33.61312   0.00000             0.00000  33.65376   0.00000
           0.00000   0.00000  33.61312             0.00000   0.00000  33.65376
[...]
    number density: 6.693538e-04 molec./A^3 (7.950600e-04 +/- 1.033865e-04)
    density:        4.890414e+01 kg/m^3     (5.808844e+01 +/- 7.553594e+00)

Average pressure tensor: 
-------------------------------------------------------------------------------
 2.3152e+01  8.1969e-02 -5.3981e-01 +/- 1.8888e+00 8.0339e-01 6.3151e-01 [bar]
 8.1969e-02  2.2721e+01 -3.2641e-01 +/- 8.0339e-01 2.4915e+00 1.1464e+00 [bar]
-5.3981e-01 -3.2641e-01  2.2455e+01 +/- 6.3151e-01 1.1464e+00 3.9597e+00 [bar]
Ideal-gas pressure:   2.854020e+01 +/ 3.711256e+00 [bar]
Excess pressure:     -5.764294e+00 +/ 1.228414e+00 [bar]
Pressure:             2.277590e+01 +/ 2.600179e+00 [bar]

Total potential energy/kʙ  -1.256337e+03 (-3.624623e+03 +/- 8.901913e+02) [K]
-------------------------------------------------------------------------------
ExternalField-molecule
    Van der Waals/kʙ        0.000000e+00 ( 0.000000e+00 +/- 0.000000e+00) [K]
Framework-molecule
    Van der Waals/kʙ        0.000000e+00 ( 0.000000e+00 +/- 0.000000e+00) [K]
    Van der Waals (Tail)/kʙ 0.000000e+00 ( 0.000000e+00 +/- 0.000000e+00) [K]
    Coulombic Real/kʙ       0.000000e+00 ( 0.000000e+00 +/- 0.000000e+00) [K]
    Coulombic Fourier/kʙ    0.000000e+00 ( 0.000000e+00 +/- 0.000000e+00) [K]
Molecule-molecule
    Van der Waals/kʙ       -9.518086e+02 (-2.663117e+03 +/- 6.402285e+02) [K]
    Van der Waals (Tail)/kʙ-3.107649e+01 (-4.772841e+01 +/- 1.200394e+01) [K]
    Coulombic Real/kʙ      -2.175707e+02 (-8.326807e+02 +/- 2.220430e+02) [K]
    Coulombic Fourier/kʙ   -5.588100e+01 (-8.109693e+01 +/- 2.011415e+01) [K]
    Molecule Intra/kʙ       0.000000e+00 ( 0.000000e+00 +/- 0.000000e+00) [K]

Current cycle: 5800 out of 6000
===============================================================================

Box:      33.56486   0.00000   0.00000  Average:  33.60550   0.00000   0.00000
           0.00000  33.56486   0.00000             0.00000  33.60550   0.00000
           0.00000   0.00000  33.56486             0.00000   0.00000  33.60550
Lengths:  33.56486  33.56486  33.56486  Average:  33.60550  33.60550  33.60550
Angles:   90.00000  90.00000  90.00000  Average:  90.00000  90.00000  90.00000
Rectangular boundary conditions

net charge:   0.00000000

component 0 (CO2) lambda:  0 occupancy:  1 (1.000000)
    net charge:   0.00000000 [e]

Amount of molecules per component :
-------------------------------------------------------------------------------
Component 0 (CO2)
    molecules:      2.700000e+01 molecules  (3.020203e+01 +/- 4.320738e+00)
    number density: 7.140183e-04 molec./A^3 (7.929672e-04 +/- 1.039556e-04)
    density:        5.216740e+01 kg/m^3     (5.793554e+01 +/- 7.595174e+00)

Average pressure tensor: 
-------------------------------------------------------------------------------
 2.3021e+01  1.0233e-01 -5.3711e-01 +/- 2.0812e+00 8.1318e-01 6.1997e-01 [bar]
 1.0233e-01  2.2671e+01 -3.5201e-01 +/- 8.1318e-01 2.5193e+00 1.1238e+00 [bar]
-5.3711e-01 -3.5201e-01  2.2311e+01 +/- 6.1997e-01 1.1238e+00 4.1155e+00 [bar]
Ideal-gas pressure:   2.846507e+01 +/ 3.731685e+00 [bar]
Excess pressure:     -5.797555e+00 +/ 1.096935e+00 [bar]
Pressure:             2.266752e+01 +/ 2.732835e+00 [bar]

Total potential energy/kʙ  -2.588510e+03 (-3.611035e+03 +/- 8.843826e+02) [K]
-------------------------------------------------------------------------------
ExternalField-molecule
    Van der Waals/kʙ        0.000000e+00 ( 0.000000e+00 +/- 0.000000e+00) [K]
Framework-molecule
    Van der Waals/kʙ        0.000000e+00 ( 0.000000e+00 +/- 0.000000e+00) [K]
    Van der Waals (Tail)/kʙ 0.000000e+00 ( 0.000000e+00 +/- 0.000000e+00) [K]
    Coulombic Real/kʙ       0.000000e+00 ( 0.000000e+00 +/- 0.000000e+00) [K]
    Coulombic Fourier/kʙ    0.000000e+00 ( 0.000000e+00 +/- 0.000000e+00) [K]
Molecule-molecule
    Van der Waals/kʙ       -2.164683e+03 (-2.651789e+03 +/- 6.397409e+02) [K]
    Van der Waals (Tail)/kʙ-3.580217e+01 (-4.748869e+01 +/- 1.206826e+01) [K]
    Coulombic Real/kʙ      -3.473625e+02 (-8.310705e+02 +/- 2.161346e+02) [K]
    Coulombic Fourier/kʙ   -4.066185e+01 (-8.068644e+01 +/- 2.034942e+01) [K]
    Molecule Intra/kʙ       0.000000e+00 ( 0.000000e+00 +/- 0.000000e+00) [K]

Current cycle: 5900 out of 6000
===============================================================================

Box:      33.68562   0.00000   0.00000  Average:  33.60591   0.00000   0.00000
           0.00000  33.68562   0.00000             0.00000  33.60591   0.00000
           0.00000   0.00000  33.68562             0.00000   0.00000  33.60591
Lengths:  33.68562  33.68562  33.68562  Average:  33.60591  33.60591  33.60591
Angles:   90.00000  90.00000  90.00000  Average:  90.00000  90.00000  90.00000
Rectangular boundary conditions

net charge:   0.00000000

component 0 (CO2) lambda:  0 occupancy:  1 (1.000000)
    net charge:   0.00000000 [e]

Amount of molecules per component :
-------------------------------------------------------------------------------
Component 0 (CO2)
    molecules:      3.500000e+01 molecules  (3.027012e+01 +/- 4.059705e+00)
    number density: 9.156600e-04 molec./A^3 (7.947682e-04 +/- 9.728259e-05)
    density:        6.689969e+01 kg/m^3     (5.806713e+01 +/- 7.107633e+00)

Average pressure tensor: 
-------------------------------------------------------------------------------
 2.2956e+01  8.5227e-02 -4.9982e-01 +/- 2.1415e+00 7.4088e-01 6.6916e-01 [bar]
 8.5227e-02  2.2667e+01 -3.6223e-01 +/- 7.4088e-01 2.5088e+00 1.1174e+00 [bar]
-4.9982e-01 -3.6223e-01  2.2313e+01 +/- 6.6916e-01 1.1174e+00 3.9177e+00 [bar]
Ideal-gas pressure:   2.852972e+01 +/ 3.492144e+00 [bar]
Excess pressure:     -5.884317e+00 +/ 9.197757e-01 [bar]
Pressure:             2.264541e+01 +/ 2.690643e+00 [bar]

Total potential energy/kʙ  -2.361249e+03 (-3.629914e+03 +/- 8.194836e+02) [K]
-------------------------------------------------------------------------------
ExternalField-molecule
    Van der Waals/kʙ        0.000000e+00 ( 0.000000e+00 +/- 0.000000e+00) [K]
Framework-molecule
    Van der Waals/kʙ        0.000000e+00 ( 0.000000e+00 +/- 0.000000e+00) [K]
    Van der Waals (Tail)/kʙ 0.000000e+00 ( 0.000000e+00 +/- 0.000000e+00) [K]
    Coulombic Real/kʙ       0.000000e+00 ( 0.000000e+00 +/- 0.000000e+00) [K]
    Coulombic Fourier/kʙ    0.000000e+00 ( 0.000000e+00 +/- 0.000000e+00) [K]
Molecule-molecule
    Van der Waals/kʙ       -2.597590e+03 (-2.670684e+03 +/- 5.840277e+02) [K]
    Van der Waals (Tail)/kʙ-5.951665e+01 (-4.773376e+01 +/- 1.125020e+01) [K]
    Coulombic Real/kʙ       2.944525e+02 (-8.313652e+02 +/- 2.078650e+02) [K]
    Coulombic Fourier/kʙ    1.405345e+00 (-8.013167e+01 +/- 2.079687e+01) [K]
    Molecule Intra/kʙ       0.000000e+00 ( 0.000000e+00 +/- 0.000000e+00) [K]


Energy statistics             |  Energy [K]   | Recomputed [K]|  Drift [K]    |
===============================================================================
Total potential energy/kʙ     | -2.727007e+03 | -2.714043e+03 | -1.296428e+01 |
    external field VDW/kʙ     |  0.000000e+00 |  0.000000e+00 |  0.000000e+00 |
    external field Real/kʙ    |  0.000000e+00 |  0.000000e+00 |  0.000000e+00 |
    framework-molecule VDW/kʙ |  0.000000e+00 |  0.000000e+00 |  0.000000e+00 |
    framework-molecule Real/kʙ|  0.000000e+00 |  0.000000e+00 |  0.000000e+00 |
    molecule-molecule VDW/kʙ  | -2.051079e+03 | -2.038850e+03 | -1.222812e+01 |
    molecule-molecule Real/kʙ | -5.508266e+02 | -5.500905e+02 | -7.361636e-01 |
    Van der Waals (Tail)/kʙ   | -4.119413e+01 | -4.119413e+01 | -8.545870e-15 |
    Ewald Fourier/kʙ          |  1.621456e+03 |  1.621456e+03 |  8.204035e-13 |
    Ewald self/kʙ             | -5.326367e+05 | -5.326367e+05 |  0.000000e+00 |
    Ewald exclusion/kʙ        |  5.309313e+05 |  5.309313e+05 |  0.000000e+00 |
    intra VDW/kʙ              |  0.000000e+00 |  0.000000e+00 |  0.000000e+00 |
    intra Coulombic/kʙ        |  0.000000e+00 |  0.000000e+00 |  0.000000e+00 |
    polarization/kʙ           |  0.000000e+00 |  0.000000e+00 |  0.000000e+00 |
    dU/dlambda VDW/kʙ         |  0.000000e+00 |  0.000000e+00 |  0.000000e+00 |
    dU/dlambda Real/kʙ        |  0.000000e+00 |  0.000000e+00 |  0.000000e+00 |
    dU/dlambda Ewald/kʙ       |  0.000000e+00 |  0.000000e+00 |  0.000000e+00 |
-------------------------------------------------------------------------------


Monte-Carlo moves statistics
===============================================================================

    Gibbs volume         all:                3007
    Gibbs volume         total:              6031
    Gibbs volume         constructed:        6031
    Gibbs volume         accepted:           4371
    Gibbs volume         fraction:       0.724755
    Gibbs volume         max-change:     0.037365

Component 0 [CO2]
    Reinsertion (CBMC)   all:              149644
    Reinsertion (CBMC)   total:            149644
    Reinsertion (CBMC)   constructed:      149644
    Reinsertion (CBMC)   accepted:         103247
    Reinsertion (CBMC)   fraction:       0.689951
    Reinsertion (CBMC)   max-change:     0.000000

    Gibbs swap (CBMC)    all:              298805
    Gibbs swap (CBMC)    total:            597745
    Gibbs swap (CBMC)    constructed:      578007
    Gibbs swap (CBMC)    accepted:          56114
    Gibbs swap (CBMC)    fraction:       0.093876
    Gibbs swap (CBMC)    max-change:     0.000000

    Translation          all:              149748
    Translation          total:             49879      49751      50118
    Translation          constructed:       49815      49654      50037
    Translation          accepted:          42340      41997      42266
    Translation          fraction:       0.848854   0.844144   0.843330
    Translation          max-change:     1.500000   1.500000   1.500000

    Rotation             all:              149489
    Rotation             total:             49905      49929      49655
    Rotation             constructed:       49891      49910      49634
    Rotation             accepted:          42009      42167      41891
    Rotation             fraction:       0.841779   0.844539   0.843641
    Rotation             max-change:     1.500000   1.500000   1.500000



Production run counting of the MC moves summed over systems and components
===============================================================================

Reinsertion (CBMC)                   298700 (19.9133 [%])
Gibbs volume                           6031 (0.4021 [%])
Gibbs swap (CBMC)                    597745 (39.8497 [%])
Translation                          299281 (19.9521 [%])
Rotation                             298243 (19.8829 [%])

Production count MC-steps:          1500000 [-]
               All summed:          1500000 [-]
               difference:                0 [-]


Production run CPU timings of the MC moves
===============================================================================

Component 0 CO2

Rotation                              4.492424 [s]
    Ewald                             3.356316 [s]
    ExternalField-Molecule            0.005113 [s]
    Framework-Molecule                0.005414 [s]
    Molecule-Molecule                 0.784653 [s]
    Overhead                          0.340928 [s]

Reinsertion (CBMC)                   12.286405 [s]
    Ewald                             3.382891 [s]
    NonEwald                          8.638805 [s]
    Overhead                          0.264709 [s]

Translation                           4.498297 [s]
    Ewald                             3.356388 [s]
    ExternalField-Molecule            0.005085 [s]
    Framework-Molecule                0.008014 [s]
    Molecule-Molecule                 0.790896 [s]
    Overhead                          0.337914 [s]



Gibbs swap (CBMC)                   119.124683 [s]
    Ewald                            13.169478 [s]
    NonEwald                        104.511540 [s]
    Tail                              0.997553 [s]

Gibbs volume                         14.692687 [s]
    Ewald                             4.180638 [s]
    NonEwald                          9.982013 [s]
    Tail                              0.434823 [s]

Property sampling                     0.230811 [s]
Energy/pressure sampling:             0.394177 [s]


Production run CPU timings of the MC moves summed over systems and components
===============================================================================


Translation                          17.975244 [s]
    Ewald                             8.131103 [s]
    ExternalField-Molecule            0.010270 [s]
    Framework-Molecule                0.016059 [s]
    Molecule-Molecule                 9.187008 [s]
    Overhead                          0.630804 [s]

Rotation                             17.868703 [s]
    Ewald                             8.106042 [s]
    ExternalField-Molecule            0.010352 [s]
    Framework-Molecule                0.010889 [s]
    Molecule-Molecule                 9.092997 [s]
    Overhead                          0.648423 [s]

Reinsertion (CBMC)                   77.890593 [s]
    Ewald                             7.900638 [s]
    NonEwald                         69.628532 [s]
    Overhead                          0.361423 [s]

Gibbs volume                         29.464258 [s]
    Ewald                             8.374406 [s]
    NonEwald                         20.027658 [s]
    Tail                              0.870361 [s]
    Overhead                          0.191833 [s]

Gibbs swap (CBMC)                   211.480782 [s]
    Ewald                            25.464998 [s]
    NonEwald                        183.398281 [s]
    Tail                              1.762115 [s]
    Overhead                          0.855388 [s]

Property sampling:                    0.476231 [s]
Energy/pressure sampling:             6.807019 [s]

Production simulation time:         362.716697 [s]
                All summed:         361.962830 [s]
                  Overhead:           0.753867 [s]


Initalization simulation time:      116.413386 [s]
Equilibration simulation time:        0.000000 [s]
Production simulation time:         362.716697 [s]
Total simulation time:              479.130083 [s]


Energy averages and statistics:
===============================================================================

Framework-molecule energy:
-------------------------------------------------------------------------------



Framework-molecule energy contributions per energy type:
-------------------------------------------------------------------------------



Inter-molecular energy:
-------------------------------------------------------------------------------

    Inter-molecular energy/kʙ 0-0 [CO2-CO2]:
    ---------------------------------------------------------------------------
        Block[  0] -4.147939e+03
        Block[  1] -3.472489e+03
        Block[  2] -3.123022e+03
        Block[  3] -4.446785e+03
        Block[  4] -3.110830e+03
        -----------------------------------------------------------------------
        Average  -3.660213e+03 +/-  7.557165e+02 [K]



Inter-molecular energy contributions per energy type:
-------------------------------------------------------------------------------

    Van der Waals energy/kʙ 0-0 [CO2-CO2]:
    ---------------------------------------------------------------------------
        Block[  0] -3.044963e+03
        Block[  1] -2.521448e+03
        Block[  2] -2.316214e+03
        Block[  3] -3.261218e+03
        Block[  4] -2.308603e+03
        -----------------------------------------------------------------------
        Average  -2.690489e+03 +/-  5.432305e+02 [K]

    VDW Tail-Correction energy/kʙ 0-0 [CO2-CO2]:
    ---------------------------------------------------------------------------
        Block[  0] -5.593657e+01
        Block[  1] -4.536264e+01
        Block[  2] -4.032198e+01
        Block[  3] -5.817141e+01
        Block[  4] -4.062339e+01
        -----------------------------------------------------------------------
        Average  -4.808320e+01 +/-  1.051100e+01 [K]

    Coulomb Real energy/kʙ 0-0 [CO2-CO2]:
    ---------------------------------------------------------------------------
        Block[  0] -9.447393e+02
        Block[  1] -8.260720e+02
        Block[  2] -7.028547e+02
        Block[  3] -1.037434e+03
        Block[  4] -6.914944e+02
        -----------------------------------------------------------------------
        Average  -8.405190e+02 +/-  1.872576e+02 [K]

    Coulomb Fourier energy/kʙ 0-0 [CO2-CO2]:
    ---------------------------------------------------------------------------
        Block[  0] -1.022998e+02
        Block[  1] -7.960578e+01
        Block[  2] -6.363110e+01
        Block[  3] -8.996032e+01
        Block[  4] -7.011008e+01
        -----------------------------------------------------------------------
        Average  -8.112142e+01 +/-  1.919368e+01 [K]


Total energy/kʙ
-------------------------------------------------------------------------------
    Block[  0] -4.147939e+03
    Block[  1] -3.472489e+03
    Block[  2] -3.123022e+03
    Block[  3] -4.446785e+03
    Block[  4] -3.110830e+03
    ---------------------------------------------------------------------------
    Average  -3.660213e+03 +/-  7.557165e+02 [K]

Pressure averages and statistics:
===============================================================================

Average pressure tensor: 
-------------------------------------------------------------------------------
 2.2944e+01  6.8555e-02 -4.7634e-01 +/- 2.1022e+00 6.8600e-01 6.9275e-01 [bar]
 6.8555e-02  2.2706e+01 -2.6693e-01 +/- 6.8600e-01 2.4757e+00 1.1767e+00 [bar]
-4.7634e-01 -2.6693e-01  2.2318e+01 +/- 6.9275e-01 1.1767e+00 3.7564e+00 [bar]

    Block[  0]  3.115276e+06
    Block[  1]  2.804043e+06
    Block[  2]  2.611491e+06
    Block[  3]  3.160241e+06
    Block[  4]  2.632958e+06
    ---------------------------------------------------------------------------
    Ideal gas pressure   2.864802e+06 +/-  1.948251e-02 [Pa]
                         2.864802e+01 +/-  3.235149e+00 [bar]


    Block[  0] -6.984749e+05
    Block[  1] -5.635311e+05
    Block[  2] -5.227913e+05
    Block[  3] -6.242474e+05
    Block[  4] -5.869863e+05
    ---------------------------------------------------------------------------
    Excess pressure  -5.992062e+05 +/-  8.268241e+04 [Pa]
                     -5.992062e+00 +/-  8.268241e-01 [bar]


    Block[  0]  2.416801e+06
    Block[  1]  2.240512e+06
    Block[  2]  2.088700e+06
    Block[  3]  2.535994e+06
    Block[  4]  2.045972e+06
    ---------------------------------------------------------------------------
    Pressure average   2.265596e+06 +/-  2.605112e+05 [Pa]
                       2.265596e+01 +/-  2.605112e+00 [bar]


Enthalpy of adsorption
===============================================================================

Component 0 [CO2]
-------------------------------------------------------------------------------
    Block[  0] -4.962482e+02
    Block[  1] -4.902918e+02
    Block[  2] -4.646177e+02
    Block[  3] -4.975868e+02
    Block[  4] -4.777861e+02
    ---------------------------------------------------------------------------
    Enthalpy of adsorption: -4.853061e+02 +/-  1.733570e+01 [K]
                            -4.035061e+00 +/-  1.441371e-01 [kJ/mol]
    Warning: need to subtract the ideal-gas energy.


Densities
===============================================================================

Component 0 (CO2)
    Block[  0] 33.32
    Block[  1] 29.639166666666668
    Block[  2] 27.478333333333335
    Block[  3] 33.86666666666667
    Block[  4] 27.678333333333335
    -----------------------------------------------------------------------
    Density average   3.039650e+01 +/-  3.779164e+00 [molecules]
    Density average   7.980637e-04 +/-  9.012334e-05 [molec/A^3]
    Density average   5.830790e+01 +/-  6.584565e+00 [kg.m⁻³]

