Compiler and run-time data
===============================================================================
RASPA 3.0.4

Random seed: 2443534800

Compiled as a 64-bits application
Compiler: gcc Ubuntu Clang 18.1.3 (1ubuntu1)
Compile Date = Mar 15 2025, Compile Time = 19:39:45

2025-06-03 11:00:44.300881
Simulation started on Tue, Jun 03
The start time was 11:00:00

Hostname:    c108
OS type:     Linux on x86_64
OS release:  6.8.0-58-generic
OS version:  #60-Ubuntu SMP PREEMPT_DYNAMIC Fri Mar 14 18:29:48 UTC 2025


Mutual consistent basic set of units:
===============================================================================

Unit of temperature: 1 [K]
Unit of length:      1e-10 [m]
Unit of time:        1e-12 [s]
Unit of mass:        1.6605402e-27 [kg]
Unit of charge:      1.60217733e-19 [C/particle]


Boltzmann constant (internal units):          0.8314464919307584 [-]
represents conversion from energy (internal units) to temperature (in Kelvin)

Derived units and their conversion factors:
===============================================================================

Unit of energy:                           1.6605402000000002e-23 [J]
Unit of energy:                           10.000008872307538 [J.mol⁻¹]
Unit of velocity:                         100 [m.s⁻¹]
Unit of force:                            1.6605402000000002e-13 [N]
Unit of diffusion:                        1.0000000000000002e-08 [m².s⁻¹]
Unit of acceleration:                     1.0000000000000002e-08 [m².s⁻¹]
Unit of torque:                           1.6605402000000002e-23 [N.m]
Unit of pressure:                         16605402 [Pa]
Unit of volume:                           1e-30 [m³]
Unit of density:                          1660.5402 [kg.m⁻³]
Unit of dynamic viscosity:                1.6605401999999997e-05 [N.s.m⁻²]
Unit of enthalpy:                         1.6605402000000002e-23 [J]
Unit of polarizability:                   1.5458657349975198e-35 [-]
Unit of Coulomb potential:                167101.08000665612 [K]
Unit of dielectric constant:              1.5458657349975193e-05 [s².C².kg⁻¹.m⁻³]
Unit of dipole moment:                    1.60217733e-29 [C.m]
Unit of Debye:                            4.803206799099162 [C.m]
Unit of electric potential:               0.00010364272224473431 [V]
Unit of electric field:                   1036427.222447343 [V.m⁻¹]
Unit of isothermal compressibility:       6.02213665167516e-08 [Pa⁻¹]
Unit of heat capacity:                    10.000008872307538 [J.mol⁻¹.K⁻¹]
Unit of volumetric expansion coefficient: 1 [K⁻¹]


Internal conversion factors:
===============================================================================

Energy (internal units) to Kelvin:      1.202724284692786 [-]
Kelvin to energy (internal units):      0.8314457542157567 [-]


System definitions
===============================================================================

Temperature:          260 [K]
Beta:                 0.004625858529058714 [-]
Pressure:             0 [Pa]
Helium void fraction: 1 [-]

Box:      30.00000   0.00000   0.00000
           0.00000  30.00000   0.00000
           0.00000   0.00000  30.00000
Lengths:  30.00000  30.00000  30.00000
Angles:   90.00000  90.00000  90.00000
Rectangular boundary conditions



Property measurement settings
===============================================================================




Pseudo-atoms
===============================================================================

  0 - C_co2    framework-atom: false
  1 - O_co2    framework-atom: false

  0 - C_co2    mass: 12.00000, charge:  0.70000
  1 - O_co2    mass: 15.99940, charge: -0.35000

  0 - C_co2    polarizability:  0.00000
  1 - O_co2    polarizability:  0.00000

  0 - J. J. Potoff et al., AIChE J. 2001, 47, 1676–1682.
  1 - J. J. Potoff et al., AIChE J. 2001, 47, 1676–1682.

Force field status
===============================================================================

Cutoff Framework-Molecule VDW:  11.00000 [Å]
Cutoff Molecule-Molecule VDW:   11.00000 [Å]
Cutoff Coulomb:                 11.00000 [Å]

Overlap-criteria VDW:           1.000000e+05 [K]

C_co2    - C_co2    Lennard-Jones p₀/kʙ:  27.00000 [K], p₁:  2.80000 [Å]
                                  shift:   0.00000 [K], tailcorrections: true
C_co2    - O_co2    Lennard-Jones p₀/kʙ:  46.18441 [K], p₁:  2.92500 [Å]
                                  shift:   0.00000 [K], tailcorrections: true
O_co2    - O_co2    Lennard-Jones p₀/kʙ:  79.00000 [K], p₁:  3.05000 [Å]
                                  shift:   0.00000 [K], tailcorrections: true

Ewald precision: 1e-06
Ewald alpha: 0.2903408740940883
Ewald k-vectors: 9 9 9


Component definitions
===============================================================================

Component 0 [CO2]

    Type: Adsorbate

    Critical temperature:  304.1282 [K]
    Critical pressure:     7377300 [Pa]
    Acentric factor:       0.22394 [-]

    Mol-fraction:                 1 [-]
    Swappable:                   true

    Mass:                         43.9988 [-]
    Fugacity coefficient:         -nan [-]
    Bulk fluid density:           0 [-]
    Compressibility:              1 [-]
    Excess molecules:             0 [-]

    Number Of Atoms:    3
    CBMC starting bead: 0
      0: O_co2  position  0.00000 -0.00000  1.16000, charge -0.35000
      1: C_co2  position  0.00000 -0.00000  0.00000, charge  0.70000
      2: O_co2  position  0.00000 -0.00000 -1.16000, charge -0.35000
    Diagonalized inertia-vector:      43.05758528 43.05758528 0.00000000
    Translational degrees of freedom: 3
    Rotational degrees of freedom:    2
    Shape of the molecule is: 'Linear'
    Net-charge:        0.00000000 [e]

    Move probabilities:
    Translation:                   0.199203 [-]
    Random translation:            0.000000 [-]
    Rotation:                      0.199203 [-]
    Random rotation:               0.000000 [-]
    Volume change:                 0.000000 [-]
    Reinsertion (CBMC):            0.199203 [-]
    Identity change (CBMC):        0.000000 [-]
    Swap:                          0.000000 [-]
    Swap (CBMC):                   0.000000 [-]
    Swap (CFCMC):                  0.000000 [-]
    Swap (CB/CFCMC):               0.000000 [-]
    Gibbs volume:                  0.003984 [-]
    Gibbs swap (CBMC):             0.398406 [-]
    Gibbs swap (CFCMC):            0.000000 [-]
    Widom:                         0.000000 [-]
    Widom (CFCMC):                 0.000000 [-]
    Widom (CB/CFCMC):              0.000000 [-]
    Parallel tempering:            0.000000 [-]
    Hybrid MC:                     0.000000 [-]

    number of blocking-pockets: 0

    number of bonds: 0





Number of pseudo-atoms
===============================================================================

Component   0 (CO2)
-------------------------------------------------------------------------------
    index   0 (C_co2): 210 atoms
    index   1 (O_co2): 420 atoms

Total number of pseudo-atoms:
-------------------------------------------------------------------------------
    index   0 (C_co2): 210 atoms
    index   1 (O_co2): 420 atoms




Energy status Recomputed from scratch
===============================================================================

Total potential energy/kʙ       -9.167943e+04 [K]
    external field VDW/kʙ        0.000000e+00 [K]
    external field Real/kʙ       0.000000e+00 [K]
    framework-molecule VDW/kʙ    0.000000e+00 [K]
    framework-molecule Real/kʙ   0.000000e+00 [K]
    molecule-molecule VDW/kʙ    -6.976517e+04 [K]
    molecule-molecule Real/kʙ   -1.579285e+04 [K]
    Van der Waals (Tail)/kʙ     -3.937786e+03 [K]
    Ewald Fourier/kʙ             1.687713e+04 [K]
    Ewald self/kʙ               -4.224926e+06 [K]
    Ewald exclusion/kʙ           4.205866e+06 [K]
    intra VDW/kʙ                 0.000000e+00 [K]
    intra Coulombic/kʙ           0.000000e+00 [K]
    polarization/kʙ              0.000000e+00 [K]
    dU/dlambda VDW/kʙ            0.000000e+00 [K]
    dU/dlambda Real/kʙ           0.000000e+00 [K]
    dU/dlambda Ewald/kʙ          0.000000e+00 [K]





Initialization: Current cycle: 0 out of 2000
===============================================================================

Box:      30.00000   0.00000   0.00000
           0.00000  30.00000   0.00000
           0.00000   0.00000  30.00000
Lengths:  30.00000  30.00000  30.00000
Angles:   90.00000  90.00000  90.00000
Rectangular boundary conditions

net charge:   0.00000000

component   0 (CO2) lambda:  0 occupancy:  0 (0.000000)
    net charge:   0.00000000 [e]

Amount of molecules per component :
-------------------------------------------------------------------------------
Component 0 (CO2)
    molecules:         2.040000e+02 molecules
    number density:    7.555556e-03 molec/A^3
    density:           5.520218e+02 kg/m^3

Total potential energy/kʙ       -9.498105e+04 [K]
-------------------------------------------------------------------------------
    external field VDW/kʙ        0.000000e+00 [K]
    external field Real/kʙ       0.000000e+00 [K]
    framework-molecule VDW/kʙ    0.000000e+00 [K]
    framework-molecule Real/kʙ   0.000000e+00 [K]
    molecule-molecule VDW/kʙ    -7.098315e+04 [K]
    molecule-molecule Real/kʙ   -1.701136e+04 [K]
    Van der Waals (Tail)/kʙ     -3.715984e+03 [K]
    Ewald Fourier/kʙ             1.524561e+04 [K]
    Ewald self/kʙ               -4.104214e+06 [K]
    Ewald exclusion/kʙ           4.085698e+06 [K]
    intra VDW/kʙ                 0.000000e+00 [K]
    intra Coulombic/kʙ           0.000000e+00 [K]
    polarization/kʙ              0.000000e+00 [K]
    dU/dlambda VDW/kʙ            0.000000e+00 [K]
    dU/dlambda Real/kʙ           0.000000e+00 [K]
    dU/dlambda Ewald/kʙ          0.000000e+00 [K]


Initialization: Current cycle: 100 out of 2000
===============================================================================

Box:      28.64928   0.00000   0.00000
           0.00000  28.64928   0.00000
           0.00000   0.00000  28.64928
Lengths:  28.64928  28.64928  28.64928
Angles:   90.00000  90.00000  90.00000
Rectangular boundary conditions

net charge:   0.00000000

component   0 (CO2) lambda:  0 occupancy:  0 (0.000000)
    net charge:   0.00000000 [e]

Amount of molecules per component :
-------------------------------------------------------------------------------
Component 0 (CO2)
    molecules:         2.300000e+02 molecules
    number density:    9.781076e-03 molec/A^3
    density:           7.146221e+02 kg/m^3

Total potential energy/kʙ       -2.465710e+05 [K]
-------------------------------------------------------------------------------
    external field VDW/kʙ        0.000000e+00 [K]
    external field Real/kʙ       0.000000e+00 [K]
    framework-molecule VDW/kʙ    0.000000e+00 [K]
    framework-molecule Real/kʙ   0.000000e+00 [K]
    molecule-molecule VDW/kʙ    -1.845675e+05 [K]
    molecule-molecule Real/kʙ   -4.696134e+04 [K]
    Van der Waals (Tail)/kʙ     -5.423651e+03 [K]
    Ewald Fourier/kʙ             1.125753e+04 [K]
    Ewald self/kʙ               -4.627300e+06 [K]
    Ewald exclusion/kʙ           4.606424e+06 [K]
    intra VDW/kʙ                 0.000000e+00 [K]
    intra Coulombic/kʙ           0.000000e+00 [K]
    polarization/kʙ              0.000000e+00 [K]
    dU/dlambda VDW/kʙ            0.000000e+00 [K]
    dU/dlambda Real/kʙ           0.000000e+00 [K]
    dU/dlambda Ewald/kʙ          0.000000e+00 [K]


Initialization: Current cycle: 200 out of 2000
===============================================================================

Box:      27.93157   0.00000   0.00000
           0.00000  27.93157   0.00000
           0.00000   0.00000  27.93157
Lengths:  27.93157  27.93157  27.93157
Angles:   90.00000  90.00000  90.00000
Rectangular boundary conditions

net charge:   0.00000000

component   0 (CO2) lambda:  0 occupancy:  0 (0.000000)
    net charge:   0.00000000 [e]

Amount of molecules per component :
-------------------------------------------------------------------------------
Component 0 (CO2)
    molecules:         2.350000e+02 molecules
    number density:    1.078405e-02 molec/A^3
    density:           7.879008e+02 kg/m^3

Total potential energy/kʙ       -2.711894e+05 [K]
-------------------------------------------------------------------------------
    external field VDW/kʙ        0.000000e+00 [K]
    external field Real/kʙ       0.000000e+00 [K]
    framework-molecule VDW/kʙ    0.000000e+00 [K]
    framework-molecule Real/kʙ   0.000000e+00 [K]
    molecule-molecule VDW/kʙ    -1.934325e+05 [K]
    molecule-molecule Real/kʙ   -6.286545e+04 [K]
    Van der Waals (Tail)/kʙ     -6.109798e+03 [K]
    Ewald Fourier/kʙ             1.254827e+04 [K]
    Ewald self/kʙ               -4.727894e+06 [K]
    Ewald exclusion/kʙ           4.706564e+06 [K]
    intra VDW/kʙ                 0.000000e+00 [K]
    intra Coulombic/kʙ           0.000000e+00 [K]
    polarization/kʙ              0.000000e+00 [K]
    dU/dlambda VDW/kʙ            0.000000e+00 [K]
    dU/dlambda Real/kʙ           0.000000e+00 [K]
    dU/dlambda Ewald/kʙ          0.000000e+00 [K]


Initialization: Current cycle: 300 out of 2000
===============================================================================

Box:      27.68558   0.00000   0.00000
           0.00000  27.68558   0.00000
           0.00000   0.00000  27.68558
Lengths:  27.68558  27.68558  27.68558
Angles:   90.00000  90.00000  90.00000
Rectangular boundary conditions

net charge:   0.00000000

component   0 (CO2) lambda:  0 occupancy:  0 (0.000000)
    net charge:   0.00000000 [e]

Amount of molecules per component :
-------------------------------------------------------------------------------
Component 0 (CO2)
    molecules:         2.400000e+02 molecules
    number density:    1.130969e-02 molec/A^3
    density:           8.263050e+02 kg/m^3

Total potential energy/kʙ       -2.767504e+05 [K]
-------------------------------------------------------------------------------
    external field VDW/kʙ        0.000000e+00 [K]
    external field Real/kʙ       0.000000e+00 [K]
    framework-molecule VDW/kʙ    0.000000e+00 [K]
    framework-molecule Real/kʙ   0.000000e+00 [K]
    molecule-molecule VDW/kʙ    -2.061390e+05 [K]
    molecule-molecule Real/kʙ   -5.474834e+04 [K]
    Van der Waals (Tail)/kʙ     -6.543936e+03 [K]
    Ewald Fourier/kʙ             1.246462e+04 [K]
    Ewald self/kʙ               -4.828487e+06 [K]
    Ewald exclusion/kʙ           4.806703e+06 [K]
    intra VDW/kʙ                 0.000000e+00 [K]
    intra Coulombic/kʙ           0.000000e+00 [K]
    polarization/kʙ              0.000000e+00 [K]
    dU/dlambda VDW/kʙ            0.000000e+00 [K]
    dU/dlambda Real/kʙ           0.000000e+00 [K]
    dU/dlambda Ewald/kʙ          0.000000e+00 [K]


Initialization: Current cycle: 400 out of 2000
===============================================================================

Box:      26.59326   0.00000   0.00000
           0.00000  26.59326   0.00000
           0.00000   0.00000  26.59326
Lengths:  26.59326  26.59326  26.59326
Angles:   90.00000  90.00000  90.00000
Rectangular boundary conditions

net charge:   0.00000000

component   0 (CO2) lambda:  0 occupancy:  0 (0.000000)
    net charge:   0.00000000 [e]

Amount of molecules per component :
-------------------------------------------------------------------------------
Component 0 (CO2)
    molecules:         2.260000e+02 molecules
    number density:    1.201693e-02 molec/A^3
    density:           8.779775e+02 kg/m^3

Total potential energy/kʙ       -2.796654e+05 [K]
-------------------------------------------------------------------------------
    external field VDW/kʙ        0.000000e+00 [K]
    external field Real/kʙ       0.000000e+00 [K]
    framework-molecule VDW/kʙ    0.000000e+00 [K]
    framework-molecule Real/kʙ   0.000000e+00 [K]
    molecule-molecule VDW/kʙ    -2.041391e+05 [K]
    molecule-molecule Real/kʙ   -5.911086e+04 [K]
    Van der Waals (Tail)/kʙ     -6.547557e+03 [K]
    Ewald Fourier/kʙ             1.064510e+04 [K]
    Ewald self/kʙ               -4.546825e+06 [K]
    Ewald exclusion/kʙ           4.526312e+06 [K]
    intra VDW/kʙ                 0.000000e+00 [K]
    intra Coulombic/kʙ           0.000000e+00 [K]
    polarization/kʙ              0.000000e+00 [K]
    dU/dlambda VDW/kʙ            0.000000e+00 [K]
    dU/dlambda Real/kʙ           0.000000e+00 [K]
    dU/dlambda Ewald/kʙ          0.000000e+00 [K]


Initialization: Current cycle: 500 out of 2000
===============================================================================

Box:      26.04673   0.00000   0.00000
           0.00000  26.04673   0.00000
           0.00000   0.00000  26.04673
Lengths:  26.04673  26.04673  26.04673
Angles:   90.00000  90.00000  90.00000
Rectangular boundary conditions

net charge:   0.00000000

component   0 (CO2) lambda:  0 occupancy:  0 (0.000000)
    net charge:   0.00000000 [e]

Amount of molecules per component :
-------------------------------------------------------------------------------
Component 0 (CO2)
    molecules:         2.350000e+02 molecules
    number density:    1.329868e-02 molec/A^3
    density:           9.716240e+02 kg/m^3

Total potential energy/kʙ       -3.158451e+05 [K]
-------------------------------------------------------------------------------
    external field VDW/kʙ        0.000000e+00 [K]
    external field Real/kʙ       0.000000e+00 [K]
    framework-molecule VDW/kʙ    0.000000e+00 [K]
    framework-molecule Real/kʙ   0.000000e+00 [K]
    molecule-molecule VDW/kʙ    -2.303525e+05 [K]
    molecule-molecule Real/kʙ   -6.662199e+04 [K]
    Van der Waals (Tail)/kʙ     -7.534485e+03 [K]
    Ewald Fourier/kʙ             9.993742e+03 [K]
    Ewald self/kʙ               -4.727894e+06 [K]
    Ewald exclusion/kʙ           4.706564e+06 [K]
    intra VDW/kʙ                 0.000000e+00 [K]
    intra Coulombic/kʙ           0.000000e+00 [K]
    polarization/kʙ              0.000000e+00 [K]
    dU/dlambda VDW/kʙ            0.000000e+00 [K]
    dU/dlambda Real/kʙ           0.000000e+00 [K]
    dU/dlambda Ewald/kʙ          0.000000e+00 [K]


Initialization: Current cycle: 600 out of 2000
===============================================================================

Box:      25.92016   0.00000   0.00000
           0.00000  25.92016   0.00000
           0.00000   0.00000  25.92016
Lengths:  25.92016  25.92016  25.92016
Angles:   90.00000  90.00000  90.00000
Rectangular boundary conditions

net charge:   0.00000000

component   0 (CO2) lambda:  0 occupancy:  0 (0.000000)
    net charge:   0.00000000 [e]

Amount of molecules per component :
-------------------------------------------------------------------------------
Component 0 (CO2)
    molecules:         2.270000e+02 molecules
    number density:    1.303505e-02 molec/A^3
    density:           9.523630e+02 kg/m^3

Total potential energy/kʙ       -3.090622e+05 [K]
-------------------------------------------------------------------------------
    external field VDW/kʙ        0.000000e+00 [K]
    external field Real/kʙ       0.000000e+00 [K]
    framework-molecule VDW/kʙ    0.000000e+00 [K]
    framework-molecule Real/kʙ   0.000000e+00 [K]
    molecule-molecule VDW/kʙ    -2.199960e+05 [K]
    molecule-molecule Real/kʙ   -7.094159e+04 [K]
    Van der Waals (Tail)/kʙ     -7.133716e+03 [K]
    Ewald Fourier/kʙ             9.612806e+03 [K]
    Ewald self/kʙ               -4.566944e+06 [K]
    Ewald exclusion/kʙ           4.546340e+06 [K]
    intra VDW/kʙ                 0.000000e+00 [K]
    intra Coulombic/kʙ           0.000000e+00 [K]
    polarization/kʙ              0.000000e+00 [K]
    dU/dlambda VDW/kʙ            0.000000e+00 [K]
    dU/dlambda Real/kʙ           0.000000e+00 [K]
    dU/dlambda Ewald/kʙ          0.000000e+00 [K]


Initialization: Current cycle: 700 out of 2000
===============================================================================

Box:      25.62533   0.00000   0.00000
           0.00000  25.62533   0.00000
           0.00000   0.00000  25.62533
Lengths:  25.62533  25.62533  25.62533
Angles:   90.00000  90.00000  90.00000
Rectangular boundary conditions

net charge:   0.00000000

component   0 (CO2) lambda:  0 occupancy:  0 (0.000000)
    net charge:   0.00000000 [e]

Amount of molecules per component :
-------------------------------------------------------------------------------
Component 0 (CO2)
    molecules:         2.260000e+02 molecules
    number density:    1.343074e-02 molec/A^3
    density:           9.812730e+02 kg/m^3

Total potential energy/kʙ       -3.085088e+05 [K]
-------------------------------------------------------------------------------
    external field VDW/kʙ        0.000000e+00 [K]
    external field Real/kʙ       0.000000e+00 [K]
    framework-molecule VDW/kʙ    0.000000e+00 [K]
    framework-molecule Real/kʙ   0.000000e+00 [K]
    molecule-molecule VDW/kʙ    -2.272954e+05 [K]
    molecule-molecule Real/kʙ   -6.320519e+04 [K]
    Van der Waals (Tail)/kʙ     -7.317887e+03 [K]
    Ewald Fourier/kʙ             9.822608e+03 [K]
    Ewald self/kʙ               -4.546825e+06 [K]
    Ewald exclusion/kʙ           4.526312e+06 [K]
    intra VDW/kʙ                 0.000000e+00 [K]
    intra Coulombic/kʙ           0.000000e+00 [K]
    polarization/kʙ              0.000000e+00 [K]
    dU/dlambda VDW/kʙ            0.000000e+00 [K]
    dU/dlambda Real/kʙ           0.000000e+00 [K]
    dU/dlambda Ewald/kʙ          0.000000e+00 [K]


Initialization: Current cycle: 800 out of 2000
===============================================================================

Box:      25.38232   0.00000   0.00000
           0.00000  25.38232   0.00000
           0.00000   0.00000  25.38232
Lengths:  25.38232  25.38232  25.38232
Angles:   90.00000  90.00000  90.00000
Rectangular boundary conditions

net charge:   0.00000000

component   0 (CO2) lambda:  0 occupancy:  0 (0.000000)
    net charge:   0.00000000 [e]

Amount of molecules per component :
-------------------------------------------------------------------------------
Component 0 (CO2)
    molecules:         2.230000e+02 molecules
    number density:    1.363675e-02 molec/A^3
    density:           9.963240e+02 kg/m^3

Total potential energy/kʙ       -3.104578e+05 [K]
-------------------------------------------------------------------------------
    external field VDW/kʙ        0.000000e+00 [K]
    external field Real/kʙ       0.000000e+00 [K]
    framework-molecule VDW/kʙ    0.000000e+00 [K]
    framework-molecule Real/kʙ   0.000000e+00 [K]
    molecule-molecule VDW/kʙ    -2.292873e+05 [K]
    molecule-molecule Real/kʙ   -6.422471e+04 [K]
    Van der Waals (Tail)/kʙ     -7.331501e+03 [K]
    Ewald Fourier/kʙ             1.062643e+04 [K]
    Ewald self/kʙ               -4.486469e+06 [K]
    Ewald exclusion/kʙ           4.466229e+06 [K]
    intra VDW/kʙ                 0.000000e+00 [K]
    intra Coulombic/kʙ           0.000000e+00 [K]
    polarization/kʙ              0.000000e+00 [K]
    dU/dlambda VDW/kʙ            0.000000e+00 [K]
    dU/dlambda Real/kʙ           0.000000e+00 [K]
    dU/dlambda Ewald/kʙ          0.000000e+00 [K]


Initialization: Current cycle: 900 out of 2000
===============================================================================

Box:      25.78122   0.00000   0.00000
           0.00000  25.78122   0.00000
           0.00000   0.00000  25.78122
Lengths:  25.78122  25.78122  25.78122
Angles:   90.00000  90.00000  90.00000
Rectangular boundary conditions

net charge:   0.00000000

component   0 (CO2) lambda:  0 occupancy:  0 (0.000000)
    net charge:   0.00000000 [e]

Amount of molecules per component :
-------------------------------------------------------------------------------
Component 0 (CO2)
    molecules:         2.250000e+02 molecules
    number density:    1.313022e-02 molec/A^3
    density:           9.593161e+02 kg/m^3

Total potential energy/kʙ       -3.082204e+05 [K]
-------------------------------------------------------------------------------
    external field VDW/kʙ        0.000000e+00 [K]
    external field Real/kʙ       0.000000e+00 [K]
    framework-molecule VDW/kʙ    0.000000e+00 [K]
    framework-molecule Real/kʙ   0.000000e+00 [K]
    molecule-molecule VDW/kʙ    -2.253335e+05 [K]
    molecule-molecule Real/kʙ   -6.509651e+04 [K]
    Van der Waals (Tail)/kʙ     -7.122488e+03 [K]
    Ewald Fourier/kʙ             9.754362e+03 [K]
    Ewald self/kʙ               -4.526707e+06 [K]
    Ewald exclusion/kʙ           4.506284e+06 [K]
    intra VDW/kʙ                 0.000000e+00 [K]
    intra Coulombic/kʙ           0.000000e+00 [K]
    polarization/kʙ              0.000000e+00 [K]
    dU/dlambda VDW/kʙ            0.000000e+00 [K]
    dU/dlambda Real/kʙ           0.000000e+00 [K]
    dU/dlambda Ewald/kʙ          0.000000e+00 [K]


Initialization: Current cycle: 1000 out of 2000
===============================================================================

Box:      25.20685   0.00000   0.00000
           0.00000  25.20685   0.00000
           0.00000   0.00000  25.20685
Lengths:  25.20685  25.20685  25.20685
Angles:   90.00000  90.00000  90.00000
Rectangular boundary conditions

net charge:   0.00000000

component   0 (CO2) lambda:  0 occupancy:  0 (0.000000)
    net charge:   0.00000000 [e]

Amount of molecules per component :
-------------------------------------------------------------------------------
Component 0 (CO2)
    molecules:         2.230000e+02 molecules
    number density:    1.392352e-02 molec/A^3
    density:           1.017276e+03 kg/m^3

Total potential energy/kʙ       -3.232035e+05 [K]
-------------------------------------------------------------------------------
    external field VDW/kʙ        0.000000e+00 [K]
    external field Real/kʙ       0.000000e+00 [K]
    framework-molecule VDW/kʙ    0.000000e+00 [K]
    framework-molecule Real/kʙ   0.000000e+00 [K]
    molecule-molecule VDW/kʙ    -2.352367e+05 [K]
    molecule-molecule Real/kʙ   -6.989757e+04 [K]
    Van der Waals (Tail)/kʙ     -7.485679e+03 [K]
    Ewald Fourier/kʙ             9.657123e+03 [K]
    Ewald self/kʙ               -4.486469e+06 [K]
    Ewald exclusion/kʙ           4.466229e+06 [K]
    intra VDW/kʙ                 0.000000e+00 [K]
    intra Coulombic/kʙ           0.000000e+00 [K]
    polarization/kʙ              0.000000e+00 [K]
    dU/dlambda VDW/kʙ            0.000000e+00 [K]
    dU/dlambda Real/kʙ           0.000000e+00 [K]
    dU/dlambda Ewald/kʙ          0.000000e+00 [K]


Initialization: Current cycle: 1100 out of 2000
===============================================================================

Box:      25.26196   0.00000   0.00000
           0.00000  25.26196   0.00000
           0.00000   0.00000  25.26196
Lengths:  25.26196  25.26196  25.26196
Angles:   90.00000  90.00000  90.00000
Rectangular boundary conditions

net charge:   0.00000000

component   0 (CO2) lambda:  0 occupancy:  0 (0.000000)
    net charge:   0.00000000 [e]

Amount of molecules per component :
-------------------------------------------------------------------------------
Component 0 (CO2)
    molecules:         2.180000e+02 molecules
    number density:    1.352245e-02 molec/A^3
    density:           9.879737e+02 kg/m^3

Total potential energy/kʙ       -3.098230e+05 [K]
-------------------------------------------------------------------------------
    external field VDW/kʙ        0.000000e+00 [K]
    external field Real/kʙ       0.000000e+00 [K]
    framework-molecule VDW/kʙ    0.000000e+00 [K]
    framework-molecule Real/kʙ   0.000000e+00 [K]
    molecule-molecule VDW/kʙ    -2.261371e+05 [K]
    molecule-molecule Real/kʙ   -6.653587e+04 [K]
    Van der Waals (Tail)/kʙ     -7.107049e+03 [K]
    Ewald Fourier/kʙ             9.743947e+03 [K]
    Ewald self/kʙ               -4.385876e+06 [K]
    Ewald exclusion/kʙ           4.366089e+06 [K]
    intra VDW/kʙ                 0.000000e+00 [K]
    intra Coulombic/kʙ           0.000000e+00 [K]
    polarization/kʙ              0.000000e+00 [K]
    dU/dlambda VDW/kʙ            0.000000e+00 [K]
    dU/dlambda Real/kʙ           0.000000e+00 [K]
    dU/dlambda Ewald/kʙ          0.000000e+00 [K]


Initialization: Current cycle: 1200 out of 2000
===============================================================================

Box:      25.31902   0.00000   0.00000
           0.00000  25.31902   0.00000
           0.00000   0.00000  25.31902
Lengths:  25.31902  25.31902  25.31902
Angles:   90.00000  90.00000  90.00000
Rectangular boundary conditions

net charge:   0.00000000

component   0 (CO2) lambda:  0 occupancy:  0 (0.000000)
    net charge:   0.00000000 [e]

Amount of molecules per component :
-------------------------------------------------------------------------------
Component 0 (CO2)
    molecules:         2.250000e+02 molecules
    number density:    1.386251e-02 molec/A^3
    density:           1.012819e+03 kg/m^3

Total potential energy/kʙ       -3.289928e+05 [K]
-------------------------------------------------------------------------------
    external field VDW/kʙ        0.000000e+00 [K]
    external field Real/kʙ       0.000000e+00 [K]
    framework-molecule VDW/kʙ    0.000000e+00 [K]
    framework-molecule Real/kʙ   0.000000e+00 [K]
    molecule-molecule VDW/kʙ    -2.372038e+05 [K]
    molecule-molecule Real/kʙ   -7.305568e+04 [K]
    Van der Waals (Tail)/kʙ     -7.519720e+03 [K]
    Ewald Fourier/kʙ             9.208629e+03 [K]
    Ewald self/kʙ               -4.526707e+06 [K]
    Ewald exclusion/kʙ           4.506284e+06 [K]
    intra VDW/kʙ                 0.000000e+00 [K]
    intra Coulombic/kʙ           0.000000e+00 [K]
    polarization/kʙ              0.000000e+00 [K]
    dU/dlambda VDW/kʙ            0.000000e+00 [K]
    dU/dlambda Real/kʙ           0.000000e+00 [K]
    dU/dlambda Ewald/kʙ          0.000000e+00 [K]


Initialization: Current cycle: 1300 out of 2000
===============================================================================

Box:      24.98543   0.00000   0.00000
           0.00000  24.98543   0.00000
           0.00000   0.00000  24.98543
Lengths:  24.98543  24.98543  24.98543
Angles:   90.00000  90.00000  90.00000
Rectangular boundary conditions

net charge:   0.00000000

component   0 (CO2) lambda:  0 occupancy:  0 (0.000000)
    net charge:   0.00000000 [e]

Amount of molecules per component :
-------------------------------------------------------------------------------
Component 0 (CO2)
    molecules:         2.200000e+02 molecules
    number density:    1.410465e-02 molec/A^3
    density:           1.030510e+03 kg/m^3

Total potential energy/kʙ       -3.171177e+05 [K]
-------------------------------------------------------------------------------
    external field VDW/kʙ        0.000000e+00 [K]
    external field Real/kʙ       0.000000e+00 [K]
    framework-molecule VDW/kʙ    0.000000e+00 [K]
    framework-molecule Real/kʙ   0.000000e+00 [K]
    molecule-molecule VDW/kʙ    -2.318186e+05 [K]
    molecule-molecule Real/kʙ   -6.724761e+04 [K]
    Van der Waals (Tail)/kʙ     -7.481047e+03 [K]
    Ewald Fourier/kʙ             9.397921e+03 [K]
    Ewald self/kʙ               -4.426113e+06 [K]
    Ewald exclusion/kʙ           4.406145e+06 [K]
    intra VDW/kʙ                 0.000000e+00 [K]
    intra Coulombic/kʙ           0.000000e+00 [K]
    polarization/kʙ              0.000000e+00 [K]
    dU/dlambda VDW/kʙ            0.000000e+00 [K]
    dU/dlambda Real/kʙ           0.000000e+00 [K]
    dU/dlambda Ewald/kʙ          0.000000e+00 [K]


Initialization: Current cycle: 1400 out of 2000
===============================================================================

Box:      25.07741   0.00000   0.00000
           0.00000  25.07741   0.00000
           0.00000   0.00000  25.07741
Lengths:  25.07741  25.07741  25.07741
Angles:   90.00000  90.00000  90.00000
Rectangular boundary conditions

net charge:   0.00000000

component   0 (CO2) lambda:  0 occupancy:  0 (0.000000)
    net charge:   0.00000000 [e]

Amount of molecules per component :
-------------------------------------------------------------------------------
Component 0 (CO2)
    molecules:         2.250000e+02 molecules
    number density:    1.426705e-02 molec/A^3
    density:           1.042375e+03 kg/m^3

Total potential energy/kʙ       -3.328679e+05 [K]
-------------------------------------------------------------------------------
    external field VDW/kʙ        0.000000e+00 [K]
    external field Real/kʙ       0.000000e+00 [K]
    framework-molecule VDW/kʙ    0.000000e+00 [K]
    framework-molecule Real/kʙ   0.000000e+00 [K]
    molecule-molecule VDW/kʙ    -2.406054e+05 [K]
    molecule-molecule Real/kʙ   -7.321674e+04 [K]
    Van der Waals (Tail)/kʙ     -7.739165e+03 [K]
    Ewald Fourier/kʙ             9.115651e+03 [K]
    Ewald self/kʙ               -4.526707e+06 [K]
    Ewald exclusion/kʙ           4.506284e+06 [K]
    intra VDW/kʙ                 0.000000e+00 [K]
    intra Coulombic/kʙ           0.000000e+00 [K]
    polarization/kʙ              0.000000e+00 [K]
    dU/dlambda VDW/kʙ            0.000000e+00 [K]
    dU/dlambda Real/kʙ           0.000000e+00 [K]
    dU/dlambda Ewald/kʙ          0.000000e+00 [K]


Initialization: Current cycle: 1500 out of 2000
===============================================================================

Box:      25.33855   0.00000   0.00000
           0.00000  25.33855   0.00000
           0.00000   0.00000  25.33855
Lengths:  25.33855  25.33855  25.33855
Angles:   90.00000  90.00000  90.00000
Rectangular boundary conditions

net charge:   0.00000000

component   0 (CO2) lambda:  0 occupancy:  0 (0.000000)
    net charge:   0.00000000 [e]

Amount of molecules per component :
-------------------------------------------------------------------------------
Component 0 (CO2)
    molecules:         2.150000e+02 molecules
    number density:    1.321579e-02 molec/A^3
    density:           9.655681e+02 kg/m^3

Total potential energy/kʙ       -3.059307e+05 [K]
-------------------------------------------------------------------------------
    external field VDW/kʙ        0.000000e+00 [K]
    external field Real/kʙ       0.000000e+00 [K]
    framework-molecule VDW/kʙ    0.000000e+00 [K]
    framework-molecule Real/kʙ   0.000000e+00 [K]
    molecule-molecule VDW/kʙ    -2.173406e+05 [K]
    molecule-molecule Real/kʙ   -7.114395e+04 [K]
    Van der Waals (Tail)/kʙ     -6.850288e+03 [K]
    Ewald Fourier/kʙ             8.918713e+03 [K]
    Ewald self/kʙ               -4.325520e+06 [K]
    Ewald exclusion/kʙ           4.306005e+06 [K]
    intra VDW/kʙ                 0.000000e+00 [K]
    intra Coulombic/kʙ           0.000000e+00 [K]
    polarization/kʙ              0.000000e+00 [K]
    dU/dlambda VDW/kʙ            0.000000e+00 [K]
    dU/dlambda Real/kʙ           0.000000e+00 [K]
    dU/dlambda Ewald/kʙ          0.000000e+00 [K]


Initialization: Current cycle: 1600 out of 2000
===============================================================================

Box:      25.38066   0.00000   0.00000
           0.00000  25.38066   0.00000
           0.00000   0.00000  25.38066
Lengths:  25.38066  25.38066  25.38066
Angles:   90.00000  90.00000  90.00000
Rectangular boundary conditions

net charge:   0.00000000

component   0 (CO2) lambda:  0 occupancy:  0 (0.000000)
    net charge:   0.00000000 [e]

Amount of molecules per component :
-------------------------------------------------------------------------------
Component 0 (CO2)
    molecules:         2.230000e+02 molecules
    number density:    1.363942e-02 molec/A^3
    density:           9.965197e+02 kg/m^3

Total potential energy/kʙ       -3.160614e+05 [K]
-------------------------------------------------------------------------------
    external field VDW/kʙ        0.000000e+00 [K]
    external field Real/kʙ       0.000000e+00 [K]
    framework-molecule VDW/kʙ    0.000000e+00 [K]
    framework-molecule Real/kʙ   0.000000e+00 [K]
    molecule-molecule VDW/kʙ    -2.290834e+05 [K]
    molecule-molecule Real/kʙ   -6.987269e+04 [K]
    Van der Waals (Tail)/kʙ     -7.332941e+03 [K]
    Ewald Fourier/kʙ             1.046837e+04 [K]
    Ewald self/kʙ               -4.486469e+06 [K]
    Ewald exclusion/kʙ           4.466229e+06 [K]
    intra VDW/kʙ                 0.000000e+00 [K]
    intra Coulombic/kʙ           0.000000e+00 [K]
    polarization/kʙ              0.000000e+00 [K]
    dU/dlambda VDW/kʙ            0.000000e+00 [K]
    dU/dlambda Real/kʙ           0.000000e+00 [K]
    dU/dlambda Ewald/kʙ          0.000000e+00 [K]


Initialization: Current cycle: 1700 out of 2000
===============================================================================

Box:      25.67896   0.00000   0.00000
           0.00000  25.67896   0.00000
           0.00000   0.00000  25.67896
Lengths:  25.67896  25.67896  25.67896
Angles:   90.00000  90.00000  90.00000
Rectangular boundary conditions

net charge:   0.00000000

component   0 (CO2) lambda:  0 occupancy:  0 (0.000000)
    net charge:   0.00000000 [e]

Amount of molecules per component :
-------------------------------------------------------------------------------
Component 0 (CO2)
    molecules:         2.230000e+02 molecules
    number density:    1.316959e-02 molec/A^3
    density:           9.621931e+02 kg/m^3

Total potential energy/kʙ       -3.076218e+05 [K]
-------------------------------------------------------------------------------
    external field VDW/kʙ        0.000000e+00 [K]
    external field Real/kʙ       0.000000e+00 [K]
    framework-molecule VDW/kʙ    0.000000e+00 [K]
    framework-molecule Real/kʙ   0.000000e+00 [K]
    molecule-molecule VDW/kʙ    -2.228594e+05 [K]
    molecule-molecule Real/kʙ   -6.811814e+04 [K]
    Van der Waals (Tail)/kʙ     -7.080347e+03 [K]
    Ewald Fourier/kʙ             1.067679e+04 [K]
    Ewald self/kʙ               -4.486469e+06 [K]
    Ewald exclusion/kʙ           4.466229e+06 [K]
    intra VDW/kʙ                 0.000000e+00 [K]
    intra Coulombic/kʙ           0.000000e+00 [K]
    polarization/kʙ              0.000000e+00 [K]
    dU/dlambda VDW/kʙ            0.000000e+00 [K]
    dU/dlambda Real/kʙ           0.000000e+00 [K]
    dU/dlambda Ewald/kʙ          0.000000e+00 [K]


Initialization: Current cycle: 1800 out of 2000
===============================================================================

Box:      25.19224   0.00000   0.00000
           0.00000  25.19224   0.00000
           0.00000   0.00000  25.19224
Lengths:  25.19224  25.19224  25.19224
Angles:   90.00000  90.00000  90.00000
Rectangular boundary conditions

net charge:   0.00000000

component   0 (CO2) lambda:  0 occupancy:  0 (0.000000)
    net charge:   0.00000000 [e]

Amount of molecules per component :
-------------------------------------------------------------------------------
Component 0 (CO2)
    molecules:         2.270000e+02 molecules
    number density:    1.419795e-02 molec/A^3
    density:           1.037326e+03 kg/m^3

Total potential energy/kʙ       -3.347265e+05 [K]
-------------------------------------------------------------------------------
    external field VDW/kʙ        0.000000e+00 [K]
    external field Real/kʙ       0.000000e+00 [K]
    framework-molecule VDW/kʙ    0.000000e+00 [K]
    framework-molecule Real/kʙ   0.000000e+00 [K]
    molecule-molecule VDW/kʙ    -2.473701e+05 [K]
    molecule-molecule Real/kʙ   -6.868881e+04 [K]
    Van der Waals (Tail)/kʙ     -7.770138e+03 [K]
    Ewald Fourier/kʙ             9.706349e+03 [K]
    Ewald self/kʙ               -4.566944e+06 [K]
    Ewald exclusion/kʙ           4.546340e+06 [K]
    intra VDW/kʙ                 0.000000e+00 [K]
    intra Coulombic/kʙ           0.000000e+00 [K]
    polarization/kʙ              0.000000e+00 [K]
    dU/dlambda VDW/kʙ            0.000000e+00 [K]
    dU/dlambda Real/kʙ           0.000000e+00 [K]
    dU/dlambda Ewald/kʙ          0.000000e+00 [K]


Initialization: Current cycle: 1900 out of 2000
===============================================================================

Box:      24.63361   0.00000   0.00000
           0.00000  24.63361   0.00000
           0.00000   0.00000  24.63361
Lengths:  24.63361  24.63361  24.63361
Angles:   90.00000  90.00000  90.00000
Rectangular boundary conditions

net charge:   0.00000000

component   0 (CO2) lambda:  0 occupancy:  0 (0.000000)
    net charge:   0.00000000 [e]

Amount of molecules per component :
-------------------------------------------------------------------------------
Component 0 (CO2)
    molecules:         2.080000e+02 molecules
    number density:    1.391487e-02 molec/A^3
    density:           1.016644e+03 kg/m^3

Total potential energy/kʙ       -3.065575e+05 [K]
-------------------------------------------------------------------------------
    external field VDW/kʙ        0.000000e+00 [K]
    external field Real/kʙ       0.000000e+00 [K]
    framework-molecule VDW/kʙ    0.000000e+00 [K]
    framework-molecule Real/kʙ   0.000000e+00 [K]
    molecule-molecule VDW/kʙ    -2.207241e+05 [K]
    molecule-molecule Real/kʙ   -6.835308e+04 [K]
    Van der Waals (Tail)/kʙ     -6.977822e+03 [K]
    Ewald Fourier/kʙ             8.376742e+03 [K]
    Ewald self/kʙ               -4.184689e+06 [K]
    Ewald exclusion/kʙ           4.165810e+06 [K]
    intra VDW/kʙ                 0.000000e+00 [K]
    intra Coulombic/kʙ           0.000000e+00 [K]
    polarization/kʙ              0.000000e+00 [K]
    dU/dlambda VDW/kʙ            0.000000e+00 [K]
    dU/dlambda Real/kʙ           0.000000e+00 [K]
    dU/dlambda Ewald/kʙ          0.000000e+00 [K]


Current cycle: 0 out of 6000
===============================================================================

Box:      24.46663   0.00000   0.00000  Average:  24.46663   0.00000   0.00000
           0.00000  24.46663   0.00000             0.00000  24.46663   0.00000
           0.00000   0.00000  24.46663             0.00000   0.00000  24.46663
Lengths:  24.46663  24.46663  24.46663  Average:  24.46663  24.46663  24.46663
Angles:   90.00000  90.00000  90.00000  Average:  90.00000  90.00000  90.00000
Rectangular boundary conditions

net charge:   0.00000000

component 0 (CO2) lambda:  0 occupancy:  0 (0.000000)
    net charge:   0.00000000 [e]

Amount of molecules per component :
-------------------------------------------------------------------------------
Component 0 (CO2)
    molecules:      2.190000e+02 molecules  (2.190000e+02 +/- 0.000000e+00)
    number density: 1.495276e-02 molec./A^3 (1.495276e-02 +/- 0.000000e+00)
    density:        1.092474e+03 kg/m^3     (1.092474e+03 +/- 0.000000e+00)

Average pressure tensor: 
-------------------------------------------------------------------------------
 5.3676e+02  0.0000e+00  0.0000e+00 +/- 0.0000e+00 0.0000e+00 0.0000e+00 [bar]
 0.0000e+00  5.3676e+02  0.0000e+00 +/- 0.0000e+00 0.0000e+00 0.0000e+00 [bar]
 0.0000e+00  0.0000e+00  5.3676e+02 +/- 0.0000e+00 0.0000e+00 0.0000e+00 [bar]
Ideal-gas pressure:   5.367579e+02 +/ 0.000000e+00 [bar]
Excess pressure:      0.000000e+00 +/ 0.000000e+00 [bar]
Pressure:             5.367579e+02 +/ 0.000000e+00 [bar]

Total potential energy/kʙ  -3.438140e+05 (-3.438140e+05 +/- 0.000000e+00) [K]
-------------------------------------------------------------------------------
ExternalField-molecule
    Van der Waals/kʙ        0.000000e+00 ( 0.000000e+00 +/- 0.000000e+00) [K]
Framework-molecule
    Van der Waals/kʙ        0.000000e+00 ( 0.000000e+00 +/- 0.000000e+00) [K]
    Van der Waals (Tail)/kʙ 0.000000e+00 ( 0.000000e+00 +/- 0.000000e+00) [K]
    Coulombic Real/kʙ       0.000000e+00 ( 0.000000e+00 +/- 0.000000e+00) [K]
    Coulombic Fourier/kʙ    0.000000e+00 ( 0.000000e+00 +/- 0.000000e+00) [K]
Molecule-molecule
    Van der Waals/kʙ       -2.537102e+05 (-2.537102e+05 +/- 0.000000e+00) [K]
    Van der Waals (Tail)/kʙ-7.894831e+03 (-7.894831e+03 +/- 0.000000e+00) [K]
    Coulombic Real/kʙ      -7.136184e+04 (-7.136184e+04 +/- 0.000000e+00) [K]
    Coulombic Fourier/kʙ   -1.084716e+04 (-1.084716e+04 +/- 0.000000e+00) [K]
    Molecule Intra/kʙ       0.000000e+00 ( 0.000000e+00 +/- 0.000000e+00) [K]

Current cycle: 100 out of 6000
===============================================================================

Box:      24.64866   0.00000   0.00000  Average:  24.60792   0.00000   0.00000
           0.00000  24.64866   0.00000             0.00000  24.60792   0.00000
           0.00000   0.00000  24.64866             0.00000   0.00000  24.60792
Lengths:  24.64866  24.64866  24.64866  Average:  24.60792  24.60792  24.60792
Angles:   90.00000  90.00000  90.00000  Average:  90.00000  90.00000  90.00000
Rectangular boundary conditions

net charge:   0.00000000

component 0 (CO2) lambda:  0 occupancy:  0 (0.000000)
    net charge:   0.00000000 [e]

Amount of molecules per component :
-------------------------------------------------------------------------------
Component 0 (CO2)
    molecules:      2.150000e+02 molecules  (2.163069e+02 +/- 0.000000e+00)
    number density: 1.435683e-02 molec./A^3 (1.451630e-02 +/- 0.000000e+00)
    density:        1.048935e+03 kg/m^3     (1.060585e+03 +/- 0.000000e+00)

Average pressure tensor: 
-------------------------------------------------------------------------------
 8.5702e+01 -3.5303e+01  2.0094e+01 +/- 0.0000e+00 0.0000e+00 0.0000e+00 [bar]
-3.5303e+01  2.4081e+02 -5.2056e+01 +/- 0.0000e+00 0.0000e+00 0.0000e+00 [bar]
 2.0094e+01 -5.2056e+01 -5.0750e+01 +/- 0.0000e+00 0.0000e+00 0.0000e+00 [bar]
Ideal-gas pressure:   5.210901e+02 +/ 0.000000e+00 [bar]
Excess pressure:     -4.291698e+02 +/ 0.000000e+00 [bar]
Pressure:             9.192033e+01 +/ 0.000000e+00 [bar]

Total potential energy/kʙ  -3.143693e+05 (-3.275443e+05 +/- 0.000000e+00) [K]
-------------------------------------------------------------------------------
ExternalField-molecule
    Van der Waals/kʙ        0.000000e+00 ( 0.000000e+00 +/- 0.000000e+00) [K]
Framework-molecule
    Van der Waals/kʙ        0.000000e+00 ( 0.000000e+00 +/- 0.000000e+00) [K]
    Van der Waals (Tail)/kʙ 0.000000e+00 ( 0.000000e+00 +/- 0.000000e+00) [K]
    Coulombic Real/kʙ       0.000000e+00 ( 0.000000e+00 +/- 0.000000e+00) [K]
    Coulombic Fourier/kʙ    0.000000e+00 ( 0.000000e+00 +/- 0.000000e+00) [K]
Molecule-molecule
    Van der Waals/kʙ       -2.347194e+05 (-2.409834e+05 +/- 0.000000e+00) [K]
    Van der Waals (Tail)/kʙ-7.441738e+03 (-7.574011e+03 +/- 0.000000e+00) [K]
    Coulombic Real/kʙ      -6.224088e+04 (-6.904161e+04 +/- 0.000000e+00) [K]
    Coulombic Fourier/kʙ   -9.967338e+03 (-9.945273e+03 +/- 0.000000e+00) [K]
    Molecule Intra/kʙ       0.000000e+00 ( 0.000000e+00 +/- 0.000000e+00) [K]

Current cycle: 200 out of 6000
===============================================================================

Box:      24.72772   0.00000   0.00000  Average:  24.63529   0.00000   0.00000
           0.00000  24.72772   0.00000             0.00000  24.63529   0.00000
           0.00000   0.00000  24.72772             0.00000   0.00000  24.63529
Lengths:  24.72772  24.72772  24.72772  Average:  24.63529  24.63529  24.63529
Angles:   90.00000  90.00000  90.00000  Average:  90.00000  90.00000  90.00000
Rectangular boundary conditions

net charge:   0.00000000

component 0 (CO2) lambda:  0 occupancy:  0 (0.000000)
    net charge:   0.00000000 [e]

Amount of molecules per component :
-------------------------------------------------------------------------------
Component 0 (CO2)
    molecules:      2.160000e+02 molecules  (2.136169e+02 +/- 0.000000e+00)
    number density: 1.428571e-02 molec./A^3 (1.428876e-02 +/- 0.000000e+00)
    density:        1.043738e+03 kg/m^3     (1.043961e+03 +/- 0.000000e+00)

Average pressure tensor: 
-------------------------------------------------------------------------------
 8.3737e+01  5.8761e+00  1.2631e+01 +/- 0.0000e+00 0.0000e+00 0.0000e+00 [bar]
 5.8761e+00  1.3826e+02  2.4434e+01 +/- 0.0000e+00 0.0000e+00 0.0000e+00 [bar]
 1.2631e+01  2.4434e+01 -6.0514e+01 +/- 0.0000e+00 0.0000e+00 0.0000e+00 [bar]
Ideal-gas pressure:   5.129222e+02 +/ 0.000000e+00 [bar]
Excess pressure:     -4.590945e+02 +/ 0.000000e+00 [bar]
Pressure:             5.382766e+01 +/ 0.000000e+00 [bar]

Total potential energy/kʙ  -3.156019e+05 (-3.194105e+05 +/- 0.000000e+00) [K]
-------------------------------------------------------------------------------
ExternalField-molecule
    Van der Waals/kʙ        0.000000e+00 ( 0.000000e+00 +/- 0.000000e+00) [K]
Framework-molecule
    Van der Waals/kʙ        0.000000e+00 ( 0.000000e+00 +/- 0.000000e+00) [K]
    Van der Waals (Tail)/kʙ 0.000000e+00 ( 0.000000e+00 +/- 0.000000e+00) [K]
    Coulombic Real/kʙ       0.000000e+00 ( 0.000000e+00 +/- 0.000000e+00) [K]
    Coulombic Fourier/kʙ    0.000000e+00 ( 0.000000e+00 +/- 0.000000e+00) [K]
Molecule-molecule
    Van der Waals/kʙ       -2.278756e+05 (-2.337316e+05 +/- 0.000000e+00) [K]
    Van der Waals (Tail)/kʙ-7.439311e+03 (-7.387378e+03 +/- 0.000000e+00) [K]
    Coulombic Real/kʙ      -6.889837e+04 (-6.810804e+04 +/- 0.000000e+00) [K]
    Coulombic Fourier/kʙ   -1.138863e+04 (-1.018343e+04 +/- 0.000000e+00) [K]
    Molecule Intra/kʙ       0.000000e+00 ( 0.000000e+00 +/- 0.000000e+00) [K]

Current cycle: 300 out of 6000
===============================================================================

Box:      24.57225   0.00000   0.00000  Average:  24.61699   0.00000   0.00000
           0.00000  24.57225   0.00000             0.00000  24.61699   0.00000
           0.00000   0.00000  24.57225             0.00000   0.00000  24.61699
Lengths:  24.57225  24.57225  24.57225  Average:  24.61699  24.61699  24.61699
Angles:   90.00000  90.00000  90.00000  Average:  90.00000  90.00000  90.00000
Rectangular boundary conditions

net charge:   0.00000000

component 0 (CO2) lambda:  0 occupancy:  0 (0.000000)
    net charge:   0.00000000 [e]

Amount of molecules per component :
-------------------------------------------------------------------------------
Component 0 (CO2)
    molecules:      2.040000e+02 molecules  (2.113256e+02 +/- 0.000000e+00)
    number density: 1.374977e-02 molec./A^3 (1.416619e-02 +/- 0.000000e+00)
    density:        1.004582e+03 kg/m^3     (1.035006e+03 +/- 0.000000e+00)

Average pressure tensor: 
-------------------------------------------------------------------------------
 1.0761e+02  1.6779e+01  1.2728e+01 +/- 0.0000e+00 0.0000e+00 0.0000e+00 [bar]
 1.6779e+01  1.0103e+02  2.0492e+01 +/- 0.0000e+00 0.0000e+00 0.0000e+00 [bar]
 1.2728e+01  2.0492e+01 -1.0976e+02 +/- 0.0000e+00 0.0000e+00 0.0000e+00 [bar]
Ideal-gas pressure:   5.085224e+02 +/ 0.000000e+00 [bar]
Excess pressure:     -4.755621e+02 +/ 0.000000e+00 [bar]
Pressure:             3.296029e+01 +/ 0.000000e+00 [bar]

Total potential energy/kʙ  -2.994298e+05 (-3.134862e+05 +/- 0.000000e+00) [K]
-------------------------------------------------------------------------------
ExternalField-molecule
    Van der Waals/kʙ        0.000000e+00 ( 0.000000e+00 +/- 0.000000e+00) [K]
Framework-molecule
    Van der Waals/kʙ        0.000000e+00 ( 0.000000e+00 +/- 0.000000e+00) [K]
    Van der Waals (Tail)/kʙ 0.000000e+00 ( 0.000000e+00 +/- 0.000000e+00) [K]
    Coulombic Real/kʙ       0.000000e+00 ( 0.000000e+00 +/- 0.000000e+00) [K]
    Coulombic Fourier/kʙ    0.000000e+00 ( 0.000000e+00 +/- 0.000000e+00) [K]
Molecule-molecule
    Van der Waals/kʙ       -2.142762e+05 (-2.284584e+05 +/- 0.000000e+00) [K]
    Van der Waals (Tail)/kʙ-6.762432e+03 (-7.218305e+03 +/- 0.000000e+00) [K]
    Coulombic Real/kʙ      -6.818910e+04 (-6.765597e+04 +/- 0.000000e+00) [K]
    Coulombic Fourier/kʙ   -1.020206e+04 (-1.015353e+04 +/- 0.000000e+00) [K]
    Molecule Intra/kʙ       0.000000e+00 ( 0.000000e+00 +/- 0.000000e+00) [K]

Current cycle: 400 out of 6000
===============================================================================

Box:      25.01056   0.00000   0.00000  Average:  24.65888   0.00000   0.00000
           0.00000  25.01056   0.00000             0.00000  24.65888   0.00000
           0.00000   0.00000  25.01056             0.00000   0.00000  24.65888
Lengths:  25.01056  25.01056  25.01056  Average:  24.65888  24.65888  24.65888
Angles:   90.00000  90.00000  90.00000  Average:  90.00000  90.00000  90.00000
Rectangular boundary conditions

net charge:   0.00000000

component 0 (CO2) lambda:  0 occupancy:  0 (0.000000)
    net charge:   0.00000000 [e]

Amount of molecules per component :
-------------------------------------------------------------------------------
Component 0 (CO2)
    molecules:      2.150000e+02 molecules  (2.108603e+02 +/- 0.000000e+00)
    number density: 1.374258e-02 molec./A^3 (1.406402e-02 +/- 0.000000e+00)
    density:        1.004056e+03 kg/m^3     (1.027542e+03 +/- 0.000000e+00)

Average pressure tensor: 
-------------------------------------------------------------------------------
 1.0655e+02  2.2227e+01 -1.5762e+00 +/- 0.0000e+00 0.0000e+00 0.0000e+00 [bar]
 2.2227e+01  4.0966e+01  1.5729e+01 +/- 0.0000e+00 0.0000e+00 0.0000e+00 [bar]
-1.5762e+00  1.5729e+01 -7.9848e+01 +/- 0.0000e+00 0.0000e+00 0.0000e+00 [bar]
Ideal-gas pressure:   5.048549e+02 +/ 0.000000e+00 [bar]
Excess pressure:     -4.822989e+02 +/ 0.000000e+00 [bar]
Pressure:             2.255602e+01 +/ 0.000000e+00 [bar]

Total potential energy/kʙ  -3.020572e+05 (-3.105482e+05 +/- 0.000000e+00) [K]
-------------------------------------------------------------------------------
ExternalField-molecule
    Van der Waals/kʙ        0.000000e+00 ( 0.000000e+00 +/- 0.000000e+00) [K]
Framework-molecule
    Van der Waals/kʙ        0.000000e+00 ( 0.000000e+00 +/- 0.000000e+00) [K]
    Van der Waals (Tail)/kʙ 0.000000e+00 ( 0.000000e+00 +/- 0.000000e+00) [K]
    Coulombic Real/kʙ       0.000000e+00 ( 0.000000e+00 +/- 0.000000e+00) [K]
    Coulombic Fourier/kʙ    0.000000e+00 ( 0.000000e+00 +/- 0.000000e+00) [K]
Molecule-molecule
    Van der Waals/kʙ       -2.229846e+05 (-2.259705e+05 +/- 0.000000e+00) [K]
    Van der Waals (Tail)/kʙ-7.123346e+03 (-7.166292e+03 +/- 0.000000e+00) [K]
    Coulombic Real/kʙ      -6.187902e+04 (-6.706902e+04 +/- 0.000000e+00) [K]
    Coulombic Fourier/kʙ   -1.007025e+04 (-1.034234e+04 +/- 0.000000e+00) [K]
    Molecule Intra/kʙ       0.000000e+00 ( 0.000000e+00 +/- 0.000000e+00) [K]

Current cycle: 500 out of 6000
===============================================================================

Box:      25.07172   0.00000   0.00000  Average:  24.71556   0.00000   0.00000
           0.00000  25.07172   0.00000             0.00000  24.71556   0.00000
           0.00000   0.00000  25.07172             0.00000   0.00000  24.71556
Lengths:  25.07172  25.07172  25.07172  Average:  24.71556  24.71556  24.71556
Angles:   90.00000  90.00000  90.00000  Average:  90.00000  90.00000  90.00000
Rectangular boundary conditions

net charge:   0.00000000

component 0 (CO2) lambda:  0 occupancy:  0 (0.000000)
    net charge:   0.00000000 [e]

Amount of molecules per component :
-------------------------------------------------------------------------------
Component 0 (CO2)
    molecules:      2.160000e+02 molecules  (2.116507e+02 +/- 0.000000e+00)
    number density: 1.370570e-02 molec./A^3 (1.402015e-02 +/- 0.000000e+00)
    density:        1.001362e+03 kg/m^3     (1.024336e+03 +/- 0.000000e+00)

Average pressure tensor: 
-------------------------------------------------------------------------------
 9.7543e+01 -5.0536e+00  1.9058e+01 +/- 0.0000e+00 0.0000e+00 0.0000e+00 [bar]
-5.0536e+00  2.1742e+01  1.0416e+01 +/- 0.0000e+00 0.0000e+00 0.0000e+00 [bar]
 1.9058e+01  1.0416e+01 -9.3060e+00 +/- 0.0000e+00 0.0000e+00 0.0000e+00 [bar]
Ideal-gas pressure:   5.032800e+02 +/ 0.000000e+00 [bar]
Excess pressure:     -4.666200e+02 +/ 0.000000e+00 [bar]
Pressure:             3.665995e+01 +/ 0.000000e+00 [bar]

Total potential energy/kʙ  -3.096576e+05 (-3.097677e+05 +/- 0.000000e+00) [K]
-------------------------------------------------------------------------------
ExternalField-molecule
    Van der Waals/kʙ        0.000000e+00 ( 0.000000e+00 +/- 0.000000e+00) [K]
Framework-molecule
    Van der Waals/kʙ        0.000000e+00 ( 0.000000e+00 +/- 0.000000e+00) [K]
    Van der Waals (Tail)/kʙ 0.000000e+00 ( 0.000000e+00 +/- 0.000000e+00) [K]
    Coulombic Real/kʙ       0.000000e+00 ( 0.000000e+00 +/- 0.000000e+00) [K]
    Coulombic Fourier/kʙ    0.000000e+00 ( 0.000000e+00 +/- 0.000000e+00) [K]
Molecule-molecule
    Van der Waals/kʙ       -2.225411e+05 (-2.256353e+05 +/- 0.000000e+00) [K]
    Van der Waals (Tail)/kʙ-7.137273e+03 (-7.159998e+03 +/- 0.000000e+00) [K]
    Coulombic Real/kʙ      -7.043553e+04 (-6.681018e+04 +/- 0.000000e+00) [K]
    Coulombic Fourier/kʙ   -9.543722e+03 (-1.016222e+04 +/- 0.000000e+00) [K]
    Molecule Intra/kʙ       0.000000e+00 ( 0.000000e+00 +/- 0.000000e+00) [K]

Current cycle: 600 out of 6000
===============================================================================

Box:      25.01968   0.00000   0.00000  Average:  24.78375   0.00000   0.00000
           0.00000  25.01968   0.00000             0.00000  24.78375   0.00000
           0.00000   0.00000  25.01968             0.00000   0.00000  24.78375
Lengths:  25.01968  25.01968  25.01968  Average:  24.78375  24.78375  24.78375
Angles:   90.00000  90.00000  90.00000  Average:  90.00000  90.00000  90.00000
Rectangular boundary conditions

net charge:   0.00000000

component 0 (CO2) lambda:  0 occupancy:  0 (0.000000)
    net charge:   0.00000000 [e]

Amount of molecules per component :
-------------------------------------------------------------------------------
Component 0 (CO2)
    molecules:      2.220000e+02 molecules  (2.132845e+02 +/- 0.000000e+00)
    number density: 1.417450e-02 molec./A^3 (1.401113e-02 +/- 0.000000e+00)
    density:        1.035613e+03 kg/m^3     (1.023677e+03 +/- 0.000000e+00)

Average pressure tensor: 
-------------------------------------------------------------------------------
 8.4251e+01 -1.9884e+01 -2.3769e+01 +/- 0.0000e+00 0.0000e+00 0.0000e+00 [bar]
-1.9884e+01  2.7520e+01  1.5657e+01 +/- 0.0000e+00 0.0000e+00 0.0000e+00 [bar]
-2.3769e+01  1.5657e+01 -2.1921e+00 +/- 0.0000e+00 0.0000e+00 0.0000e+00 [bar]
Ideal-gas pressure:   5.029562e+02 +/ 0.000000e+00 [bar]
Excess pressure:     -4.664298e+02 +/ 0.000000e+00 [bar]
Pressure:             3.652637e+01 +/ 0.000000e+00 [bar]

Total potential energy/kʙ  -3.329281e+05 (-3.122880e+05 +/- 0.000000e+00) [K]
-------------------------------------------------------------------------------
ExternalField-molecule
    Van der Waals/kʙ        0.000000e+00 ( 0.000000e+00 +/- 0.000000e+00) [K]
Framework-molecule
    Van der Waals/kʙ        0.000000e+00 ( 0.000000e+00 +/- 0.000000e+00) [K]
    Van der Waals (Tail)/kʙ 0.000000e+00 ( 0.000000e+00 +/- 0.000000e+00) [K]
    Coulombic Real/kʙ       0.000000e+00 ( 0.000000e+00 +/- 0.000000e+00) [K]
    Coulombic Fourier/kʙ    0.000000e+00 ( 0.000000e+00 +/- 0.000000e+00) [K]
Molecule-molecule
    Van der Waals/kʙ       -2.375807e+05 (-2.273046e+05 +/- 0.000000e+00) [K]
    Van der Waals (Tail)/kʙ-7.586438e+03 (-7.213569e+03 +/- 0.000000e+00) [K]
    Coulombic Real/kʙ      -7.612228e+04 (-6.754492e+04 +/- 0.000000e+00) [K]
    Coulombic Fourier/kʙ   -1.163865e+04 (-1.022491e+04 +/- 0.000000e+00) [K]
    Molecule Intra/kʙ       0.000000e+00 ( 0.000000e+00 +/- 0.000000e+00) [K]

Current cycle: 700 out of 6000
===============================================================================

Box:      25.07240   0.00000   0.00000  Average:  24.81577   0.00000   0.00000
           0.00000  25.07240   0.00000             0.00000  24.81577   0.00000
           0.00000   0.00000  25.07240             0.00000   0.00000  24.81577
Lengths:  25.07240  25.07240  25.07240  Average:  24.81577  24.81577  24.81577
Angles:   90.00000  90.00000  90.00000  Average:  90.00000  90.00000  90.00000
Rectangular boundary conditions

net charge:   0.00000000

component 0 (CO2) lambda:  0 occupancy:  0 (0.000000)
    net charge:   0.00000000 [e]

Amount of molecules per component :
-------------------------------------------------------------------------------
Component 0 (CO2)
    molecules:      2.180000e+02 molecules  (2.137047e+02 +/- 0.000000e+00)
    number density: 1.383148e-02 molec./A^3 (1.398461e-02 +/- 0.000000e+00)
    density:        1.010552e+03 kg/m^3     (1.021740e+03 +/- 0.000000e+00)

Average pressure tensor: 
-------------------------------------------------------------------------------
 7.4477e+01 -2.5903e+01 -4.5349e+01 +/- 0.0000e+00 0.0000e+00 0.0000e+00 [bar]
-2.5903e+01  3.2506e+01  7.6004e+00 +/- 0.0000e+00 0.0000e+00 0.0000e+00 [bar]
-4.5349e+01  7.6004e+00  1.8371e+00 +/- 0.0000e+00 0.0000e+00 0.0000e+00 [bar]
Ideal-gas pressure:   5.020043e+02 +/ 0.000000e+00 [bar]
Excess pressure:     -4.657308e+02 +/ 0.000000e+00 [bar]
Pressure:             3.627347e+01 +/ 0.000000e+00 [bar]

Total potential energy/kʙ  -3.174042e+05 (-3.123560e+05 +/- 0.000000e+00) [K]
-------------------------------------------------------------------------------
ExternalField-molecule
    Van der Waals/kʙ        0.000000e+00 ( 0.000000e+00 +/- 0.000000e+00) [K]
Framework-molecule
    Van der Waals/kʙ        0.000000e+00 ( 0.000000e+00 +/- 0.000000e+00) [K]
    Van der Waals (Tail)/kʙ 0.000000e+00 ( 0.000000e+00 +/- 0.000000e+00) [K]
    Coulombic Real/kʙ       0.000000e+00 ( 0.000000e+00 +/- 0.000000e+00) [K]
    Coulombic Fourier/kʙ    0.000000e+00 ( 0.000000e+00 +/- 0.000000e+00) [K]
Molecule-molecule
    Van der Waals/kʙ       -2.304938e+05 (-2.272577e+05 +/- 0.000000e+00) [K]
    Van der Waals (Tail)/kʙ-7.269467e+03 (-7.213470e+03 +/- 0.000000e+00) [K]
    Coulombic Real/kʙ      -6.951424e+04 (-6.765134e+04 +/- 0.000000e+00) [K]
    Coulombic Fourier/kʙ   -1.012668e+04 (-1.023346e+04 +/- 0.000000e+00) [K]
    Molecule Intra/kʙ       0.000000e+00 ( 0.000000e+00 +/- 0.000000e+00) [K]

Current cycle: 800 out of 6000
===============================================================================

Box:      24.79077   0.00000   0.00000  Average:  24.81508   0.00000   0.00000
           0.00000  24.79077   0.00000             0.00000  24.81508   0.00000
           0.00000   0.00000  24.79077             0.00000   0.00000  24.81508
Lengths:  24.79077  24.79077  24.79077  Average:  24.81508  24.81508  24.81508
Angles:   90.00000  90.00000  90.00000  Average:  90.00000  90.00000  90.00000
Rectangular boundary conditions

net charge:   0.00000000

component 0 (CO2) lambda:  0 occupancy:  0 (0.000000)
    net charge:   0.00000000 [e]

Amount of molecules per component :
-------------------------------------------------------------------------------
Component 0 (CO2)
    molecules:      2.110000e+02 molecules  (2.137029e+02 +/- 0.000000e+00)
    number density: 1.384880e-02 molec./A^3 (1.398542e-02 +/- 0.000000e+00)
    density:        1.011817e+03 kg/m^3     (1.021799e+03 +/- 0.000000e+00)

Average pressure tensor: 
-------------------------------------------------------------------------------
 5.8530e+01 -1.9951e+01 -5.1553e+01 +/- 0.0000e+00 0.0000e+00 0.0000e+00 [bar]
-1.9951e+01  3.1938e+01  1.4664e+01 +/- 0.0000e+00 0.0000e+00 0.0000e+00 [bar]
-5.1553e+01  1.4664e+01 -1.2470e+01 +/- 0.0000e+00 0.0000e+00 0.0000e+00 [bar]
Ideal-gas pressure:   5.020335e+02 +/ 0.000000e+00 [bar]
Excess pressure:     -4.760342e+02 +/ 0.000000e+00 [bar]
Pressure:             2.599935e+01 +/ 0.000000e+00 [bar]

Total potential energy/kʙ  -3.007394e+05 (-3.123561e+05 +/- 0.000000e+00) [K]
-------------------------------------------------------------------------------
ExternalField-molecule
    Van der Waals/kʙ        0.000000e+00 ( 0.000000e+00 +/- 0.000000e+00) [K]
Framework-molecule
    Van der Waals/kʙ        0.000000e+00 ( 0.000000e+00 +/- 0.000000e+00) [K]
    Van der Waals (Tail)/kʙ 0.000000e+00 ( 0.000000e+00 +/- 0.000000e+00) [K]
    Coulombic Real/kʙ       0.000000e+00 ( 0.000000e+00 +/- 0.000000e+00) [K]
    Coulombic Fourier/kʙ    0.000000e+00 ( 0.000000e+00 +/- 0.000000e+00) [K]
Molecule-molecule
    Van der Waals/kʙ       -2.177685e+05 (-2.273312e+05 +/- 0.000000e+00) [K]
    Van der Waals (Tail)/kʙ-7.044854e+03 (-7.218406e+03 +/- 0.000000e+00) [K]
    Coulombic Real/kʙ      -6.624881e+04 (-6.751703e+04 +/- 0.000000e+00) [K]
    Coulombic Fourier/kʙ   -9.677255e+03 (-1.028939e+04 +/- 0.000000e+00) [K]
    Molecule Intra/kʙ       0.000000e+00 ( 0.000000e+00 +/- 0.000000e+00) [K]

Current cycle: 900 out of 6000
===============================================================================

Box:      25.32773   0.00000   0.00000  Average:  24.85366   0.00000   0.00000
           0.00000  25.32773   0.00000             0.00000  24.85366   0.00000
           0.00000   0.00000  25.32773             0.00000   0.00000  24.85366
Lengths:  25.32773  25.32773  25.32773  Average:  24.85366  24.85366  24.85366
Angles:   90.00000  90.00000  90.00000  Average:  90.00000  90.00000  90.00000
Rectangular boundary conditions

net charge:   0.00000000

component 0 (CO2) lambda:  0 occupancy:  0 (0.000000)
    net charge:   0.00000000 [e]

Amount of molecules per component :
-------------------------------------------------------------------------------
Component 0 (CO2)
    molecules:      2.220000e+02 molecules  (2.141632e+02 +/- 0.000000e+00)
    number density: 1.366358e-02 molec./A^3 (1.395092e-02 +/- 0.000000e+00)
    density:        9.982843e+02 kg/m^3     (1.019278e+03 +/- 0.000000e+00)

Average pressure tensor: 
-------------------------------------------------------------------------------
 3.6239e+01 -9.3761e-01 -5.4842e+01 +/- 0.0000e+00 0.0000e+00 0.0000e+00 [bar]
-9.3761e-01  2.5359e+01  1.0029e+01 +/- 0.0000e+00 0.0000e+00 0.0000e+00 [bar]
-5.4842e+01  1.0029e+01 -3.0379e+01 +/- 0.0000e+00 0.0000e+00 0.0000e+00 [bar]
Ideal-gas pressure:   5.007950e+02 +/ 0.000000e+00 [bar]
Excess pressure:     -4.903887e+02 +/ 0.000000e+00 [bar]
Pressure:             1.040633e+01 +/ 0.000000e+00 [bar]

Total potential energy/kʙ  -3.087719e+05 (-3.120869e+05 +/- 0.000000e+00) [K]
-------------------------------------------------------------------------------
ExternalField-molecule
    Van der Waals/kʙ        0.000000e+00 ( 0.000000e+00 +/- 0.000000e+00) [K]
Framework-molecule
    Van der Waals/kʙ        0.000000e+00 ( 0.000000e+00 +/- 0.000000e+00) [K]
    Van der Waals (Tail)/kʙ 0.000000e+00 ( 0.000000e+00 +/- 0.000000e+00) [K]
    Coulombic Real/kʙ       0.000000e+00 ( 0.000000e+00 +/- 0.000000e+00) [K]
    Coulombic Fourier/kʙ    0.000000e+00 ( 0.000000e+00 +/- 0.000000e+00) [K]
Molecule-molecule
    Van der Waals/kʙ       -2.291368e+05 (-2.272573e+05 +/- 0.000000e+00) [K]
    Van der Waals (Tail)/kʙ-7.312985e+03 (-7.218522e+03 +/- 0.000000e+00) [K]
    Coulombic Real/kʙ      -6.222735e+04 (-6.729735e+04 +/- 0.000000e+00) [K]
    Coulombic Fourier/kʙ   -1.009477e+04 (-1.031369e+04 +/- 0.000000e+00) [K]
    Molecule Intra/kʙ       0.000000e+00 ( 0.000000e+00 +/- 0.000000e+00) [K]

Current cycle: 1000 out of 6000
===============================================================================

Box:      25.78045   0.00000   0.00000  Average:  24.92845   0.00000   0.00000
           0.00000  25.78045   0.00000             0.00000  24.92845   0.00000
           0.00000   0.00000  25.78045             0.00000   0.00000  24.92845
Lengths:  25.78045  25.78045  25.78045  Average:  24.92845  24.92845  24.92845
Angles:   90.00000  90.00000  90.00000  Average:  90.00000  90.00000  90.00000
Rectangular boundary conditions

net charge:   0.00000000

component 0 (CO2) lambda:  0 occupancy:  0 (0.000000)
    net charge:   0.00000000 [e]

Amount of molecules per component :
-------------------------------------------------------------------------------
Component 0 (CO2)
    molecules:      2.270000e+02 molecules  (2.151079e+02 +/- 0.000000e+00)
    number density: 1.324813e-02 molec./A^3 (1.388855e-02 +/- 0.000000e+00)
    density:        9.679309e+02 kg/m^3     (1.014721e+03 +/- 0.000000e+00)

Average pressure tensor: 
-------------------------------------------------------------------------------
 2.2249e+01  5.6830e+00 -5.8901e+01 +/- 0.0000e+00 0.0000e+00 0.0000e+00 [bar]
 5.6830e+00  2.3889e+01  1.8203e+01 +/- 0.0000e+00 0.0000e+00 0.0000e+00 [bar]
-5.8901e+01  1.8203e+01 -3.4558e+01 +/- 0.0000e+00 0.0000e+00 0.0000e+00 [bar]
Ideal-gas pressure:   4.985559e+02 +/ 0.000000e+00 [bar]
Excess pressure:     -4.946959e+02 +/ 0.000000e+00 [bar]
Pressure:             3.859984e+00 +/ 0.000000e+00 [bar]

Total potential energy/kʙ  -3.054285e+05 (-3.116286e+05 +/- 0.000000e+00) [K]
-------------------------------------------------------------------------------
ExternalField-molecule
    Van der Waals/kʙ        0.000000e+00 ( 0.000000e+00 +/- 0.000000e+00) [K]
Framework-molecule
    Van der Waals/kʙ        0.000000e+00 ( 0.000000e+00 +/- 0.000000e+00) [K]
    Van der Waals (Tail)/kʙ 0.000000e+00 ( 0.000000e+00 +/- 0.000000e+00) [K]
    Coulombic Real/kʙ       0.000000e+00 ( 0.000000e+00 +/- 0.000000e+00) [K]
    Coulombic Fourier/kʙ    0.000000e+00 ( 0.000000e+00 +/- 0.000000e+00) [K]
Molecule-molecule
    Van der Waals/kʙ       -2.253607e+05 (-2.272202e+05 +/- 0.000000e+00) [K]
    Van der Waals (Tail)/kʙ-7.250328e+03 (-7.221252e+03 +/- 0.000000e+00) [K]
    Coulombic Real/kʙ      -6.307144e+04 (-6.684877e+04 +/- 0.000000e+00) [K]
    Coulombic Fourier/kʙ   -9.746026e+03 (-1.033842e+04 +/- 0.000000e+00) [K]
    Molecule Intra/kʙ       0.000000e+00 ( 0.000000e+00 +/- 0.000000e+00) [K]

Current cycle: 1100 out of 6000
===============================================================================

Box:      25.60026   0.00000   0.00000  Average:  25.00229   0.00000   0.00000
           0.00000  25.60026   0.00000             0.00000  25.00229   0.00000
           0.00000   0.00000  25.60026             0.00000   0.00000  25.00229
Lengths:  25.60026  25.60026  25.60026  Average:  25.00229  25.00229  25.00229
Angles:   90.00000  90.00000  90.00000  Average:  90.00000  90.00000  90.00000
Rectangular boundary conditions

net charge:   0.00000000

component 0 (CO2) lambda:  0 occupancy:  0 (0.000000)
    net charge:   0.00000000 [e]

Amount of molecules per component :
-------------------------------------------------------------------------------
Component 0 (CO2)
    molecules:      2.220000e+02 molecules  (2.160926e+02 +/- 0.000000e+00)
    number density: 1.323183e-02 molec./A^3 (1.383039e-02 +/- 0.000000e+00)
    density:        9.667404e+02 kg/m^3     (1.010472e+03 +/- 0.000000e+00)

Average pressure tensor: 
-------------------------------------------------------------------------------
 2.8496e+01 -8.4142e-01 -4.3924e+01 +/- 0.0000e+00 0.0000e+00 0.0000e+00 [bar]
-8.4142e-01  4.8755e+00  1.0987e+01 +/- 0.0000e+00 0.0000e+00 0.0000e+00 [bar]
-4.3924e+01  1.0987e+01 -4.0881e+01 +/- 0.0000e+00 0.0000e+00 0.0000e+00 [bar]
Ideal-gas pressure:   4.964683e+02 +/ 0.000000e+00 [bar]
Excess pressure:     -4.989712e+02 +/ 0.000000e+00 [bar]
Pressure:            -2.502922e+00 +/ 0.000000e+00 [bar]

Total potential energy/kʙ  -3.038033e+05 (-3.113173e+05 +/- 0.000000e+00) [K]
-------------------------------------------------------------------------------
ExternalField-molecule
    Van der Waals/kʙ        0.000000e+00 ( 0.000000e+00 +/- 0.000000e+00) [K]
Framework-molecule
    Van der Waals/kʙ        0.000000e+00 ( 0.000000e+00 +/- 0.000000e+00) [K]
    Van der Waals (Tail)/kʙ 0.000000e+00 ( 0.000000e+00 +/- 0.000000e+00) [K]
    Coulombic Real/kʙ       0.000000e+00 ( 0.000000e+00 +/- 0.000000e+00) [K]
    Coulombic Fourier/kʙ    0.000000e+00 ( 0.000000e+00 +/- 0.000000e+00) [K]
Molecule-molecule
    Van der Waals/kʙ       -2.213403e+05 (-2.270756e+05 +/- 0.000000e+00) [K]
    Van der Waals (Tail)/kʙ-7.081908e+03 (-7.216383e+03 +/- 0.000000e+00) [K]
    Coulombic Real/kʙ      -6.505013e+04 (-6.668034e+04 +/- 0.000000e+00) [K]
    Coulombic Fourier/kʙ   -1.033092e+04 (-1.034501e+04 +/- 0.000000e+00) [K]
    Molecule Intra/kʙ       0.000000e+00 ( 0.000000e+00 +/- 0.000000e+00) [K]

Current cycle: 1200 out of 6000
===============================================================================

Box:      25.62515   0.00000   0.00000  Average:  25.04239   0.00000   0.00000
           0.00000  25.62515   0.00000             0.00000  25.04239   0.00000
           0.00000   0.00000  25.62515             0.00000   0.00000  25.04239
Lengths:  25.62515  25.62515  25.62515  Average:  25.04239  25.04239  25.04239
Angles:   90.00000  90.00000  90.00000  Average:  90.00000  90.00000  90.00000
Rectangular boundary conditions

net charge:   0.00000000

component 0 (CO2) lambda:  0 occupancy:  0 (0.000000)
    net charge:   0.00000000 [e]

Amount of molecules per component :
-------------------------------------------------------------------------------
Component 0 (CO2)
    molecules:      2.300000e+02 molecules  (2.166911e+02 +/- 0.000000e+00)
    number density: 1.366875e-02 molec./A^3 (1.380218e-02 +/- 0.000000e+00)
    density:        9.986623e+02 kg/m^3     (1.008411e+03 +/- 0.000000e+00)

Average pressure tensor: 
-------------------------------------------------------------------------------
 2.9038e+01 -4.8454e+00 -3.9484e+01 +/- 0.0000e+00 0.0000e+00 0.0000e+00 [bar]
-4.8454e+00  1.7044e+01 -4.8681e+00 +/- 0.0000e+00 0.0000e+00 0.0000e+00 [bar]
-3.9484e+01 -4.8681e+00 -1.9800e+01 +/- 0.0000e+00 0.0000e+00 0.0000e+00 [bar]
Ideal-gas pressure:   4.954556e+02 +/ 0.000000e+00 [bar]
Excess pressure:     -4.866952e+02 +/ 0.000000e+00 [bar]
Pressure:             8.760371e+00 +/ 0.000000e+00 [bar]

Total potential energy/kʙ  -3.272925e+05 (-3.111545e+05 +/- 0.000000e+00) [K]
-------------------------------------------------------------------------------
ExternalField-molecule
    Van der Waals/kʙ        0.000000e+00 ( 0.000000e+00 +/- 0.000000e+00) [K]
Framework-molecule
    Van der Waals/kʙ        0.000000e+00 ( 0.000000e+00 +/- 0.000000e+00) [K]
    Van der Waals (Tail)/kʙ 0.000000e+00 ( 0.000000e+00 +/- 0.000000e+00) [K]
    Coulombic Real/kʙ       0.000000e+00 ( 0.000000e+00 +/- 0.000000e+00) [K]
    Coulombic Fourier/kʙ    0.000000e+00 ( 0.000000e+00 +/- 0.000000e+00) [K]
Molecule-molecule
    Van der Waals/kʙ       -2.431631e+05 (-2.270857e+05 +/- 0.000000e+00) [K]
    Van der Waals (Tail)/kʙ-7.579385e+03 (-7.218568e+03 +/- 0.000000e+00) [K]
    Coulombic Real/kʙ      -6.553611e+04 (-6.648859e+04 +/- 0.000000e+00) [K]
    Coulombic Fourier/kʙ   -1.101396e+04 (-1.036165e+04 +/- 0.000000e+00) [K]
    Molecule Intra/kʙ       0.000000e+00 ( 0.000000e+00 +/- 0.000000e+00) [K]

Current cycle: 1300 out of 6000
===============================================================================

Box:      25.42335   0.00000   0.00000  Average:  25.07209   0.00000   0.00000
           0.00000  25.42335   0.00000             0.00000  25.07209   0.00000
           0.00000   0.00000  25.42335             0.00000   0.00000  25.07209
Lengths:  25.42335  25.42335  25.42335  Average:  25.07209  25.07209  25.07209
Angles:   90.00000  90.00000  90.00000  Average:  90.00000  90.00000  90.00000
Rectangular boundary conditions

net charge:   0.00000000

component 0 (CO2) lambda:  0 occupancy:  0 (0.000000)
    net charge:   0.00000000 [e]

Amount of molecules per component :
-------------------------------------------------------------------------------
Component 0 (CO2)
    molecules:      2.220000e+02 molecules  (2.175219e+02 +/- 0.000000e+00)
    number density: 1.350997e-02 molec./A^3 (1.380477e-02 +/- 0.000000e+00)
    density:        9.870616e+02 kg/m^3     (1.008600e+03 +/- 0.000000e+00)

Average pressure tensor: 
-------------------------------------------------------------------------------
 3.3113e+01 -6.8163e-01 -3.2724e+01 +/- 0.0000e+00 0.0000e+00 0.0000e+00 [bar]
-6.8163e-01  2.0257e+01  2.9085e-01 +/- 0.0000e+00 0.0000e+00 0.0000e+00 [bar]
-3.2724e+01  2.9085e-01 -1.9618e+01 +/- 0.0000e+00 0.0000e+00 0.0000e+00 [bar]
Ideal-gas pressure:   4.955486e+02 +/ 0.000000e+00 [bar]
Excess pressure:     -4.842979e+02 +/ 0.000000e+00 [bar]
Pressure:             1.125066e+01 +/ 0.000000e+00 [bar]

Total potential energy/kʙ  -3.170434e+05 (-3.125704e+05 +/- 0.000000e+00) [K]
-------------------------------------------------------------------------------
ExternalField-molecule
    Van der Waals/kʙ        0.000000e+00 ( 0.000000e+00 +/- 0.000000e+00) [K]
Framework-molecule
    Van der Waals/kʙ        0.000000e+00 ( 0.000000e+00 +/- 0.000000e+00) [K]
    Van der Waals (Tail)/kʙ 0.000000e+00 ( 0.000000e+00 +/- 0.000000e+00) [K]
    Coulombic Real/kʙ       0.000000e+00 ( 0.000000e+00 +/- 0.000000e+00) [K]
    Coulombic Fourier/kʙ    0.000000e+00 ( 0.000000e+00 +/- 0.000000e+00) [K]
Molecule-molecule
    Van der Waals/kʙ       -2.238454e+05 (-2.276734e+05 +/- 0.000000e+00) [K]
    Van der Waals (Tail)/kʙ-7.230772e+03 (-7.240001e+03 +/- 0.000000e+00) [K]
    Coulombic Real/kʙ      -7.452466e+04 (-6.720918e+04 +/- 0.000000e+00) [K]
    Coulombic Fourier/kʙ   -1.144258e+04 (-1.044785e+04 +/- 0.000000e+00) [K]
    Molecule Intra/kʙ       0.000000e+00 ( 0.000000e+00 +/- 0.000000e+00) [K]

Current cycle: 1400 out of 6000
===============================================================================

Box:      25.37926   0.00000   0.00000  Average:  25.09742   0.00000   0.00000
           0.00000  25.37926   0.00000             0.00000  25.09742   0.00000
           0.00000   0.00000  25.37926             0.00000   0.00000  25.09742
Lengths:  25.37926  25.37926  25.37926  Average:  25.09742  25.09742  25.09742
Angles:   90.00000  90.00000  90.00000  Average:  90.00000  90.00000  90.00000
Rectangular boundary conditions

net charge:   0.00000000

component 0 (CO2) lambda:  0 occupancy:  0 (0.000000)
    net charge:   0.00000000 [e]

Amount of molecules per component :
-------------------------------------------------------------------------------
Component 0 (CO2)
    molecules:      2.230000e+02 molecules  (2.181792e+02 +/- 0.000000e+00)
    number density: 1.364169e-02 molec./A^3 (1.380390e-02 +/- 0.000000e+00)
    density:        9.966849e+02 kg/m^3     (1.008537e+03 +/- 0.000000e+00)

Average pressure tensor: 
-------------------------------------------------------------------------------
 5.3239e+01  9.0861e+00 -1.1397e+01 +/- 0.0000e+00 0.0000e+00 0.0000e+00 [bar]
 9.0861e+00  1.1599e+01 -8.2737e+00 +/- 0.0000e+00 0.0000e+00 0.0000e+00 [bar]
-1.1397e+01 -8.2737e+00 -1.2262e+01 +/- 0.0000e+00 0.0000e+00 0.0000e+00 [bar]
Ideal-gas pressure:   4.955175e+02 +/ 0.000000e+00 [bar]
Excess pressure:     -4.779920e+02 +/ 0.000000e+00 [bar]
Pressure:             1.752549e+01 +/ 0.000000e+00 [bar]

Total potential energy/kʙ  -3.159617e+05 (-3.138275e+05 +/- 0.000000e+00) [K]
-------------------------------------------------------------------------------
ExternalField-molecule
    Van der Waals/kʙ        0.000000e+00 ( 0.000000e+00 +/- 0.000000e+00) [K]
Framework-molecule
    Van der Waals/kʙ        0.000000e+00 ( 0.000000e+00 +/- 0.000000e+00) [K]
    Van der Waals (Tail)/kʙ 0.000000e+00 ( 0.000000e+00 +/- 0.000000e+00) [K]
    Coulombic Real/kʙ       0.000000e+00 ( 0.000000e+00 +/- 0.000000e+00) [K]
    Coulombic Fourier/kʙ    0.000000e+00 ( 0.000000e+00 +/- 0.000000e+00) [K]
Molecule-molecule
    Van der Waals/kʙ       -2.329599e+05 (-2.283955e+05 +/- 0.000000e+00) [K]
    Van der Waals (Tail)/kʙ-7.334157e+03 (-7.263731e+03 +/- 0.000000e+00) [K]
    Coulombic Real/kʙ      -6.488470e+04 (-6.765085e+04 +/- 0.000000e+00) [K]
    Coulombic Fourier/kʙ   -1.078299e+04 (-1.051738e+04 +/- 0.000000e+00) [K]
    Molecule Intra/kʙ       0.000000e+00 ( 0.000000e+00 +/- 0.000000e+00) [K]

Current cycle: 1500 out of 6000
===============================================================================

Box:      25.21023   0.00000   0.00000  Average:  25.12866   0.00000   0.00000
           0.00000  25.21023   0.00000             0.00000  25.12866   0.00000
           0.00000   0.00000  25.21023             0.00000   0.00000  25.12866
[...]
    number density: 1.351307e-02 molec./A^3 (1.371802e-02 +/- 1.343263e-04)
    density:        9.872881e+02 kg/m^3     (1.002262e+03 +/- 9.814107e+00)

Average pressure tensor: 
-------------------------------------------------------------------------------
 4.4318e+01 -7.5177e+00 -4.4424e-01 +/- 4.1499e+01 2.1745e+01 6.5704e+01 [bar]
-7.5177e+00  3.0183e+01 -1.5636e+00 +/- 2.1745e+01 2.6582e+01 3.1999e+01 [bar]
-4.4424e-01 -1.5636e+00  2.1153e+01 +/- 6.5704e+01 3.1999e+01 5.3780e+01 [bar]
Ideal-gas pressure:   4.924346e+02 +/ 4.821898e+00 [bar]
Excess pressure:     -4.605500e+02 +/ 2.054790e+01 [bar]
Pressure:             3.188458e+01 +/ 1.732535e+01 [bar]

Total potential energy/kʙ  -3.162805e+05 (-3.133318e+05 +/- 4.174931e+03) [K]
-------------------------------------------------------------------------------
ExternalField-molecule
    Van der Waals/kʙ        0.000000e+00 ( 0.000000e+00 +/- 0.000000e+00) [K]
Framework-molecule
    Van der Waals/kʙ        0.000000e+00 ( 0.000000e+00 +/- 0.000000e+00) [K]
    Van der Waals (Tail)/kʙ 0.000000e+00 ( 0.000000e+00 +/- 0.000000e+00) [K]
    Coulombic Real/kʙ       0.000000e+00 ( 0.000000e+00 +/- 0.000000e+00) [K]
    Coulombic Fourier/kʙ    0.000000e+00 ( 0.000000e+00 +/- 0.000000e+00) [K]
Molecule-molecule
    Van der Waals/kʙ       -2.343585e+05 (-2.274796e+05 +/- 2.253775e+03) [K]
    Van der Waals (Tail)/kʙ-7.330167e+03 (-7.260293e+03 +/- 8.411988e+01) [K]
    Coulombic Real/kʙ      -6.424766e+04 (-6.802618e+04 +/- 1.817964e+03) [K]
    Coulombic Fourier/kʙ   -1.034419e+04 (-1.056570e+04 +/- 1.985300e+02) [K]
    Molecule Intra/kʙ       0.000000e+00 ( 0.000000e+00 +/- 0.000000e+00) [K]

Current cycle: 5800 out of 6000
===============================================================================

Box:      25.29561   0.00000   0.00000  Average:  25.21396   0.00000   0.00000
           0.00000  25.29561   0.00000             0.00000  25.21396   0.00000
           0.00000   0.00000  25.29561             0.00000   0.00000  25.21396
Lengths:  25.29561  25.29561  25.29561  Average:  25.21396  25.21396  25.21396
Angles:   90.00000  90.00000  90.00000  Average:  90.00000  90.00000  90.00000
Rectangular boundary conditions

net charge:   0.00000000

component 0 (CO2) lambda:  0 occupancy:  0 (0.000000)
    net charge:   0.00000000 [e]

Amount of molecules per component :
-------------------------------------------------------------------------------
Component 0 (CO2)
    molecules:      2.230000e+02 molecules  (2.197980e+02 +/- 4.320738e+00)
    number density: 1.377747e-02 molec./A^3 (1.371711e-02 +/- 1.334384e-04)
    density:        1.006606e+03 kg/m^3     (1.002195e+03 +/- 9.749235e+00)

Average pressure tensor: 
-------------------------------------------------------------------------------
 4.0629e+01 -8.5092e+00  6.6580e-01 +/- 4.3398e+01 2.3066e+01 6.4424e+01 [bar]
-8.5092e+00  3.0546e+01 -5.6419e-01 +/- 2.3066e+01 2.5741e+01 3.0657e+01 [bar]
 6.6580e-01 -5.6419e-01  2.0377e+01 +/- 6.4424e+01 3.0657e+01 5.4046e+01 [bar]
Ideal-gas pressure:   4.924017e+02 +/ 4.790025e+00 [bar]
Excess pressure:     -4.618847e+02 +/ 2.043069e+01 [bar]
Pressure:             3.051707e+01 +/ 1.771246e+01 [bar]

Total potential energy/kʙ  -3.164682e+05 (-3.134115e+05 +/- 4.159945e+03) [K]
-------------------------------------------------------------------------------
ExternalField-molecule
    Van der Waals/kʙ        0.000000e+00 ( 0.000000e+00 +/- 0.000000e+00) [K]
Framework-molecule
    Van der Waals/kʙ        0.000000e+00 ( 0.000000e+00 +/- 0.000000e+00) [K]
    Van der Waals (Tail)/kʙ 0.000000e+00 ( 0.000000e+00 +/- 0.000000e+00) [K]
    Coulombic Real/kʙ       0.000000e+00 ( 0.000000e+00 +/- 0.000000e+00) [K]
    Coulombic Fourier/kʙ    0.000000e+00 ( 0.000000e+00 +/- 0.000000e+00) [K]
Molecule-molecule
    Van der Waals/kʙ       -2.274621e+05 (-2.275265e+05 +/- 2.245888e+03) [K]
    Van der Waals (Tail)/kʙ-7.407159e+03 (-7.262193e+03 +/- 8.412484e+01) [K]
    Coulombic Real/kʙ      -7.095424e+04 (-6.805749e+04 +/- 1.819063e+03) [K]
    Coulombic Fourier/kʙ   -1.064469e+04 (-1.056526e+04 +/- 1.915861e+02) [K]
    Molecule Intra/kʙ       0.000000e+00 ( 0.000000e+00 +/- 0.000000e+00) [K]

Current cycle: 5900 out of 6000
===============================================================================

Box:      25.08038   0.00000   0.00000  Average:  25.21338   0.00000   0.00000
           0.00000  25.08038   0.00000             0.00000  25.21338   0.00000
           0.00000   0.00000  25.08038             0.00000   0.00000  25.21338
Lengths:  25.08038  25.08038  25.08038  Average:  25.21338  25.21338  25.21338
Angles:   90.00000  90.00000  90.00000  Average:  90.00000  90.00000  90.00000
Rectangular boundary conditions

net charge:   0.00000000

component 0 (CO2) lambda:  0 occupancy:  0 (0.000000)
    net charge:   0.00000000 [e]

Amount of molecules per component :
-------------------------------------------------------------------------------
Component 0 (CO2)
    molecules:      2.150000e+02 molecules  (2.197299e+02 +/- 4.059705e+00)
    number density: 1.362812e-02 molec./A^3 (1.371372e-02 +/- 1.359610e-04)
    density:        9.956937e+02 kg/m^3     (1.001948e+03 +/- 9.933544e+00)

Average pressure tensor: 
-------------------------------------------------------------------------------
 4.0435e+01 -7.3286e+00 -3.2604e-01 +/- 4.3282e+01 2.0107e+01 6.4852e+01 [bar]
-7.3286e+00  3.4012e+01 -1.2532e+00 +/- 2.0107e+01 3.3641e+01 3.1056e+01 [bar]
-3.2604e-01 -1.2532e+00  1.7377e+01 +/- 6.4852e+01 3.1056e+01 5.7353e+01 [bar]
Ideal-gas pressure:   4.922803e+02 +/ 4.880580e+00 [bar]
Excess pressure:     -4.616721e+02 +/ 2.037948e+01 [bar]
Pressure:             3.060820e+01 +/ 1.760241e+01 [bar]

Total potential energy/kʙ  -2.925174e+05 (-3.130717e+05 +/- 3.308441e+03) [K]
-------------------------------------------------------------------------------
ExternalField-molecule
    Van der Waals/kʙ        0.000000e+00 ( 0.000000e+00 +/- 0.000000e+00) [K]
Framework-molecule
    Van der Waals/kʙ        0.000000e+00 ( 0.000000e+00 +/- 0.000000e+00) [K]
    Van der Waals (Tail)/kʙ 0.000000e+00 ( 0.000000e+00 +/- 0.000000e+00) [K]
    Coulombic Real/kʙ       0.000000e+00 ( 0.000000e+00 +/- 0.000000e+00) [K]
    Coulombic Fourier/kʙ    0.000000e+00 ( 0.000000e+00 +/- 0.000000e+00) [K]
Molecule-molecule
    Van der Waals/kʙ       -2.115920e+05 (-2.273339e+05 +/- 1.709870e+03) [K]
    Van der Waals (Tail)/kʙ-7.064016e+03 (-7.256967e+03 +/- 6.758511e+01) [K]
    Coulombic Real/kʙ      -6.319632e+04 (-6.792884e+04 +/- 1.566819e+03) [K]
    Coulombic Fourier/kʙ   -1.066502e+04 (-1.055199e+04 +/- 1.691071e+02) [K]
    Molecule Intra/kʙ       0.000000e+00 ( 0.000000e+00 +/- 0.000000e+00) [K]


Energy statistics             |  Energy [K]   | Recomputed [K]|  Drift [K]    |
===============================================================================
Total potential energy/kʙ     | -3.113077e+05 | -3.115114e+05 |  2.037632e+02 |
    external field VDW/kʙ     |  0.000000e+00 |  0.000000e+00 |  0.000000e+00 |
    external field Real/kʙ    |  0.000000e+00 |  0.000000e+00 |  0.000000e+00 |
    framework-molecule VDW/kʙ |  0.000000e+00 |  0.000000e+00 |  0.000000e+00 |
    framework-molecule Real/kʙ|  0.000000e+00 |  0.000000e+00 |  0.000000e+00 |
    molecule-molecule VDW/kʙ  | -2.267608e+05 | -2.269649e+05 |  2.040899e+02 |
    molecule-molecule Real/kʙ | -6.756154e+04 | -6.756121e+04 | -3.266539e-01 |
    Van der Waals (Tail)/kʙ   | -7.319935e+03 | -7.319935e+03 |  0.000000e+00 |
    Ewald Fourier/kʙ          |  1.039375e+04 |  1.039375e+04 | -1.531420e-11 |
    Ewald self/kʙ             | -4.446232e+06 | -4.446232e+06 |  0.000000e+00 |
    Ewald exclusion/kʙ        |  4.426173e+06 |  4.426173e+06 |  0.000000e+00 |
    intra VDW/kʙ              |  0.000000e+00 |  0.000000e+00 |  0.000000e+00 |
    intra Coulombic/kʙ        |  0.000000e+00 |  0.000000e+00 |  0.000000e+00 |
    polarization/kʙ           |  0.000000e+00 |  0.000000e+00 |  0.000000e+00 |
    dU/dlambda VDW/kʙ         |  0.000000e+00 |  0.000000e+00 |  0.000000e+00 |
    dU/dlambda Real/kʙ        |  0.000000e+00 |  0.000000e+00 |  0.000000e+00 |
    dU/dlambda Ewald/kʙ       |  0.000000e+00 |  0.000000e+00 |  0.000000e+00 |
-------------------------------------------------------------------------------


Monte-Carlo moves statistics
===============================================================================

    Gibbs volume         all:                3024
    Gibbs volume         total:              6031
    Gibbs volume         constructed:        6031
    Gibbs volume         accepted:           4371
    Gibbs volume         fraction:       0.724755
    Gibbs volume         max-change:     0.037365

Component 0 [CO2]
    Reinsertion (CBMC)   all:              149056
    Reinsertion (CBMC)   total:            149056
    Reinsertion (CBMC)   constructed:      139436
    Reinsertion (CBMC)   accepted:           4705
    Reinsertion (CBMC)   fraction:       0.031565
    Reinsertion (CBMC)   max-change:     0.000000

    Gibbs swap (CBMC)    all:              298940
    Gibbs swap (CBMC)    total:            597745
    Gibbs swap (CBMC)    constructed:      578007
    Gibbs swap (CBMC)    accepted:          56114
    Gibbs swap (CBMC)    fraction:       0.093876
    Gibbs swap (CBMC)    max-change:     0.000000

    Translation          all:              149533
    Translation          total:             49507      49964      50062
    Translation          constructed:       49499      49964      50060
    Translation          accepted:          20712      23569      21828
    Translation          fraction:       0.418365   0.471720   0.436019
    Translation          max-change:     0.787796   0.747334   0.788059

    Rotation             all:              148754
    Rotation             total:             49742      49445      49567
    Rotation             constructed:       49738      49443      49567
    Rotation             accepted:          22306      22540      26384
    Rotation             fraction:       0.448434   0.455860   0.532290
    Rotation             max-change:     0.816915   0.801484   0.709827



Production run counting of the MC moves summed over systems and components
===============================================================================

Reinsertion (CBMC)                   298700 (19.9133 [%])
Gibbs volume                           6031 (0.4021 [%])
Gibbs swap (CBMC)                    597745 (39.8497 [%])
Translation                          299281 (19.9521 [%])
Rotation                             298243 (19.8829 [%])

Production count MC-steps:          1500000 [-]
               All summed:          1500000 [-]
               difference:                0 [-]


Production run CPU timings of the MC moves
===============================================================================

Component 0 CO2

Rotation                             13.376279 [s]
    Ewald                             4.749726 [s]
    ExternalField-Molecule            0.005239 [s]
    Framework-Molecule                0.005475 [s]
    Molecule-Molecule                 8.308344 [s]
    Overhead                          0.307495 [s]

Reinsertion (CBMC)                   65.604188 [s]
    Ewald                             4.517747 [s]
    NonEwald                         60.989727 [s]
    Overhead                          0.096714 [s]

Translation                          13.476947 [s]
    Ewald                             4.774715 [s]
    ExternalField-Molecule            0.005185 [s]
    Framework-Molecule                0.008045 [s]
    Molecule-Molecule                 8.396112 [s]
    Overhead                          0.292890 [s]



Gibbs swap (CBMC)                    92.356099 [s]
    Ewald                            12.295520 [s]
    NonEwald                         78.886741 [s]
    Tail                              0.764562 [s]

Gibbs volume                         14.771571 [s]
    Ewald                             4.193768 [s]
    NonEwald                         10.045645 [s]
    Tail                              0.435538 [s]

Property sampling                     0.245420 [s]
Energy/pressure sampling:             6.412842 [s]


Production run CPU timings of the MC moves summed over systems and components
===============================================================================


Translation                          17.975244 [s]
    Ewald                             8.131103 [s]
    ExternalField-Molecule            0.010270 [s]
    Framework-Molecule                0.016059 [s]
    Molecule-Molecule                 9.187008 [s]
    Overhead                          0.630804 [s]

Rotation                             17.868703 [s]
    Ewald                             8.106042 [s]
    ExternalField-Molecule            0.010352 [s]
    Framework-Molecule                0.010889 [s]
    Molecule-Molecule                 9.092997 [s]
    Overhead                          0.648423 [s]

Reinsertion (CBMC)                   77.890593 [s]
    Ewald                             7.900638 [s]
    NonEwald                         69.628532 [s]
    Overhead                          0.361423 [s]

Gibbs volume                         29.464258 [s]
    Ewald                             8.374406 [s]
    NonEwald                         20.027658 [s]
    Tail                              0.870361 [s]
    Overhead                          0.191833 [s]

Gibbs swap (CBMC)                   211.480782 [s]
    Ewald                            25.464998 [s]
    NonEwald                        183.398281 [s]
    Tail                              1.762115 [s]
    Overhead                          0.855388 [s]

Property sampling:                    0.476231 [s]
Energy/pressure sampling:             6.807019 [s]

Production simulation time:         362.716697 [s]
                All summed:         361.962830 [s]
                  Overhead:           0.753867 [s]


Initalization simulation time:      116.413386 [s]
Equilibration simulation time:        0.000000 [s]
Production simulation time:         362.716697 [s]
Total simulation time:              479.130083 [s]


Energy averages and statistics:
===============================================================================

Framework-molecule energy:
-------------------------------------------------------------------------------



Framework-molecule energy contributions per energy type:
-------------------------------------------------------------------------------



Inter-molecular energy:
-------------------------------------------------------------------------------

    Inter-molecular energy/kʙ 0-0 [CO2-CO2]:
    ---------------------------------------------------------------------------
        Block[  0] -3.110200e+05
        Block[  1] -3.125235e+05
        Block[  2] -3.158910e+05
        Block[  3] -3.102437e+05
        Block[  4] -3.140453e+05
        -----------------------------------------------------------------------
        Average  -3.127447e+05 +/-  2.835678e+03 [K]



Inter-molecular energy contributions per energy type:
-------------------------------------------------------------------------------

    Van der Waals energy/kʙ 0-0 [CO2-CO2]:
    ---------------------------------------------------------------------------
        Block[  0] -2.269517e+05
        Block[  1] -2.264978e+05
        Block[  2] -2.285740e+05
        Block[  3] -2.257730e+05
        Block[  4] -2.278910e+05
        -----------------------------------------------------------------------
        Average  -2.271375e+05 +/-  1.379253e+03 [K]

    VDW Tail-Correction energy/kʙ 0-0 [CO2-CO2]:
    ---------------------------------------------------------------------------
        Block[  0] -7.215562e+03
        Block[  1] -7.249776e+03
        Block[  2] -7.295516e+03
        Block[  3] -7.199601e+03
        Block[  4] -7.293878e+03
        -----------------------------------------------------------------------
        Average  -7.250866e+03 +/-  5.453727e+01 [K]

    Coulomb Real energy/kʙ 0-0 [CO2-CO2]:
    ---------------------------------------------------------------------------
        Block[  0] -6.649653e+04
        Block[  1] -6.814310e+04
        Block[  2] -6.935168e+04
        Block[  3] -6.680517e+04
        Block[  4] -6.827326e+04
        -----------------------------------------------------------------------
        Average  -6.781395e+04 +/-  1.447405e+03 [K]

    Coulomb Fourier energy/kʙ 0-0 [CO2-CO2]:
    ---------------------------------------------------------------------------
        Block[  0] -1.035622e+04
        Block[  1] -1.063288e+04
        Block[  2] -1.066974e+04
        Block[  3] -1.046596e+04
        Block[  4] -1.058717e+04
        -----------------------------------------------------------------------
        Average  -1.054239e+04 +/-  1.605694e+02 [K]


Total energy/kʙ
-------------------------------------------------------------------------------
    Block[  0] -3.110200e+05
    Block[  1] -3.125235e+05
    Block[  2] -3.158910e+05
    Block[  3] -3.102437e+05
    Block[  4] -3.140453e+05
    ---------------------------------------------------------------------------
    Average  -3.127447e+05 +/-  2.835678e+03 [K]

Pressure averages and statistics:
===============================================================================

Average pressure tensor: 
-------------------------------------------------------------------------------
 4.0588e+01 -7.7174e+00  1.0346e+00 +/- 4.2941e+01 2.0290e+01 6.3884e+01 [bar]
-7.7174e+00  3.2620e+01 -7.1697e-01 +/- 2.0290e+01 2.8040e+01 3.0499e+01 [bar]
 1.0346e+00 -7.1697e-01  1.5593e+01 +/- 6.3884e+01 3.0499e+01 5.8923e+01 [bar]

    Block[  0]  4.954596e+07
    Block[  1]  4.901003e+07
    Block[  2]  4.891148e+07
    Block[  3]  4.974211e+07
    Block[  4]  4.882440e+07
    ---------------------------------------------------------------------------
    Ideal gas pressure   4.920680e+07 +/-  3.068356e-02 [Pa]
                         4.920680e+02 +/-  5.095128e+00 [bar]


    Block[  0] -4.867418e+07
    Block[  1] -4.510651e+07
    Block[  2] -4.435272e+07
    Block[  3] -4.640391e+07
    Block[  4] -4.669661e+07
    ---------------------------------------------------------------------------
    Excess pressure  -4.624679e+07 +/-  2.059394e+06 [Pa]
                     -4.624679e+02 +/-  2.059394e+01 [bar]


    Block[  0]  8.717734e+05
    Block[  1]  3.903526e+06
    Block[  2]  4.558764e+06
    Block[  3]  3.338202e+06
    Block[  4]  2.127789e+06
    ---------------------------------------------------------------------------
    Pressure average   2.960011e+06 +/-  1.824847e+06 [Pa]
                       2.960011e+01 +/-  1.824847e+01 [bar]


Enthalpy of adsorption
===============================================================================

Component 0 [CO2]
-------------------------------------------------------------------------------
    Block[  0] -1.408676e+03
    Block[  1] -2.119575e+03
    Block[  2] -1.248800e+03
    Block[  3] -1.601115e+03
    Block[  4] -2.181208e+03
    ---------------------------------------------------------------------------
    Enthalpy of adsorption: -1.711875e+03 +/-  5.212409e+02 [K]
                            -1.423332e+01 +/-  4.333839e+00 [kJ/mol]
    Warning: need to subtract the ideal-gas energy.


Densities
===============================================================================

Component 0 (CO2)
    Block[  0] 216.68
    Block[  1] 220.36083333333335
    Block[  2] 222.52166666666668
    Block[  3] 216.13333333333335
    Block[  4] 222.3216666666667
    -----------------------------------------------------------------------
    Density average   2.196035e+02 +/-  3.779164e+00 [molecules]
    Density average   1.370781e-02 +/-  1.419378e-04 [molec/A^3]
    Density average   1.001516e+03 +/-  1.037022e+01 [kg.m⁻³]

