Compiler and run-time data
===============================================================================
RASPA 3.0.4

Random seed: 1793983038

Compiled as a 64-bits application
Compiler: gcc Ubuntu Clang 18.1.3 (1ubuntu1)
Compile Date = Mar 15 2025, Compile Time = 19:39:45

2025-06-02 12:44:41.162763
Simulation started on Mon, Jun 02
The start time was 12:44:00

Hostname:    c060
OS type:     Linux on x86_64
OS release:  6.8.0-58-generic
OS version:  #60-Ubuntu SMP PREEMPT_DYNAMIC Fri Mar 14 18:29:48 UTC 2025


Mutual consistent basic set of units:
===============================================================================

Unit of temperature: 1 [K]
Unit of length:      1e-10 [m]
Unit of time:        1e-12 [s]
Unit of mass:        1.6605402e-27 [kg]
Unit of charge:      1.60217733e-19 [C/particle]


Boltzmann constant (internal units):          0.8314464919307584 [-]
represents conversion from energy (internal units) to temperature (in Kelvin)

Derived units and their conversion factors:
===============================================================================

Unit of energy:                           1.6605402000000002e-23 [J]
Unit of energy:                           10.000008872307538 [J.mol⁻¹]
Unit of velocity:                         100 [m.s⁻¹]
Unit of force:                            1.6605402000000002e-13 [N]
Unit of diffusion:                        1.0000000000000002e-08 [m².s⁻¹]
Unit of acceleration:                     1.0000000000000002e-08 [m².s⁻¹]
Unit of torque:                           1.6605402000000002e-23 [N.m]
Unit of pressure:                         16605402 [Pa]
Unit of volume:                           1e-30 [m³]
Unit of density:                          1660.5402 [kg.m⁻³]
Unit of dynamic viscosity:                1.6605401999999997e-05 [N.s.m⁻²]
Unit of enthalpy:                         1.6605402000000002e-23 [J]
Unit of polarizability:                   1.5458657349975198e-35 [-]
Unit of Coulomb potential:                167101.08000665612 [K]
Unit of dielectric constant:              1.5458657349975193e-05 [s².C².kg⁻¹.m⁻³]
Unit of dipole moment:                    1.60217733e-29 [C.m]
Unit of Debye:                            4.803206799099162 [C.m]
Unit of electric potential:               0.00010364272224473431 [V]
Unit of electric field:                   1036427.222447343 [V.m⁻¹]
Unit of isothermal compressibility:       6.02213665167516e-08 [Pa⁻¹]
Unit of heat capacity:                    10.000008872307538 [J.mol⁻¹.K⁻¹]
Unit of volumetric expansion coefficient: 1 [K⁻¹]


Internal conversion factors:
===============================================================================

Energy (internal units) to Kelvin:      1.202724284692786 [-]
Kelvin to energy (internal units):      0.8314457542157567 [-]


System definitions
===============================================================================

Temperature:          250 [K]
Beta:                 0.0048108928702210625 [-]
Pressure:             8e+06 [Pa]
Helium void fraction: 1 [-]

Box:      30.00000   0.00000   0.00000
           0.00000  30.00000   0.00000
           0.00000   0.00000  30.00000
Lengths:  30.00000  30.00000  30.00000
Angles:   90.00000  90.00000  90.00000
Rectangular boundary conditions



Property measurement settings
===============================================================================




Pseudo-atoms
===============================================================================

  0 - C_co2    framework-atom: false
  1 - O_co2    framework-atom: false

  0 - C_co2    mass: 12.00000, charge:  0.70000
  1 - O_co2    mass: 15.99940, charge: -0.35000

  0 - C_co2    polarizability:  0.00000
  1 - O_co2    polarizability:  0.00000

  0 - J. J. Potoff et al., AIChE J. 2001, 47, 1676–1682.
  1 - J. J. Potoff et al., AIChE J. 2001, 47, 1676–1682.

Force field status
===============================================================================

Cutoff Framework-Molecule VDW:  12.00000 [Å]
Cutoff Molecule-Molecule VDW:   12.00000 [Å]
Cutoff Coulomb:                 12.00000 [Å]

Overlap-criteria VDW:           1.000000e+05 [K]

C_co2    - C_co2    Lennard-Jones p₀/kʙ:  27.00000 [K], p₁:  2.80000 [Å]
                                  shift:   0.00000 [K], tailcorrections: true
C_co2    - O_co2    Lennard-Jones p₀/kʙ:  46.18441 [K], p₁:  2.92500 [Å]
                                  shift:   0.00000 [K], tailcorrections: true
O_co2    - O_co2    Lennard-Jones p₀/kʙ:  79.00000 [K], p₁:  3.05000 [Å]
                                  shift:   0.00000 [K], tailcorrections: true

Ewald precision: 1e-06
Ewald alpha: 0.26505830360350674
Ewald k-vectors: 8 8 8


Component definitions
===============================================================================

Component 0 [CO2]

    Type: Adsorbate

    Critical temperature:  304.1282 [K]
    Critical pressure:     7377300 [Pa]
    Acentric factor:       0.22394 [-]

    Mol-fraction:                 1 [-]
    Swappable:                   false

    Mass:                         43.9988 [-]
    Bulk fluid density:           0 [-]
    Compressibility:              0 [-]
    Excess molecules:             0 [-]

    Number Of Atoms:    3
    CBMC starting bead: 0
      0: O_co2  position  0.00000 -0.00000  1.16000, charge -0.35000
      1: C_co2  position  0.00000 -0.00000  0.00000, charge  0.70000
      2: O_co2  position  0.00000 -0.00000 -1.16000, charge -0.35000
    Diagonalized inertia-vector:      43.05758528 43.05758528 0.00000000
    Translational degrees of freedom: 3
    Rotational degrees of freedom:    2
    Shape of the molecule is: 'Linear'
    Net-charge:        0.00000000 [e]

    Move probabilities:
    Translation:                   0.331126 [-]
    Random translation:            0.000000 [-]
    Rotation:                      0.331126 [-]
    Random rotation:               0.000000 [-]
    Volume change:                 0.006623 [-]
    Reinsertion (CBMC):            0.331126 [-]
    Identity change (CBMC):        0.000000 [-]
    Swap:                          0.000000 [-]
    Swap (CBMC):                   0.000000 [-]
    Swap (CFCMC):                  0.000000 [-]
    Swap (CB/CFCMC):               0.000000 [-]
    Gibbs volume:                  0.000000 [-]
    Gibbs swap (CBMC):             0.000000 [-]
    Gibbs swap (CFCMC):            0.000000 [-]
    Widom:                         0.000000 [-]
    Widom (CFCMC):                 0.000000 [-]
    Widom (CB/CFCMC):              0.000000 [-]
    Parallel tempering:            0.000000 [-]
    Hybrid MC:                     0.000000 [-]

    number of blocking-pockets: 0

    number of bonds: 0





Number of pseudo-atoms
===============================================================================

Component   0 (CO2)
-------------------------------------------------------------------------------
    index   0 (C_co2): 200 atoms
    index   1 (O_co2): 400 atoms

Total number of pseudo-atoms:
-------------------------------------------------------------------------------
    index   0 (C_co2): 200 atoms
    index   1 (O_co2): 400 atoms




Energy status Recomputed from scratch
===============================================================================

Total potential energy/kʙ       -6.015558e+04 [K]
    external field VDW/kʙ        0.000000e+00 [K]
    external field Real/kʙ       0.000000e+00 [K]
    framework-molecule VDW/kʙ    0.000000e+00 [K]
    framework-molecule Real/kʙ   0.000000e+00 [K]
    molecule-molecule VDW/kʙ    -3.563205e+04 [K]
    molecule-molecule Real/kʙ   -2.089570e+04 [K]
    Van der Waals (Tail)/kʙ     -2.751265e+03 [K]
    Ewald Fourier/kʙ             1.088457e+04 [K]
    Ewald self/kʙ               -3.673356e+06 [K]
    Ewald exclusion/kʙ           3.661595e+06 [K]
    intra VDW/kʙ                 0.000000e+00 [K]
    intra Coulombic/kʙ           0.000000e+00 [K]
    polarization/kʙ              0.000000e+00 [K]
    dU/dlambda VDW/kʙ            0.000000e+00 [K]
    dU/dlambda Real/kʙ           0.000000e+00 [K]
    dU/dlambda Ewald/kʙ          0.000000e+00 [K]





Initialization: Current cycle: 0 out of 1000
===============================================================================

Box:      30.00000   0.00000   0.00000
           0.00000  30.00000   0.00000
           0.00000   0.00000  30.00000
Lengths:  30.00000  30.00000  30.00000
Angles:   90.00000  90.00000  90.00000
Rectangular boundary conditions

net charge:   0.00000000

component   0 (CO2) lambda:  0 occupancy:  1 (1.000000)
    net charge:   0.00000000 [e]

Amount of molecules per component :
-------------------------------------------------------------------------------
Component 0 (CO2)
    molecules:         2.000000e+02 molecules
    number density:    7.407407e-03 molec/A^3
    density:           5.411979e+02 kg/m^3

Total potential energy/kʙ       -1.409742e+05 [K]
-------------------------------------------------------------------------------
    external field VDW/kʙ        0.000000e+00 [K]
    external field Real/kʙ       0.000000e+00 [K]
    framework-molecule VDW/kʙ    0.000000e+00 [K]
    framework-molecule Real/kʙ   0.000000e+00 [K]
    molecule-molecule VDW/kʙ    -1.137028e+05 [K]
    molecule-molecule Real/kʙ   -2.259643e+04 [K]
    Van der Waals (Tail)/kʙ     -2.751265e+03 [K]
    Ewald Fourier/kʙ             9.837451e+03 [K]
    Ewald self/kʙ               -3.673356e+06 [K]
    Ewald exclusion/kʙ           3.661595e+06 [K]
    intra VDW/kʙ                 0.000000e+00 [K]
    intra Coulombic/kʙ           0.000000e+00 [K]
    polarization/kʙ              0.000000e+00 [K]
    dU/dlambda VDW/kʙ            0.000000e+00 [K]
    dU/dlambda Real/kʙ           0.000000e+00 [K]
    dU/dlambda Ewald/kʙ          0.000000e+00 [K]


Initialization: Current cycle: 100 out of 1000
===============================================================================

Box:      27.87837   0.00000   0.00000
           0.00000  27.87837   0.00000
           0.00000   0.00000  27.87837
Lengths:  27.87837  27.87837  27.87837
Angles:   90.00000  90.00000  90.00000
Rectangular boundary conditions

net charge:   0.00000000

component   0 (CO2) lambda:  0 occupancy:  1 (1.000000)
    net charge:   0.00000000 [e]

Amount of molecules per component :
-------------------------------------------------------------------------------
Component 0 (CO2)
    molecules:         2.000000e+02 molecules
    number density:    9.230552e-03 molec/A^3
    density:           6.743999e+02 kg/m^3

Total potential energy/kʙ       -2.187985e+05 [K]
-------------------------------------------------------------------------------
    external field VDW/kʙ        0.000000e+00 [K]
    external field Real/kʙ       0.000000e+00 [K]
    framework-molecule VDW/kʙ    0.000000e+00 [K]
    framework-molecule Real/kʙ   0.000000e+00 [K]
    molecule-molecule VDW/kʙ    -1.577716e+05 [K]
    molecule-molecule Real/kʙ   -5.248238e+04 [K]
    Van der Waals (Tail)/kʙ     -3.428419e+03 [K]
    Ewald Fourier/kʙ             6.645072e+03 [K]
    Ewald self/kʙ               -3.673356e+06 [K]
    Ewald exclusion/kʙ           3.661595e+06 [K]
    intra VDW/kʙ                 0.000000e+00 [K]
    intra Coulombic/kʙ           0.000000e+00 [K]
    polarization/kʙ              0.000000e+00 [K]
    dU/dlambda VDW/kʙ            0.000000e+00 [K]
    dU/dlambda Real/kʙ           0.000000e+00 [K]
    dU/dlambda Ewald/kʙ          0.000000e+00 [K]


Initialization: Current cycle: 200 out of 1000
===============================================================================

Box:      26.92924   0.00000   0.00000
           0.00000  26.92924   0.00000
           0.00000   0.00000  26.92924
Lengths:  26.92924  26.92924  26.92924
Angles:   90.00000  90.00000  90.00000
Rectangular boundary conditions

net charge:   0.00000000

component   0 (CO2) lambda:  0 occupancy:  1 (1.000000)
    net charge:   0.00000000 [e]

Amount of molecules per component :
-------------------------------------------------------------------------------
Component 0 (CO2)
    molecules:         2.000000e+02 molecules
    number density:    1.024136e-02 molec/A^3
    density:           7.482514e+02 kg/m^3

Total potential energy/kʙ       -2.237251e+05 [K]
-------------------------------------------------------------------------------
    external field VDW/kʙ        0.000000e+00 [K]
    external field Real/kʙ       0.000000e+00 [K]
    framework-molecule VDW/kʙ    0.000000e+00 [K]
    framework-molecule Real/kʙ   0.000000e+00 [K]
    molecule-molecule VDW/kʙ    -1.620748e+05 [K]
    molecule-molecule Real/kʙ   -5.215366e+04 [K]
    Van der Waals (Tail)/kʙ     -3.803855e+03 [K]
    Ewald Fourier/kʙ             6.068306e+03 [K]
    Ewald self/kʙ               -3.673356e+06 [K]
    Ewald exclusion/kʙ           3.661595e+06 [K]
    intra VDW/kʙ                 0.000000e+00 [K]
    intra Coulombic/kʙ           0.000000e+00 [K]
    polarization/kʙ              0.000000e+00 [K]
    dU/dlambda VDW/kʙ            0.000000e+00 [K]
    dU/dlambda Real/kʙ           0.000000e+00 [K]
    dU/dlambda Ewald/kʙ          0.000000e+00 [K]


Initialization: Current cycle: 300 out of 1000
===============================================================================

Box:      25.27215   0.00000   0.00000
           0.00000  25.27215   0.00000
           0.00000   0.00000  25.27215
Lengths:  25.27215  25.27215  25.27215
Angles:   90.00000  90.00000  90.00000
Rectangular boundary conditions

net charge:   0.00000000

component   0 (CO2) lambda:  0 occupancy:  1 (1.000000)
    net charge:   0.00000000 [e]

Amount of molecules per component :
-------------------------------------------------------------------------------
Component 0 (CO2)
    molecules:         2.000000e+02 molecules
    number density:    1.239092e-02 molec/A^3
    density:           9.053017e+02 kg/m^3

Total potential energy/kʙ       -2.599993e+05 [K]
-------------------------------------------------------------------------------
    external field VDW/kʙ        0.000000e+00 [K]
    external field Real/kʙ       0.000000e+00 [K]
    framework-molecule VDW/kʙ    0.000000e+00 [K]
    framework-molecule Real/kʙ   0.000000e+00 [K]
    molecule-molecule VDW/kʙ    -1.862041e+05 [K]
    molecule-molecule Real/kʙ   -6.272616e+04 [K]
    Van der Waals (Tail)/kʙ     -4.602245e+03 [K]
    Ewald Fourier/kʙ             5.294327e+03 [K]
    Ewald self/kʙ               -3.673356e+06 [K]
    Ewald exclusion/kʙ           3.661595e+06 [K]
    intra VDW/kʙ                 0.000000e+00 [K]
    intra Coulombic/kʙ           0.000000e+00 [K]
    polarization/kʙ              0.000000e+00 [K]
    dU/dlambda VDW/kʙ            0.000000e+00 [K]
    dU/dlambda Real/kʙ           0.000000e+00 [K]
    dU/dlambda Ewald/kʙ          0.000000e+00 [K]


Initialization: Current cycle: 400 out of 1000
===============================================================================

Box:      24.55585   0.00000   0.00000
           0.00000  24.55585   0.00000
           0.00000   0.00000  24.55585
Lengths:  24.55585  24.55585  24.55585
Angles:   90.00000  90.00000  90.00000
Rectangular boundary conditions

net charge:   0.00000000

component   0 (CO2) lambda:  0 occupancy:  1 (1.000000)
    net charge:   0.00000000 [e]

Amount of molecules per component :
-------------------------------------------------------------------------------
Component 0 (CO2)
    molecules:         2.000000e+02 molecules
    number density:    1.350719e-02 molec/A^3
    density:           9.868581e+02 kg/m^3

Total potential energy/kʙ       -2.878789e+05 [K]
-------------------------------------------------------------------------------
    external field VDW/kʙ        0.000000e+00 [K]
    external field Real/kʙ       0.000000e+00 [K]
    framework-molecule VDW/kʙ    0.000000e+00 [K]
    framework-molecule Real/kʙ   0.000000e+00 [K]
    molecule-molecule VDW/kʙ    -2.154727e+05 [K]
    molecule-molecule Real/kʙ   -6.123285e+04 [K]
    Van der Waals (Tail)/kʙ     -5.016850e+03 [K]
    Ewald Fourier/kʙ             5.604576e+03 [K]
    Ewald self/kʙ               -3.673356e+06 [K]
    Ewald exclusion/kʙ           3.661595e+06 [K]
    intra VDW/kʙ                 0.000000e+00 [K]
    intra Coulombic/kʙ           0.000000e+00 [K]
    polarization/kʙ              0.000000e+00 [K]
    dU/dlambda VDW/kʙ            0.000000e+00 [K]
    dU/dlambda Real/kʙ           0.000000e+00 [K]
    dU/dlambda Ewald/kʙ          0.000000e+00 [K]


Initialization: Current cycle: 500 out of 1000
===============================================================================

Box:      24.31113   0.00000   0.00000
           0.00000  24.31113   0.00000
           0.00000   0.00000  24.31113
Lengths:  24.31113  24.31113  24.31113
Angles:   90.00000  90.00000  90.00000
Rectangular boundary conditions

net charge:   0.00000000

component   0 (CO2) lambda:  0 occupancy:  1 (1.000000)
    net charge:   0.00000000 [e]

Amount of molecules per component :
-------------------------------------------------------------------------------
Component 0 (CO2)
    molecules:         2.000000e+02 molecules
    number density:    1.391921e-02 molec/A^3
    density:           1.016961e+03 kg/m^3

Total potential energy/kʙ       -2.874117e+05 [K]
-------------------------------------------------------------------------------
    external field VDW/kʙ        0.000000e+00 [K]
    external field Real/kʙ       0.000000e+00 [K]
    framework-molecule VDW/kʙ    0.000000e+00 [K]
    framework-molecule Real/kʙ   0.000000e+00 [K]
    molecule-molecule VDW/kʙ    -2.119222e+05 [K]
    molecule-molecule Real/kʙ   -6.438036e+04 [K]
    Van der Waals (Tail)/kʙ     -5.169883e+03 [K]
    Ewald Fourier/kʙ             5.821857e+03 [K]
    Ewald self/kʙ               -3.673356e+06 [K]
    Ewald exclusion/kʙ           3.661595e+06 [K]
    intra VDW/kʙ                 0.000000e+00 [K]
    intra Coulombic/kʙ           0.000000e+00 [K]
    polarization/kʙ              0.000000e+00 [K]
    dU/dlambda VDW/kʙ            0.000000e+00 [K]
    dU/dlambda Real/kʙ           0.000000e+00 [K]
    dU/dlambda Ewald/kʙ          0.000000e+00 [K]


Initialization: Current cycle: 600 out of 1000
===============================================================================

Box:      24.18072   0.00000   0.00000
           0.00000  24.18072   0.00000
           0.00000   0.00000  24.18072
Lengths:  24.18072  24.18072  24.18072
Angles:   90.00000  90.00000  90.00000
Rectangular boundary conditions

net charge:   0.00000000

component   0 (CO2) lambda:  0 occupancy:  1 (1.000000)
    net charge:   0.00000000 [e]

Amount of molecules per component :
-------------------------------------------------------------------------------
Component 0 (CO2)
    molecules:         2.000000e+02 molecules
    number density:    1.414563e-02 molec/A^3
    density:           1.033504e+03 kg/m^3

Total potential energy/kʙ       -2.951839e+05 [K]
-------------------------------------------------------------------------------
    external field VDW/kʙ        0.000000e+00 [K]
    external field Real/kʙ       0.000000e+00 [K]
    framework-molecule VDW/kʙ    0.000000e+00 [K]
    framework-molecule Real/kʙ   0.000000e+00 [K]
    molecule-molecule VDW/kʙ    -2.162565e+05 [K]
    molecule-molecule Real/kʙ   -6.711373e+04 [K]
    Van der Waals (Tail)/kʙ     -5.253980e+03 [K]
    Ewald Fourier/kʙ             5.201405e+03 [K]
    Ewald self/kʙ               -3.673356e+06 [K]
    Ewald exclusion/kʙ           3.661595e+06 [K]
    intra VDW/kʙ                 0.000000e+00 [K]
    intra Coulombic/kʙ           0.000000e+00 [K]
    polarization/kʙ              0.000000e+00 [K]
    dU/dlambda VDW/kʙ            0.000000e+00 [K]
    dU/dlambda Real/kʙ           0.000000e+00 [K]
    dU/dlambda Ewald/kʙ          0.000000e+00 [K]


Initialization: Current cycle: 700 out of 1000
===============================================================================

Box:      24.43585   0.00000   0.00000
           0.00000  24.43585   0.00000
           0.00000   0.00000  24.43585
Lengths:  24.43585  24.43585  24.43585
Angles:   90.00000  90.00000  90.00000
Rectangular boundary conditions

net charge:   0.00000000

component   0 (CO2) lambda:  0 occupancy:  1 (1.000000)
    net charge:   0.00000000 [e]

Amount of molecules per component :
-------------------------------------------------------------------------------
Component 0 (CO2)
    molecules:         2.000000e+02 molecules
    number density:    1.370717e-02 molec/A^3
    density:           1.001470e+03 kg/m^3

Total potential energy/kʙ       -2.833368e+05 [K]
-------------------------------------------------------------------------------
    external field VDW/kʙ        0.000000e+00 [K]
    external field Real/kʙ       0.000000e+00 [K]
    framework-molecule VDW/kʙ    0.000000e+00 [K]
    framework-molecule Real/kʙ   0.000000e+00 [K]
    molecule-molecule VDW/kʙ    -2.105115e+05 [K]
    molecule-molecule Real/kʙ   -6.198195e+04 [K]
    Van der Waals (Tail)/kʙ     -5.091129e+03 [K]
    Ewald Fourier/kʙ             6.008950e+03 [K]
    Ewald self/kʙ               -3.673356e+06 [K]
    Ewald exclusion/kʙ           3.661595e+06 [K]
    intra VDW/kʙ                 0.000000e+00 [K]
    intra Coulombic/kʙ           0.000000e+00 [K]
    polarization/kʙ              0.000000e+00 [K]
    dU/dlambda VDW/kʙ            0.000000e+00 [K]
    dU/dlambda Real/kʙ           0.000000e+00 [K]
    dU/dlambda Ewald/kʙ          0.000000e+00 [K]


Initialization: Current cycle: 800 out of 1000
===============================================================================

Box:      24.05639   0.00000   0.00000
           0.00000  24.05639   0.00000
           0.00000   0.00000  24.05639
Lengths:  24.05639  24.05639  24.05639
Angles:   90.00000  90.00000  90.00000
Rectangular boundary conditions

net charge:   0.00000000

component   0 (CO2) lambda:  0 occupancy:  1 (1.000000)
    net charge:   0.00000000 [e]

Amount of molecules per component :
-------------------------------------------------------------------------------
Component 0 (CO2)
    molecules:         2.000000e+02 molecules
    number density:    1.436610e-02 molec/A^3
    density:           1.049612e+03 kg/m^3

Total potential energy/kʙ       -3.038710e+05 [K]
-------------------------------------------------------------------------------
    external field VDW/kʙ        0.000000e+00 [K]
    external field Real/kʙ       0.000000e+00 [K]
    framework-molecule VDW/kʙ    0.000000e+00 [K]
    framework-molecule Real/kʙ   0.000000e+00 [K]
    molecule-molecule VDW/kʙ    -2.208048e+05 [K]
    molecule-molecule Real/kʙ   -7.080424e+04 [K]
    Van der Waals (Tail)/kʙ     -5.335867e+03 [K]
    Ewald Fourier/kʙ             4.835007e+03 [K]
    Ewald self/kʙ               -3.673356e+06 [K]
    Ewald exclusion/kʙ           3.661595e+06 [K]
    intra VDW/kʙ                 0.000000e+00 [K]
    intra Coulombic/kʙ           0.000000e+00 [K]
    polarization/kʙ              0.000000e+00 [K]
    dU/dlambda VDW/kʙ            0.000000e+00 [K]
    dU/dlambda Real/kʙ           0.000000e+00 [K]
    dU/dlambda Ewald/kʙ          0.000000e+00 [K]


Initialization: Current cycle: 900 out of 1000
===============================================================================

Box:      24.26313   0.00000   0.00000
           0.00000  24.26313   0.00000
           0.00000   0.00000  24.26313
Lengths:  24.26313  24.26313  24.26313
Angles:   90.00000  90.00000  90.00000
Rectangular boundary conditions

net charge:   0.00000000

component   0 (CO2) lambda:  0 occupancy:  1 (1.000000)
    net charge:   0.00000000 [e]

Amount of molecules per component :
-------------------------------------------------------------------------------
Component 0 (CO2)
    molecules:         2.000000e+02 molecules
    number density:    1.400198e-02 molec/A^3
    density:           1.023009e+03 kg/m^3

Total potential energy/kʙ       -2.919504e+05 [K]
-------------------------------------------------------------------------------
    external field VDW/kʙ        0.000000e+00 [K]
    external field Real/kʙ       0.000000e+00 [K]
    framework-molecule VDW/kʙ    0.000000e+00 [K]
    framework-molecule Real/kʙ   0.000000e+00 [K]
    molecule-molecule VDW/kʙ    -2.123633e+05 [K]
    molecule-molecule Real/kʙ   -6.735858e+04 [K]
    Van der Waals (Tail)/kʙ     -5.200626e+03 [K]
    Ewald Fourier/kʙ             4.733264e+03 [K]
    Ewald self/kʙ               -3.673356e+06 [K]
    Ewald exclusion/kʙ           3.661595e+06 [K]
    intra VDW/kʙ                 0.000000e+00 [K]
    intra Coulombic/kʙ           0.000000e+00 [K]
    polarization/kʙ              0.000000e+00 [K]
    dU/dlambda VDW/kʙ            0.000000e+00 [K]
    dU/dlambda Real/kʙ           0.000000e+00 [K]
    dU/dlambda Ewald/kʙ          0.000000e+00 [K]


Current cycle: 0 out of 5000
===============================================================================

Box:      23.98688   0.00000   0.00000  Average:  23.98688   0.00000   0.00000
           0.00000  23.98688   0.00000             0.00000  23.98688   0.00000
           0.00000   0.00000  23.98688             0.00000   0.00000  23.98688
Lengths:  23.98688  23.98688  23.98688  Average:  23.98688  23.98688  23.98688
Angles:   90.00000  90.00000  90.00000  Average:  90.00000  90.00000  90.00000
Rectangular boundary conditions

net charge:   0.00000000

component 0 (CO2) lambda:  0 occupancy:  1 (1.000000)
    net charge:   0.00000000 [e]

Amount of molecules per component :
-------------------------------------------------------------------------------
Component 0 (CO2)
    molecules:      2.000000e+02 molecules  (2.000000e+02 +/- 0.000000e+00)
    number density: 1.449135e-02 molec./A^3 (1.449135e-02 +/- 0.000000e+00)
    density:        1.058763e+03 kg/m^3     (1.058763e+03 +/- 0.000000e+00)

Average pressure tensor: 
-------------------------------------------------------------------------------
 5.0019e+02  0.0000e+00  0.0000e+00 +/- 0.0000e+00 0.0000e+00 0.0000e+00 [bar]
 0.0000e+00  5.0019e+02  0.0000e+00 +/- 0.0000e+00 0.0000e+00 0.0000e+00 [bar]
 0.0000e+00  0.0000e+00  5.0019e+02 +/- 0.0000e+00 0.0000e+00 0.0000e+00 [bar]
Ideal-gas pressure:   5.001871e+02 +/ 0.000000e+00 [bar]
Excess pressure:      0.000000e+00 +/ 0.000000e+00 [bar]
Pressure:             5.001871e+02 +/ 0.000000e+00 [bar]

Total potential energy/kʙ  -3.037459e+05 (-3.037459e+05 +/- 0.000000e+00) [K]
-------------------------------------------------------------------------------
ExternalField-molecule
    Van der Waals/kʙ        0.000000e+00 ( 0.000000e+00 +/- 0.000000e+00) [K]
Framework-molecule
    Van der Waals/kʙ        0.000000e+00 ( 0.000000e+00 +/- 0.000000e+00) [K]
    Van der Waals (Tail)/kʙ 0.000000e+00 ( 0.000000e+00 +/- 0.000000e+00) [K]
    Coulombic Real/kʙ       0.000000e+00 ( 0.000000e+00 +/- 0.000000e+00) [K]
    Coulombic Fourier/kʙ    0.000000e+00 ( 0.000000e+00 +/- 0.000000e+00) [K]
Molecule-molecule
    Van der Waals/kʙ       -2.222272e+05 (-2.222272e+05 +/- 0.000000e+00) [K]
    Van der Waals (Tail)/kʙ-5.382388e+03 (-5.382388e+03 +/- 0.000000e+00) [K]
    Coulombic Real/kʙ      -6.973998e+04 (-6.973998e+04 +/- 0.000000e+00) [K]
    Coulombic Fourier/kʙ   -6.396354e+03 (-6.396354e+03 +/- 0.000000e+00) [K]
    Molecule Intra/kʙ       0.000000e+00 ( 0.000000e+00 +/- 0.000000e+00) [K]

Current cycle: 100 out of 5000
===============================================================================

Box:      24.27340   0.00000   0.00000  Average:  23.99984   0.00000   0.00000
           0.00000  24.27340   0.00000             0.00000  23.99984   0.00000
           0.00000   0.00000  24.27340             0.00000   0.00000  23.99984
Lengths:  24.27340  24.27340  24.27340  Average:  23.99984  23.99984  23.99984
Angles:   90.00000  90.00000  90.00000  Average:  90.00000  90.00000  90.00000
Rectangular boundary conditions

net charge:   0.00000000

component 0 (CO2) lambda:  0 occupancy:  1 (1.000000)
    net charge:   0.00000000 [e]

Amount of molecules per component :
-------------------------------------------------------------------------------
Component 0 (CO2)
    molecules:      2.000000e+02 molecules  (2.000000e+02 +/- 0.000000e+00)
    number density: 1.398422e-02 molec./A^3 (1.446934e-02 +/- 0.000000e+00)
    density:        1.021711e+03 kg/m^3     (1.057155e+03 +/- 0.000000e+00)

Average pressure tensor: 
-------------------------------------------------------------------------------
 2.4553e+02 -3.4665e+01  7.4177e+01 +/- 0.0000e+00 0.0000e+00 0.0000e+00 [bar]
-3.4665e+01  1.3734e+02 -3.2336e+02 +/- 0.0000e+00 0.0000e+00 0.0000e+00 [bar]
 7.4177e+01 -3.2336e+02  1.0037e+02 +/- 0.0000e+00 0.0000e+00 0.0000e+00 [bar]
Ideal-gas pressure:   4.994275e+02 +/ 0.000000e+00 [bar]
Excess pressure:     -3.383474e+02 +/ 0.000000e+00 [bar]
Pressure:             1.610800e+02 +/ 0.000000e+00 [bar]

Total potential energy/kʙ  -2.946305e+05 (-3.030528e+05 +/- 0.000000e+00) [K]
-------------------------------------------------------------------------------
ExternalField-molecule
    Van der Waals/kʙ        0.000000e+00 ( 0.000000e+00 +/- 0.000000e+00) [K]
Framework-molecule
    Van der Waals/kʙ        0.000000e+00 ( 0.000000e+00 +/- 0.000000e+00) [K]
    Van der Waals (Tail)/kʙ 0.000000e+00 ( 0.000000e+00 +/- 0.000000e+00) [K]
    Coulombic Real/kʙ       0.000000e+00 ( 0.000000e+00 +/- 0.000000e+00) [K]
    Coulombic Fourier/kʙ    0.000000e+00 ( 0.000000e+00 +/- 0.000000e+00) [K]
Molecule-molecule
    Van der Waals/kʙ       -2.167926e+05 (-2.219105e+05 +/- 0.000000e+00) [K]
    Van der Waals (Tail)/kʙ-5.194031e+03 (-5.372648e+03 +/- 0.000000e+00) [K]
    Coulombic Real/kʙ      -6.588833e+04 (-6.940828e+04 +/- 0.000000e+00) [K]
    Coulombic Fourier/kʙ   -6.755548e+03 (-6.361382e+03 +/- 0.000000e+00) [K]
    Molecule Intra/kʙ       0.000000e+00 ( 0.000000e+00 +/- 0.000000e+00) [K]

Current cycle: 200 out of 5000
===============================================================================

Box:      24.19631   0.00000   0.00000  Average:  24.11053   0.00000   0.00000
           0.00000  24.19631   0.00000             0.00000  24.11053   0.00000
           0.00000   0.00000  24.19631             0.00000   0.00000  24.11053
Lengths:  24.19631  24.19631  24.19631  Average:  24.11053  24.11053  24.11053
Angles:   90.00000  90.00000  90.00000  Average:  90.00000  90.00000  90.00000
Rectangular boundary conditions

net charge:   0.00000000

component 0 (CO2) lambda:  0 occupancy:  1 (1.000000)
    net charge:   0.00000000 [e]

Amount of molecules per component :
-------------------------------------------------------------------------------
Component 0 (CO2)
    molecules:      2.000000e+02 molecules  (2.000000e+02 +/- 0.000000e+00)
    number density: 1.411830e-02 molec./A^3 (1.427246e-02 +/- 0.000000e+00)
    density:        1.031507e+03 kg/m^3     (1.042770e+03 +/- 0.000000e+00)

Average pressure tensor: 
-------------------------------------------------------------------------------
 1.7555e+02  2.8757e+01  4.8581e+01 +/- 0.0000e+00 0.0000e+00 0.0000e+00 [bar]
 2.8757e+01  6.9185e+01 -1.4670e+02 +/- 0.0000e+00 0.0000e+00 0.0000e+00 [bar]
 4.8581e+01 -1.4670e+02  1.0120e+02 +/- 0.0000e+00 0.0000e+00 0.0000e+00 [bar]
Ideal-gas pressure:   4.926318e+02 +/ 0.000000e+00 [bar]
Excess pressure:     -3.773182e+02 +/ 0.000000e+00 [bar]
Pressure:             1.153136e+02 +/ 0.000000e+00 [bar]

Total potential energy/kʙ  -2.984013e+05 (-2.976887e+05 +/- 0.000000e+00) [K]
-------------------------------------------------------------------------------
ExternalField-molecule
    Van der Waals/kʙ        0.000000e+00 ( 0.000000e+00 +/- 0.000000e+00) [K]
Framework-molecule
    Van der Waals/kʙ        0.000000e+00 ( 0.000000e+00 +/- 0.000000e+00) [K]
    Van der Waals (Tail)/kʙ 0.000000e+00 ( 0.000000e+00 +/- 0.000000e+00) [K]
    Coulombic Real/kʙ       0.000000e+00 ( 0.000000e+00 +/- 0.000000e+00) [K]
    Coulombic Fourier/kʙ    0.000000e+00 ( 0.000000e+00 +/- 0.000000e+00) [K]
Molecule-molecule
    Van der Waals/kʙ       -2.142819e+05 (-2.172124e+05 +/- 0.000000e+00) [K]
    Van der Waals (Tail)/kʙ-5.243829e+03 (-5.300079e+03 +/- 0.000000e+00) [K]
    Coulombic Real/kʙ      -7.169484e+04 (-6.880878e+04 +/- 0.000000e+00) [K]
    Coulombic Fourier/kʙ   -7.180700e+03 (-6.367444e+03 +/- 0.000000e+00) [K]
    Molecule Intra/kʙ       0.000000e+00 ( 0.000000e+00 +/- 0.000000e+00) [K]

Current cycle: 300 out of 5000
===============================================================================

Box:      24.01873   0.00000   0.00000  Average:  24.13919   0.00000   0.00000
           0.00000  24.01873   0.00000             0.00000  24.13919   0.00000
           0.00000   0.00000  24.01873             0.00000   0.00000  24.13919
Lengths:  24.01873  24.01873  24.01873  Average:  24.13919  24.13919  24.13919
Angles:   90.00000  90.00000  90.00000  Average:  90.00000  90.00000  90.00000
Rectangular boundary conditions

net charge:   0.00000000

component 0 (CO2) lambda:  0 occupancy:  1 (1.000000)
    net charge:   0.00000000 [e]

Amount of molecules per component :
-------------------------------------------------------------------------------
Component 0 (CO2)
    molecules:      2.000000e+02 molecules  (2.000000e+02 +/- 0.000000e+00)
    number density: 1.443377e-02 molec./A^3 (1.422243e-02 +/- 0.000000e+00)
    density:        1.054556e+03 kg/m^3     (1.039115e+03 +/- 0.000000e+00)

Average pressure tensor: 
-------------------------------------------------------------------------------
 1.2063e+02  2.8724e+01  4.5935e+01 +/- 0.0000e+00 0.0000e+00 0.0000e+00 [bar]
 2.8724e+01  1.9794e+02 -9.4725e+01 +/- 0.0000e+00 0.0000e+00 0.0000e+00 [bar]
 4.5935e+01 -9.4725e+01  1.2705e+02 +/- 0.0000e+00 0.0000e+00 0.0000e+00 [bar]
Ideal-gas pressure:   4.909052e+02 +/ 0.000000e+00 [bar]
Excess pressure:     -3.423639e+02 +/ 0.000000e+00 [bar]
Pressure:             1.485413e+02 +/ 0.000000e+00 [bar]

Total potential energy/kʙ  -3.040176e+05 (-2.968571e+05 +/- 0.000000e+00) [K]
-------------------------------------------------------------------------------
ExternalField-molecule
    Van der Waals/kʙ        0.000000e+00 ( 0.000000e+00 +/- 0.000000e+00) [K]
Framework-molecule
    Van der Waals/kʙ        0.000000e+00 ( 0.000000e+00 +/- 0.000000e+00) [K]
    Van der Waals (Tail)/kʙ 0.000000e+00 ( 0.000000e+00 +/- 0.000000e+00) [K]
    Coulombic Real/kʙ       0.000000e+00 ( 0.000000e+00 +/- 0.000000e+00) [K]
    Coulombic Fourier/kʙ    0.000000e+00 ( 0.000000e+00 +/- 0.000000e+00) [K]
Molecule-molecule
    Van der Waals/kʙ       -2.246839e+05 (-2.163216e+05 +/- 0.000000e+00) [K]
    Van der Waals (Tail)/kʙ-5.361003e+03 (-5.290993e+03 +/- 0.000000e+00) [K]
    Coulombic Real/kʙ      -6.753630e+04 (-6.876322e+04 +/- 0.000000e+00) [K]
    Coulombic Fourier/kʙ   -6.436466e+03 (-6.481318e+03 +/- 0.000000e+00) [K]
    Molecule Intra/kʙ       0.000000e+00 ( 0.000000e+00 +/- 0.000000e+00) [K]

Current cycle: 400 out of 5000
===============================================================================

Box:      23.84011   0.00000   0.00000  Average:  24.09743   0.00000   0.00000
           0.00000  23.84011   0.00000             0.00000  24.09743   0.00000
           0.00000   0.00000  23.84011             0.00000   0.00000  24.09743
Lengths:  23.84011  23.84011  23.84011  Average:  24.09743  24.09743  24.09743
Angles:   90.00000  90.00000  90.00000  Average:  90.00000  90.00000  90.00000
Rectangular boundary conditions

net charge:   0.00000000

component 0 (CO2) lambda:  0 occupancy:  1 (1.000000)
    net charge:   0.00000000 [e]

Amount of molecules per component :
-------------------------------------------------------------------------------
Component 0 (CO2)
    molecules:      2.000000e+02 molecules  (2.000000e+02 +/- 0.000000e+00)
    number density: 1.476064e-02 molec./A^3 (1.429665e-02 +/- 0.000000e+00)
    density:        1.078438e+03 kg/m^3     (1.044538e+03 +/- 0.000000e+00)

Average pressure tensor: 
-------------------------------------------------------------------------------
 9.1395e+01 -1.1528e+01 -9.4817e-01 +/- 0.0000e+00 0.0000e+00 0.0000e+00 [bar]
-1.1528e+01  2.1979e+02 -5.3581e+01 +/- 0.0000e+00 0.0000e+00 0.0000e+00 [bar]
-9.4817e-01 -5.3581e+01  9.9635e+01 +/- 0.0000e+00 0.0000e+00 0.0000e+00 [bar]
Ideal-gas pressure:   4.934669e+02 +/ 0.000000e+00 [bar]
Excess pressure:     -3.565285e+02 +/ 0.000000e+00 [bar]
Pressure:             1.369384e+02 +/ 0.000000e+00 [bar]

Total potential energy/kʙ  -3.106173e+05 (-2.994791e+05 +/- 0.000000e+00) [K]
-------------------------------------------------------------------------------
ExternalField-molecule
    Van der Waals/kʙ        0.000000e+00 ( 0.000000e+00 +/- 0.000000e+00) [K]
Framework-molecule
    Van der Waals/kʙ        0.000000e+00 ( 0.000000e+00 +/- 0.000000e+00) [K]
    Van der Waals (Tail)/kʙ 0.000000e+00 ( 0.000000e+00 +/- 0.000000e+00) [K]
    Coulombic Real/kʙ       0.000000e+00 ( 0.000000e+00 +/- 0.000000e+00) [K]
    Coulombic Fourier/kʙ    0.000000e+00 ( 0.000000e+00 +/- 0.000000e+00) [K]
Molecule-molecule
    Van der Waals/kʙ       -2.254374e+05 (-2.175630e+05 +/- 0.000000e+00) [K]
    Van der Waals (Tail)/kʙ-5.482408e+03 (-5.321086e+03 +/- 0.000000e+00) [K]
    Coulombic Real/kʙ      -7.295603e+04 (-7.008709e+04 +/- 0.000000e+00) [K]
    Coulombic Fourier/kʙ   -6.741437e+03 (-6.507856e+03 +/- 0.000000e+00) [K]
    Molecule Intra/kʙ       0.000000e+00 ( 0.000000e+00 +/- 0.000000e+00) [K]

Current cycle: 500 out of 5000
===============================================================================

Box:      23.64038   0.00000   0.00000  Average:  24.01574   0.00000   0.00000
           0.00000  23.64038   0.00000             0.00000  24.01574   0.00000
           0.00000   0.00000  23.64038             0.00000   0.00000  24.01574
Lengths:  23.64038  23.64038  23.64038  Average:  24.01574  24.01574  24.01574
Angles:   90.00000  90.00000  90.00000  Average:  90.00000  90.00000  90.00000
Rectangular boundary conditions

net charge:   0.00000000

component 0 (CO2) lambda:  0 occupancy:  1 (1.000000)
    net charge:   0.00000000 [e]

Amount of molecules per component :
-------------------------------------------------------------------------------
Component 0 (CO2)
    molecules:      2.000000e+02 molecules  (2.000000e+02 +/- 0.000000e+00)
    number density: 1.513793e-02 molec./A^3 (1.444685e-02 +/- 0.000000e+00)
    density:        1.106003e+03 kg/m^3     (1.055512e+03 +/- 0.000000e+00)

Average pressure tensor: 
-------------------------------------------------------------------------------
 4.8641e+01 -5.0086e+00 -5.6401e-01 +/- 0.0000e+00 0.0000e+00 0.0000e+00 [bar]
-5.0086e+00  2.3090e+02 -2.1519e+01 +/- 0.0000e+00 0.0000e+00 0.0000e+00 [bar]
-5.6401e-01 -2.1519e+01  9.1402e+01 +/- 0.0000e+00 0.0000e+00 0.0000e+00 [bar]
Ideal-gas pressure:   4.986514e+02 +/ 0.000000e+00 [bar]
Excess pressure:     -3.750046e+02 +/ 0.000000e+00 [bar]
Pressure:             1.236467e+02 +/ 0.000000e+00 [bar]

Total potential energy/kʙ  -3.206848e+05 (-3.032319e+05 +/- 0.000000e+00) [K]
-------------------------------------------------------------------------------
ExternalField-molecule
    Van der Waals/kʙ        0.000000e+00 ( 0.000000e+00 +/- 0.000000e+00) [K]
Framework-molecule
    Van der Waals/kʙ        0.000000e+00 ( 0.000000e+00 +/- 0.000000e+00) [K]
    Van der Waals (Tail)/kʙ 0.000000e+00 ( 0.000000e+00 +/- 0.000000e+00) [K]
    Coulombic Real/kʙ       0.000000e+00 ( 0.000000e+00 +/- 0.000000e+00) [K]
    Coulombic Fourier/kʙ    0.000000e+00 ( 0.000000e+00 +/- 0.000000e+00) [K]
Molecule-molecule
    Van der Waals/kʙ       -2.297654e+05 (-2.203523e+05 +/- 0.000000e+00) [K]
    Van der Waals (Tail)/kʙ-5.622543e+03 (-5.372764e+03 +/- 0.000000e+00) [K]
    Coulombic Real/kʙ      -7.825586e+04 (-7.091101e+04 +/- 0.000000e+00) [K]
    Coulombic Fourier/kʙ   -7.041010e+03 (-6.595762e+03 +/- 0.000000e+00) [K]
    Molecule Intra/kʙ       0.000000e+00 ( 0.000000e+00 +/- 0.000000e+00) [K]

Current cycle: 600 out of 5000
===============================================================================

Box:      23.92380   0.00000   0.00000  Average:  23.95528   0.00000   0.00000
           0.00000  23.92380   0.00000             0.00000  23.95528   0.00000
           0.00000   0.00000  23.92380             0.00000   0.00000  23.95528
Lengths:  23.92380  23.92380  23.92380  Average:  23.95528  23.95528  23.95528
Angles:   90.00000  90.00000  90.00000  Average:  90.00000  90.00000  90.00000
Rectangular boundary conditions

net charge:   0.00000000

component 0 (CO2) lambda:  0 occupancy:  1 (1.000000)
    net charge:   0.00000000 [e]

Amount of molecules per component :
-------------------------------------------------------------------------------
Component 0 (CO2)
    molecules:      2.000000e+02 molecules  (2.000000e+02 +/- 0.000000e+00)
    number density: 1.460627e-02 molec./A^3 (1.455830e-02 +/- 0.000000e+00)
    density:        1.067159e+03 kg/m^3     (1.063654e+03 +/- 0.000000e+00)

Average pressure tensor: 
-------------------------------------------------------------------------------
 4.1941e+01 -1.0098e+01 -4.2955e+00 +/- 0.0000e+00 0.0000e+00 0.0000e+00 [bar]
-1.0098e+01  1.9902e+02 -9.1047e+00 +/- 0.0000e+00 0.0000e+00 0.0000e+00 [bar]
-4.2955e+00 -9.1047e+00  9.1477e+01 +/- 0.0000e+00 0.0000e+00 0.0000e+00 [bar]
Ideal-gas pressure:   5.024980e+02 +/ 0.000000e+00 [bar]
Excess pressure:     -3.916857e+02 +/ 0.000000e+00 [bar]
Pressure:             1.108122e+02 +/ 0.000000e+00 [bar]

Total potential energy/kʙ  -3.108690e+05 (-3.064297e+05 +/- 0.000000e+00) [K]
-------------------------------------------------------------------------------
ExternalField-molecule
    Van der Waals/kʙ        0.000000e+00 ( 0.000000e+00 +/- 0.000000e+00) [K]
Framework-molecule
    Van der Waals/kʙ        0.000000e+00 ( 0.000000e+00 +/- 0.000000e+00) [K]
    Van der Waals (Tail)/kʙ 0.000000e+00 ( 0.000000e+00 +/- 0.000000e+00) [K]
    Coulombic Real/kʙ       0.000000e+00 ( 0.000000e+00 +/- 0.000000e+00) [K]
    Coulombic Fourier/kʙ    0.000000e+00 ( 0.000000e+00 +/- 0.000000e+00) [K]
Molecule-molecule
    Van der Waals/kʙ       -2.266339e+05 (-2.223995e+05 +/- 0.000000e+00) [K]
    Van der Waals (Tail)/kʙ-5.425074e+03 (-5.408716e+03 +/- 0.000000e+00) [K]
    Coulombic Real/kʙ      -7.231091e+04 (-7.198101e+04 +/- 0.000000e+00) [K]
    Coulombic Fourier/kʙ   -6.499173e+03 (-6.640453e+03 +/- 0.000000e+00) [K]
    Molecule Intra/kʙ       0.000000e+00 ( 0.000000e+00 +/- 0.000000e+00) [K]

Current cycle: 700 out of 5000
===============================================================================

Box:      23.68250   0.00000   0.00000  Average:  23.91190   0.00000   0.00000
           0.00000  23.68250   0.00000             0.00000  23.91190   0.00000
           0.00000   0.00000  23.68250             0.00000   0.00000  23.91190
Lengths:  23.68250  23.68250  23.68250  Average:  23.91190  23.91190  23.91190
Angles:   90.00000  90.00000  90.00000  Average:  90.00000  90.00000  90.00000
Rectangular boundary conditions

net charge:   0.00000000

component 0 (CO2) lambda:  0 occupancy:  1 (1.000000)
    net charge:   0.00000000 [e]

Amount of molecules per component :
-------------------------------------------------------------------------------
Component 0 (CO2)
    molecules:      2.000000e+02 molecules  (2.000000e+02 +/- 0.000000e+00)
    number density: 1.505731e-02 molec./A^3 (1.463834e-02 +/- 0.000000e+00)
    density:        1.100113e+03 kg/m^3     (1.069502e+03 +/- 0.000000e+00)

Average pressure tensor: 
-------------------------------------------------------------------------------
 7.1204e+01 -1.6134e+01 -4.3515e+01 +/- 0.0000e+00 0.0000e+00 0.0000e+00 [bar]
-1.6134e+01  1.9883e+02 -2.0951e+01 +/- 0.0000e+00 0.0000e+00 0.0000e+00 [bar]
-4.3515e+01 -2.0951e+01  6.7689e+01 +/- 0.0000e+00 0.0000e+00 0.0000e+00 [bar]
Ideal-gas pressure:   5.052607e+02 +/ 0.000000e+00 [bar]
Excess pressure:     -3.926878e+02 +/ 0.000000e+00 [bar]
Pressure:             1.125729e+02 +/ 0.000000e+00 [bar]

Total potential energy/kʙ  -3.140303e+05 (-3.081562e+05 +/- 0.000000e+00) [K]
-------------------------------------------------------------------------------
ExternalField-molecule
    Van der Waals/kʙ        0.000000e+00 ( 0.000000e+00 +/- 0.000000e+00) [K]
Framework-molecule
    Van der Waals/kʙ        0.000000e+00 ( 0.000000e+00 +/- 0.000000e+00) [K]
    Van der Waals (Tail)/kʙ 0.000000e+00 ( 0.000000e+00 +/- 0.000000e+00) [K]
    Coulombic Real/kʙ       0.000000e+00 ( 0.000000e+00 +/- 0.000000e+00) [K]
    Coulombic Fourier/kʙ    0.000000e+00 ( 0.000000e+00 +/- 0.000000e+00) [K]
Molecule-molecule
    Van der Waals/kʙ       -2.273439e+05 (-2.235292e+05 +/- 0.000000e+00) [K]
    Van der Waals (Tail)/kʙ-5.592599e+03 (-5.437990e+03 +/- 0.000000e+00) [K]
    Coulombic Real/kʙ      -7.391393e+04 (-7.250815e+04 +/- 0.000000e+00) [K]
    Coulombic Fourier/kʙ   -7.179875e+03 (-6.680801e+03 +/- 0.000000e+00) [K]
    Molecule Intra/kʙ       0.000000e+00 ( 0.000000e+00 +/- 0.000000e+00) [K]

Current cycle: 800 out of 5000
===============================================================================

Box:      23.59502   0.00000   0.00000  Average:  23.89981   0.00000   0.00000
           0.00000  23.59502   0.00000             0.00000  23.89981   0.00000
           0.00000   0.00000  23.59502             0.00000   0.00000  23.89981
Lengths:  23.59502  23.59502  23.59502  Average:  23.89981  23.89981  23.89981
Angles:   90.00000  90.00000  90.00000  Average:  90.00000  90.00000  90.00000
Rectangular boundary conditions

net charge:   0.00000000

component 0 (CO2) lambda:  0 occupancy:  1 (1.000000)
    net charge:   0.00000000 [e]

Amount of molecules per component :
-------------------------------------------------------------------------------
Component 0 (CO2)
    molecules:      2.000000e+02 molecules  (2.000000e+02 +/- 0.000000e+00)
    number density: 1.522541e-02 molec./A^3 (1.465953e-02 +/- 0.000000e+00)
    density:        1.112394e+03 kg/m^3     (1.071051e+03 +/- 0.000000e+00)

Average pressure tensor: 
-------------------------------------------------------------------------------
 9.3885e+01 -3.0894e+01 -4.4089e+01 +/- 0.0000e+00 0.0000e+00 0.0000e+00 [bar]
-3.0894e+01  1.8420e+02 -2.9474e+01 +/- 0.0000e+00 0.0000e+00 0.0000e+00 [bar]
-4.4089e+01 -2.9474e+01  4.8068e+01 +/- 0.0000e+00 0.0000e+00 0.0000e+00 [bar]
Ideal-gas pressure:   5.059923e+02 +/ 0.000000e+00 [bar]
Excess pressure:     -3.972728e+02 +/ 0.000000e+00 [bar]
Pressure:             1.087195e+02 +/ 0.000000e+00 [bar]

Total potential energy/kʙ  -3.158559e+05 (-3.082473e+05 +/- 0.000000e+00) [K]
-------------------------------------------------------------------------------
ExternalField-molecule
    Van der Waals/kʙ        0.000000e+00 ( 0.000000e+00 +/- 0.000000e+00) [K]
Framework-molecule
    Van der Waals/kʙ        0.000000e+00 ( 0.000000e+00 +/- 0.000000e+00) [K]
    Van der Waals (Tail)/kʙ 0.000000e+00 ( 0.000000e+00 +/- 0.000000e+00) [K]
    Coulombic Real/kʙ       0.000000e+00 ( 0.000000e+00 +/- 0.000000e+00) [K]
    Coulombic Fourier/kʙ    0.000000e+00 ( 0.000000e+00 +/- 0.000000e+00) [K]
Molecule-molecule
    Van der Waals/kʙ       -2.308942e+05 (-2.237555e+05 +/- 0.000000e+00) [K]
    Van der Waals (Tail)/kʙ-5.655033e+03 (-5.445893e+03 +/- 0.000000e+00) [K]
    Coulombic Real/kʙ      -7.321178e+04 (-7.235769e+04 +/- 0.000000e+00) [K]
    Coulombic Fourier/kʙ   -6.094847e+03 (-6.688188e+03 +/- 0.000000e+00) [K]
    Molecule Intra/kʙ       0.000000e+00 ( 0.000000e+00 +/- 0.000000e+00) [K]

Current cycle: 900 out of 5000
===============================================================================

Box:      23.93015   0.00000   0.00000  Average:  23.89548   0.00000   0.00000
           0.00000  23.93015   0.00000             0.00000  23.89548   0.00000
           0.00000   0.00000  23.93015             0.00000   0.00000  23.89548
Lengths:  23.93015  23.93015  23.93015  Average:  23.89548  23.89548  23.89548
Angles:   90.00000  90.00000  90.00000  Average:  90.00000  90.00000  90.00000
Rectangular boundary conditions

net charge:   0.00000000

component 0 (CO2) lambda:  0 occupancy:  1 (1.000000)
    net charge:   0.00000000 [e]

Amount of molecules per component :
-------------------------------------------------------------------------------
Component 0 (CO2)
    molecules:      2.000000e+02 molecules  (2.000000e+02 +/- 0.000000e+00)
    number density: 1.459466e-02 molec./A^3 (1.466674e-02 +/- 0.000000e+00)
    density:        1.066311e+03 kg/m^3     (1.071577e+03 +/- 0.000000e+00)

Average pressure tensor: 
-------------------------------------------------------------------------------
 1.0996e+02 -3.2466e+01 -4.6515e+01 +/- 0.0000e+00 0.0000e+00 0.0000e+00 [bar]
-3.2466e+01  1.7089e+02 -2.8835e+01 +/- 0.0000e+00 0.0000e+00 0.0000e+00 [bar]
-4.6515e+01 -2.8835e+01  5.7051e+01 +/- 0.0000e+00 0.0000e+00 0.0000e+00 [bar]
Ideal-gas pressure:   5.062410e+02 +/ 0.000000e+00 [bar]
Excess pressure:     -3.936080e+02 +/ 0.000000e+00 [bar]
Pressure:             1.126330e+02 +/ 0.000000e+00 [bar]

Total potential energy/kʙ  -3.071235e+05 (-3.080049e+05 +/- 0.000000e+00) [K]
-------------------------------------------------------------------------------
ExternalField-molecule
    Van der Waals/kʙ        0.000000e+00 ( 0.000000e+00 +/- 0.000000e+00) [K]
Framework-molecule
    Van der Waals/kʙ        0.000000e+00 ( 0.000000e+00 +/- 0.000000e+00) [K]
    Van der Waals (Tail)/kʙ 0.000000e+00 ( 0.000000e+00 +/- 0.000000e+00) [K]
    Coulombic Real/kʙ       0.000000e+00 ( 0.000000e+00 +/- 0.000000e+00) [K]
    Coulombic Fourier/kʙ    0.000000e+00 ( 0.000000e+00 +/- 0.000000e+00) [K]
Molecule-molecule
    Van der Waals/kʙ       -2.230299e+05 (-2.238611e+05 +/- 0.000000e+00) [K]
    Van der Waals (Tail)/kʙ-5.420759e+03 (-5.449262e+03 +/- 0.000000e+00) [K]
    Coulombic Real/kʙ      -7.218327e+04 (-7.204880e+04 +/- 0.000000e+00) [K]
    Coulombic Fourier/kʙ   -6.489610e+03 (-6.645721e+03 +/- 0.000000e+00) [K]
    Molecule Intra/kʙ       0.000000e+00 ( 0.000000e+00 +/- 0.000000e+00) [K]

Current cycle: 1000 out of 5000
===============================================================================

Box:      23.43615   0.00000   0.00000  Average:  23.87674   0.00000   0.00000
           0.00000  23.43615   0.00000             0.00000  23.87674   0.00000
           0.00000   0.00000  23.43615             0.00000   0.00000  23.87674
Lengths:  23.43615  23.43615  23.43615  Average:  23.87674  23.87674  23.87674
Angles:   90.00000  90.00000  90.00000  Average:  90.00000  90.00000  90.00000
Rectangular boundary conditions

net charge:   0.00000000

component 0 (CO2) lambda:  0 occupancy:  1 (1.000000)
    net charge:   0.00000000 [e]

Amount of molecules per component :
-------------------------------------------------------------------------------
Component 0 (CO2)
    molecules:      2.000000e+02 molecules  (2.000000e+02 +/- 0.000000e+00)
    number density: 1.553714e-02 molec./A^3 (1.470114e-02 +/- 0.000000e+00)
    density:        1.135170e+03 kg/m^3     (1.074091e+03 +/- 0.000000e+00)

Average pressure tensor: 
-------------------------------------------------------------------------------
 9.4632e+01 -2.5398e+00 -4.7263e+01 +/- 0.0000e+00 0.0000e+00 0.0000e+00 [bar]
-2.5398e+00  1.6393e+02 -2.5034e+01 +/- 0.0000e+00 0.0000e+00 0.0000e+00 [bar]
-4.7263e+01 -2.5034e+01  6.2791e+01 +/- 0.0000e+00 0.0000e+00 0.0000e+00 [bar]
Ideal-gas pressure:   5.074285e+02 +/ 0.000000e+00 [bar]
Excess pressure:     -4.003093e+02 +/ 0.000000e+00 [bar]
Pressure:             1.071192e+02 +/ 0.000000e+00 [bar]

Total potential energy/kʙ  -3.192919e+05 (-3.086957e+05 +/- 0.000000e+00) [K]
-------------------------------------------------------------------------------
ExternalField-molecule
    Van der Waals/kʙ        0.000000e+00 ( 0.000000e+00 +/- 0.000000e+00) [K]
Framework-molecule
    Van der Waals/kʙ        0.000000e+00 ( 0.000000e+00 +/- 0.000000e+00) [K]
    Van der Waals (Tail)/kʙ 0.000000e+00 ( 0.000000e+00 +/- 0.000000e+00) [K]
    Coulombic Real/kʙ       0.000000e+00 ( 0.000000e+00 +/- 0.000000e+00) [K]
    Coulombic Fourier/kʙ    0.000000e+00 ( 0.000000e+00 +/- 0.000000e+00) [K]
Molecule-molecule
    Van der Waals/kʙ       -2.373424e+05 (-2.245962e+05 +/- 0.000000e+00) [K]
    Van der Waals (Tail)/kʙ-5.770818e+03 (-5.463869e+03 +/- 0.000000e+00) [K]
    Coulombic Real/kʙ      -6.927487e+04 (-7.197420e+04 +/- 0.000000e+00) [K]
    Coulombic Fourier/kʙ   -6.903847e+03 (-6.661510e+03 +/- 0.000000e+00) [K]
    Molecule Intra/kʙ       0.000000e+00 ( 0.000000e+00 +/- 0.000000e+00) [K]

Current cycle: 1100 out of 5000
===============================================================================

Box:      23.37148   0.00000   0.00000  Average:  23.85285   0.00000   0.00000
           0.00000  23.37148   0.00000             0.00000  23.85285   0.00000
           0.00000   0.00000  23.37148             0.00000   0.00000  23.85285
Lengths:  23.37148  23.37148  23.37148  Average:  23.85285  23.85285  23.85285
Angles:   90.00000  90.00000  90.00000  Average:  90.00000  90.00000  90.00000
Rectangular boundary conditions

net charge:   0.00000000

component 0 (CO2) lambda:  0 occupancy:  1 (1.000000)
    net charge:   0.00000000 [e]

Amount of molecules per component :
-------------------------------------------------------------------------------
Component 0 (CO2)
    molecules:      2.000000e+02 molecules  (2.000000e+02 +/- 0.000000e+00)
    number density: 1.566647e-02 molec./A^3 (1.474566e-02 +/- 0.000000e+00)
    density:        1.144619e+03 kg/m^3     (1.077343e+03 +/- 0.000000e+00)

Average pressure tensor: 
-------------------------------------------------------------------------------
 1.1540e+02  1.1067e+01 -4.9603e+01 +/- 0.0000e+00 0.0000e+00 0.0000e+00 [bar]
 1.1067e+01  1.4983e+02 -2.1730e+01 +/- 0.0000e+00 0.0000e+00 0.0000e+00 [bar]
-4.9603e+01 -2.1730e+01  7.3782e+01 +/- 0.0000e+00 0.0000e+00 0.0000e+00 [bar]
Ideal-gas pressure:   5.089649e+02 +/ 0.000000e+00 [bar]
Excess pressure:     -3.959623e+02 +/ 0.000000e+00 [bar]
Pressure:             1.130026e+02 +/ 0.000000e+00 [bar]

Total potential energy/kʙ  -3.227236e+05 (-3.093503e+05 +/- 0.000000e+00) [K]
-------------------------------------------------------------------------------
ExternalField-molecule
    Van der Waals/kʙ        0.000000e+00 ( 0.000000e+00 +/- 0.000000e+00) [K]
Framework-molecule
    Van der Waals/kʙ        0.000000e+00 ( 0.000000e+00 +/- 0.000000e+00) [K]
    Van der Waals (Tail)/kʙ 0.000000e+00 ( 0.000000e+00 +/- 0.000000e+00) [K]
    Coulombic Real/kʙ       0.000000e+00 ( 0.000000e+00 +/- 0.000000e+00) [K]
    Coulombic Fourier/kʙ    0.000000e+00 ( 0.000000e+00 +/- 0.000000e+00) [K]
Molecule-molecule
    Van der Waals/kʙ       -2.333445e+05 (-2.252536e+05 +/- 0.000000e+00) [K]
    Van der Waals (Tail)/kʙ-5.818852e+03 (-5.481027e+03 +/- 0.000000e+00) [K]
    Coulombic Real/kʙ      -7.649910e+04 (-7.196101e+04 +/- 0.000000e+00) [K]
    Coulombic Fourier/kʙ   -7.061193e+03 (-6.654704e+03 +/- 0.000000e+00) [K]
    Molecule Intra/kʙ       0.000000e+00 ( 0.000000e+00 +/- 0.000000e+00) [K]

Current cycle: 1200 out of 5000
===============================================================================

Box:      23.71695   0.00000   0.00000  Average:  23.84111   0.00000   0.00000
           0.00000  23.71695   0.00000             0.00000  23.84111   0.00000
           0.00000   0.00000  23.71695             0.00000   0.00000  23.84111
Lengths:  23.71695  23.71695  23.71695  Average:  23.84111  23.84111  23.84111
Angles:   90.00000  90.00000  90.00000  Average:  90.00000  90.00000  90.00000
Rectangular boundary conditions

net charge:   0.00000000

component 0 (CO2) lambda:  0 occupancy:  1 (1.000000)
    net charge:   0.00000000 [e]

Amount of molecules per component :
-------------------------------------------------------------------------------
Component 0 (CO2)
    molecules:      2.000000e+02 molecules  (2.000000e+02 +/- 0.000000e+00)
    number density: 1.499178e-02 molec./A^3 (1.476709e-02 +/- 0.000000e+00)
    density:        1.095325e+03 kg/m^3     (1.078909e+03 +/- 0.000000e+00)

Average pressure tensor: 
-------------------------------------------------------------------------------
 8.9596e+01  1.2583e+01 -5.2155e+01 +/- 0.0000e+00 0.0000e+00 0.0000e+00 [bar]
 1.2583e+01  1.5030e+02 -1.8096e+01 +/- 0.0000e+00 0.0000e+00 0.0000e+00 [bar]
-5.2155e+01 -1.8096e+01  6.5737e+01 +/- 0.0000e+00 0.0000e+00 0.0000e+00 [bar]
Ideal-gas pressure:   5.097049e+02 +/ 0.000000e+00 [bar]
Excess pressure:     -4.078282e+02 +/ 0.000000e+00 [bar]
Pressure:             1.018766e+02 +/ 0.000000e+00 [bar]

Total potential energy/kʙ  -3.121702e+05 (-3.099887e+05 +/- 0.000000e+00) [K]
-------------------------------------------------------------------------------
ExternalField-molecule
    Van der Waals/kʙ        0.000000e+00 ( 0.000000e+00 +/- 0.000000e+00) [K]
Framework-molecule
    Van der Waals/kʙ        0.000000e+00 ( 0.000000e+00 +/- 0.000000e+00) [K]
    Van der Waals (Tail)/kʙ 0.000000e+00 ( 0.000000e+00 +/- 0.000000e+00) [K]
    Coulombic Real/kʙ       0.000000e+00 ( 0.000000e+00 +/- 0.000000e+00) [K]
    Coulombic Fourier/kʙ    0.000000e+00 ( 0.000000e+00 +/- 0.000000e+00) [K]
Molecule-molecule
    Van der Waals/kʙ       -2.222943e+05 (-2.255293e+05 +/- 0.000000e+00) [K]
    Van der Waals (Tail)/kʙ-5.568260e+03 (-5.487458e+03 +/- 0.000000e+00) [K]
    Coulombic Real/kʙ      -7.683520e+04 (-7.228715e+04 +/- 0.000000e+00) [K]
    Coulombic Fourier/kʙ   -7.472473e+03 (-6.684851e+03 +/- 0.000000e+00) [K]
    Molecule Intra/kʙ       0.000000e+00 ( 0.000000e+00 +/- 0.000000e+00) [K]

Current cycle: 1300 out of 5000
===============================================================================

Box:      23.60102   0.00000   0.00000  Average:  23.82184   0.00000   0.00000
           0.00000  23.60102   0.00000             0.00000  23.82184   0.00000
           0.00000   0.00000  23.60102             0.00000   0.00000  23.82184
Lengths:  23.60102  23.60102  23.60102  Average:  23.82184  23.82184  23.82184
Angles:   90.00000  90.00000  90.00000  Average:  90.00000  90.00000  90.00000
Rectangular boundary conditions

net charge:   0.00000000

component 0 (CO2) lambda:  0 occupancy:  1 (1.000000)
    net charge:   0.00000000 [e]

Amount of molecules per component :
-------------------------------------------------------------------------------
Component 0 (CO2)
    molecules:      2.000000e+02 molecules  (2.000000e+02 +/- 0.000000e+00)
    number density: 1.521380e-02 molec./A^3 (1.480315e-02 +/- 0.000000e+00)
    density:        1.111546e+03 kg/m^3     (1.081543e+03 +/- 0.000000e+00)

Average pressure tensor: 
-------------------------------------------------------------------------------
 9.9568e+01  4.3260e+00 -6.4305e+01 +/- 0.0000e+00 0.0000e+00 0.0000e+00 [bar]
 4.3260e+00  1.2999e+02 -9.6463e+00 +/- 0.0000e+00 0.0000e+00 0.0000e+00 [bar]
-6.4305e+01 -9.6463e+00  6.2076e+01 +/- 0.0000e+00 0.0000e+00 0.0000e+00 [bar]
Ideal-gas pressure:   5.109492e+02 +/ 0.000000e+00 [bar]
Excess pressure:     -4.137363e+02 +/ 0.000000e+00 [bar]
Pressure:             9.721291e+01 +/ 0.000000e+00 [bar]

Total potential energy/kʙ  -3.221280e+05 (-3.109510e+05 +/- 0.000000e+00) [K]
-------------------------------------------------------------------------------
ExternalField-molecule
    Van der Waals/kʙ        0.000000e+00 ( 0.000000e+00 +/- 0.000000e+00) [K]
Framework-molecule
    Van der Waals/kʙ        0.000000e+00 ( 0.000000e+00 +/- 0.000000e+00) [K]
    Van der Waals (Tail)/kʙ 0.000000e+00 ( 0.000000e+00 +/- 0.000000e+00) [K]
    Coulombic Real/kʙ       0.000000e+00 ( 0.000000e+00 +/- 0.000000e+00) [K]
    Coulombic Fourier/kʙ    0.000000e+00 ( 0.000000e+00 +/- 0.000000e+00) [K]
Molecule-molecule
    Van der Waals/kʙ       -2.345637e+05 (-2.262451e+05 +/- 0.000000e+00) [K]
    Van der Waals (Tail)/kʙ-5.650720e+03 (-5.499857e+03 +/- 0.000000e+00) [K]
    Coulombic Real/kʙ      -7.522240e+04 (-7.250345e+04 +/- 0.000000e+00) [K]
    Coulombic Fourier/kʙ   -6.691187e+03 (-6.702613e+03 +/- 0.000000e+00) [K]
    Molecule Intra/kʙ       0.000000e+00 ( 0.000000e+00 +/- 0.000000e+00) [K]

Current cycle: 1400 out of 5000
===============================================================================

Box:      23.75441   0.00000   0.00000  Average:  23.82149   0.00000   0.00000
           0.00000  23.75441   0.00000             0.00000  23.82149   0.00000
           0.00000   0.00000  23.75441             0.00000   0.00000  23.82149
Lengths:  23.75441  23.75441  23.75441  Average:  23.82149  23.82149  23.82149
Angles:   90.00000  90.00000  90.00000  Average:  90.00000  90.00000  90.00000
Rectangular boundary conditions

net charge:   0.00000000

component 0 (CO2) lambda:  0 occupancy:  1 (1.000000)
    net charge:   0.00000000 [e]

Amount of molecules per component :
-------------------------------------------------------------------------------
Component 0 (CO2)
    molecules:      2.000000e+02 molecules  (2.000000e+02 +/- 0.000000e+00)
    number density: 1.492097e-02 molec./A^3 (1.480333e-02 +/- 0.000000e+00)
    density:        1.090152e+03 kg/m^3     (1.081556e+03 +/- 0.000000e+00)

Average pressure tensor: 
-------------------------------------------------------------------------------
 1.1100e+02 -9.2195e+00 -5.1980e+01 +/- 0.0000e+00 0.0000e+00 0.0000e+00 [bar]
-9.2195e+00  1.2683e+02 -5.1333e+00 +/- 0.0000e+00 0.0000e+00 0.0000e+00 [bar]
-5.1980e+01 -5.1333e+00  7.8486e+01 +/- 0.0000e+00 0.0000e+00 0.0000e+00 [bar]
Ideal-gas pressure:   5.109555e+02 +/ 0.000000e+00 [bar]
Excess pressure:     -4.055168e+02 +/ 0.000000e+00 [bar]
Pressure:             1.054386e+02 +/ 0.000000e+00 [bar]

Total potential energy/kʙ  -3.085831e+05 (-3.107286e+05 +/- 0.000000e+00) [K]
-------------------------------------------------------------------------------
ExternalField-molecule
    Van der Waals/kʙ        0.000000e+00 ( 0.000000e+00 +/- 0.000000e+00) [K]
Framework-molecule
    Van der Waals/kʙ        0.000000e+00 ( 0.000000e+00 +/- 0.000000e+00) [K]
    Van der Waals (Tail)/kʙ 0.000000e+00 ( 0.000000e+00 +/- 0.000000e+00) [K]
    Coulombic Real/kʙ       0.000000e+00 ( 0.000000e+00 +/- 0.000000e+00) [K]
    Coulombic Fourier/kʙ    0.000000e+00 ( 0.000000e+00 +/- 0.000000e+00) [K]
Molecule-molecule
    Van der Waals/kʙ       -2.268703e+05 (-2.262344e+05 +/- 0.000000e+00) [K]
    Van der Waals (Tail)/kʙ-5.541960e+03 (-5.500400e+03 +/- 0.000000e+00) [K]
    Coulombic Real/kʙ      -6.926689e+04 (-7.231498e+04 +/- 0.000000e+00) [K]
    Coulombic Fourier/kʙ   -6.903978e+03 (-6.678814e+03 +/- 0.000000e+00) [K]
    Molecule Intra/kʙ       0.000000e+00 ( 0.000000e+00 +/- 0.000000e+00) [K]

Current cycle: 1500 out of 5000
===============================================================================

Box:      24.09761   0.00000   0.00000  Average:  23.82409   0.00000   0.00000
           0.00000  24.09761   0.00000             0.00000  23.82409   0.00000
           0.00000   0.00000  24.09761             0.00000   0.00000  23.82409
Lengths:  24.09761  24.09761  24.09761  Average:  23.82409  23.82409  23.82409
Angles:   90.00000  90.00000  90.00000  Average:  90.00000  90.00000  90.00000
Rectangular boundary conditions

net charge:   0.00000000

component 0 (CO2) lambda:  0 occupancy:  1 (1.000000)
    net charge:   0.00000000 [e]

Amount of molecules per component :
-------------------------------------------------------------------------------
Component 0 (CO2)
    molecules:      2.000000e+02 molecules  (2.000000e+02 +/- 0.000000e+00)
    number density: 1.429250e-02 molec./A^3 (1.479806e-02 +/- 0.000000e+00)
    density:        1.044234e+03 kg/m^3     (1.081172e+03 +/- 0.000000e+00)

Average pressure tensor: 
-------------------------------------------------------------------------------
 9.2865e+01 -2.7820e+01 -4.1162e+01 +/- 0.0000e+00 0.0000e+00 0.0000e+00 [bar]
-2.7820e+01  1.1693e+02 -2.0185e+00 +/- 0.0000e+00 0.0000e+00 0.0000e+00 [bar]
-4.1162e+01 -2.0185e+00  7.4958e+01 +/- 0.0000e+00 0.0000e+00 0.0000e+00 [bar]
Ideal-gas pressure:   5.107738e+02 +/ 0.000000e+00 [bar]
Excess pressure:     -4.158569e+02 +/ 0.000000e+00 [bar]
Pressure:             9.491685e+01 +/ 0.000000e+00 [bar]

Total potential energy/kʙ  -3.050356e+05 (-3.106105e+05 +/- 0.000000e+00) [K]
-------------------------------------------------------------------------------
ExternalField-molecule
    Van der Waals/kʙ        0.000000e+00 ( 0.000000e+00 +/- 0.000000e+00) [K]
Framework-molecule
    Van der Waals/kʙ        0.000000e+00 ( 0.000000e+00 +/- 0.000000e+00) [K]
    Van der Waals (Tail)/kʙ 0.000000e+00 ( 0.000000e+00 +/- 0.000000e+00) [K]
    Coulombic Real/kʙ       0.000000e+00 ( 0.000000e+00 +/- 0.000000e+00) [K]
    Coulombic Fourier/kʙ    0.000000e+00 ( 0.000000e+00 +/- 0.000000e+00) [K]
Molecule-molecule
    Van der Waals/kʙ       -2.260391e+05 (-2.262272e+05 +/- 0.000000e+00) [K]
    Van der Waals (Tail)/kʙ-5.308531e+03 (-5.496184e+03 +/- 0.000000e+00) [K]
    Coulombic Real/kʙ      -6.672925e+04 (-7.220384e+04 +/- 0.000000e+00) [K]
    Coulombic Fourier/kʙ   -6.958733e+03 (-6.683254e+03 +/- 0.000000e+00) [K]
    Molecule Intra/kʙ       0.000000e+00 ( 0.000000e+00 +/- 0.000000e+00) [K]

Current cycle: 1600 out of 5000
===============================================================================

Box:      23.66606   0.00000   0.00000  Average:  23.83038   0.00000   0.00000
           0.00000  23.66606   0.00000             0.00000  23.83038   0.00000
           0.00000   0.00000  23.66606             0.00000   0.00000  23.83038
Lengths:  23.66606  23.66606  23.66606  Average:  23.83038  23.83038  23.83038
Angles:   90.00000  90.00000  90.00000  Average:  90.00000  90.00000  90.00000
Rectangular boundary conditions

net charge:   0.00000000

component 0 (CO2) lambda:  0 occupancy:  1 (1.000000)
    net charge:   0.00000000 [e]

Amount of molecules per component :
-------------------------------------------------------------------------------
Component 0 (CO2)
    molecules:      2.000000e+02 molecules  (2.000000e+02 +/- 0.000000e+00)
    number density: 1.508870e-02 molec./A^3 (1.478611e-02 +/- 0.000000e+00)
    density:        1.102406e+03 kg/m^3     (1.080298e+03 +/- 0.000000e+00)

Average pressure tensor: 
-------------------------------------------------------------------------------
 7.4194e+01 -2.4031e+01 -3.3880e+01 +/- 0.0000e+00 0.0000e+00 0.0000e+00 [bar]
-2.4031e+01  1.0247e+02  9.3816e+00 +/- 0.0000e+00 0.0000e+00 0.0000e+00 [bar]
-3.3880e+01  9.3816e+00  8.4897e+01 +/- 0.0000e+00 0.0000e+00 0.0000e+00 [bar]
Ideal-gas pressure:   5.103611e+02 +/ 0.000000e+00 [bar]
Excess pressure:     -4.231734e+02 +/ 0.000000e+00 [bar]
Pressure:             8.718774e+01 +/ 0.000000e+00 [bar]

Total potential energy/kʙ  -3.131856e+05 (-3.103580e+05 +/- 0.000000e+00) [K]
-------------------------------------------------------------------------------
ExternalField-molecule
    Van der Waals/kʙ        0.000000e+00 ( 0.000000e+00 +/- 0.000000e+00) [K]
Framework-molecule
    Van der Waals/kʙ        0.000000e+00 ( 0.000000e+00 +/- 0.000000e+00) [K]
    Van der Waals (Tail)/kʙ 0.000000e+00 ( 0.000000e+00 +/- 0.000000e+00) [K]
    Coulombic Real/kʙ       0.000000e+00 ( 0.000000e+00 +/- 0.000000e+00) [K]
    Coulombic Fourier/kʙ    0.000000e+00 ( 0.000000e+00 +/- 0.000000e+00) [K]
Molecule-molecule
    Van der Waals/kʙ       -2.295002e+05 (-2.261014e+05 +/- 0.000000e+00) [K]
    Van der Waals (Tail)/kʙ-5.604258e+03 (-5.492298e+03 +/- 0.000000e+00) [K]
    Coulombic Real/kʙ      -7.163192e+04 (-7.209184e+04 +/- 0.000000e+00) [K]
    Coulombic Fourier/kʙ   -6.449225e+03 (-6.672478e+03 +/- 0.000000e+00) [K]
    Molecule Intra/kʙ       0.000000e+00 ( 0.000000e+00 +/- 0.000000e+00) [K]

Current cycle: 1700 out of 5000
===============================================================================

Box:      23.82238   0.00000   0.00000  Average:  23.82611   0.00000   0.00000
           0.00000  23.82238   0.00000             0.00000  23.82611   0.00000
           0.00000   0.00000  23.82238             0.00000   0.00000  23.82611
Lengths:  23.82238  23.82238  23.82238  Average:  23.82611  23.82611  23.82611
Angles:   90.00000  90.00000  90.00000  Average:  90.00000  90.00000  90.00000
Rectangular boundary conditions

net charge:   0.00000000

component 0 (CO2) lambda:  0 occupancy:  1 (1.000000)
    net charge:   0.00000000 [e]

Amount of molecules per component :
-------------------------------------------------------------------------------
Component 0 (CO2)
    molecules:      2.000000e+02 molecules  (2.000000e+02 +/- 0.000000e+00)
    number density: 1.479362e-02 molec./A^3 (1.479376e-02 +/- 0.000000e+00)
    density:        1.080847e+03 kg/m^3     (1.080858e+03 +/- 0.000000e+00)

Average pressure tensor: 
-------------------------------------------------------------------------------
 7.3218e+01 -1.0396e+01 -3.4465e+01 +/- 0.0000e+00 0.0000e+00 0.0000e+00 [bar]
-1.0396e+01  9.6470e+01  5.4988e+00 +/- 0.0000e+00 0.0000e+00 0.0000e+00 [bar]
-3.4465e+01  5.4988e+00  1.0014e+02 +/- 0.0000e+00 0.0000e+00 0.0000e+00 [bar]
Ideal-gas pressure:   5.106253e+02 +/ 0.000000e+00 [bar]
Excess pressure:     -4.206811e+02 +/ 0.000000e+00 [bar]
Pressure:             8.994421e+01 +/ 0.000000e+00 [bar]

Total potential energy/kʙ  -3.018628e+05 (-3.103789e+05 +/- 0.000000e+00) [K]
-------------------------------------------------------------------------------
ExternalField-molecule
    Van der Waals/kʙ        0.000000e+00 ( 0.000000e+00 +/- 0.000000e+00) [K]
Framework-molecule
    Van der Waals/kʙ        0.000000e+00 ( 0.000000e+00 +/- 0.000000e+00) [K]
    Van der Waals (Tail)/kʙ 0.000000e+00 ( 0.000000e+00 +/- 0.000000e+00) [K]
    Coulombic Real/kʙ       0.000000e+00 ( 0.000000e+00 +/- 0.000000e+00) [K]
    Coulombic Fourier/kʙ    0.000000e+00 ( 0.000000e+00 +/- 0.000000e+00) [K]
Molecule-molecule
    Van der Waals/kʙ       -2.231685e+05 (-2.262106e+05 +/- 0.000000e+00) [K]
    Van der Waals (Tail)/kʙ-5.494657e+03 (-5.495236e+03 +/- 0.000000e+00) [K]
    Coulombic Real/kʙ      -6.699174e+04 (-7.201788e+04 +/- 0.000000e+00) [K]
    Coulombic Fourier/kʙ   -6.207934e+03 (-6.655186e+03 +/- 0.000000e+00) [K]
    Molecule Intra/kʙ       0.000000e+00 ( 0.000000e+00 +/- 0.000000e+00) [K]

Current cycle: 1800 out of 5000
===============================================================================

Box:      23.80519   0.00000   0.00000  Average:  23.82473   0.00000   0.00000
           0.00000  23.80519   0.00000             0.00000  23.82473   0.00000
           0.00000   0.00000  23.80519             0.00000   0.00000  23.82473
Lengths:  23.80519  23.80519  23.80519  Average:  23.82473  23.82473  23.82473
Angles:   90.00000  90.00000  90.00000  Average:  90.00000  90.00000  90.00000
Rectangular boundary conditions

net charge:   0.00000000

component 0 (CO2) lambda:  0 occupancy:  1 (1.000000)
    net charge:   0.00000000 [e]

Amount of molecules per component :
-------------------------------------------------------------------------------
Component 0 (CO2)
    molecules:      2.000000e+02 molecules  (2.000000e+02 +/- 0.000000e+00)
    number density: 1.482569e-02 molec./A^3 (1.479602e-02 +/- 0.000000e+00)
    density:        1.083190e+03 kg/m^3     (1.081023e+03 +/- 0.000000e+00)

Average pressure tensor: 
-------------------------------------------------------------------------------
 7.1733e+01 -3.2405e+00 -3.4187e+01 +/- 0.0000e+00 0.0000e+00 0.0000e+00 [bar]
-3.2405e+00  9.3939e+01  9.7435e+00 +/- 0.0000e+00 0.0000e+00 0.0000e+00 [bar]
-3.4187e+01  9.7435e+00  9.1934e+01 +/- 0.0000e+00 0.0000e+00 0.0000e+00 [bar]
Ideal-gas pressure:   5.107033e+02 +/ 0.000000e+00 [bar]
Excess pressure:     -4.248347e+02 +/ 0.000000e+00 [bar]
Pressure:             8.586869e+01 +/ 0.000000e+00 [bar]

Total potential energy/kʙ  -3.167764e+05 (-3.102780e+05 +/- 0.000000e+00) [K]
-------------------------------------------------------------------------------
ExternalField-molecule
    Van der Waals/kʙ        0.000000e+00 ( 0.000000e+00 +/- 0.000000e+00) [K]
Framework-molecule
    Van der Waals/kʙ        0.000000e+00 ( 0.000000e+00 +/- 0.000000e+00) [K]
    Van der Waals (Tail)/kʙ 0.000000e+00 ( 0.000000e+00 +/- 0.000000e+00) [K]
    Coulombic Real/kʙ       0.000000e+00 ( 0.000000e+00 +/- 0.000000e+00) [K]
    Coulombic Fourier/kʙ    0.000000e+00 ( 0.000000e+00 +/- 0.000000e+00) [K]
Molecule-molecule
    Van der Waals/kʙ       -2.272005e+05 (-2.262616e+05 +/- 0.000000e+00) [K]
    Van der Waals (Tail)/kʙ-5.506570e+03 (-5.495073e+03 +/- 0.000000e+00) [K]
    Coulombic Real/kʙ      -7.736571e+04 (-7.187262e+04 +/- 0.000000e+00) [K]
    Coulombic Fourier/kʙ   -6.703584e+03 (-6.648692e+03 +/- 0.000000e+00) [K]
    Molecule Intra/kʙ       0.000000e+00 ( 0.000000e+00 +/- 0.000000e+00) [K]

Current cycle: 1900 out of 5000
===============================================================================

Box:      23.89621   0.00000   0.00000  Average:  23.82799   0.00000   0.00000
           0.00000  23.89621   0.00000             0.00000  23.82799   0.00000
           0.00000   0.00000  23.89621             0.00000   0.00000  23.82799
Lengths:  23.89621  23.89621  23.89621  Average:  23.82799  23.82799  23.82799
Angles:   90.00000  90.00000  90.00000  Average:  90.00000  90.00000  90.00000
Rectangular boundary conditions

net charge:   0.00000000

component 0 (CO2) lambda:  0 occupancy:  1 (1.000000)
    net charge:   0.00000000 [e]

Amount of molecules per component :
-------------------------------------------------------------------------------
Component 0 (CO2)
    molecules:      2.000000e+02 molecules  (2.000000e+02 +/- 0.000000e+00)
    number density: 1.465692e-02 molec./A^3 (1.478974e-02 +/- 0.000000e+00)
    density:        1.070860e+03 kg/m^3     (1.080563e+03 +/- 0.000000e+00)

Average pressure tensor: 
-------------------------------------------------------------------------------
 7.1894e+01  7.1002e+00 -4.0234e+01 +/- 0.0000e+00 0.0000e+00 0.0000e+00 [bar]
 7.1002e+00  9.3017e+01  8.2229e+00 +/- 0.0000e+00 0.0000e+00 0.0000e+00 [bar]
-4.0234e+01  8.2229e+00  9.1324e+01 +/- 0.0000e+00 0.0000e+00 0.0000e+00 [bar]
Ideal-gas pressure:   5.104863e+02 +/ 0.000000e+00 [bar]
Excess pressure:     -4.250746e+02 +/ 0.000000e+00 [bar]
Pressure:             8.541171e+01 +/ 0.000000e+00 [bar]

Total potential energy/kʙ  -3.078038e+05 (-3.101202e+05 +/- 0.000000e+00) [K]
-------------------------------------------------------------------------------
ExternalField-molecule
    Van der Waals/kʙ        0.000000e+00 ( 0.000000e+00 +/- 0.000000e+00) [K]
Framework-molecule
    Van der Waals/kʙ        0.000000e+00 ( 0.000000e+00 +/- 0.000000e+00) [K]
    Van der Waals (Tail)/kʙ 0.000000e+00 ( 0.000000e+00 +/- 0.000000e+00) [K]
    Coulombic Real/kʙ       0.000000e+00 ( 0.000000e+00 +/- 0.000000e+00) [K]
    Coulombic Fourier/kʙ    0.000000e+00 ( 0.000000e+00 +/- 0.000000e+00) [K]
Molecule-molecule
    Van der Waals/kʙ       -2.241697e+05 (-2.261158e+05 +/- 0.000000e+00) [K]
    Van der Waals (Tail)/kʙ-5.443884e+03 (-5.492558e+03 +/- 0.000000e+00) [K]
    Coulombic Real/kʙ      -7.133262e+04 (-7.184819e+04 +/- 0.000000e+00) [K]
    Coulombic Fourier/kʙ   -6.857652e+03 (-6.663682e+03 +/- 0.000000e+00) [K]
    Molecule Intra/kʙ       0.000000e+00 ( 0.000000e+00 +/- 0.000000e+00) [K]

Current cycle: 2000 out of 5000
===============================================================================

Box:      23.49760   0.00000   0.00000  Average:  23.82422   0.00000   0.00000
           0.00000  23.49760   0.00000             0.00000  23.82422   0.00000
           0.00000   0.00000  23.49760             0.00000   0.00000  23.82422
Lengths:  23.49760  23.49760  23.49760  Average:  23.82422  23.82422  23.82422
Angles:   90.00000  90.00000  90.00000  Average:  90.00000  90.00000  90.00000
Rectangular boundary conditions

net charge:   0.00000000

component 0 (CO2) lambda:  0 occupancy:  1 (1.000000)
    net charge:   0.00000000 [e]

Amount of molecules per component :
-------------------------------------------------------------------------------
Component 0 (CO2)
    molecules:      2.000000e+02 molecules  (2.000000e+02 +/- 0.000000e+00)
    number density: 1.541557e-02 molec./A^3 (1.479655e-02 +/- 0.000000e+00)
    density:        1.126288e+03 kg/m^3     (1.081061e+03 +/- 0.000000e+00)

Average pressure tensor: 
-------------------------------------------------------------------------------
 6.5429e+01  7.4049e+00 -4.3174e+01 +/- 0.0000e+00 0.0000e+00 0.0000e+00 [bar]
 7.4049e+00  8.1830e+01 -2.7804e+00 +/- 0.0000e+00 0.0000e+00 0.0000e+00 [bar]
-4.3174e+01 -2.7804e+00  9.2174e+01 +/- 0.0000e+00 0.0000e+00 0.0000e+00 [bar]
Ideal-gas pressure:   5.107216e+02 +/ 0.000000e+00 [bar]
Excess pressure:     -4.309105e+02 +/ 0.000000e+00 [bar]
Pressure:             7.981104e+01 +/ 0.000000e+00 [bar]

Total potential energy/kʙ  -3.207962e+05 (-3.104871e+05 +/- 0.000000e+00) [K]
-------------------------------------------------------------------------------
ExternalField-molecule
    Van der Waals/kʙ        0.000000e+00 ( 0.000000e+00 +/- 0.000000e+00) [K]
Framework-molecule
    Van der Waals/kʙ        0.000000e+00 ( 0.000000e+00 +/- 0.000000e+00) [K]
    Van der Waals (Tail)/kʙ 0.000000e+00 ( 0.000000e+00 +/- 0.000000e+00) [K]
    Coulombic Real/kʙ       0.000000e+00 ( 0.000000e+00 +/- 0.000000e+00) [K]
    Coulombic Fourier/kʙ    0.000000e+00 ( 0.000000e+00 +/- 0.000000e+00) [K]
Molecule-molecule
    Van der Waals/kʙ       -2.349943e+05 (-2.263240e+05 +/- 0.000000e+00) [K]
    Van der Waals (Tail)/kʙ-5.725664e+03 (-5.496104e+03 +/- 0.000000e+00) [K]
    Coulombic Real/kʙ      -7.369235e+04 (-7.201355e+04 +/- 0.000000e+00) [K]
    Coulombic Fourier/kʙ   -6.383900e+03 (-6.653391e+03 +/- 0.000000e+00) [K]
    Molecule Intra/kʙ       0.000000e+00 ( 0.000000e+00 +/- 0.000000e+00) [K]

Current cycle: 2100 out of 5000
===============================================================================

Box:      23.71414   0.00000   0.00000  Average:  23.81832   0.00000   0.00000
           0.00000  23.71414   0.00000             0.00000  23.81832   0.00000
           0.00000   0.00000  23.71414             0.00000   0.00000  23.81832
Lengths:  23.71414  23.71414  23.71414  Average:  23.81832  23.81832  23.81832
Angles:   90.00000  90.00000  90.00000  Average:  90.00000  90.00000  90.00000
Rectangular boundary conditions

net charge:   0.00000000

component 0 (CO2) lambda:  0 occupancy:  1 (1.000000)
    net charge:   0.00000000 [e]

Amount of molecules per component :
-------------------------------------------------------------------------------
Component 0 (CO2)
    molecules:      2.000000e+02 molecules  (2.000000e+02 +/- 0.000000e+00)
    number density: 1.499712e-02 molec./A^3 (1.480745e-02 +/- 0.000000e+00)
    density:        1.095716e+03 kg/m^3     (1.081858e+03 +/- 0.000000e+00)

Average pressure tensor: 
-------------------------------------------------------------------------------
 6.6490e+01  5.8364e+00 -4.6816e+01 +/- 0.0000e+00 0.0000e+00 0.0000e+00 [bar]
 5.8364e+00  8.1445e+01 -3.4745e+00 +/- 0.0000e+00 0.0000e+00 0.0000e+00 [bar]
-4.6816e+01 -3.4745e+00  9.9501e+01 +/- 0.0000e+00 0.0000e+00 0.0000e+00 [bar]
Ideal-gas pressure:   5.110977e+02 +/ 0.000000e+00 [bar]
Excess pressure:     -4.286188e+02 +/ 0.000000e+00 [bar]
Pressure:             8.247890e+01 +/ 0.000000e+00 [bar]

Total potential energy/kʙ  -3.226072e+05 (-3.107709e+05 +/- 0.000000e+00) [K]
-------------------------------------------------------------------------------
ExternalField-molecule
    Van der Waals/kʙ        0.000000e+00 ( 0.000000e+00 +/- 0.000000e+00) [K]
Framework-molecule
    Van der Waals/kʙ        0.000000e+00 ( 0.000000e+00 +/- 0.000000e+00) [K]
    Van der Waals (Tail)/kʙ 0.000000e+00 ( 0.000000e+00 +/- 0.000000e+00) [K]
[...]
    Coulombic Fourier/kʙ    0.000000e+00 ( 0.000000e+00 +/- 0.000000e+00) [K]
Molecule-molecule
    Van der Waals/kʙ       -2.209928e+05 (-2.244446e+05 +/- 4.130693e+03) [K]
    Van der Waals (Tail)/kʙ-5.313611e+03 (-5.454258e+03 +/- 9.691222e+01) [K]
    Coulombic Real/kʙ      -6.000760e+04 (-7.181918e+04 +/- 1.938867e+03) [K]
    Coulombic Fourier/kʙ   -6.553247e+03 (-6.751935e+03 +/- 1.472359e+02) [K]
    Molecule Intra/kʙ       0.000000e+00 ( 0.000000e+00 +/- 0.000000e+00) [K]

Current cycle: 4700 out of 5000
===============================================================================

Box:      24.04967   0.00000   0.00000  Average:  23.88709   0.00000   0.00000
           0.00000  24.04967   0.00000             0.00000  23.88709   0.00000
           0.00000   0.00000  24.04967             0.00000   0.00000  23.88709
Lengths:  24.04967  24.04967  24.04967  Average:  23.88709  23.88709  23.88709
Angles:   90.00000  90.00000  90.00000  Average:  90.00000  90.00000  90.00000
Rectangular boundary conditions

net charge:   0.00000000

component 0 (CO2) lambda:  0 occupancy:  1 (1.000000)
    net charge:   0.00000000 [e]

Amount of molecules per component :
-------------------------------------------------------------------------------
Component 0 (CO2)
    molecules:      2.000000e+02 molecules  (2.000000e+02 +/- 0.000000e+00)
    number density: 1.437814e-02 molec./A^3 (1.468000e-02 +/- 2.661899e-04)
    density:        1.050491e+03 kg/m^3     (1.072546e+03 +/- 1.944829e+01)

Average pressure tensor: 
-------------------------------------------------------------------------------
 7.0649e+01 -1.6524e+01 -7.5323e+00 +/- 2.9534e+01 5.1197e+01 4.9199e+01 [bar]
-1.6524e+01  3.8679e+01  4.3949e+00 +/- 5.1197e+01 9.0626e+01 5.6527e+01 [bar]
-7.5323e+00  4.3949e+00  8.7003e+01 +/- 4.9199e+01 5.6527e+01 5.5387e+01 [bar]
Ideal-gas pressure:   5.066986e+02 +/ 9.187881e+00 [bar]
Excess pressure:     -4.412551e+02 +/ 3.273562e+01 [bar]
Pressure:             6.544354e+01 +/ 3.167685e+01 [bar]

Total potential energy/kʙ  -2.970009e+05 (-3.081863e+05 +/- 6.275739e+03) [K]
-------------------------------------------------------------------------------
ExternalField-molecule
    Van der Waals/kʙ        0.000000e+00 ( 0.000000e+00 +/- 0.000000e+00) [K]
Framework-molecule
    Van der Waals/kʙ        0.000000e+00 ( 0.000000e+00 +/- 0.000000e+00) [K]
    Van der Waals (Tail)/kʙ 0.000000e+00 ( 0.000000e+00 +/- 0.000000e+00) [K]
    Coulombic Real/kʙ       0.000000e+00 ( 0.000000e+00 +/- 0.000000e+00) [K]
    Coulombic Fourier/kʙ    0.000000e+00 ( 0.000000e+00 +/- 0.000000e+00) [K]
Molecule-molecule
    Van der Waals/kʙ       -2.223765e+05 (-2.242996e+05 +/- 4.220196e+03) [K]
    Van der Waals (Tail)/kʙ-5.340339e+03 (-5.450951e+03 +/- 9.814061e+01) [K]
    Coulombic Real/kʙ      -6.340516e+04 (-7.169158e+04 +/- 2.166568e+03) [K]
    Coulombic Fourier/kʙ   -5.878872e+03 (-6.744151e+03 +/- 1.566867e+02) [K]
    Molecule Intra/kʙ       0.000000e+00 ( 0.000000e+00 +/- 0.000000e+00) [K]

Current cycle: 4800 out of 5000
===============================================================================

Box:      24.13910   0.00000   0.00000  Average:  23.89163   0.00000   0.00000
           0.00000  24.13910   0.00000             0.00000  23.89163   0.00000
           0.00000   0.00000  24.13910             0.00000   0.00000  23.89163
Lengths:  24.13910  24.13910  24.13910  Average:  23.89163  23.89163  23.89163
Angles:   90.00000  90.00000  90.00000  Average:  90.00000  90.00000  90.00000
Rectangular boundary conditions

net charge:   0.00000000

component 0 (CO2) lambda:  0 occupancy:  1 (1.000000)
    net charge:   0.00000000 [e]

Amount of molecules per component :
-------------------------------------------------------------------------------
Component 0 (CO2)
    molecules:      2.000000e+02 molecules  (2.000000e+02 +/- 0.000000e+00)
    number density: 1.421893e-02 molec./A^3 (1.467168e-02 +/- 2.678481e-04)
    density:        1.038860e+03 kg/m^3     (1.071938e+03 +/- 1.956944e+01)

Average pressure tensor: 
-------------------------------------------------------------------------------
 7.2431e+01 -1.5736e+01 -1.0250e+01 +/- 3.1786e+01 5.1017e+01 4.5454e+01 [bar]
-1.5736e+01  3.5779e+01  4.9996e+00 +/- 5.1017e+01 9.0950e+01 5.0836e+01 [bar]
-1.0250e+01  4.9996e+00  8.9663e+01 +/- 4.5454e+01 5.0836e+01 4.6622e+01 [bar]
Ideal-gas pressure:   5.064115e+02 +/ 9.245113e+00 [bar]
Excess pressure:     -4.404537e+02 +/ 3.282288e+01 [bar]
Pressure:             6.595780e+01 +/ 3.108046e+01 [bar]

Total potential energy/kʙ  -2.953520e+05 (-3.079362e+05 +/- 6.474679e+03) [K]
-------------------------------------------------------------------------------
ExternalField-molecule
    Van der Waals/kʙ        0.000000e+00 ( 0.000000e+00 +/- 0.000000e+00) [K]
Framework-molecule
    Van der Waals/kʙ        0.000000e+00 ( 0.000000e+00 +/- 0.000000e+00) [K]
    Van der Waals (Tail)/kʙ 0.000000e+00 ( 0.000000e+00 +/- 0.000000e+00) [K]
    Coulombic Real/kʙ       0.000000e+00 ( 0.000000e+00 +/- 0.000000e+00) [K]
    Coulombic Fourier/kʙ    0.000000e+00 ( 0.000000e+00 +/- 0.000000e+00) [K]
Molecule-molecule
    Van der Waals/kʙ       -2.165701e+05 (-2.241735e+05 +/- 4.253848e+03) [K]
    Van der Waals (Tail)/kʙ-5.281208e+03 (-5.448058e+03 +/- 9.829112e+01) [K]
    Coulombic Real/kʙ      -6.704919e+04 (-7.158098e+04 +/- 2.306786e+03) [K]
    Coulombic Fourier/kʙ   -6.451478e+03 (-6.733670e+03 +/- 1.711001e+02) [K]
    Molecule Intra/kʙ       0.000000e+00 ( 0.000000e+00 +/- 0.000000e+00) [K]

Current cycle: 4900 out of 5000
===============================================================================

Box:      24.15933   0.00000   0.00000  Average:  23.89907   0.00000   0.00000
           0.00000  24.15933   0.00000             0.00000  23.89907   0.00000
           0.00000   0.00000  24.15933             0.00000   0.00000  23.89907
Lengths:  24.15933  24.15933  24.15933  Average:  23.89907  23.89907  23.89907
Angles:   90.00000  90.00000  90.00000  Average:  90.00000  90.00000  90.00000
Rectangular boundary conditions

net charge:   0.00000000

component 0 (CO2) lambda:  0 occupancy:  1 (1.000000)
    net charge:   0.00000000 [e]

Amount of molecules per component :
-------------------------------------------------------------------------------
Component 0 (CO2)
    molecules:      2.000000e+02 molecules  (2.000000e+02 +/- 0.000000e+00)
    number density: 1.418324e-02 molec./A^3 (1.465828e-02 +/- 2.839470e-04)
    density:        1.036252e+03 kg/m^3     (1.070959e+03 +/- 2.074566e+01)

Average pressure tensor: 
-------------------------------------------------------------------------------
 6.9247e+01 -1.5960e+01 -1.0827e+01 +/- 2.7227e+01 4.9423e+01 4.4952e+01 [bar]
-1.5960e+01  3.5972e+01  2.9481e+00 +/- 4.9423e+01 9.0844e+01 5.2774e+01 [bar]
-1.0827e+01  2.9481e+00  8.9408e+01 +/- 4.4952e+01 5.2774e+01 4.5618e+01 [bar]
Ideal-gas pressure:   5.059488e+02 +/ 9.800789e+00 [bar]
Excess pressure:     -4.410734e+02 +/ 3.273572e+01 [bar]
Pressure:             6.487542e+01 +/ 3.169860e+01 [bar]

Total potential energy/kʙ  -2.930475e+05 (-3.076095e+05 +/- 6.869356e+03) [K]
-------------------------------------------------------------------------------
ExternalField-molecule
    Van der Waals/kʙ        0.000000e+00 ( 0.000000e+00 +/- 0.000000e+00) [K]
Framework-molecule
    Van der Waals/kʙ        0.000000e+00 ( 0.000000e+00 +/- 0.000000e+00) [K]
    Van der Waals (Tail)/kʙ 0.000000e+00 ( 0.000000e+00 +/- 0.000000e+00) [K]
    Coulombic Real/kʙ       0.000000e+00 ( 0.000000e+00 +/- 0.000000e+00) [K]
    Coulombic Fourier/kʙ    0.000000e+00 ( 0.000000e+00 +/- 0.000000e+00) [K]
Molecule-molecule
    Van der Waals/kʙ       -2.097923e+05 (-2.239425e+05 +/- 4.558780e+03) [K]
    Van der Waals (Tail)/kʙ-5.267951e+03 (-5.443068e+03 +/- 1.043797e+02) [K]
    Coulombic Real/kʙ      -7.154782e+04 (-7.149199e+04 +/- 2.372165e+03) [K]
    Coulombic Fourier/kʙ   -6.439458e+03 (-6.731897e+03 +/- 1.685420e+02) [K]
    Molecule Intra/kʙ       0.000000e+00 ( 0.000000e+00 +/- 0.000000e+00) [K]


Energy statistics             |  Energy [K]   | Recomputed [K]|  Drift [K]    |
===============================================================================
Total potential energy/kʙ     | -3.096411e+05 | -3.096411e+05 |  1.401249e-09 |
    external field VDW/kʙ     |  0.000000e+00 |  0.000000e+00 |  0.000000e+00 |
    external field Real/kʙ    |  0.000000e+00 |  0.000000e+00 |  0.000000e+00 |
    framework-molecule VDW/kʙ |  0.000000e+00 |  0.000000e+00 |  0.000000e+00 |
    framework-molecule Real/kʙ|  0.000000e+00 |  0.000000e+00 |  0.000000e+00 |
    molecule-molecule VDW/kʙ  | -2.285811e+05 | -2.285811e+05 |  8.050893e-10 |
    molecule-molecule Real/kʙ | -6.911542e+04 | -6.911542e+04 |  6.038170e-10 |
    Van der Waals (Tail)/kʙ   | -5.450142e+03 | -5.450142e+03 |  0.000000e+00 |
    Ewald Fourier/kʙ          |  5.266731e+03 |  5.266731e+03 | -7.657100e-12 |
    Ewald self/kʙ             | -3.673356e+06 | -3.673356e+06 |  0.000000e+00 |
    Ewald exclusion/kʙ        |  3.661595e+06 |  3.661595e+06 |  0.000000e+00 |
    intra VDW/kʙ              |  0.000000e+00 |  0.000000e+00 |  0.000000e+00 |
    intra Coulombic/kʙ        |  0.000000e+00 |  0.000000e+00 |  0.000000e+00 |
    polarization/kʙ           |  0.000000e+00 |  0.000000e+00 |  0.000000e+00 |
    dU/dlambda VDW/kʙ         |  0.000000e+00 |  0.000000e+00 |  0.000000e+00 |
    dU/dlambda Real/kʙ        |  0.000000e+00 |  0.000000e+00 |  0.000000e+00 |
    dU/dlambda Ewald/kʙ       |  0.000000e+00 |  0.000000e+00 |  0.000000e+00 |
-------------------------------------------------------------------------------


Monte-Carlo moves statistics
===============================================================================

    Volume change        all:                6633
    Volume change        total:              6633
    Volume change        constructed:        6633
    Volume change        accepted:           2890
    Volume change        fraction:       0.435700
    Volume change        max-change:     0.033333

Component 0 [CO2]
    Reinsertion (CBMC)   all:              331636
    Reinsertion (CBMC)   total:            331636
    Reinsertion (CBMC)   constructed:      292101
    Reinsertion (CBMC)   accepted:           3928
    Reinsertion (CBMC)   fraction:       0.011844
    Reinsertion (CBMC)   max-change:     0.000000

    Translation          all:              330375
    Translation          total:            110070     110323     109982
    Translation          constructed:      110070     110322     109948
    Translation          accepted:          50210      47211      40123
    Translation          fraction:       0.456164   0.427934   0.364814
    Translation          max-change:     0.750000   0.833333   1.001318

    Rotation             all:              331356
    Rotation             total:            110344     110279     110733
    Rotation             constructed:      110344     110279     110732
    Rotation             accepted:          61322      57886      49129
    Rotation             fraction:       0.555735   0.524905   0.443671
    Rotation             max-change:     0.576132   0.625000   0.827586



Production run counting of the MC moves summed over systems and components
===============================================================================

Volume change                          6633 (0.6633 [%])
Reinsertion (CBMC)                   331636 (33.1636 [%])
Translation                          330375 (33.0375 [%])
Rotation                             331356 (33.1356 [%])

Production count MC-steps:          1000000 [-]
               All summed:          1000000 [-]
               difference:                0 [-]


Production run CPU timings of the MC moves
===============================================================================

Component 0 CO2

Rotation                             46.675837 [s]
    Ewald                            13.228643 [s]
    ExternalField-Molecule            0.010143 [s]
    Framework-Molecule                0.011330 [s]
    Molecule-Molecule                32.227499 [s]
    Overhead                          1.198222 [s]

Reinsertion (CBMC)                  222.683628 [s]
    Ewald                            11.789550 [s]
    NonEwald                        210.576745 [s]
    Overhead                          0.317333 [s]

Translation                          46.516850 [s]
    Ewald                            13.253048 [s]
    ExternalField-Molecule            0.010070 [s]
    Framework-Molecule                0.017002 [s]
    Molecule-Molecule                32.219153 [s]
    Overhead                          1.017577 [s]



Volume change                         46.666384 [s]
    Ewald                              9.419040 [s]
    NonEwald                          35.796457 [s]
    Tail                               1.233501 [s]

Property sampling                     0.285942 [s]
Energy/pressure sampling:             6.341300 [s]


Production run CPU timings of the MC moves summed over systems and components
===============================================================================


Translation                          46.516850 [s]
    Ewald                            13.253048 [s]
    ExternalField-Molecule            0.010070 [s]
    Framework-Molecule                0.017002 [s]
    Molecule-Molecule                32.219153 [s]
    Overhead                          1.017577 [s]

Rotation                             46.675837 [s]
    Ewald                            13.228643 [s]
    ExternalField-Molecule            0.010143 [s]
    Framework-Molecule                0.011330 [s]
    Molecule-Molecule                32.227499 [s]
    Overhead                          1.198222 [s]

Volume change                        46.666384 [s]
    Ewald                             9.419040 [s]
    NonEwald                         35.796457 [s]
    Tail                              1.233501 [s]
    Overhead                          0.217386 [s]

Reinsertion (CBMC)                  222.683628 [s]
    Ewald                            11.789550 [s]
    NonEwald                        210.576745 [s]
    Overhead                          0.317333 [s]

Property sampling:                    0.285942 [s]
Energy/pressure sampling:             6.341300 [s]

Production simulation time:         369.884953 [s]
                All summed:         369.169941 [s]
                  Overhead:           0.715012 [s]


Initalization simulation time:       70.869155 [s]
Equilibration simulation time:        0.000000 [s]
Production simulation time:         369.884953 [s]
Total simulation time:              440.754108 [s]


Energy averages and statistics:
===============================================================================

Framework-molecule energy:
-------------------------------------------------------------------------------



Framework-molecule energy contributions per energy type:
-------------------------------------------------------------------------------



Inter-molecular energy:
-------------------------------------------------------------------------------

    Inter-molecular energy/kʙ 0-0 [CO2-CO2]:
    ---------------------------------------------------------------------------
        Block[  0] -3.085898e+05
        Block[  1] -3.122813e+05
        Block[  2] -3.115225e+05
        Block[  3] -3.063202e+05
        Block[  4] -2.986034e+05
        -----------------------------------------------------------------------
        Average  -3.074634e+05 +/-  6.821406e+03 [K]



Inter-molecular energy contributions per energy type:
-------------------------------------------------------------------------------

    Van der Waals energy/kʙ 0-0 [CO2-CO2]:
    ---------------------------------------------------------------------------
        Block[  0] -2.244687e+05
        Block[  1] -2.280927e+05
        Block[  2] -2.256414e+05
        Block[  3] -2.227194e+05
        Block[  4] -2.183539e+05
        -----------------------------------------------------------------------
        Average  -2.238552e+05 +/-  4.522316e+03 [K]

    VDW Tail-Correction energy/kʙ 0-0 [CO2-CO2]:
    ---------------------------------------------------------------------------
        Block[  0] -5.460800e+03
        Block[  1] -5.529113e+03
        Block[  2] -5.481597e+03
        Block[  3] -5.425406e+03
        Block[  4] -5.305514e+03
        -----------------------------------------------------------------------
        Average  -5.440486e+03 +/-  1.046120e+02 [K]

    Coulomb Real energy/kʙ 0-0 [CO2-CO2]:
    ---------------------------------------------------------------------------
        Block[  0] -7.200119e+04
        Block[  1] -7.200913e+04
        Block[  2] -7.351994e+04
        Block[  3] -7.130529e+04
        Block[  4] -6.836463e+04
        -----------------------------------------------------------------------
        Average  -7.144004e+04 +/-  2.358868e+03 [K]

    Coulomb Fourier energy/kʙ 0-0 [CO2-CO2]:
    ---------------------------------------------------------------------------
        Block[  0] -6.659087e+03
        Block[  1] -6.650391e+03
        Block[  2] -6.879517e+03
        Block[  3] -6.870106e+03
        Block[  4] -6.579337e+03
        -----------------------------------------------------------------------
        Average  -6.727688e+03 +/-  1.711511e+02 [K]


Total energy/kʙ
-------------------------------------------------------------------------------
    Block[  0] -3.085898e+05
    Block[  1] -3.122813e+05
    Block[  2] -3.115225e+05
    Block[  3] -3.063202e+05
    Block[  4] -2.986034e+05
    ---------------------------------------------------------------------------
    Average  -3.074634e+05 +/-  6.821406e+03 [K]

Pressure averages and statistics:
===============================================================================

Average pressure tensor: 
-------------------------------------------------------------------------------
 7.0905e+01 -1.6816e+01 -8.7410e+00 +/- 2.8449e+01 4.7543e+01 4.6067e+01 [bar]
-1.6816e+01  3.4204e+01  1.9669e+00 +/- 4.7543e+01 9.1265e+01 5.2239e+01 [bar]
-8.7410e+00  1.9669e+00  8.6966e+01 +/- 4.6067e+01 5.2239e+01 4.8385e+01 [bar]

    Block[  0]  5.073996e+07
    Block[  1]  5.140222e+07
    Block[  2]  5.095602e+07
    Block[  3]  5.044466e+07
    Block[  4]  4.931720e+07
    ---------------------------------------------------------------------------
    Ideal gas pressure   5.057201e+07 +/-  5.857881e-02 [Pa]
                         5.057201e+02 +/-  9.727247e+00 [bar]


    Block[  0] -3.999338e+07
    Block[  1] -4.617742e+07
    Block[  2] -4.663752e+07
    Block[  3] -4.366191e+07
    Block[  4] -4.437740e+07
    ---------------------------------------------------------------------------
    Excess pressure  -4.416953e+07 +/-  3.276603e+06 [Pa]
                     -4.416953e+02 +/-  3.276603e+01 [bar]


    Block[  0]  1.074658e+07
    Block[  1]  5.224793e+06
    Block[  2]  4.318502e+06
    Block[  3]  6.782757e+06
    Block[  4]  4.939806e+06
    ---------------------------------------------------------------------------
    Pressure average   6.402487e+06 +/-  3.218551e+06 [Pa]
                       6.402487e+01 +/-  3.218551e+01 [bar]


Enthalpy of adsorption
===============================================================================

No fluctuating components present.


Densities
===============================================================================

Component 0 (CO2)
    Block[  0] 200
    Block[  1] 200
    Block[  2] 200
    Block[  3] 200
    Block[  4] 200
    -----------------------------------------------------------------------
    Density average   2.000000e+02 +/-  0.000000e+00 [molecules]
    Density average   1.465165e-02 +/-  2.818164e-04 [molec/A^3]
    Density average   1.070475e+03 +/-  2.058999e+01 [kg.m⁻³]

