Compiler and run-time data
===============================================================================
RASPA 3.0.4

Random seed: 3525283930

Compiled as a 64-bits application
Compiler: gcc Ubuntu Clang 18.1.3 (1ubuntu1)
Compile Date = Mar 15 2025, Compile Time = 19:39:45

2025-06-03 10:59:44.540989
Simulation started on Tue, Jun 03
The start time was 10:59:00

Hostname:    c109
OS type:     Linux on x86_64
OS release:  6.8.0-58-generic
OS version:  #60-Ubuntu SMP PREEMPT_DYNAMIC Fri Mar 14 18:29:48 UTC 2025


Mutual consistent basic set of units:
===============================================================================

Unit of temperature: 1 [K]
Unit of length:      1e-10 [m]
Unit of time:        1e-12 [s]
Unit of mass:        1.6605402e-27 [kg]
Unit of charge:      1.60217733e-19 [C/particle]


Boltzmann constant (internal units):          0.8314464919307584 [-]
represents conversion from energy (internal units) to temperature (in Kelvin)

Derived units and their conversion factors:
===============================================================================

Unit of energy:                           1.6605402000000002e-23 [J]
Unit of energy:                           10.000008872307538 [J.mol⁻¹]
Unit of velocity:                         100 [m.s⁻¹]
Unit of force:                            1.6605402000000002e-13 [N]
Unit of diffusion:                        1.0000000000000002e-08 [m².s⁻¹]
Unit of acceleration:                     1.0000000000000002e-08 [m².s⁻¹]
Unit of torque:                           1.6605402000000002e-23 [N.m]
Unit of pressure:                         16605402 [Pa]
Unit of volume:                           1e-30 [m³]
Unit of density:                          1660.5402 [kg.m⁻³]
Unit of dynamic viscosity:                1.6605401999999997e-05 [N.s.m⁻²]
Unit of enthalpy:                         1.6605402000000002e-23 [J]
Unit of polarizability:                   1.5458657349975198e-35 [-]
Unit of Coulomb potential:                167101.08000665612 [K]
Unit of dielectric constant:              1.5458657349975193e-05 [s².C².kg⁻¹.m⁻³]
Unit of dipole moment:                    1.60217733e-29 [C.m]
Unit of Debye:                            4.803206799099162 [C.m]
Unit of electric potential:               0.00010364272224473431 [V]
Unit of electric field:                   1036427.222447343 [V.m⁻¹]
Unit of isothermal compressibility:       6.02213665167516e-08 [Pa⁻¹]
Unit of heat capacity:                    10.000008872307538 [J.mol⁻¹.K⁻¹]
Unit of volumetric expansion coefficient: 1 [K⁻¹]


Internal conversion factors:
===============================================================================

Energy (internal units) to Kelvin:      1.202724284692786 [-]
Kelvin to energy (internal units):      0.8314457542157567 [-]


System definitions
===============================================================================

Temperature:          250 [K]
Beta:                 0.0048108928702210625 [-]
Pressure:             0 [Pa]
Helium void fraction: 1 [-]

Box:      30.00000   0.00000   0.00000
           0.00000  30.00000   0.00000
           0.00000   0.00000  30.00000
Lengths:  30.00000  30.00000  30.00000
Angles:   90.00000  90.00000  90.00000
Rectangular boundary conditions



Property measurement settings
===============================================================================




Pseudo-atoms
===============================================================================

  0 - C_co2    framework-atom: false
  1 - O_co2    framework-atom: false

  0 - C_co2    mass: 12.00000, charge:  0.70000
  1 - O_co2    mass: 15.99940, charge: -0.35000

  0 - C_co2    polarizability:  0.00000
  1 - O_co2    polarizability:  0.00000

  0 - J. J. Potoff et al., AIChE J. 2001, 47, 1676–1682.
  1 - J. J. Potoff et al., AIChE J. 2001, 47, 1676–1682.

Force field status
===============================================================================

Cutoff Framework-Molecule VDW:  12.00000 [Å]
Cutoff Molecule-Molecule VDW:   12.00000 [Å]
Cutoff Coulomb:                 12.00000 [Å]

Overlap-criteria VDW:           1.000000e+05 [K]

C_co2    - C_co2    Lennard-Jones p₀/kʙ:  27.00000 [K], p₁:  2.80000 [Å]
                                  shift:   0.00000 [K], tailcorrections: true
C_co2    - O_co2    Lennard-Jones p₀/kʙ:  46.18441 [K], p₁:  2.92500 [Å]
                                  shift:   0.00000 [K], tailcorrections: true
O_co2    - O_co2    Lennard-Jones p₀/kʙ:  79.00000 [K], p₁:  3.05000 [Å]
                                  shift:   0.00000 [K], tailcorrections: true

Ewald precision: 1e-06
Ewald alpha: 0.26505830360350674
Ewald k-vectors: 8 8 8


Component definitions
===============================================================================

Component 0 [CO2]

    Type: Adsorbate

    Critical temperature:  304.1282 [K]
    Critical pressure:     7377300 [Pa]
    Acentric factor:       0.22394 [-]

    Mol-fraction:                 1 [-]
    Swappable:                   true

    Mass:                         43.9988 [-]
    Fugacity coefficient:         -nan [-]
    Bulk fluid density:           0 [-]
    Compressibility:              1 [-]
    Excess molecules:             0 [-]

    Number Of Atoms:    3
    CBMC starting bead: 0
      0: O_co2  position  0.00000 -0.00000  1.16000, charge -0.35000
      1: C_co2  position  0.00000 -0.00000  0.00000, charge  0.70000
      2: O_co2  position  0.00000 -0.00000 -1.16000, charge -0.35000
    Diagonalized inertia-vector:      43.05758528 43.05758528 0.00000000
    Translational degrees of freedom: 3
    Rotational degrees of freedom:    2
    Shape of the molecule is: 'Linear'
    Net-charge:        0.00000000 [e]

    Move probabilities:
    Translation:                   0.199203 [-]
    Random translation:            0.000000 [-]
    Rotation:                      0.199203 [-]
    Random rotation:               0.000000 [-]
    Volume change:                 0.000000 [-]
    Reinsertion (CBMC):            0.199203 [-]
    Identity change (CBMC):        0.000000 [-]
    Swap:                          0.000000 [-]
    Swap (CBMC):                   0.000000 [-]
    Swap (CFCMC):                  0.000000 [-]
    Swap (CB/CFCMC):               0.000000 [-]
    Gibbs volume:                  0.003984 [-]
    Gibbs swap (CBMC):             0.398406 [-]
    Gibbs swap (CFCMC):            0.000000 [-]
    Widom:                         0.000000 [-]
    Widom (CFCMC):                 0.000000 [-]
    Widom (CB/CFCMC):              0.000000 [-]
    Parallel tempering:            0.000000 [-]
    Hybrid MC:                     0.000000 [-]

    number of blocking-pockets: 0

    number of bonds: 0





Number of pseudo-atoms
===============================================================================

Component   0 (CO2)
-------------------------------------------------------------------------------
    index   0 (C_co2): 210 atoms
    index   1 (O_co2): 420 atoms

Total number of pseudo-atoms:
-------------------------------------------------------------------------------
    index   0 (C_co2): 210 atoms
    index   1 (O_co2): 420 atoms




Energy status Recomputed from scratch
===============================================================================

Total potential energy/kʙ       -7.171709e+04 [K]
    external field VDW/kʙ        0.000000e+00 [K]
    external field Real/kʙ       0.000000e+00 [K]
    framework-molecule VDW/kʙ    0.000000e+00 [K]
    framework-molecule Real/kʙ   0.000000e+00 [K]
    molecule-molecule VDW/kʙ    -4.699526e+04 [K]
    molecule-molecule Real/kʙ   -2.079629e+04 [K]
    Van der Waals (Tail)/kʙ     -3.033270e+03 [K]
    Ewald Fourier/kʙ             1.145691e+04 [K]
    Ewald self/kʙ               -3.857024e+06 [K]
    Ewald exclusion/kʙ           3.844675e+06 [K]
    intra VDW/kʙ                 0.000000e+00 [K]
    intra Coulombic/kʙ           0.000000e+00 [K]
    polarization/kʙ              0.000000e+00 [K]
    dU/dlambda VDW/kʙ            0.000000e+00 [K]
    dU/dlambda Real/kʙ           0.000000e+00 [K]
    dU/dlambda Ewald/kʙ          0.000000e+00 [K]





Initialization: Current cycle: 0 out of 2000
===============================================================================

Box:      30.47429   0.00000   0.00000
           0.00000  30.47429   0.00000
           0.00000   0.00000  30.47429
Lengths:  30.47429  30.47429  30.47429
Angles:   90.00000  90.00000  90.00000
Rectangular boundary conditions

net charge:   0.00000000

component   0 (CO2) lambda:  0 occupancy:  0 (0.000000)
    net charge:   0.00000000 [e]

Amount of molecules per component :
-------------------------------------------------------------------------------
Component 0 (CO2)
    molecules:         2.240000e+02 molecules
    number density:    7.914933e-03 molec/A^3
    density:           5.782786e+02 kg/m^3

Total potential energy/kʙ       -1.136707e+05 [K]
-------------------------------------------------------------------------------
    external field VDW/kʙ        0.000000e+00 [K]
    external field Real/kʙ       0.000000e+00 [K]
    framework-molecule VDW/kʙ    0.000000e+00 [K]
    framework-molecule Real/kʙ   0.000000e+00 [K]
    molecule-molecule VDW/kʙ    -8.356260e+04 [K]
    molecule-molecule Real/kʙ   -2.478554e+04 [K]
    Van der Waals (Tail)/kʙ     -3.292543e+03 [K]
    Ewald Fourier/kʙ             1.114242e+04 [K]
    Ewald self/kʙ               -4.114159e+06 [K]
    Ewald exclusion/kʙ           4.100987e+06 [K]
    intra VDW/kʙ                 0.000000e+00 [K]
    intra Coulombic/kʙ           0.000000e+00 [K]
    polarization/kʙ              0.000000e+00 [K]
    dU/dlambda VDW/kʙ            0.000000e+00 [K]
    dU/dlambda Real/kʙ           0.000000e+00 [K]
    dU/dlambda Ewald/kʙ          0.000000e+00 [K]


Initialization: Current cycle: 100 out of 2000
===============================================================================

Box:      28.60405   0.00000   0.00000
           0.00000  28.60405   0.00000
           0.00000   0.00000  28.60405
Lengths:  28.60405  28.60405  28.60405
Angles:   90.00000  90.00000  90.00000
Rectangular boundary conditions

net charge:   0.00000000

component   0 (CO2) lambda:  0 occupancy:  0 (0.000000)
    net charge:   0.00000000 [e]

Amount of molecules per component :
-------------------------------------------------------------------------------
Component 0 (CO2)
    molecules:         2.360000e+02 molecules
    number density:    1.008392e-02 molec/A^3
    density:           7.367482e+02 kg/m^3

Total potential energy/kʙ       -2.505920e+05 [K]
-------------------------------------------------------------------------------
    external field VDW/kʙ        0.000000e+00 [K]
    external field Real/kʙ       0.000000e+00 [K]
    framework-molecule VDW/kʙ    0.000000e+00 [K]
    framework-molecule Real/kʙ   0.000000e+00 [K]
    molecule-molecule VDW/kʙ    -1.815938e+05 [K]
    molecule-molecule Real/kʙ   -5.865613e+04 [K]
    Van der Waals (Tail)/kʙ     -4.419544e+03 [K]
    Ewald Fourier/kʙ             7.955590e+03 [K]
    Ewald self/kʙ               -4.334561e+06 [K]
    Ewald exclusion/kʙ           4.320682e+06 [K]
    intra VDW/kʙ                 0.000000e+00 [K]
    intra Coulombic/kʙ           0.000000e+00 [K]
    polarization/kʙ              0.000000e+00 [K]
    dU/dlambda VDW/kʙ            0.000000e+00 [K]
    dU/dlambda Real/kʙ           0.000000e+00 [K]
    dU/dlambda Ewald/kʙ          0.000000e+00 [K]


Initialization: Current cycle: 200 out of 2000
===============================================================================

Box:      27.64096   0.00000   0.00000
           0.00000  27.64096   0.00000
           0.00000   0.00000  27.64096
Lengths:  27.64096  27.64096  27.64096
Angles:   90.00000  90.00000  90.00000
Rectangular boundary conditions

net charge:   0.00000000

component   0 (CO2) lambda:  0 occupancy:  0 (0.000000)
    net charge:   0.00000000 [e]

Amount of molecules per component :
-------------------------------------------------------------------------------
Component 0 (CO2)
    molecules:         2.350000e+02 molecules
    number density:    1.112777e-02 molec/A^3
    density:           8.130142e+02 kg/m^3

Total potential energy/kʙ       -2.855795e+05 [K]
-------------------------------------------------------------------------------
    external field VDW/kʙ        0.000000e+00 [K]
    external field Real/kʙ       0.000000e+00 [K]
    framework-molecule VDW/kʙ    0.000000e+00 [K]
    framework-molecule Real/kʙ   0.000000e+00 [K]
    molecule-molecule VDW/kʙ    -2.071639e+05 [K]
    molecule-molecule Real/kʙ   -6.725619e+04 [K]
    Van der Waals (Tail)/kʙ     -4.856377e+03 [K]
    Ewald Fourier/kʙ             7.516310e+03 [K]
    Ewald self/kʙ               -4.316194e+06 [K]
    Ewald exclusion/kʙ           4.302374e+06 [K]
    intra VDW/kʙ                 0.000000e+00 [K]
    intra Coulombic/kʙ           0.000000e+00 [K]
    polarization/kʙ              0.000000e+00 [K]
    dU/dlambda VDW/kʙ            0.000000e+00 [K]
    dU/dlambda Real/kʙ           0.000000e+00 [K]
    dU/dlambda Ewald/kʙ          0.000000e+00 [K]


Initialization: Current cycle: 300 out of 2000
===============================================================================

Box:      26.53369   0.00000   0.00000
           0.00000  26.53369   0.00000
           0.00000   0.00000  26.53369
Lengths:  26.53369  26.53369  26.53369
Angles:   90.00000  90.00000  90.00000
Rectangular boundary conditions

net charge:   0.00000000

component   0 (CO2) lambda:  0 occupancy:  0 (0.000000)
    net charge:   0.00000000 [e]

Amount of molecules per component :
-------------------------------------------------------------------------------
Component 0 (CO2)
    molecules:         2.380000e+02 molecules
    number density:    1.274042e-02 molec/A^3
    density:           9.308372e+02 kg/m^3

Total potential energy/kʙ       -3.176464e+05 [K]
-------------------------------------------------------------------------------
    external field VDW/kʙ        0.000000e+00 [K]
    external field Real/kʙ       0.000000e+00 [K]
    framework-molecule VDW/kʙ    0.000000e+00 [K]
    framework-molecule Real/kʙ   0.000000e+00 [K]
    molecule-molecule VDW/kʙ    -2.292811e+05 [K]
    molecule-molecule Real/kʙ   -7.603326e+04 [K]
    Van der Waals (Tail)/kʙ     -5.631150e+03 [K]
    Ewald Fourier/kʙ             7.294908e+03 [K]
    Ewald self/kʙ               -4.371294e+06 [K]
    Ewald exclusion/kʙ           4.357298e+06 [K]
    intra VDW/kʙ                 0.000000e+00 [K]
    intra Coulombic/kʙ           0.000000e+00 [K]
    polarization/kʙ              0.000000e+00 [K]
    dU/dlambda VDW/kʙ            0.000000e+00 [K]
    dU/dlambda Real/kʙ           0.000000e+00 [K]
    dU/dlambda Ewald/kʙ          0.000000e+00 [K]


Initialization: Current cycle: 400 out of 2000
===============================================================================

Box:      26.10900   0.00000   0.00000
           0.00000  26.10900   0.00000
           0.00000   0.00000  26.10900
Lengths:  26.10900  26.10900  26.10900
Angles:   90.00000  90.00000  90.00000
Rectangular boundary conditions

net charge:   0.00000000

component   0 (CO2) lambda:  0 occupancy:  0 (0.000000)
    net charge:   0.00000000 [e]

Amount of molecules per component :
-------------------------------------------------------------------------------
Component 0 (CO2)
    molecules:         2.400000e+02 molecules
    number density:    1.348468e-02 molec/A^3
    density:           9.852139e+02 kg/m^3

Total potential energy/kʙ       -3.336003e+05 [K]
-------------------------------------------------------------------------------
    external field VDW/kʙ        0.000000e+00 [K]
    external field Real/kʙ       0.000000e+00 [K]
    framework-molecule VDW/kʙ    0.000000e+00 [K]
    framework-molecule Real/kʙ   0.000000e+00 [K]
    molecule-molecule VDW/kʙ    -2.423977e+05 [K]
    molecule-molecule Real/kʙ   -7.867670e+04 [K]
    Van der Waals (Tail)/kʙ     -6.010189e+03 [K]
    Ewald Fourier/kʙ             7.597714e+03 [K]
    Ewald self/kʙ               -4.408028e+06 [K]
    Ewald exclusion/kʙ           4.393914e+06 [K]
    intra VDW/kʙ                 0.000000e+00 [K]
    intra Coulombic/kʙ           0.000000e+00 [K]
    polarization/kʙ              0.000000e+00 [K]
    dU/dlambda VDW/kʙ            0.000000e+00 [K]
    dU/dlambda Real/kʙ           0.000000e+00 [K]
    dU/dlambda Ewald/kʙ          0.000000e+00 [K]


Initialization: Current cycle: 500 out of 2000
===============================================================================

Box:      25.87911   0.00000   0.00000
           0.00000  25.87911   0.00000
           0.00000   0.00000  25.87911
Lengths:  25.87911  25.87911  25.87911
Angles:   90.00000  90.00000  90.00000
Rectangular boundary conditions

net charge:   0.00000000

component   0 (CO2) lambda:  0 occupancy:  0 (0.000000)
    net charge:   0.00000000 [e]

Amount of molecules per component :
-------------------------------------------------------------------------------
Component 0 (CO2)
    molecules:         2.390000e+02 molecules
    number density:    1.378954e-02 molec/A^3
    density:           1.007487e+03 kg/m^3

Total potential energy/kʙ       -3.533505e+05 [K]
-------------------------------------------------------------------------------
    external field VDW/kʙ        0.000000e+00 [K]
    external field Real/kʙ       0.000000e+00 [K]
    framework-molecule VDW/kʙ    0.000000e+00 [K]
    framework-molecule Real/kʙ   0.000000e+00 [K]
    molecule-molecule VDW/kʙ    -2.588515e+05 [K]
    molecule-molecule Real/kʙ   -8.036455e+04 [K]
    Van der Waals (Tail)/kʙ     -6.120457e+03 [K]
    Ewald Fourier/kʙ             6.040604e+03 [K]
    Ewald self/kʙ               -4.389661e+06 [K]
    Ewald exclusion/kʙ           4.375606e+06 [K]
    intra VDW/kʙ                 0.000000e+00 [K]
    intra Coulombic/kʙ           0.000000e+00 [K]
    polarization/kʙ              0.000000e+00 [K]
    dU/dlambda VDW/kʙ            0.000000e+00 [K]
    dU/dlambda Real/kʙ           0.000000e+00 [K]
    dU/dlambda Ewald/kʙ          0.000000e+00 [K]


Initialization: Current cycle: 600 out of 2000
===============================================================================

Box:      25.76513   0.00000   0.00000
           0.00000  25.76513   0.00000
           0.00000   0.00000  25.76513
Lengths:  25.76513  25.76513  25.76513
Angles:   90.00000  90.00000  90.00000
Rectangular boundary conditions

net charge:   0.00000000

component   0 (CO2) lambda:  0 occupancy:  0 (0.000000)
    net charge:   0.00000000 [e]

Amount of molecules per component :
-------------------------------------------------------------------------------
Component 0 (CO2)
    molecules:         2.400000e+02 molecules
    number density:    1.403182e-02 molec/A^3
    density:           1.025189e+03 kg/m^3

Total potential energy/kʙ       -3.512455e+05 [K]
-------------------------------------------------------------------------------
    external field VDW/kʙ        0.000000e+00 [K]
    external field Real/kʙ       0.000000e+00 [K]
    framework-molecule VDW/kʙ    0.000000e+00 [K]
    framework-molecule Real/kʙ   0.000000e+00 [K]
    molecule-molecule VDW/kʙ    -2.581695e+05 [K]
    molecule-molecule Real/kʙ   -7.884730e+04 [K]
    Van der Waals (Tail)/kʙ     -6.254052e+03 [K]
    Ewald Fourier/kʙ             6.138691e+03 [K]
    Ewald self/kʙ               -4.408028e+06 [K]
    Ewald exclusion/kʙ           4.393914e+06 [K]
    intra VDW/kʙ                 0.000000e+00 [K]
    intra Coulombic/kʙ           0.000000e+00 [K]
    polarization/kʙ              0.000000e+00 [K]
    dU/dlambda VDW/kʙ            0.000000e+00 [K]
    dU/dlambda Real/kʙ           0.000000e+00 [K]
    dU/dlambda Ewald/kʙ          0.000000e+00 [K]


Initialization: Current cycle: 700 out of 2000
===============================================================================

Box:      25.52088   0.00000   0.00000
           0.00000  25.52088   0.00000
           0.00000   0.00000  25.52088
Lengths:  25.52088  25.52088  25.52088
Angles:   90.00000  90.00000  90.00000
Rectangular boundary conditions

net charge:   0.00000000

component   0 (CO2) lambda:  0 occupancy:  0 (0.000000)
    net charge:   0.00000000 [e]

Amount of molecules per component :
-------------------------------------------------------------------------------
Component 0 (CO2)
    molecules:         2.200000e+02 molecules
    number density:    1.323536e-02 molec/A^3
    density:           9.669981e+02 kg/m^3

Total potential energy/kʙ       -3.089530e+05 [K]
-------------------------------------------------------------------------------
    external field VDW/kʙ        0.000000e+00 [K]
    external field Real/kʙ       0.000000e+00 [K]
    framework-molecule VDW/kʙ    0.000000e+00 [K]
    framework-molecule Real/kʙ   0.000000e+00 [K]
    molecule-molecule VDW/kʙ    -2.251424e+05 [K]
    molecule-molecule Real/kʙ   -7.093810e+04 [K]
    Van der Waals (Tail)/kʙ     -5.407477e+03 [K]
    Ewald Fourier/kʙ             5.472265e+03 [K]
    Ewald self/kʙ               -4.040692e+06 [K]
    Ewald exclusion/kʙ           4.027755e+06 [K]
    intra VDW/kʙ                 0.000000e+00 [K]
    intra Coulombic/kʙ           0.000000e+00 [K]
    polarization/kʙ              0.000000e+00 [K]
    dU/dlambda VDW/kʙ            0.000000e+00 [K]
    dU/dlambda Real/kʙ           0.000000e+00 [K]
    dU/dlambda Ewald/kʙ          0.000000e+00 [K]


Initialization: Current cycle: 800 out of 2000
===============================================================================

Box:      25.26836   0.00000   0.00000
           0.00000  25.26836   0.00000
           0.00000   0.00000  25.26836
Lengths:  25.26836  25.26836  25.26836
Angles:   90.00000  90.00000  90.00000
Rectangular boundary conditions

net charge:   0.00000000

component   0 (CO2) lambda:  0 occupancy:  0 (0.000000)
    net charge:   0.00000000 [e]

Amount of molecules per component :
-------------------------------------------------------------------------------
Component 0 (CO2)
    molecules:         2.300000e+02 molecules
    number density:    1.425596e-02 molec/A^3
    density:           1.041565e+03 kg/m^3

Total potential energy/kʙ       -3.456519e+05 [K]
-------------------------------------------------------------------------------
    external field VDW/kʙ        0.000000e+00 [K]
    external field Real/kʙ       0.000000e+00 [K]
    framework-molecule VDW/kʙ    0.000000e+00 [K]
    framework-molecule Real/kʙ   0.000000e+00 [K]
    molecule-molecule VDW/kʙ    -2.526297e+05 [K]
    molecule-molecule Real/kʙ   -7.927852e+04 [K]
    Van der Waals (Tail)/kʙ     -6.089203e+03 [K]
    Ewald Fourier/kʙ             5.870833e+03 [K]
    Ewald self/kʙ               -4.224360e+06 [K]
    Ewald exclusion/kʙ           4.210835e+06 [K]
    intra VDW/kʙ                 0.000000e+00 [K]
    intra Coulombic/kʙ           0.000000e+00 [K]
    polarization/kʙ              0.000000e+00 [K]
    dU/dlambda VDW/kʙ            0.000000e+00 [K]
    dU/dlambda Real/kʙ           0.000000e+00 [K]
    dU/dlambda Ewald/kʙ          0.000000e+00 [K]


Initialization: Current cycle: 900 out of 2000
===============================================================================

Box:      25.21181   0.00000   0.00000
           0.00000  25.21181   0.00000
           0.00000   0.00000  25.21181
Lengths:  25.21181  25.21181  25.21181
Angles:   90.00000  90.00000  90.00000
Rectangular boundary conditions

net charge:   0.00000000

component   0 (CO2) lambda:  0 occupancy:  0 (0.000000)
    net charge:   0.00000000 [e]

Amount of molecules per component :
-------------------------------------------------------------------------------
Component 0 (CO2)
    molecules:         2.290000e+02 molecules
    number density:    1.428970e-02 molec/A^3
    density:           1.044030e+03 kg/m^3

Total potential energy/kʙ       -3.442559e+05 [K]
-------------------------------------------------------------------------------
    external field VDW/kʙ        0.000000e+00 [K]
    external field Real/kʙ       0.000000e+00 [K]
    framework-molecule VDW/kʙ    0.000000e+00 [K]
    framework-molecule Real/kʙ   0.000000e+00 [K]
    molecule-molecule VDW/kʙ    -2.518565e+05 [K]
    molecule-molecule Real/kʙ   -7.932069e+04 [K]
    Van der Waals (Tail)/kʙ     -6.077079e+03 [K]
    Ewald Fourier/kʙ             6.464904e+03 [K]
    Ewald self/kʙ               -4.205993e+06 [K]
    Ewald exclusion/kʙ           4.192527e+06 [K]
    intra VDW/kʙ                 0.000000e+00 [K]
    intra Coulombic/kʙ           0.000000e+00 [K]
    polarization/kʙ              0.000000e+00 [K]
    dU/dlambda VDW/kʙ            0.000000e+00 [K]
    dU/dlambda Real/kʙ           0.000000e+00 [K]
    dU/dlambda Ewald/kʙ          0.000000e+00 [K]


Initialization: Current cycle: 1000 out of 2000
===============================================================================

Box:      24.86508   0.00000   0.00000
           0.00000  24.86508   0.00000
           0.00000   0.00000  24.86508
Lengths:  24.86508  24.86508  24.86508
Angles:   90.00000  90.00000  90.00000
Rectangular boundary conditions

net charge:   0.00000000

component   0 (CO2) lambda:  0 occupancy:  0 (0.000000)
    net charge:   0.00000000 [e]

Amount of molecules per component :
-------------------------------------------------------------------------------
Component 0 (CO2)
    molecules:         2.240000e+02 molecules
    number density:    1.457063e-02 molec/A^3
    density:           1.064555e+03 kg/m^3

Total potential energy/kʙ       -3.454432e+05 [K]
-------------------------------------------------------------------------------
    external field VDW/kʙ        0.000000e+00 [K]
    external field Real/kʙ       0.000000e+00 [K]
    framework-molecule VDW/kʙ    0.000000e+00 [K]
    framework-molecule Real/kʙ   0.000000e+00 [K]
    molecule-molecule VDW/kʙ    -2.449588e+05 [K]
    molecule-molecule Real/kʙ   -8.652147e+04 [K]
    Van der Waals (Tail)/kʙ     -6.061255e+03 [K]
    Ewald Fourier/kʙ             5.270851e+03 [K]
    Ewald self/kʙ               -4.114159e+06 [K]
    Ewald exclusion/kʙ           4.100987e+06 [K]
    intra VDW/kʙ                 0.000000e+00 [K]
    intra Coulombic/kʙ           0.000000e+00 [K]
    polarization/kʙ              0.000000e+00 [K]
    dU/dlambda VDW/kʙ            0.000000e+00 [K]
    dU/dlambda Real/kʙ           0.000000e+00 [K]
    dU/dlambda Ewald/kʙ          0.000000e+00 [K]


Initialization: Current cycle: 1100 out of 2000
===============================================================================

Box:      24.93972   0.00000   0.00000
           0.00000  24.93972   0.00000
           0.00000   0.00000  24.93972
Lengths:  24.93972  24.93972  24.93972
Angles:   90.00000  90.00000  90.00000
Rectangular boundary conditions

net charge:   0.00000000

component   0 (CO2) lambda:  0 occupancy:  0 (0.000000)
    net charge:   0.00000000 [e]

Amount of molecules per component :
-------------------------------------------------------------------------------
Component 0 (CO2)
    molecules:         2.230000e+02 molecules
    number density:    1.437573e-02 molec/A^3
    density:           1.050316e+03 kg/m^3

Total potential energy/kʙ       -3.403928e+05 [K]
-------------------------------------------------------------------------------
    external field VDW/kʙ        0.000000e+00 [K]
    external field Real/kʙ       0.000000e+00 [K]
    framework-molecule VDW/kʙ    0.000000e+00 [K]
    framework-molecule Real/kʙ   0.000000e+00 [K]
    molecule-molecule VDW/kʙ    -2.479483e+05 [K]
    molecule-molecule Real/kʙ   -7.920826e+04 [K]
    Van der Waals (Tail)/kʙ     -5.953482e+03 [K]
    Ewald Fourier/kʙ             5.830942e+03 [K]
    Ewald self/kʙ               -4.095792e+06 [K]
    Ewald exclusion/kʙ           4.082679e+06 [K]
    intra VDW/kʙ                 0.000000e+00 [K]
    intra Coulombic/kʙ           0.000000e+00 [K]
    polarization/kʙ              0.000000e+00 [K]
    dU/dlambda VDW/kʙ            0.000000e+00 [K]
    dU/dlambda Real/kʙ           0.000000e+00 [K]
    dU/dlambda Ewald/kʙ          0.000000e+00 [K]


Initialization: Current cycle: 1200 out of 2000
===============================================================================

Box:      25.21172   0.00000   0.00000
           0.00000  25.21172   0.00000
           0.00000   0.00000  25.21172
Lengths:  25.21172  25.21172  25.21172
Angles:   90.00000  90.00000  90.00000
Rectangular boundary conditions

net charge:   0.00000000

component   0 (CO2) lambda:  0 occupancy:  0 (0.000000)
    net charge:   0.00000000 [e]

Amount of molecules per component :
-------------------------------------------------------------------------------
Component 0 (CO2)
    molecules:         2.330000e+02 molecules
    number density:    1.453946e-02 molec/A^3
    density:           1.062278e+03 kg/m^3

Total potential energy/kʙ       -3.525728e+05 [K]
-------------------------------------------------------------------------------
    external field VDW/kʙ        0.000000e+00 [K]
    external field Real/kʙ       0.000000e+00 [K]
    framework-molecule VDW/kʙ    0.000000e+00 [K]
    framework-molecule Real/kʙ   0.000000e+00 [K]
    molecule-molecule VDW/kʙ    -2.565981e+05 [K]
    molecule-molecule Real/kʙ   -8.237133e+04 [K]
    Van der Waals (Tail)/kʙ     -6.291300e+03 [K]
    Ewald Fourier/kʙ             6.389627e+03 [K]
    Ewald self/kʙ               -4.279460e+06 [K]
    Ewald exclusion/kʙ           4.265759e+06 [K]
    intra VDW/kʙ                 0.000000e+00 [K]
    intra Coulombic/kʙ           0.000000e+00 [K]
    polarization/kʙ              0.000000e+00 [K]
    dU/dlambda VDW/kʙ            0.000000e+00 [K]
    dU/dlambda Real/kʙ           0.000000e+00 [K]
    dU/dlambda Ewald/kʙ          0.000000e+00 [K]


Initialization: Current cycle: 1300 out of 2000
===============================================================================

Box:      25.18606   0.00000   0.00000
           0.00000  25.18606   0.00000
           0.00000   0.00000  25.18606
Lengths:  25.18606  25.18606  25.18606
Angles:   90.00000  90.00000  90.00000
Rectangular boundary conditions

net charge:   0.00000000

component   0 (CO2) lambda:  0 occupancy:  0 (0.000000)
    net charge:   0.00000000 [e]

Amount of molecules per component :
-------------------------------------------------------------------------------
Component 0 (CO2)
    molecules:         2.340000e+02 molecules
    number density:    1.464654e-02 molec/A^3
    density:           1.070101e+03 kg/m^3

Total potential energy/kʙ       -3.598193e+05 [K]
-------------------------------------------------------------------------------
    external field VDW/kʙ        0.000000e+00 [K]
    external field Real/kʙ       0.000000e+00 [K]
    framework-molecule VDW/kʙ    0.000000e+00 [K]
    framework-molecule Real/kʙ   0.000000e+00 [K]
    molecule-molecule VDW/kʙ    -2.615293e+05 [K]
    molecule-molecule Real/kʙ   -8.401257e+04 [K]
    Van der Waals (Tail)/kʙ     -6.364835e+03 [K]
    Ewald Fourier/kʙ             5.847916e+03 [K]
    Ewald self/kʙ               -4.297827e+06 [K]
    Ewald exclusion/kʙ           4.284066e+06 [K]
    intra VDW/kʙ                 0.000000e+00 [K]
    intra Coulombic/kʙ           0.000000e+00 [K]
    polarization/kʙ              0.000000e+00 [K]
    dU/dlambda VDW/kʙ            0.000000e+00 [K]
    dU/dlambda Real/kʙ           0.000000e+00 [K]
    dU/dlambda Ewald/kʙ          0.000000e+00 [K]


Initialization: Current cycle: 1400 out of 2000
===============================================================================

Box:      25.33002   0.00000   0.00000
           0.00000  25.33002   0.00000
           0.00000   0.00000  25.33002
Lengths:  25.33002  25.33002  25.33002
Angles:   90.00000  90.00000  90.00000
Rectangular boundary conditions

net charge:   0.00000000

component   0 (CO2) lambda:  0 occupancy:  0 (0.000000)
    net charge:   0.00000000 [e]

Amount of molecules per component :
-------------------------------------------------------------------------------
Component 0 (CO2)
    molecules:         2.350000e+02 molecules
    number density:    1.445977e-02 molec/A^3
    density:           1.056455e+03 kg/m^3

Total potential energy/kʙ       -3.647343e+05 [K]
-------------------------------------------------------------------------------
    external field VDW/kʙ        0.000000e+00 [K]
    external field Real/kʙ       0.000000e+00 [K]
    framework-molecule VDW/kʙ    0.000000e+00 [K]
    framework-molecule Real/kʙ   0.000000e+00 [K]
    molecule-molecule VDW/kʙ    -2.585572e+05 [K]
    molecule-molecule Real/kʙ   -9.208627e+04 [K]
    Van der Waals (Tail)/kʙ     -6.310523e+03 [K]
    Ewald Fourier/kʙ             6.039017e+03 [K]
    Ewald self/kʙ               -4.316194e+06 [K]
    Ewald exclusion/kʙ           4.302374e+06 [K]
    intra VDW/kʙ                 0.000000e+00 [K]
    intra Coulombic/kʙ           0.000000e+00 [K]
    polarization/kʙ              0.000000e+00 [K]
    dU/dlambda VDW/kʙ            0.000000e+00 [K]
    dU/dlambda Real/kʙ           0.000000e+00 [K]
    dU/dlambda Ewald/kʙ          0.000000e+00 [K]


Initialization: Current cycle: 1500 out of 2000
===============================================================================

Box:      25.57208   0.00000   0.00000
           0.00000  25.57208   0.00000
           0.00000   0.00000  25.57208
Lengths:  25.57208  25.57208  25.57208
Angles:   90.00000  90.00000  90.00000
Rectangular boundary conditions

net charge:   0.00000000

component   0 (CO2) lambda:  0 occupancy:  0 (0.000000)
    net charge:   0.00000000 [e]

Amount of molecules per component :
-------------------------------------------------------------------------------
Component 0 (CO2)
    molecules:         2.380000e+02 molecules
    number density:    1.423242e-02 molec/A^3
    density:           1.039845e+03 kg/m^3

Total potential energy/kʙ       -3.616537e+05 [K]
-------------------------------------------------------------------------------
    external field VDW/kʙ        0.000000e+00 [K]
    external field Real/kʙ       0.000000e+00 [K]
    framework-molecule VDW/kʙ    0.000000e+00 [K]
    framework-molecule Real/kʙ   0.000000e+00 [K]
    molecule-molecule VDW/kʙ    -2.586205e+05 [K]
    molecule-molecule Real/kʙ   -8.819664e+04 [K]
    Van der Waals (Tail)/kʙ     -6.290598e+03 [K]
    Ewald Fourier/kʙ             5.449716e+03 [K]
    Ewald self/kʙ               -4.371294e+06 [K]
    Ewald exclusion/kʙ           4.357298e+06 [K]
    intra VDW/kʙ                 0.000000e+00 [K]
    intra Coulombic/kʙ           0.000000e+00 [K]
    polarization/kʙ              0.000000e+00 [K]
    dU/dlambda VDW/kʙ            0.000000e+00 [K]
    dU/dlambda Real/kʙ           0.000000e+00 [K]
    dU/dlambda Ewald/kʙ          0.000000e+00 [K]


Initialization: Current cycle: 1600 out of 2000
===============================================================================

Box:      25.54173   0.00000   0.00000
           0.00000  25.54173   0.00000
           0.00000   0.00000  25.54173
Lengths:  25.54173  25.54173  25.54173
Angles:   90.00000  90.00000  90.00000
Rectangular boundary conditions

net charge:   0.00000000

component   0 (CO2) lambda:  0 occupancy:  0 (0.000000)
    net charge:   0.00000000 [e]

Amount of molecules per component :
-------------------------------------------------------------------------------
Component 0 (CO2)
    molecules:         2.370000e+02 molecules
    number density:    1.422321e-02 molec/A^3
    density:           1.039172e+03 kg/m^3

Total potential energy/kʙ       -3.644703e+05 [K]
-------------------------------------------------------------------------------
    external field VDW/kʙ        0.000000e+00 [K]
    external field Real/kʙ       0.000000e+00 [K]
    framework-molecule VDW/kʙ    0.000000e+00 [K]
    framework-molecule Real/kʙ   0.000000e+00 [K]
    molecule-molecule VDW/kʙ    -2.617306e+05 [K]
    molecule-molecule Real/kʙ   -8.789490e+04 [K]
    Van der Waals (Tail)/kʙ     -6.260112e+03 [K]
    Ewald Fourier/kʙ             5.352313e+03 [K]
    Ewald self/kʙ               -4.352927e+06 [K]
    Ewald exclusion/kʙ           4.338990e+06 [K]
    intra VDW/kʙ                 0.000000e+00 [K]
    intra Coulombic/kʙ           0.000000e+00 [K]
    polarization/kʙ              0.000000e+00 [K]
    dU/dlambda VDW/kʙ            0.000000e+00 [K]
    dU/dlambda Real/kʙ           0.000000e+00 [K]
    dU/dlambda Ewald/kʙ          0.000000e+00 [K]


Initialization: Current cycle: 1700 out of 2000
===============================================================================

Box:      25.56695   0.00000   0.00000
           0.00000  25.56695   0.00000
           0.00000   0.00000  25.56695
Lengths:  25.56695  25.56695  25.56695
Angles:   90.00000  90.00000  90.00000
Rectangular boundary conditions

net charge:   0.00000000

component   0 (CO2) lambda:  0 occupancy:  0 (0.000000)
    net charge:   0.00000000 [e]

Amount of molecules per component :
-------------------------------------------------------------------------------
Component 0 (CO2)
    molecules:         2.350000e+02 molecules
    number density:    1.406149e-02 molec/A^3
    density:           1.027356e+03 kg/m^3

Total potential energy/kʙ       -3.515800e+05 [K]
-------------------------------------------------------------------------------
    external field VDW/kʙ        0.000000e+00 [K]
    external field Real/kʙ       0.000000e+00 [K]
    framework-molecule VDW/kʙ    0.000000e+00 [K]
    framework-molecule Real/kʙ   0.000000e+00 [K]
    molecule-molecule VDW/kʙ    -2.588476e+05 [K]
    molecule-molecule Real/kʙ   -7.865561e+04 [K]
    Van der Waals (Tail)/kʙ     -6.136705e+03 [K]
    Ewald Fourier/kʙ             5.879243e+03 [K]
    Ewald self/kʙ               -4.316194e+06 [K]
    Ewald exclusion/kʙ           4.302374e+06 [K]
    intra VDW/kʙ                 0.000000e+00 [K]
    intra Coulombic/kʙ           0.000000e+00 [K]
    polarization/kʙ              0.000000e+00 [K]
    dU/dlambda VDW/kʙ            0.000000e+00 [K]
    dU/dlambda Real/kʙ           0.000000e+00 [K]
    dU/dlambda Ewald/kʙ          0.000000e+00 [K]


Initialization: Current cycle: 1800 out of 2000
===============================================================================

Box:      25.21727   0.00000   0.00000
           0.00000  25.21727   0.00000
           0.00000   0.00000  25.21727
Lengths:  25.21727  25.21727  25.21727
Angles:   90.00000  90.00000  90.00000
Rectangular boundary conditions

net charge:   0.00000000

component   0 (CO2) lambda:  0 occupancy:  0 (0.000000)
    net charge:   0.00000000 [e]

Amount of molecules per component :
-------------------------------------------------------------------------------
Component 0 (CO2)
    molecules:         2.300000e+02 molecules
    number density:    1.434279e-02 molec/A^3
    density:           1.047909e+03 kg/m^3

Total potential energy/kʙ       -3.453564e+05 [K]
-------------------------------------------------------------------------------
    external field VDW/kʙ        0.000000e+00 [K]
    external field Real/kʙ       0.000000e+00 [K]
    framework-molecule VDW/kʙ    0.000000e+00 [K]
    framework-molecule Real/kʙ   0.000000e+00 [K]
    molecule-molecule VDW/kʙ    -2.490709e+05 [K]
    molecule-molecule Real/kʙ   -8.244858e+04 [K]
    Van der Waals (Tail)/kʙ     -6.126294e+03 [K]
    Ewald Fourier/kʙ             5.814667e+03 [K]
    Ewald self/kʙ               -4.224360e+06 [K]
    Ewald exclusion/kʙ           4.210835e+06 [K]
    intra VDW/kʙ                 0.000000e+00 [K]
    intra Coulombic/kʙ           0.000000e+00 [K]
    polarization/kʙ              0.000000e+00 [K]
    dU/dlambda VDW/kʙ            0.000000e+00 [K]
    dU/dlambda Real/kʙ           0.000000e+00 [K]
    dU/dlambda Ewald/kʙ          0.000000e+00 [K]


Initialization: Current cycle: 1900 out of 2000
===============================================================================

Box:      24.96690   0.00000   0.00000
           0.00000  24.96690   0.00000
           0.00000   0.00000  24.96690
Lengths:  24.96690  24.96690  24.96690
Angles:   90.00000  90.00000  90.00000
Rectangular boundary conditions

net charge:   0.00000000

component   0 (CO2) lambda:  0 occupancy:  0 (0.000000)
    net charge:   0.00000000 [e]

Amount of molecules per component :
-------------------------------------------------------------------------------
Component 0 (CO2)
    molecules:         2.300000e+02 molecules
    number density:    1.477862e-02 molec/A^3
    density:           1.079751e+03 kg/m^3

Total potential energy/kʙ       -3.528410e+05 [K]
-------------------------------------------------------------------------------
    external field VDW/kʙ        0.000000e+00 [K]
    external field Real/kʙ       0.000000e+00 [K]
    framework-molecule VDW/kʙ    0.000000e+00 [K]
    framework-molecule Real/kʙ   0.000000e+00 [K]
    molecule-molecule VDW/kʙ    -2.577584e+05 [K]
    molecule-molecule Real/kʙ   -8.056523e+04 [K]
    Van der Waals (Tail)/kʙ     -6.312450e+03 [K]
    Ewald Fourier/kʙ             5.320443e+03 [K]
    Ewald self/kʙ               -4.224360e+06 [K]
    Ewald exclusion/kʙ           4.210835e+06 [K]
    intra VDW/kʙ                 0.000000e+00 [K]
    intra Coulombic/kʙ           0.000000e+00 [K]
    polarization/kʙ              0.000000e+00 [K]
    dU/dlambda VDW/kʙ            0.000000e+00 [K]
    dU/dlambda Real/kʙ           0.000000e+00 [K]
    dU/dlambda Ewald/kʙ          0.000000e+00 [K]


Current cycle: 0 out of 6000
===============================================================================

Box:      24.91095   0.00000   0.00000  Average:  24.91095   0.00000   0.00000
           0.00000  24.91095   0.00000             0.00000  24.91095   0.00000
           0.00000   0.00000  24.91095             0.00000   0.00000  24.91095
Lengths:  24.91095  24.91095  24.91095  Average:  24.91095  24.91095  24.91095
Angles:   90.00000  90.00000  90.00000  Average:  90.00000  90.00000  90.00000
Rectangular boundary conditions

net charge:   0.00000000

component 0 (CO2) lambda:  0 occupancy:  0 (0.000000)
    net charge:   0.00000000 [e]

Amount of molecules per component :
-------------------------------------------------------------------------------
Component 0 (CO2)
    molecules:      2.230000e+02 molecules  (2.230000e+02 +/- 0.000000e+00)
    number density: 1.442561e-02 molec./A^3 (1.442561e-02 +/- 0.000000e+00)
    density:        1.053960e+03 kg/m^3     (1.053960e+03 +/- 0.000000e+00)

Average pressure tensor: 
-------------------------------------------------------------------------------
 4.9792e+02  0.0000e+00  0.0000e+00 +/- 0.0000e+00 0.0000e+00 0.0000e+00 [bar]
 0.0000e+00  4.9792e+02  0.0000e+00 +/- 0.0000e+00 0.0000e+00 0.0000e+00 [bar]
 0.0000e+00  0.0000e+00  4.9792e+02 +/- 0.0000e+00 0.0000e+00 0.0000e+00 [bar]
Ideal-gas pressure:   4.979180e+02 +/ 0.000000e+00 [bar]
Excess pressure:      0.000000e+00 +/ 0.000000e+00 [bar]
Pressure:             4.979180e+02 +/ 0.000000e+00 [bar]

Total potential energy/kʙ  -3.444473e+05 (-3.444473e+05 +/- 0.000000e+00) [K]
-------------------------------------------------------------------------------
ExternalField-molecule
    Van der Waals/kʙ        0.000000e+00 ( 0.000000e+00 +/- 0.000000e+00) [K]
Framework-molecule
    Van der Waals/kʙ        0.000000e+00 ( 0.000000e+00 +/- 0.000000e+00) [K]
    Van der Waals (Tail)/kʙ 0.000000e+00 ( 0.000000e+00 +/- 0.000000e+00) [K]
    Coulombic Real/kʙ       0.000000e+00 ( 0.000000e+00 +/- 0.000000e+00) [K]
    Coulombic Fourier/kʙ    0.000000e+00 ( 0.000000e+00 +/- 0.000000e+00) [K]
Molecule-molecule
    Van der Waals/kʙ       -2.481658e+05 (-2.481658e+05 +/- 0.000000e+00) [K]
    Van der Waals (Tail)/kʙ-5.974138e+03 (-5.974138e+03 +/- 0.000000e+00) [K]
    Coulombic Real/kʙ      -8.216249e+04 (-8.216249e+04 +/- 0.000000e+00) [K]
    Coulombic Fourier/kʙ   -8.144937e+03 (-8.144937e+03 +/- 0.000000e+00) [K]
    Molecule Intra/kʙ       0.000000e+00 ( 0.000000e+00 +/- 0.000000e+00) [K]

Current cycle: 100 out of 6000
===============================================================================

Box:      24.85101   0.00000   0.00000  Average:  24.87250   0.00000   0.00000
           0.00000  24.85101   0.00000             0.00000  24.87250   0.00000
           0.00000   0.00000  24.85101             0.00000   0.00000  24.87250
Lengths:  24.85101  24.85101  24.85101  Average:  24.87250  24.87250  24.87250
Angles:   90.00000  90.00000  90.00000  Average:  90.00000  90.00000  90.00000
Rectangular boundary conditions

net charge:   0.00000000

component 0 (CO2) lambda:  0 occupancy:  0 (0.000000)
    net charge:   0.00000000 [e]

Amount of molecules per component :
-------------------------------------------------------------------------------
Component 0 (CO2)
    molecules:      2.240000e+02 molecules  (2.255149e+02 +/- 0.000000e+00)
    number density: 1.459540e-02 molec./A^3 (1.465666e-02 +/- 0.000000e+00)
    density:        1.066365e+03 kg/m^3     (1.070841e+03 +/- 0.000000e+00)

Average pressure tensor: 
-------------------------------------------------------------------------------
 9.3829e+01 -9.4084e+01 -2.4225e+01 +/- 0.0000e+00 0.0000e+00 0.0000e+00 [bar]
-9.4084e+01  1.1608e+01  5.4173e+00 +/- 0.0000e+00 0.0000e+00 0.0000e+00 [bar]
-2.4225e+01  5.4173e+00  2.5350e+01 +/- 0.0000e+00 0.0000e+00 0.0000e+00 [bar]
Ideal-gas pressure:   5.058931e+02 +/ 0.000000e+00 [bar]
Excess pressure:     -4.622976e+02 +/ 0.000000e+00 [bar]
Pressure:             4.359549e+01 +/ 0.000000e+00 [bar]

Total potential energy/kʙ  -3.536044e+05 (-3.541361e+05 +/- 0.000000e+00) [K]
-------------------------------------------------------------------------------
ExternalField-molecule
    Van der Waals/kʙ        0.000000e+00 ( 0.000000e+00 +/- 0.000000e+00) [K]
Framework-molecule
    Van der Waals/kʙ        0.000000e+00 ( 0.000000e+00 +/- 0.000000e+00) [K]
    Van der Waals (Tail)/kʙ 0.000000e+00 ( 0.000000e+00 +/- 0.000000e+00) [K]
    Coulombic Real/kʙ       0.000000e+00 ( 0.000000e+00 +/- 0.000000e+00) [K]
    Coulombic Fourier/kʙ    0.000000e+00 ( 0.000000e+00 +/- 0.000000e+00) [K]
Molecule-molecule
    Van der Waals/kʙ       -2.494053e+05 (-2.516313e+05 +/- 0.000000e+00) [K]
    Van der Waals (Tail)/kʙ-6.071561e+03 (-6.115604e+03 +/- 0.000000e+00) [K]
    Coulombic Real/kʙ      -8.960535e+04 (-8.804904e+04 +/- 0.000000e+00) [K]
    Coulombic Fourier/kʙ   -8.522230e+03 (-8.340209e+03 +/- 0.000000e+00) [K]
    Molecule Intra/kʙ       0.000000e+00 ( 0.000000e+00 +/- 0.000000e+00) [K]

Current cycle: 200 out of 6000
===============================================================================

Box:      25.07895   0.00000   0.00000  Average:  24.99503   0.00000   0.00000
           0.00000  25.07895   0.00000             0.00000  24.99503   0.00000
           0.00000   0.00000  25.07895             0.00000   0.00000  24.99503
Lengths:  25.07895  25.07895  25.07895  Average:  24.99503  24.99503  24.99503
Angles:   90.00000  90.00000  90.00000  Average:  90.00000  90.00000  90.00000
Rectangular boundary conditions

net charge:   0.00000000

component 0 (CO2) lambda:  0 occupancy:  0 (0.000000)
    net charge:   0.00000000 [e]

Amount of molecules per component :
-------------------------------------------------------------------------------
Component 0 (CO2)
    molecules:      2.310000e+02 molecules  (2.291542e+02 +/- 0.000000e+00)
    number density: 1.464482e-02 molec./A^3 (1.467345e-02 +/- 0.000000e+00)
    density:        1.069975e+03 kg/m^3     (1.072067e+03 +/- 0.000000e+00)

Average pressure tensor: 
-------------------------------------------------------------------------------
 1.5746e+02 -7.6248e+00 -7.0473e+01 +/- 0.0000e+00 0.0000e+00 0.0000e+00 [bar]
-7.6248e+00  2.3042e+01 -1.1456e+01 +/- 0.0000e+00 0.0000e+00 0.0000e+00 [bar]
-7.0473e+01 -1.1456e+01  9.0445e-01 +/- 0.0000e+00 0.0000e+00 0.0000e+00 [bar]
Ideal-gas pressure:   5.064726e+02 +/ 0.000000e+00 [bar]
Excess pressure:     -4.460026e+02 +/ 0.000000e+00 [bar]
Pressure:             6.046996e+01 +/ 0.000000e+00 [bar]

Total potential energy/kʙ  -3.653785e+05 (-3.613256e+05 +/- 0.000000e+00) [K]
-------------------------------------------------------------------------------
ExternalField-molecule
    Van der Waals/kʙ        0.000000e+00 ( 0.000000e+00 +/- 0.000000e+00) [K]
Framework-molecule
    Van der Waals/kʙ        0.000000e+00 ( 0.000000e+00 +/- 0.000000e+00) [K]
    Van der Waals (Tail)/kʙ 0.000000e+00 ( 0.000000e+00 +/- 0.000000e+00) [K]
    Coulombic Real/kʙ       0.000000e+00 ( 0.000000e+00 +/- 0.000000e+00) [K]
    Coulombic Fourier/kʙ    0.000000e+00 ( 0.000000e+00 +/- 0.000000e+00) [K]
Molecule-molecule
    Van der Waals/kʙ       -2.643548e+05 (-2.570896e+05 +/- 0.000000e+00) [K]
    Van der Waals (Tail)/kʙ-6.282494e+03 (-6.234962e+03 +/- 0.000000e+00) [K]
    Coulombic Real/kʙ      -8.677222e+04 (-8.952881e+04 +/- 0.000000e+00) [K]
    Coulombic Fourier/kʙ   -7.969004e+03 (-8.472214e+03 +/- 0.000000e+00) [K]
    Molecule Intra/kʙ       0.000000e+00 ( 0.000000e+00 +/- 0.000000e+00) [K]

Current cycle: 300 out of 6000
===============================================================================

Box:      25.01752   0.00000   0.00000  Average:  25.01372   0.00000   0.00000
           0.00000  25.01752   0.00000             0.00000  25.01372   0.00000
           0.00000   0.00000  25.01752             0.00000   0.00000  25.01372
Lengths:  25.01752  25.01752  25.01752  Average:  25.01372  25.01372  25.01372
Angles:   90.00000  90.00000  90.00000  Average:  90.00000  90.00000  90.00000
Rectangular boundary conditions

net charge:   0.00000000

component 0 (CO2) lambda:  0 occupancy:  0 (0.000000)
    net charge:   0.00000000 [e]

Amount of molecules per component :
-------------------------------------------------------------------------------
Component 0 (CO2)
    molecules:      2.240000e+02 molecules  (2.284452e+02 +/- 0.000000e+00)
    number density: 1.430590e-02 molec./A^3 (1.459605e-02 +/- 0.000000e+00)
    density:        1.045213e+03 kg/m^3     (1.066412e+03 +/- 0.000000e+00)

Average pressure tensor: 
-------------------------------------------------------------------------------
 7.6767e+01 -6.0625e+00 -2.0333e+01 +/- 0.0000e+00 0.0000e+00 0.0000e+00 [bar]
-6.0625e+00 -1.1268e+01  2.1154e+01 +/- 0.0000e+00 0.0000e+00 0.0000e+00 [bar]
-2.0333e+01  2.1154e+01 -1.7623e+01 +/- 0.0000e+00 0.0000e+00 0.0000e+00 [bar]
Ideal-gas pressure:   5.038010e+02 +/ 0.000000e+00 [bar]
Excess pressure:     -4.878422e+02 +/ 0.000000e+00 [bar]
Pressure:             1.595883e+01 +/ 0.000000e+00 [bar]

Total potential energy/kʙ  -3.378498e+05 (-3.562254e+05 +/- 0.000000e+00) [K]
-------------------------------------------------------------------------------
ExternalField-molecule
    Van der Waals/kʙ        0.000000e+00 ( 0.000000e+00 +/- 0.000000e+00) [K]
Framework-molecule
    Van der Waals/kʙ        0.000000e+00 ( 0.000000e+00 +/- 0.000000e+00) [K]
    Van der Waals (Tail)/kʙ 0.000000e+00 ( 0.000000e+00 +/- 0.000000e+00) [K]
    Coulombic Real/kʙ       0.000000e+00 ( 0.000000e+00 +/- 0.000000e+00) [K]
    Coulombic Fourier/kʙ    0.000000e+00 ( 0.000000e+00 +/- 0.000000e+00) [K]
Molecule-molecule
    Van der Waals/kʙ       -2.399270e+05 (-2.544661e+05 +/- 0.000000e+00) [K]
    Van der Waals (Tail)/kʙ-5.951129e+03 (-6.175489e+03 +/- 0.000000e+00) [K]
    Coulombic Real/kʙ      -8.383031e+04 (-8.733981e+04 +/- 0.000000e+00) [K]
    Coulombic Fourier/kʙ   -8.141418e+03 (-8.243937e+03 +/- 0.000000e+00) [K]
    Molecule Intra/kʙ       0.000000e+00 ( 0.000000e+00 +/- 0.000000e+00) [K]

Current cycle: 400 out of 6000
===============================================================================

Box:      25.29492   0.00000   0.00000  Average:  25.06437   0.00000   0.00000
           0.00000  25.29492   0.00000             0.00000  25.06437   0.00000
           0.00000   0.00000  25.29492             0.00000   0.00000  25.06437
Lengths:  25.29492  25.29492  25.29492  Average:  25.06437  25.06437  25.06437
Angles:   90.00000  90.00000  90.00000  Average:  90.00000  90.00000  90.00000
Rectangular boundary conditions

net charge:   0.00000000

component 0 (CO2) lambda:  0 occupancy:  0 (0.000000)
    net charge:   0.00000000 [e]

Amount of molecules per component :
-------------------------------------------------------------------------------
Component 0 (CO2)
    molecules:      2.320000e+02 molecules  (2.287332e+02 +/- 0.000000e+00)
    number density: 1.433468e-02 molec./A^3 (1.452671e-02 +/- 0.000000e+00)
    density:        1.047316e+03 kg/m^3     (1.061346e+03 +/- 0.000000e+00)

Average pressure tensor: 
-------------------------------------------------------------------------------
 3.8253e+00  7.7737e+01 -6.4557e+01 +/- 0.0000e+00 0.0000e+00 0.0000e+00 [bar]
 7.7737e+01 -7.3407e-01  4.1383e+01 +/- 0.0000e+00 0.0000e+00 0.0000e+00 [bar]
-6.4557e+01  4.1383e+01 -4.3402e+01 +/- 0.0000e+00 0.0000e+00 0.0000e+00 [bar]
Ideal-gas pressure:   5.014077e+02 +/ 0.000000e+00 [bar]
Excess pressure:     -5.148447e+02 +/ 0.000000e+00 [bar]
Pressure:            -1.343701e+01 +/ 0.000000e+00 [bar]

Total potential energy/kʙ  -3.466472e+05 (-3.533039e+05 +/- 0.000000e+00) [K]
-------------------------------------------------------------------------------
ExternalField-molecule
    Van der Waals/kʙ        0.000000e+00 ( 0.000000e+00 +/- 0.000000e+00) [K]
Framework-molecule
    Van der Waals/kʙ        0.000000e+00 ( 0.000000e+00 +/- 0.000000e+00) [K]
    Van der Waals (Tail)/kʙ 0.000000e+00 ( 0.000000e+00 +/- 0.000000e+00) [K]
    Coulombic Real/kʙ       0.000000e+00 ( 0.000000e+00 +/- 0.000000e+00) [K]
    Coulombic Fourier/kʙ    0.000000e+00 ( 0.000000e+00 +/- 0.000000e+00) [K]
Molecule-molecule
    Van der Waals/kʙ       -2.544686e+05 (-2.541639e+05 +/- 0.000000e+00) [K]
    Van der Waals (Tail)/kʙ-6.176069e+03 (-6.162451e+03 +/- 0.000000e+00) [K]
    Coulombic Real/kʙ      -7.810360e+04 (-8.485744e+04 +/- 0.000000e+00) [K]
    Coulombic Fourier/kʙ   -7.898873e+03 (-8.120164e+03 +/- 0.000000e+00) [K]
    Molecule Intra/kʙ       0.000000e+00 ( 0.000000e+00 +/- 0.000000e+00) [K]

Current cycle: 500 out of 6000
===============================================================================

Box:      25.09382   0.00000   0.00000  Average:  25.07866   0.00000   0.00000
           0.00000  25.09382   0.00000             0.00000  25.07866   0.00000
           0.00000   0.00000  25.09382             0.00000   0.00000  25.07866
Lengths:  25.09382  25.09382  25.09382  Average:  25.07866  25.07866  25.07866
Angles:   90.00000  90.00000  90.00000  Average:  90.00000  90.00000  90.00000
Rectangular boundary conditions

net charge:   0.00000000

component 0 (CO2) lambda:  0 occupancy:  0 (0.000000)
    net charge:   0.00000000 [e]

Amount of molecules per component :
-------------------------------------------------------------------------------
Component 0 (CO2)
    molecules:      2.250000e+02 molecules  (2.278204e+02 +/- 0.000000e+00)
    number density: 1.423910e-02 molec./A^3 (1.444460e-02 +/- 0.000000e+00)
    density:        1.040333e+03 kg/m^3     (1.055347e+03 +/- 0.000000e+00)

Average pressure tensor: 
-------------------------------------------------------------------------------
-2.7845e+01  2.2466e+01 -5.5059e+01 +/- 0.0000e+00 0.0000e+00 0.0000e+00 [bar]
 2.2466e+01  2.6273e+01  6.8861e+01 +/- 0.0000e+00 0.0000e+00 0.0000e+00 [bar]
-5.5059e+01  6.8861e+01 -5.5460e+01 +/- 0.0000e+00 0.0000e+00 0.0000e+00 [bar]
Ideal-gas pressure:   4.985734e+02 +/ 0.000000e+00 [bar]
Excess pressure:     -5.175838e+02 +/ 0.000000e+00 [bar]
Pressure:            -1.901037e+01 +/ 0.000000e+00 [bar]

Total potential energy/kʙ  -3.416389e+05 (-3.493691e+05 +/- 0.000000e+00) [K]
-------------------------------------------------------------------------------
ExternalField-molecule
    Van der Waals/kʙ        0.000000e+00 ( 0.000000e+00 +/- 0.000000e+00) [K]
Framework-molecule
    Van der Waals/kʙ        0.000000e+00 ( 0.000000e+00 +/- 0.000000e+00) [K]
    Van der Waals (Tail)/kʙ 0.000000e+00 ( 0.000000e+00 +/- 0.000000e+00) [K]
    Coulombic Real/kʙ       0.000000e+00 ( 0.000000e+00 +/- 0.000000e+00) [K]
    Coulombic Fourier/kʙ    0.000000e+00 ( 0.000000e+00 +/- 0.000000e+00) [K]
Molecule-molecule
    Van der Waals/kʙ       -2.478568e+05 (-2.519678e+05 +/- 0.000000e+00) [K]
    Van der Waals (Tail)/kʙ-5.949784e+03 (-6.113146e+03 +/- 0.000000e+00) [K]
    Coulombic Real/kʙ      -7.958580e+04 (-8.325487e+04 +/- 0.000000e+00) [K]
    Coulombic Fourier/kʙ   -8.246463e+03 (-8.033203e+03 +/- 0.000000e+00) [K]
    Molecule Intra/kʙ       0.000000e+00 ( 0.000000e+00 +/- 0.000000e+00) [K]

Current cycle: 600 out of 6000
===============================================================================

Box:      24.66752   0.00000   0.00000  Average:  25.03887   0.00000   0.00000
           0.00000  24.66752   0.00000             0.00000  25.03887   0.00000
           0.00000   0.00000  24.66752             0.00000   0.00000  25.03887
Lengths:  24.66752  24.66752  24.66752  Average:  25.03887  25.03887  25.03887
Angles:   90.00000  90.00000  90.00000  Average:  90.00000  90.00000  90.00000
Rectangular boundary conditions

net charge:   0.00000000

component 0 (CO2) lambda:  0 occupancy:  0 (0.000000)
    net charge:   0.00000000 [e]

Amount of molecules per component :
-------------------------------------------------------------------------------
Component 0 (CO2)
    molecules:      2.200000e+02 molecules  (2.272030e+02 +/- 0.000000e+00)
    number density: 1.465704e-02 molec./A^3 (1.447460e-02 +/- 0.000000e+00)
    density:        1.070869e+03 kg/m^3     (1.057539e+03 +/- 0.000000e+00)

Average pressure tensor: 
-------------------------------------------------------------------------------
-4.6283e+01  4.1379e+01 -2.9887e+01 +/- 0.0000e+00 0.0000e+00 0.0000e+00 [bar]
 4.1379e+01  4.7647e+01  5.9797e+01 +/- 0.0000e+00 0.0000e+00 0.0000e+00 [bar]
-2.9887e+01  5.9797e+01 -6.5977e+01 +/- 0.0000e+00 0.0000e+00 0.0000e+00 [bar]
Ideal-gas pressure:   4.996090e+02 +/ 0.000000e+00 [bar]
Excess pressure:     -5.211463e+02 +/ 0.000000e+00 [bar]
Pressure:            -2.153737e+01 +/ 0.000000e+00 [bar]

Total potential energy/kʙ  -3.485587e+05 (-3.489123e+05 +/- 0.000000e+00) [K]
-------------------------------------------------------------------------------
ExternalField-molecule
    Van der Waals/kʙ        0.000000e+00 ( 0.000000e+00 +/- 0.000000e+00) [K]
Framework-molecule
    Van der Waals/kʙ        0.000000e+00 ( 0.000000e+00 +/- 0.000000e+00) [K]
    Van der Waals (Tail)/kʙ 0.000000e+00 ( 0.000000e+00 +/- 0.000000e+00) [K]
    Coulombic Real/kʙ       0.000000e+00 ( 0.000000e+00 +/- 0.000000e+00) [K]
    Coulombic Fourier/kʙ    0.000000e+00 ( 0.000000e+00 +/- 0.000000e+00) [K]
Molecule-molecule
    Van der Waals/kʙ       -2.505254e+05 (-2.517098e+05 +/- 0.000000e+00) [K]
    Van der Waals (Tail)/kʙ-5.988324e+03 (-6.104522e+03 +/- 0.000000e+00) [K]
    Coulombic Real/kʙ      -8.479448e+04 (-8.313124e+04 +/- 0.000000e+00) [K]
    Coulombic Fourier/kʙ   -7.250556e+03 (-7.966751e+03 +/- 0.000000e+00) [K]
    Molecule Intra/kʙ       0.000000e+00 ( 0.000000e+00 +/- 0.000000e+00) [K]

Current cycle: 700 out of 6000
===============================================================================

Box:      24.97065   0.00000   0.00000  Average:  24.99221   0.00000   0.00000
           0.00000  24.97065   0.00000             0.00000  24.99221   0.00000
           0.00000   0.00000  24.97065             0.00000   0.00000  24.99221
Lengths:  24.97065  24.97065  24.97065  Average:  24.99221  24.99221  24.99221
Angles:   90.00000  90.00000  90.00000  Average:  90.00000  90.00000  90.00000
Rectangular boundary conditions

net charge:   0.00000000

component 0 (CO2) lambda:  0 occupancy:  0 (0.000000)
    net charge:   0.00000000 [e]

Amount of molecules per component :
-------------------------------------------------------------------------------
Component 0 (CO2)
    molecules:      2.270000e+02 molecules  (2.260642e+02 +/- 0.000000e+00)
    number density: 1.457929e-02 molec./A^3 (1.448208e-02 +/- 0.000000e+00)
    density:        1.065188e+03 kg/m^3     (1.058086e+03 +/- 0.000000e+00)

Average pressure tensor: 
-------------------------------------------------------------------------------
-2.2590e+01  1.2751e+01 -5.3183e+01 +/- 0.0000e+00 0.0000e+00 0.0000e+00 [bar]
 1.2751e+01  4.9099e+01  5.5718e+01 +/- 0.0000e+00 0.0000e+00 0.0000e+00 [bar]
-5.3183e+01  5.5718e+01 -4.6041e+01 +/- 0.0000e+00 0.0000e+00 0.0000e+00 [bar]
Ideal-gas pressure:   4.998674e+02 +/ 0.000000e+00 [bar]
Excess pressure:     -5.063780e+02 +/ 0.000000e+00 [bar]
Pressure:            -6.510677e+00 +/ 0.000000e+00 [bar]

Total potential energy/kʙ  -3.555833e+05 (-3.476652e+05 +/- 0.000000e+00) [K]
-------------------------------------------------------------------------------
ExternalField-molecule
    Van der Waals/kʙ        0.000000e+00 ( 0.000000e+00 +/- 0.000000e+00) [K]
Framework-molecule
    Van der Waals/kʙ        0.000000e+00 ( 0.000000e+00 +/- 0.000000e+00) [K]
    Van der Waals (Tail)/kʙ 0.000000e+00 ( 0.000000e+00 +/- 0.000000e+00) [K]
    Coulombic Real/kʙ       0.000000e+00 ( 0.000000e+00 +/- 0.000000e+00) [K]
    Coulombic Fourier/kʙ    0.000000e+00 ( 0.000000e+00 +/- 0.000000e+00) [K]
Molecule-molecule
    Van der Waals/kʙ       -2.568982e+05 (-2.506884e+05 +/- 0.000000e+00) [K]
    Van der Waals (Tail)/kʙ-6.146084e+03 (-6.081575e+03 +/- 0.000000e+00) [K]
    Coulombic Real/kʙ      -8.449224e+04 (-8.300461e+04 +/- 0.000000e+00) [K]
    Coulombic Fourier/kʙ   -8.046764e+03 (-7.890633e+03 +/- 0.000000e+00) [K]
    Molecule Intra/kʙ       0.000000e+00 ( 0.000000e+00 +/- 0.000000e+00) [K]

Current cycle: 800 out of 6000
===============================================================================

Box:      24.99417   0.00000   0.00000  Average:  24.98354   0.00000   0.00000
           0.00000  24.99417   0.00000             0.00000  24.98354   0.00000
           0.00000   0.00000  24.99417             0.00000   0.00000  24.98354
Lengths:  24.99417  24.99417  24.99417  Average:  24.98354  24.98354  24.98354
Angles:   90.00000  90.00000  90.00000  Average:  90.00000  90.00000  90.00000
Rectangular boundary conditions

net charge:   0.00000000

component 0 (CO2) lambda:  0 occupancy:  0 (0.000000)
    net charge:   0.00000000 [e]

Amount of molecules per component :
-------------------------------------------------------------------------------
Component 0 (CO2)
    molecules:      2.320000e+02 molecules  (2.261273e+02 +/- 0.000000e+00)
    number density: 1.485839e-02 molec./A^3 (1.450129e-02 +/- 0.000000e+00)
    density:        1.085580e+03 kg/m^3     (1.059489e+03 +/- 0.000000e+00)

Average pressure tensor: 
-------------------------------------------------------------------------------
-3.3333e+01  3.6348e+00 -3.0837e+01 +/- 0.0000e+00 0.0000e+00 0.0000e+00 [bar]
 3.6348e+00  1.9052e+01  8.3911e+01 +/- 0.0000e+00 0.0000e+00 0.0000e+00 [bar]
-3.0837e+01  8.3911e+01 -4.0100e+01 +/- 0.0000e+00 0.0000e+00 0.0000e+00 [bar]
Ideal-gas pressure:   5.005302e+02 +/ 0.000000e+00 [bar]
Excess pressure:     -5.186572e+02 +/ 0.000000e+00 [bar]
Pressure:            -1.812706e+01 +/ 0.000000e+00 [bar]

Total potential energy/kʙ  -3.642340e+05 (-3.482891e+05 +/- 0.000000e+00) [K]
-------------------------------------------------------------------------------
ExternalField-molecule
    Van der Waals/kʙ        0.000000e+00 ( 0.000000e+00 +/- 0.000000e+00) [K]
Framework-molecule
    Van der Waals/kʙ        0.000000e+00 ( 0.000000e+00 +/- 0.000000e+00) [K]
    Van der Waals (Tail)/kʙ 0.000000e+00 ( 0.000000e+00 +/- 0.000000e+00) [K]
    Coulombic Real/kʙ       0.000000e+00 ( 0.000000e+00 +/- 0.000000e+00) [K]
    Coulombic Fourier/kʙ    0.000000e+00 ( 0.000000e+00 +/- 0.000000e+00) [K]
Molecule-molecule
    Van der Waals/kʙ       -2.658872e+05 (-2.514479e+05 +/- 0.000000e+00) [K]
    Van der Waals (Tail)/kʙ-6.401711e+03 (-6.094895e+03 +/- 0.000000e+00) [K]
    Coulombic Real/kʙ      -8.306732e+04 (-8.282858e+04 +/- 0.000000e+00) [K]
    Coulombic Fourier/kʙ   -8.877821e+03 (-7.917747e+03 +/- 0.000000e+00) [K]
    Molecule Intra/kʙ       0.000000e+00 ( 0.000000e+00 +/- 0.000000e+00) [K]

Current cycle: 900 out of 6000
===============================================================================

Box:      25.03287   0.00000   0.00000  Average:  24.98841   0.00000   0.00000
           0.00000  25.03287   0.00000             0.00000  24.98841   0.00000
           0.00000   0.00000  25.03287             0.00000   0.00000  24.98841
Lengths:  25.03287  25.03287  25.03287  Average:  24.98841  24.98841  24.98841
Angles:   90.00000  90.00000  90.00000  Average:  90.00000  90.00000  90.00000
Rectangular boundary conditions

net charge:   0.00000000

component 0 (CO2) lambda:  0 occupancy:  0 (0.000000)
    net charge:   0.00000000 [e]

Amount of molecules per component :
-------------------------------------------------------------------------------
Component 0 (CO2)
    molecules:      2.210000e+02 molecules  (2.259867e+02 +/- 0.000000e+00)
    number density: 1.408835e-02 molec./A^3 (1.448386e-02 +/- 0.000000e+00)
    density:        1.029319e+03 kg/m^3     (1.058215e+03 +/- 0.000000e+00)

Average pressure tensor: 
-------------------------------------------------------------------------------
-2.6787e+01  2.3285e+01 -1.6495e+01 +/- 0.0000e+00 0.0000e+00 0.0000e+00 [bar]
 2.3285e+01  1.6897e+00  8.5579e+01 +/- 0.0000e+00 0.0000e+00 0.0000e+00 [bar]
-1.6495e+01  8.5579e+01 -3.4208e+01 +/- 0.0000e+00 0.0000e+00 0.0000e+00 [bar]
Ideal-gas pressure:   4.999285e+02 +/ 0.000000e+00 [bar]
Excess pressure:     -5.196969e+02 +/ 0.000000e+00 [bar]
Pressure:            -1.976834e+01 +/ 0.000000e+00 [bar]

Total potential energy/kʙ  -3.266809e+05 (-3.468979e+05 +/- 0.000000e+00) [K]
-------------------------------------------------------------------------------
ExternalField-molecule
    Van der Waals/kʙ        0.000000e+00 ( 0.000000e+00 +/- 0.000000e+00) [K]
Framework-molecule
    Van der Waals/kʙ        0.000000e+00 ( 0.000000e+00 +/- 0.000000e+00) [K]
    Van der Waals (Tail)/kʙ 0.000000e+00 ( 0.000000e+00 +/- 0.000000e+00) [K]
    Coulombic Real/kʙ       0.000000e+00 ( 0.000000e+00 +/- 0.000000e+00) [K]
    Coulombic Fourier/kʙ    0.000000e+00 ( 0.000000e+00 +/- 0.000000e+00) [K]
Molecule-molecule
    Van der Waals/kʙ       -2.404010e+05 (-2.506747e+05 +/- 0.000000e+00) [K]
    Van der Waals (Tail)/kʙ-5.782142e+03 (-6.078001e+03 +/- 0.000000e+00) [K]
    Coulombic Real/kʙ      -7.289279e+04 (-8.224934e+04 +/- 0.000000e+00) [K]
    Coulombic Fourier/kʙ   -7.604927e+03 (-7.895908e+03 +/- 0.000000e+00) [K]
    Molecule Intra/kʙ       0.000000e+00 ( 0.000000e+00 +/- 0.000000e+00) [K]

Current cycle: 1000 out of 6000
===============================================================================

Box:      24.83647   0.00000   0.00000  Average:  24.98296   0.00000   0.00000
           0.00000  24.83647   0.00000             0.00000  24.98296   0.00000
           0.00000   0.00000  24.83647             0.00000   0.00000  24.98296
Lengths:  24.83647  24.83647  24.83647  Average:  24.98296  24.98296  24.98296
Angles:   90.00000  90.00000  90.00000  Average:  90.00000  90.00000  90.00000
Rectangular boundary conditions

net charge:   0.00000000

component 0 (CO2) lambda:  0 occupancy:  0 (0.000000)
    net charge:   0.00000000 [e]

Amount of molecules per component :
-------------------------------------------------------------------------------
Component 0 (CO2)
    molecules:      2.260000e+02 molecules  (2.258581e+02 +/- 0.000000e+00)
    number density: 1.475159e-02 molec./A^3 (1.448520e-02 +/- 0.000000e+00)
    density:        1.077777e+03 kg/m^3     (1.058314e+03 +/- 0.000000e+00)

Average pressure tensor: 
-------------------------------------------------------------------------------
-3.1419e+01  1.9766e+01 -2.1995e+01 +/- 0.0000e+00 0.0000e+00 0.0000e+00 [bar]
 1.9766e+01  3.0733e+00  7.4615e+01 +/- 0.0000e+00 0.0000e+00 0.0000e+00 [bar]
-2.1995e+01  7.4615e+01 -4.2136e+01 +/- 0.0000e+00 0.0000e+00 0.0000e+00 [bar]
Ideal-gas pressure:   4.999749e+02 +/ 0.000000e+00 [bar]
Excess pressure:     -5.234691e+02 +/ 0.000000e+00 [bar]
Pressure:            -2.349416e+01 +/ 0.000000e+00 [bar]

Total potential energy/kʙ  -3.497094e+05 (-3.466008e+05 +/- 0.000000e+00) [K]
-------------------------------------------------------------------------------
ExternalField-molecule
    Van der Waals/kʙ        0.000000e+00 ( 0.000000e+00 +/- 0.000000e+00) [K]
Framework-molecule
    Van der Waals/kʙ        0.000000e+00 ( 0.000000e+00 +/- 0.000000e+00) [K]
    Van der Waals (Tail)/kʙ 0.000000e+00 ( 0.000000e+00 +/- 0.000000e+00) [K]
    Coulombic Real/kʙ       0.000000e+00 ( 0.000000e+00 +/- 0.000000e+00) [K]
    Coulombic Fourier/kʙ    0.000000e+00 ( 0.000000e+00 +/- 0.000000e+00) [K]
Molecule-molecule
    Van der Waals/kʙ       -2.592849e+05 (-2.508200e+05 +/- 0.000000e+00) [K]
    Van der Waals (Tail)/kʙ-6.191325e+03 (-6.079217e+03 +/- 0.000000e+00) [K]
    Coulombic Real/kʙ      -7.666480e+04 (-8.182266e+04 +/- 0.000000e+00) [K]
    Coulombic Fourier/kʙ   -7.568336e+03 (-7.878932e+03 +/- 0.000000e+00) [K]
    Molecule Intra/kʙ       0.000000e+00 ( 0.000000e+00 +/- 0.000000e+00) [K]

Current cycle: 1100 out of 6000
===============================================================================

Box:      24.81201   0.00000   0.00000  Average:  24.97419   0.00000   0.00000
           0.00000  24.81201   0.00000             0.00000  24.97419   0.00000
           0.00000   0.00000  24.81201             0.00000   0.00000  24.97419
Lengths:  24.81201  24.81201  24.81201  Average:  24.97419  24.97419  24.97419
Angles:   90.00000  90.00000  90.00000  Average:  90.00000  90.00000  90.00000
Rectangular boundary conditions

net charge:   0.00000000

component 0 (CO2) lambda:  0 occupancy:  0 (0.000000)
    net charge:   0.00000000 [e]

Amount of molecules per component :
-------------------------------------------------------------------------------
Component 0 (CO2)
    molecules:      2.250000e+02 molecules  (2.256131e+02 +/- 0.000000e+00)
    number density: 1.472980e-02 molec./A^3 (1.448466e-02 +/- 0.000000e+00)
    density:        1.076185e+03 kg/m^3     (1.058274e+03 +/- 0.000000e+00)

Average pressure tensor: 
-------------------------------------------------------------------------------
-2.1004e+01  1.6502e+01 -7.7517e+00 +/- 0.0000e+00 0.0000e+00 0.0000e+00 [bar]
 1.6502e+01  1.1145e+01  8.2917e+01 +/- 0.0000e+00 0.0000e+00 0.0000e+00 [bar]
-7.7517e+00  8.2917e+01 -4.1689e+01 +/- 0.0000e+00 0.0000e+00 0.0000e+00 [bar]
Ideal-gas pressure:   4.999562e+02 +/ 0.000000e+00 [bar]
Excess pressure:     -5.171389e+02 +/ 0.000000e+00 [bar]
Pressure:            -1.718267e+01 +/ 0.000000e+00 [bar]

Total potential energy/kʙ  -3.433197e+05 (-3.456078e+05 +/- 0.000000e+00) [K]
-------------------------------------------------------------------------------
ExternalField-molecule
    Van der Waals/kʙ        0.000000e+00 ( 0.000000e+00 +/- 0.000000e+00) [K]
Framework-molecule
    Van der Waals/kʙ        0.000000e+00 ( 0.000000e+00 +/- 0.000000e+00) [K]
    Van der Waals (Tail)/kʙ 0.000000e+00 ( 0.000000e+00 +/- 0.000000e+00) [K]
    Coulombic Real/kʙ       0.000000e+00 ( 0.000000e+00 +/- 0.000000e+00) [K]
    Coulombic Fourier/kʙ    0.000000e+00 ( 0.000000e+00 +/- 0.000000e+00) [K]
Molecule-molecule
    Van der Waals/kʙ       -2.487013e+05 (-2.502546e+05 +/- 0.000000e+00) [K]
    Van der Waals (Tail)/kʙ-6.154824e+03 (-6.068367e+03 +/- 0.000000e+00) [K]
    Coulombic Real/kʙ      -8.082114e+04 (-8.143119e+04 +/- 0.000000e+00) [K]
    Coulombic Fourier/kʙ   -7.642517e+03 (-7.853562e+03 +/- 0.000000e+00) [K]
    Molecule Intra/kʙ       0.000000e+00 ( 0.000000e+00 +/- 0.000000e+00) [K]

Current cycle: 1200 out of 6000
===============================================================================

Box:      24.98768   0.00000   0.00000  Average:  24.97531   0.00000   0.00000
           0.00000  24.98768   0.00000             0.00000  24.97531   0.00000
           0.00000   0.00000  24.98768             0.00000   0.00000  24.97531
Lengths:  24.98768  24.98768  24.98768  Average:  24.97531  24.97531  24.97531
Angles:   90.00000  90.00000  90.00000  Average:  90.00000  90.00000  90.00000
Rectangular boundary conditions

net charge:   0.00000000

component 0 (CO2) lambda:  0 occupancy:  0 (0.000000)
    net charge:   0.00000000 [e]

Amount of molecules per component :
-------------------------------------------------------------------------------
Component 0 (CO2)
    molecules:      2.230000e+02 molecules  (2.255720e+02 +/- 0.000000e+00)
    number density: 1.429313e-02 molec./A^3 (1.448009e-02 +/- 0.000000e+00)
    density:        1.044280e+03 kg/m^3     (1.057940e+03 +/- 0.000000e+00)

Average pressure tensor: 
-------------------------------------------------------------------------------
-1.4149e+01  1.1315e+01 -1.3999e+01 +/- 0.0000e+00 0.0000e+00 0.0000e+00 [bar]
 1.1315e+01  1.8652e+01  7.0311e+01 +/- 0.0000e+00 0.0000e+00 0.0000e+00 [bar]
-1.3999e+01  7.0311e+01 -4.1894e+01 +/- 0.0000e+00 0.0000e+00 0.0000e+00 [bar]
Ideal-gas pressure:   4.997984e+02 +/ 0.000000e+00 [bar]
Excess pressure:     -5.122621e+02 +/ 0.000000e+00 [bar]
Pressure:            -1.246375e+01 +/ 0.000000e+00 [bar]

Total potential energy/kʙ  -3.335047e+05 (-3.450780e+05 +/- 0.000000e+00) [K]
-------------------------------------------------------------------------------
ExternalField-molecule
    Van der Waals/kʙ        0.000000e+00 ( 0.000000e+00 +/- 0.000000e+00) [K]
Framework-molecule
    Van der Waals/kʙ        0.000000e+00 ( 0.000000e+00 +/- 0.000000e+00) [K]
    Van der Waals (Tail)/kʙ 0.000000e+00 ( 0.000000e+00 +/- 0.000000e+00) [K]
    Coulombic Real/kʙ       0.000000e+00 ( 0.000000e+00 +/- 0.000000e+00) [K]
    Coulombic Fourier/kʙ    0.000000e+00 ( 0.000000e+00 +/- 0.000000e+00) [K]
Molecule-molecule
    Van der Waals/kʙ       -2.496895e+05 (-2.503842e+05 +/- 0.000000e+00) [K]
    Van der Waals (Tail)/kʙ-5.919273e+03 (-6.066052e+03 +/- 0.000000e+00) [K]
    Coulombic Real/kʙ      -7.041164e+04 (-8.080938e+04 +/- 0.000000e+00) [K]
    Coulombic Fourier/kʙ   -7.484358e+03 (-7.818348e+03 +/- 0.000000e+00) [K]
    Molecule Intra/kʙ       0.000000e+00 ( 0.000000e+00 +/- 0.000000e+00) [K]

Current cycle: 1300 out of 6000
===============================================================================

Box:      25.39153   0.00000   0.00000  Average:  24.99311   0.00000   0.00000
           0.00000  25.39153   0.00000             0.00000  24.99311   0.00000
           0.00000   0.00000  25.39153             0.00000   0.00000  24.99311
Lengths:  25.39153  25.39153  25.39153  Average:  24.99311  24.99311  24.99311
Angles:   90.00000  90.00000  90.00000  Average:  90.00000  90.00000  90.00000
Rectangular boundary conditions

net charge:   0.00000000

component 0 (CO2) lambda:  0 occupancy:  0 (0.000000)
    net charge:   0.00000000 [e]

Amount of molecules per component :
-------------------------------------------------------------------------------
Component 0 (CO2)
    molecules:      2.360000e+02 molecules  (2.258340e+02 +/- 0.000000e+00)
    number density: 1.441602e-02 molec./A^3 (1.446600e-02 +/- 0.000000e+00)
    density:        1.053259e+03 kg/m^3     (1.056911e+03 +/- 0.000000e+00)

Average pressure tensor: 
-------------------------------------------------------------------------------
-2.7612e+01  7.3957e+00 -1.5255e+01 +/- 0.0000e+00 0.0000e+00 0.0000e+00 [bar]
 7.3957e+00  1.0997e+01  6.0033e+01 +/- 0.0000e+00 0.0000e+00 0.0000e+00 [bar]
-1.5255e+01  6.0033e+01 -3.8667e+01 +/- 0.0000e+00 0.0000e+00 0.0000e+00 [bar]
Ideal-gas pressure:   4.993121e+02 +/ 0.000000e+00 [bar]
Excess pressure:     -5.177394e+02 +/ 0.000000e+00 [bar]
Pressure:            -1.842729e+01 +/ 0.000000e+00 [bar]

Total potential energy/kʙ  -3.666085e+05 (-3.450436e+05 +/- 0.000000e+00) [K]
-------------------------------------------------------------------------------
ExternalField-molecule
    Van der Waals/kʙ        0.000000e+00 ( 0.000000e+00 +/- 0.000000e+00) [K]
Framework-molecule
    Van der Waals/kʙ        0.000000e+00 ( 0.000000e+00 +/- 0.000000e+00) [K]
    Van der Waals (Tail)/kʙ 0.000000e+00 ( 0.000000e+00 +/- 0.000000e+00) [K]
    Coulombic Real/kʙ       0.000000e+00 ( 0.000000e+00 +/- 0.000000e+00) [K]
    Coulombic Fourier/kʙ    0.000000e+00 ( 0.000000e+00 +/- 0.000000e+00) [K]
Molecule-molecule
    Van der Waals/kʙ       -2.638871e+05 (-2.504785e+05 +/- 0.000000e+00) [K]
    Van der Waals (Tail)/kʙ-6.318202e+03 (-6.064073e+03 +/- 0.000000e+00) [K]
    Coulombic Real/kʙ      -8.816582e+04 (-8.067914e+04 +/- 0.000000e+00) [K]
    Coulombic Fourier/kʙ   -8.237374e+03 (-7.821967e+03 +/- 0.000000e+00) [K]
    Molecule Intra/kʙ       0.000000e+00 ( 0.000000e+00 +/- 0.000000e+00) [K]

Current cycle: 1400 out of 6000
===============================================================================

Box:      25.37736   0.00000   0.00000  Average:  25.02065   0.00000   0.00000
           0.00000  25.37736   0.00000             0.00000  25.02065   0.00000
           0.00000   0.00000  25.37736             0.00000   0.00000  25.02065
Lengths:  25.37736  25.37736  25.37736  Average:  25.02065  25.02065  25.02065
Angles:   90.00000  90.00000  90.00000  Average:  90.00000  90.00000  90.00000
Rectangular boundary conditions

net charge:   0.00000000

component 0 (CO2) lambda:  0 occupancy:  0 (0.000000)
    net charge:   0.00000000 [e]

Amount of molecules per component :
-------------------------------------------------------------------------------
Component 0 (CO2)
    molecules:      2.340000e+02 molecules  (2.262548e+02 +/- 0.000000e+00)
    number density: 1.431781e-02 molec./A^3 (1.444536e-02 +/- 0.000000e+00)
    density:        1.046084e+03 kg/m^3     (1.055402e+03 +/- 0.000000e+00)

Average pressure tensor: 
-------------------------------------------------------------------------------
-3.2833e+01  1.6742e+01 -1.8747e+01 +/- 0.0000e+00 0.0000e+00 0.0000e+00 [bar]
 1.6742e+01  8.3951e+00  5.3687e+01 +/- 0.0000e+00 0.0000e+00 0.0000e+00 [bar]
-1.8747e+01  5.3687e+01 -3.4052e+01 +/- 0.0000e+00 0.0000e+00 0.0000e+00 [bar]
Ideal-gas pressure:   4.985997e+02 +/ 0.000000e+00 [bar]
Excess pressure:     -5.180964e+02 +/ 0.000000e+00 [bar]
Pressure:            -1.949674e+01 +/ 0.000000e+00 [bar]

Total potential energy/kʙ  -3.387547e+05 (-3.451734e+05 +/- 0.000000e+00) [K]
-------------------------------------------------------------------------------
ExternalField-molecule
    Van der Waals/kʙ        0.000000e+00 ( 0.000000e+00 +/- 0.000000e+00) [K]
Framework-molecule
    Van der Waals/kʙ        0.000000e+00 ( 0.000000e+00 +/- 0.000000e+00) [K]
    Van der Waals (Tail)/kʙ 0.000000e+00 ( 0.000000e+00 +/- 0.000000e+00) [K]
    Coulombic Real/kʙ       0.000000e+00 ( 0.000000e+00 +/- 0.000000e+00) [K]
    Coulombic Fourier/kʙ    0.000000e+00 ( 0.000000e+00 +/- 0.000000e+00) [K]
Molecule-molecule
    Van der Waals/kʙ       -2.526771e+05 (-2.506183e+05 +/- 0.000000e+00) [K]
    Van der Waals (Tail)/kʙ-6.221981e+03 (-6.068672e+03 +/- 0.000000e+00) [K]
    Coulombic Real/kʙ      -7.147766e+04 (-8.065265e+04 +/- 0.000000e+00) [K]
    Coulombic Fourier/kʙ   -8.377941e+03 (-7.833749e+03 +/- 0.000000e+00) [K]
    Molecule Intra/kʙ       0.000000e+00 ( 0.000000e+00 +/- 0.000000e+00) [K]

Current cycle: 1500 out of 6000
===============================================================================

Box:      25.58946   0.00000   0.00000  Average:  25.05696   0.00000   0.00000
           0.00000  25.58946   0.00000             0.00000  25.05696   0.00000
           0.00000   0.00000  25.58946             0.00000   0.00000  25.05696
[...]
    number density: 1.422296e-02 molec./A^3 (1.425260e-02 +/- 1.776563e-04)
    density:        1.039154e+03 kg/m^3     (1.041319e+03 +/- 1.297987e+01)

Average pressure tensor: 
-------------------------------------------------------------------------------
 1.1098e+01  6.3169e+00 -2.8095e+01 +/- 3.9190e+01 3.8983e+01 3.5104e+01 [bar]
 6.3169e+00  3.9412e+01  4.7820e+00 +/- 3.8983e+01 4.9586e+01 4.9661e+01 [bar]
-2.8095e+01  4.7820e+00  2.4255e-01 +/- 3.5104e+01 4.9661e+01 6.1023e+01 [bar]
Ideal-gas pressure:   4.919465e+02 +/ 6.132031e+00 [bar]
Excess pressure:     -4.750290e+02 +/ 3.653603e+01 [bar]
Pressure:             1.691745e+01 +/ 3.260788e+01 [bar]

Total potential energy/kʙ  -3.387423e+05 (-3.432871e+05 +/- 3.219499e+03) [K]
-------------------------------------------------------------------------------
ExternalField-molecule
    Van der Waals/kʙ        0.000000e+00 ( 0.000000e+00 +/- 0.000000e+00) [K]
Framework-molecule
    Van der Waals/kʙ        0.000000e+00 ( 0.000000e+00 +/- 0.000000e+00) [K]
    Van der Waals (Tail)/kʙ 0.000000e+00 ( 0.000000e+00 +/- 0.000000e+00) [K]
    Coulombic Real/kʙ       0.000000e+00 ( 0.000000e+00 +/- 0.000000e+00) [K]
    Coulombic Fourier/kʙ    0.000000e+00 ( 0.000000e+00 +/- 0.000000e+00) [K]
Molecule-molecule
    Van der Waals/kʙ       -2.416478e+05 (-2.493029e+05 +/- 1.920864e+03) [K]
    Van der Waals (Tail)/kʙ-5.995870e+03 (-6.051765e+03 +/- 4.988454e+01) [K]
    Coulombic Real/kʙ      -8.290671e+04 (-8.023470e+04 +/- 1.139561e+03) [K]
    Coulombic Fourier/kʙ   -8.191968e+03 (-7.697716e+03 +/- 1.319702e+02) [K]
    Molecule Intra/kʙ       0.000000e+00 ( 0.000000e+00 +/- 0.000000e+00) [K]

Current cycle: 5800 out of 6000
===============================================================================

Box:      25.39826   0.00000   0.00000  Average:  25.21676   0.00000   0.00000
           0.00000  25.39826   0.00000             0.00000  25.21676   0.00000
           0.00000   0.00000  25.39826             0.00000   0.00000  25.21676
Lengths:  25.39826  25.39826  25.39826  Average:  25.21676  25.21676  25.21676
Angles:   90.00000  90.00000  90.00000  Average:  90.00000  90.00000  90.00000
Rectangular boundary conditions

net charge:   0.00000000

component 0 (CO2) lambda:  0 occupancy:  0 (0.000000)
    net charge:   0.00000000 [e]

Amount of molecules per component :
-------------------------------------------------------------------------------
Component 0 (CO2)
    molecules:      2.280000e+02 molecules  (2.284718e+02 +/- 2.988104e+00)
    number density: 1.391628e-02 molec./A^3 (1.425004e-02 +/- 1.787928e-04)
    density:        1.016747e+03 kg/m^3     (1.041132e+03 +/- 1.306291e+01)

Average pressure tensor: 
-------------------------------------------------------------------------------
 1.2841e+01  3.1882e+00 -2.7331e+01 +/- 3.6432e+01 4.4467e+01 3.5613e+01 [bar]
 3.1882e+00  4.1216e+01  6.3874e+00 +/- 4.4467e+01 5.1113e+01 4.8494e+01 [bar]
-2.7331e+01  6.3874e+00 -1.3483e+00 +/- 3.5613e+01 4.8494e+01 5.1590e+01 [bar]
Ideal-gas pressure:   4.918580e+02 +/ 6.171259e+00 [bar]
Excess pressure:     -4.742882e+02 +/ 3.690250e+01 [bar]
Pressure:             1.756976e+01 +/ 3.290772e+01 [bar]

Total potential energy/kʙ  -3.263683e+05 (-3.432638e+05 +/- 3.135887e+03) [K]
-------------------------------------------------------------------------------
ExternalField-molecule
    Van der Waals/kʙ        0.000000e+00 ( 0.000000e+00 +/- 0.000000e+00) [K]
Framework-molecule
    Van der Waals/kʙ        0.000000e+00 ( 0.000000e+00 +/- 0.000000e+00) [K]
    Van der Waals (Tail)/kʙ 0.000000e+00 ( 0.000000e+00 +/- 0.000000e+00) [K]
    Coulombic Real/kʙ       0.000000e+00 ( 0.000000e+00 +/- 0.000000e+00) [K]
    Coulombic Fourier/kʙ    0.000000e+00 ( 0.000000e+00 +/- 0.000000e+00) [K]
Molecule-molecule
    Van der Waals/kʙ       -2.389429e+05 (-2.492947e+05 +/- 1.873016e+03) [K]
    Van der Waals (Tail)/kʙ-5.892426e+03 (-6.052459e+03 +/- 4.978146e+01) [K]
    Coulombic Real/kʙ      -7.436817e+04 (-8.022106e+04 +/- 1.106876e+03) [K]
    Coulombic Fourier/kʙ   -7.164793e+03 (-7.695582e+03 +/- 1.310603e+02) [K]
    Molecule Intra/kʙ       0.000000e+00 ( 0.000000e+00 +/- 0.000000e+00) [K]

Current cycle: 5900 out of 6000
===============================================================================

Box:      25.66085   0.00000   0.00000  Average:  25.22374   0.00000   0.00000
           0.00000  25.66085   0.00000             0.00000  25.22374   0.00000
           0.00000   0.00000  25.66085             0.00000   0.00000  25.22374
Lengths:  25.66085  25.66085  25.66085  Average:  25.22374  25.22374  25.22374
Angles:   90.00000  90.00000  90.00000  Average:  90.00000  90.00000  90.00000
Rectangular boundary conditions

net charge:   0.00000000

component 0 (CO2) lambda:  0 occupancy:  0 (0.000000)
    net charge:   0.00000000 [e]

Amount of molecules per component :
-------------------------------------------------------------------------------
Component 0 (CO2)
    molecules:      2.280000e+02 molecules  (2.284969e+02 +/- 2.945223e+00)
    number density: 1.349341e-02 molec./A^3 (1.424005e-02 +/- 1.882108e-04)
    density:        9.858518e+02 kg/m^3     (1.040402e+03 +/- 1.375100e+01)

Average pressure tensor: 
-------------------------------------------------------------------------------
 1.3628e+01  3.2853e+00 -2.6374e+01 +/- 3.5611e+01 4.2433e+01 3.6372e+01 [bar]
 3.2853e+00  4.0536e+01  5.1478e+00 +/- 4.2433e+01 4.9905e+01 4.9001e+01 [bar]
-2.6374e+01  5.1478e+00 -1.3947e+00 +/- 3.6372e+01 4.9001e+01 4.8147e+01 [bar]
Ideal-gas pressure:   4.915132e+02 +/ 6.496332e+00 [bar]
Excess pressure:     -4.739236e+02 +/ 3.663619e+01 [bar]
Pressure:             1.758960e+01 +/ 3.215780e+01 [bar]

Total potential energy/kʙ  -3.169762e+05 (-3.429489e+05 +/- 2.887759e+03) [K]
-------------------------------------------------------------------------------
ExternalField-molecule
    Van der Waals/kʙ        0.000000e+00 ( 0.000000e+00 +/- 0.000000e+00) [K]
Framework-molecule
    Van der Waals/kʙ        0.000000e+00 ( 0.000000e+00 +/- 0.000000e+00) [K]
    Van der Waals (Tail)/kʙ 0.000000e+00 ( 0.000000e+00 +/- 0.000000e+00) [K]
    Coulombic Real/kʙ       0.000000e+00 ( 0.000000e+00 +/- 0.000000e+00) [K]
    Coulombic Fourier/kʙ    0.000000e+00 ( 0.000000e+00 +/- 0.000000e+00) [K]
Molecule-molecule
    Van der Waals/kʙ       -2.322310e+05 (-2.490766e+05 +/- 1.691103e+03) [K]
    Van der Waals (Tail)/kʙ-5.713376e+03 (-6.048580e+03 +/- 4.367062e+01) [K]
    Coulombic Real/kʙ      -7.156027e+04 (-8.013046e+04 +/- 1.039542e+03) [K]
    Coulombic Fourier/kʙ   -7.471608e+03 (-7.693321e+03 +/- 1.307022e+02) [K]
    Molecule Intra/kʙ       0.000000e+00 ( 0.000000e+00 +/- 0.000000e+00) [K]


Energy statistics             |  Energy [K]   | Recomputed [K]|  Drift [K]    |
===============================================================================
Total potential energy/kʙ     | -3.224771e+05 | -3.224771e+05 |  4.088891e-09 |
    external field VDW/kʙ     |  0.000000e+00 |  0.000000e+00 |  0.000000e+00 |
    external field Real/kʙ    |  0.000000e+00 |  0.000000e+00 |  0.000000e+00 |
    framework-molecule VDW/kʙ |  0.000000e+00 |  0.000000e+00 |  0.000000e+00 |
    framework-molecule Real/kʙ|  0.000000e+00 |  0.000000e+00 |  0.000000e+00 |
    molecule-molecule VDW/kʙ  | -2.362597e+05 | -2.362597e+05 |  1.400155e-10 |
    molecule-molecule Real/kʙ | -7.221995e+04 | -7.221995e+04 | -2.712801e-10 |
    Van der Waals (Tail)/kʙ   | -5.719886e+03 | -5.719886e+03 |  2.942514e-10 |
    Ewald Fourier/kʙ          |  5.188913e+03 |  5.188913e+03 |  5.469357e-12 |
    Ewald self/kʙ             | -4.205993e+06 | -4.205993e+06 |  1.120124e-09 |
    Ewald exclusion/kʙ        |  4.192527e+06 |  4.192527e+06 |  2.800311e-09 |
    intra VDW/kʙ              |  0.000000e+00 |  0.000000e+00 |  0.000000e+00 |
    intra Coulombic/kʙ        |  0.000000e+00 |  0.000000e+00 |  0.000000e+00 |
    polarization/kʙ           |  0.000000e+00 |  0.000000e+00 |  0.000000e+00 |
    dU/dlambda VDW/kʙ         |  0.000000e+00 |  0.000000e+00 |  0.000000e+00 |
    dU/dlambda Real/kʙ        |  0.000000e+00 |  0.000000e+00 |  0.000000e+00 |
    dU/dlambda Ewald/kʙ       |  0.000000e+00 |  0.000000e+00 |  0.000000e+00 |
-------------------------------------------------------------------------------


Monte-Carlo moves statistics
===============================================================================

    Gibbs volume         all:                3025
    Gibbs volume         total:              5980
    Gibbs volume         constructed:        5980
    Gibbs volume         accepted:           3307
    Gibbs volume         fraction:       0.553010
    Gibbs volume         max-change:     0.037617

Component 0 [CO2]
    Reinsertion (CBMC)   all:              149216
    Reinsertion (CBMC)   total:            149216
    Reinsertion (CBMC)   constructed:      135443
    Reinsertion (CBMC)   accepted:           2793
    Reinsertion (CBMC)   fraction:       0.018718
    Reinsertion (CBMC)   max-change:     0.000000

    Gibbs swap (CBMC)    all:              299329
    Gibbs swap (CBMC)    total:            597876
    Gibbs swap (CBMC)    constructed:      569497
    Gibbs swap (CBMC)    accepted:          41047
    Gibbs swap (CBMC)    fraction:       0.068655
    Gibbs swap (CBMC)    max-change:     0.000000

    Translation          all:              149792
    Translation          total:             49778      49891      50123
    Translation          constructed:       49778      49891      50123
    Translation          accepted:          27341      23486      24390
    Translation          fraction:       0.549259   0.470746   0.486603
    Translation          max-change:     0.632316   0.696441   0.690810

    Rotation             all:              149178
    Rotation             total:             49651      49611      49916
    Rotation             constructed:       49366      49611      49775
    Rotation             accepted:          15789      21961      17362
    Rotation             fraction:       0.318000   0.442664   0.347824
    Rotation             max-change:     0.879597   0.756985   0.842307



Production run counting of the MC moves summed over systems and components
===============================================================================

Reinsertion (CBMC)                   298154 (19.8769 [%])
Gibbs volume                           5980 (0.3987 [%])
Gibbs swap (CBMC)                    597876 (39.8584 [%])
Translation                          299349 (19.9566 [%])
Rotation                             298641 (19.9094 [%])

Production count MC-steps:          1500000 [-]
               All summed:          1500000 [-]
               difference:                0 [-]


Production run CPU timings of the MC moves
===============================================================================

Component 0 CO2

Rotation                             22.258320 [s]
    Ewald                             5.212594 [s]
    ExternalField-Molecule            0.008019 [s]
    Framework-Molecule                0.008308 [s]
    Molecule-Molecule                16.630390 [s]
    Overhead                          0.399009 [s]

Reinsertion (CBMC)                  120.875299 [s]
    Ewald                             4.820024 [s]
    NonEwald                        115.921252 [s]
    Overhead                          0.134023 [s]

Translation                          22.441432 [s]
    Ewald                             5.241119 [s]
    ExternalField-Molecule            0.007765 [s]
    Framework-Molecule                0.012622 [s]
    Molecule-Molecule                16.701561 [s]
    Overhead                          0.478365 [s]



Gibbs swap (CBMC)                   162.462991 [s]
    Ewald                            15.424452 [s]
    NonEwald                        145.346109 [s]
    Tail                              1.146117 [s]

Gibbs volume                         27.297521 [s]
    Ewald                             5.553267 [s]
    NonEwald                         20.736821 [s]
    Tail                              0.864257 [s]

Property sampling                     0.324016 [s]
Energy/pressure sampling:            10.035537 [s]


Production run CPU timings of the MC moves summed over systems and components
===============================================================================


Translation                          29.145852 [s]
    Ewald                            10.475403 [s]
    ExternalField-Molecule            0.015693 [s]
    Framework-Molecule                0.025161 [s]
    Molecule-Molecule                17.577882 [s]
    Overhead                          1.051713 [s]

Rotation                             28.941904 [s]
    Ewald                            10.443607 [s]
    ExternalField-Molecule            0.016032 [s]
    Framework-Molecule                0.016753 [s]
    Molecule-Molecule                17.495105 [s]
    Overhead                          0.970407 [s]

Reinsertion (CBMC)                  136.800984 [s]
    Ewald                            10.051754 [s]
    NonEwald                        126.164704 [s]
    Overhead                          0.584526 [s]

Gibbs volume                         53.875782 [s]
    Ewald                            10.945055 [s]
    NonEwald                         40.946978 [s]
    Tail                              1.704713 [s]
    Overhead                          0.279036 [s]

Gibbs swap (CBMC)                   343.764238 [s]
    Ewald                            32.401974 [s]
    NonEwald                        307.507762 [s]
    Tail                              2.708626 [s]
    Overhead                          1.145876 [s]

Property sampling:                    0.625558 [s]
Energy/pressure sampling:            10.466283 [s]

Production simulation time:         604.638629 [s]
                All summed:         603.620601 [s]
                  Overhead:           1.018028 [s]


Initalization simulation time:      194.478490 [s]
Equilibration simulation time:        0.000000 [s]
Production simulation time:         604.638629 [s]
Total simulation time:              799.117119 [s]


Energy averages and statistics:
===============================================================================

Framework-molecule energy:
-------------------------------------------------------------------------------



Framework-molecule energy contributions per energy type:
-------------------------------------------------------------------------------



Inter-molecular energy:
-------------------------------------------------------------------------------

    Inter-molecular energy/kʙ 0-0 [CO2-CO2]:
    ---------------------------------------------------------------------------
        Block[  0] -3.451744e+05
        Block[  1] -3.407759e+05
        Block[  2] -3.452066e+05
        Block[  3] -3.403468e+05
        Block[  4] -3.415190e+05
        -----------------------------------------------------------------------
        Average  -3.426045e+05 +/-  2.976598e+03 [K]



Inter-molecular energy contributions per energy type:
-------------------------------------------------------------------------------

    Van der Waals energy/kʙ 0-0 [CO2-CO2]:
    ---------------------------------------------------------------------------
        Block[  0] -2.503900e+05
        Block[  1] -2.476693e+05
        Block[  2] -2.504110e+05
        Block[  3] -2.476937e+05
        Block[  4] -2.482179e+05
        -----------------------------------------------------------------------
        Average  -2.488764e+05 +/-  1.748602e+03 [K]

    VDW Tail-Correction energy/kʙ 0-0 [CO2-CO2]:
    ---------------------------------------------------------------------------
        Block[  0] -6.067275e+03
        Block[  1] -6.013923e+03
        Block[  2] -6.085418e+03
        Block[  3] -6.008464e+03
        Block[  4] -6.046955e+03
        -----------------------------------------------------------------------
        Average  -6.044407e+03 +/-  4.132658e+01 [K]

    Coulomb Real energy/kʙ 0-0 [CO2-CO2]:
    ---------------------------------------------------------------------------
        Block[  0] -8.089603e+04
        Block[  1] -7.945741e+04
        Block[  2] -8.094875e+04
        Block[  3] -7.909264e+04
        Block[  4] -7.956274e+04
        -----------------------------------------------------------------------
        Average  -7.999151e+04 +/-  1.077207e+03 [K]

    Coulomb Fourier energy/kʙ 0-0 [CO2-CO2]:
    ---------------------------------------------------------------------------
        Block[  0] -7.821132e+03
        Block[  1] -7.635284e+03
        Block[  2] -7.761424e+03
        Block[  3] -7.551971e+03
        Block[  4] -7.691381e+03
        -----------------------------------------------------------------------
        Average  -7.692238e+03 +/-  1.306783e+02 [K]


Total energy/kʙ
-------------------------------------------------------------------------------
    Block[  0] -3.451744e+05
    Block[  1] -3.407759e+05
    Block[  2] -3.452066e+05
    Block[  3] -3.403468e+05
    Block[  4] -3.415190e+05
    ---------------------------------------------------------------------------
    Average  -3.426045e+05 +/-  2.976598e+03 [K]

Pressure averages and statistics:
===============================================================================

Average pressure tensor: 
-------------------------------------------------------------------------------
 1.5956e+01 -2.9840e-01 -2.7355e+01 +/- 3.4772e+01 4.8361e+01 3.4583e+01 [bar]
-2.9840e-01  3.6013e+01  5.6778e+00 +/- 4.8361e+01 4.7422e+01 4.8647e+01 [bar]
-2.7355e+01  5.6778e+00 -9.8447e-01 +/- 3.4583e+01 4.8647e+01 4.6516e+01 [bar]

    Block[  0]  4.998038e+07
    Block[  1]  4.866030e+07
    Block[  2]  4.914896e+07
    Block[  3]  4.918884e+07
    Block[  4]  4.859153e+07
    ---------------------------------------------------------------------------
    Ideal gas pressure   4.911400e+07 +/-  4.156303e-02 [Pa]
                         4.911400e+02 +/-  6.901709e+00 [bar]


    Block[  0] -5.124334e+07
    Block[  1] -4.721285e+07
    Block[  2] -4.455873e+07
    Block[  3] -4.923624e+07
    Block[  4] -4.482138e+07
    ---------------------------------------------------------------------------
    Excess pressure  -4.741451e+07 +/-  3.560383e+06 [Pa]
                     -4.741451e+02 +/-  3.560383e+01 [bar]


    Block[  0] -1.262966e+06
    Block[  1]  1.447455e+06
    Block[  2]  4.590227e+06
    Block[  3] -4.739834e+04
    Block[  4]  3.770155e+06
    ---------------------------------------------------------------------------
    Pressure average   1.699494e+06 +/-  3.074682e+06 [Pa]
                       1.699494e+01 +/-  3.074682e+01 [bar]


Enthalpy of adsorption
===============================================================================

Component 0 [CO2]
-------------------------------------------------------------------------------
    Block[  0] -2.578167e+03
    Block[  1] -1.973564e+03
    Block[  2] -2.362415e+03
    Block[  3] -2.648442e+03
    Block[  4] -2.693386e+03
    ---------------------------------------------------------------------------
    Enthalpy of adsorption: -2.451195e+03 +/-  3.670715e+02 [K]
                            -2.038037e+01 +/-  3.052003e+00 [kJ/mol]
    Warning: need to subtract the ideal-gas energy.


Densities
===============================================================================

Component 0 (CO2)
    Block[  0] 225.57416666666668
    Block[  1] 229.54250000000002
    Block[  2] 229.92083333333335
    Block[  3] 226.5275
    Block[  4] 230.95916666666668
    -----------------------------------------------------------------------
    Density average   2.285048e+02 +/-  2.885185e+00 [molecules]
    Density average   1.422924e-02 +/-  1.999553e-04 [molec/A^3]
    Density average   1.039612e+03 +/-  1.460908e+01 [kg.m⁻³]

