Compiler and run-time data
===============================================================================
RASPA 3.0.4

Random seed: 2410839748

Compiled as a 64-bits application
Compiler: gcc Ubuntu Clang 18.1.3 (1ubuntu1)
Compile Date = Mar 15 2025, Compile Time = 19:39:45

2025-06-03 11:00:36.101584
Simulation started on Tue, Jun 03
The start time was 11:00:00

Hostname:    c062
OS type:     Linux on x86_64
OS release:  6.8.0-58-generic
OS version:  #60-Ubuntu SMP PREEMPT_DYNAMIC Fri Mar 14 18:29:48 UTC 2025


Mutual consistent basic set of units:
===============================================================================

Unit of temperature: 1 [K]
Unit of length:      1e-10 [m]
Unit of time:        1e-12 [s]
Unit of mass:        1.6605402e-27 [kg]
Unit of charge:      1.60217733e-19 [C/particle]


Boltzmann constant (internal units):          0.8314464919307584 [-]
represents conversion from energy (internal units) to temperature (in Kelvin)

Derived units and their conversion factors:
===============================================================================

Unit of energy:                           1.6605402000000002e-23 [J]
Unit of energy:                           10.000008872307538 [J.mol⁻¹]
Unit of velocity:                         100 [m.s⁻¹]
Unit of force:                            1.6605402000000002e-13 [N]
Unit of diffusion:                        1.0000000000000002e-08 [m².s⁻¹]
Unit of acceleration:                     1.0000000000000002e-08 [m².s⁻¹]
Unit of torque:                           1.6605402000000002e-23 [N.m]
Unit of pressure:                         16605402 [Pa]
Unit of volume:                           1e-30 [m³]
Unit of density:                          1660.5402 [kg.m⁻³]
Unit of dynamic viscosity:                1.6605401999999997e-05 [N.s.m⁻²]
Unit of enthalpy:                         1.6605402000000002e-23 [J]
Unit of polarizability:                   1.5458657349975198e-35 [-]
Unit of Coulomb potential:                167101.08000665612 [K]
Unit of dielectric constant:              1.5458657349975193e-05 [s².C².kg⁻¹.m⁻³]
Unit of dipole moment:                    1.60217733e-29 [C.m]
Unit of Debye:                            4.803206799099162 [C.m]
Unit of electric potential:               0.00010364272224473431 [V]
Unit of electric field:                   1036427.222447343 [V.m⁻¹]
Unit of isothermal compressibility:       6.02213665167516e-08 [Pa⁻¹]
Unit of heat capacity:                    10.000008872307538 [J.mol⁻¹.K⁻¹]
Unit of volumetric expansion coefficient: 1 [K⁻¹]


Internal conversion factors:
===============================================================================

Energy (internal units) to Kelvin:      1.202724284692786 [-]
Kelvin to energy (internal units):      0.8314457542157567 [-]


System definitions
===============================================================================

Temperature:          280 [K]
Beta:                 0.004295440062697377 [-]
Pressure:             0 [Pa]
Helium void fraction: 1 [-]

Box:      30.00000   0.00000   0.00000
           0.00000  30.00000   0.00000
           0.00000   0.00000  30.00000
Lengths:  30.00000  30.00000  30.00000
Angles:   90.00000  90.00000  90.00000
Rectangular boundary conditions



Property measurement settings
===============================================================================




Pseudo-atoms
===============================================================================

  0 - C_co2    framework-atom: false
  1 - O_co2    framework-atom: false

  0 - C_co2    mass: 12.00000, charge:  0.70000
  1 - O_co2    mass: 15.99940, charge: -0.35000

  0 - C_co2    polarizability:  0.00000
  1 - O_co2    polarizability:  0.00000

  0 - J. J. Potoff et al., AIChE J. 2001, 47, 1676–1682.
  1 - J. J. Potoff et al., AIChE J. 2001, 47, 1676–1682.

Force field status
===============================================================================

Cutoff Framework-Molecule VDW:  12.00000 [Å]
Cutoff Molecule-Molecule VDW:   12.00000 [Å]
Cutoff Coulomb:                 12.00000 [Å]

Overlap-criteria VDW:           1.000000e+05 [K]

C_co2    - C_co2    Lennard-Jones p₀/kʙ:  27.00000 [K], p₁:  2.80000 [Å]
                                  shift:   0.00000 [K], tailcorrections: true
C_co2    - O_co2    Lennard-Jones p₀/kʙ:  46.18441 [K], p₁:  2.92500 [Å]
                                  shift:   0.00000 [K], tailcorrections: true
O_co2    - O_co2    Lennard-Jones p₀/kʙ:  79.00000 [K], p₁:  3.05000 [Å]
                                  shift:   0.00000 [K], tailcorrections: true

Ewald precision: 1e-06
Ewald alpha: 0.26505830360350674
Ewald k-vectors: 8 8 8


Component definitions
===============================================================================

Component 0 [CO2]

    Type: Adsorbate

    Critical temperature:  304.1282 [K]
    Critical pressure:     7377300 [Pa]
    Acentric factor:       0.22394 [-]

    Mol-fraction:                 1 [-]
    Swappable:                   true

    Mass:                         43.9988 [-]
    Fugacity coefficient:         -nan [-]
    Bulk fluid density:           0 [-]
    Compressibility:              1 [-]
    Excess molecules:             0 [-]

    Number Of Atoms:    3
    CBMC starting bead: 0
      0: O_co2  position  0.00000 -0.00000  1.16000, charge -0.35000
      1: C_co2  position  0.00000 -0.00000  0.00000, charge  0.70000
      2: O_co2  position  0.00000 -0.00000 -1.16000, charge -0.35000
    Diagonalized inertia-vector:      43.05758528 43.05758528 0.00000000
    Translational degrees of freedom: 3
    Rotational degrees of freedom:    2
    Shape of the molecule is: 'Linear'
    Net-charge:        0.00000000 [e]

    Move probabilities:
    Translation:                   0.199203 [-]
    Random translation:            0.000000 [-]
    Rotation:                      0.199203 [-]
    Random rotation:               0.000000 [-]
    Volume change:                 0.000000 [-]
    Reinsertion (CBMC):            0.199203 [-]
    Identity change (CBMC):        0.000000 [-]
    Swap:                          0.000000 [-]
    Swap (CBMC):                   0.000000 [-]
    Swap (CFCMC):                  0.000000 [-]
    Swap (CB/CFCMC):               0.000000 [-]
    Gibbs volume:                  0.003984 [-]
    Gibbs swap (CBMC):             0.398406 [-]
    Gibbs swap (CFCMC):            0.000000 [-]
    Widom:                         0.000000 [-]
    Widom (CFCMC):                 0.000000 [-]
    Widom (CB/CFCMC):              0.000000 [-]
    Parallel tempering:            0.000000 [-]
    Hybrid MC:                     0.000000 [-]

    number of blocking-pockets: 0

    number of bonds: 0





Number of pseudo-atoms
===============================================================================

Component   0 (CO2)
-------------------------------------------------------------------------------
    index   0 (C_co2): 40 atoms
    index   1 (O_co2): 80 atoms

Total number of pseudo-atoms:
-------------------------------------------------------------------------------
    index   0 (C_co2): 40 atoms
    index   1 (O_co2): 80 atoms




Energy status Recomputed from scratch
===============================================================================

Total potential energy/kʙ       -5.411899e+03 [K]
    external field VDW/kʙ        0.000000e+00 [K]
    external field Real/kʙ       0.000000e+00 [K]
    framework-molecule VDW/kʙ    0.000000e+00 [K]
    framework-molecule Real/kʙ   0.000000e+00 [K]
    molecule-molecule VDW/kʙ    -5.173937e+03 [K]
    molecule-molecule Real/kʙ   -1.653036e+02 [K]
    Van der Waals (Tail)/kʙ     -1.100506e+02 [K]
    Ewald Fourier/kʙ             2.389618e+03 [K]
    Ewald self/kʙ               -7.346713e+05 [K]
    Ewald exclusion/kʙ           7.323191e+05 [K]
    intra VDW/kʙ                 0.000000e+00 [K]
    intra Coulombic/kʙ           0.000000e+00 [K]
    polarization/kʙ              0.000000e+00 [K]
    dU/dlambda VDW/kʙ            0.000000e+00 [K]
    dU/dlambda Real/kʙ           0.000000e+00 [K]
    dU/dlambda Ewald/kʙ          0.000000e+00 [K]





Initialization: Current cycle: 0 out of 2000
===============================================================================

Box:      30.00000   0.00000   0.00000
           0.00000  30.00000   0.00000
           0.00000   0.00000  30.00000
Lengths:  30.00000  30.00000  30.00000
Angles:   90.00000  90.00000  90.00000
Rectangular boundary conditions

net charge:   0.00000000

component   0 (CO2) lambda:  0 occupancy:  1 (1.000000)
    net charge:   0.00000000 [e]

Amount of molecules per component :
-------------------------------------------------------------------------------
Component 0 (CO2)
    molecules:         4.200000e+01 molecules
    number density:    1.555556e-03 molec/A^3
    density:           1.136516e+02 kg/m^3

Total potential energy/kʙ       -8.613074e+03 [K]
-------------------------------------------------------------------------------
    external field VDW/kʙ        0.000000e+00 [K]
    external field Real/kʙ       0.000000e+00 [K]
    framework-molecule VDW/kʙ    0.000000e+00 [K]
    framework-molecule Real/kʙ   0.000000e+00 [K]
    molecule-molecule VDW/kʙ    -6.567720e+03 [K]
    molecule-molecule Real/kʙ   -1.793643e+03 [K]
    Van der Waals (Tail)/kʙ     -1.213308e+02 [K]
    Ewald Fourier/kʙ             2.339456e+03 [K]
    Ewald self/kʙ               -7.714048e+05 [K]
    Ewald exclusion/kʙ           7.689350e+05 [K]
    intra VDW/kʙ                 0.000000e+00 [K]
    intra Coulombic/kʙ           0.000000e+00 [K]
    polarization/kʙ              0.000000e+00 [K]
    dU/dlambda VDW/kʙ            0.000000e+00 [K]
    dU/dlambda Real/kʙ           0.000000e+00 [K]
    dU/dlambda Ewald/kʙ          0.000000e+00 [K]


Initialization: Current cycle: 100 out of 2000
===============================================================================

Box:      30.58935   0.00000   0.00000
           0.00000  30.58935   0.00000
           0.00000   0.00000  30.58935
Lengths:  30.58935  30.58935  30.58935
Angles:   90.00000  90.00000  90.00000
Rectangular boundary conditions

net charge:   0.00000000

component   0 (CO2) lambda:  0 occupancy:  1 (1.000000)
    net charge:   0.00000000 [e]

Amount of molecules per component :
-------------------------------------------------------------------------------
Component 0 (CO2)
    molecules:         4.200000e+01 molecules
    number density:    1.467366e-03 molec/A^3
    density:           1.072083e+02 kg/m^3

Total potential energy/kʙ       -9.120024e+03 [K]
-------------------------------------------------------------------------------
    external field VDW/kʙ        0.000000e+00 [K]
    external field Real/kʙ       0.000000e+00 [K]
    framework-molecule VDW/kʙ    0.000000e+00 [K]
    framework-molecule Real/kʙ   0.000000e+00 [K]
    molecule-molecule VDW/kʙ    -6.549138e+03 [K]
    molecule-molecule Real/kʙ   -2.376991e+03 [K]
    Van der Waals (Tail)/kʙ     -1.144522e+02 [K]
    Ewald Fourier/kʙ             2.390394e+03 [K]
    Ewald self/kʙ               -7.714048e+05 [K]
    Ewald exclusion/kʙ           7.689350e+05 [K]
    intra VDW/kʙ                 0.000000e+00 [K]
    intra Coulombic/kʙ           0.000000e+00 [K]
    polarization/kʙ              0.000000e+00 [K]
    dU/dlambda VDW/kʙ            0.000000e+00 [K]
    dU/dlambda Real/kʙ           0.000000e+00 [K]
    dU/dlambda Ewald/kʙ          0.000000e+00 [K]


Initialization: Current cycle: 200 out of 2000
===============================================================================

Box:      30.31831   0.00000   0.00000
           0.00000  30.31831   0.00000
           0.00000   0.00000  30.31831
Lengths:  30.31831  30.31831  30.31831
Angles:   90.00000  90.00000  90.00000
Rectangular boundary conditions

net charge:   0.00000000

component   0 (CO2) lambda:  0 occupancy:  1 (1.000000)
    net charge:   0.00000000 [e]

Amount of molecules per component :
-------------------------------------------------------------------------------
Component 0 (CO2)
    molecules:         3.500000e+01 molecules
    number density:    1.255894e-03 molec/A^3
    density:           9.175778e+01 kg/m^3

Total potential energy/kʙ       -4.230958e+03 [K]
-------------------------------------------------------------------------------
    external field VDW/kʙ        0.000000e+00 [K]
    external field Real/kʙ       0.000000e+00 [K]
    framework-molecule VDW/kʙ    0.000000e+00 [K]
    framework-molecule Real/kʙ   0.000000e+00 [K]
    molecule-molecule VDW/kʙ    -3.251306e+03 [K]
    molecule-molecule Real/kʙ   -7.743164e+02 [K]
    Van der Waals (Tail)/kʙ     -8.163142e+01 [K]
    Ewald Fourier/kʙ             1.934493e+03 [K]
    Ewald self/kʙ               -6.428374e+05 [K]
    Ewald exclusion/kʙ           6.407792e+05 [K]
    intra VDW/kʙ                 0.000000e+00 [K]
    intra Coulombic/kʙ           0.000000e+00 [K]
    polarization/kʙ              0.000000e+00 [K]
    dU/dlambda VDW/kʙ            0.000000e+00 [K]
    dU/dlambda Real/kʙ           0.000000e+00 [K]
    dU/dlambda Ewald/kʙ          0.000000e+00 [K]


Initialization: Current cycle: 300 out of 2000
===============================================================================

Box:      30.98187   0.00000   0.00000
           0.00000  30.98187   0.00000
           0.00000   0.00000  30.98187
Lengths:  30.98187  30.98187  30.98187
Angles:   90.00000  90.00000  90.00000
Rectangular boundary conditions

net charge:   0.00000000

component   0 (CO2) lambda:  0 occupancy:  1 (1.000000)
    net charge:   0.00000000 [e]

Amount of molecules per component :
-------------------------------------------------------------------------------
Component 0 (CO2)
    molecules:         4.900000e+01 molecules
    number density:    1.647682e-03 molec/A^3
    density:           1.203824e+02 kg/m^3

Total potential energy/kʙ       -1.129716e+04 [K]
-------------------------------------------------------------------------------
    external field VDW/kʙ        0.000000e+00 [K]
    external field Real/kʙ       0.000000e+00 [K]
    framework-molecule VDW/kʙ    0.000000e+00 [K]
    framework-molecule Real/kʙ   0.000000e+00 [K]
    molecule-molecule VDW/kʙ    -9.639682e+03 [K]
    molecule-molecule Real/kʙ   -1.586952e+03 [K]
    Van der Waals (Tail)/kʙ     -1.499359e+02 [K]
    Ewald Fourier/kʙ             2.960887e+03 [K]
    Ewald self/kʙ               -8.999723e+05 [K]
    Ewald exclusion/kʙ           8.970908e+05 [K]
    intra VDW/kʙ                 0.000000e+00 [K]
    intra Coulombic/kʙ           0.000000e+00 [K]
    polarization/kʙ              0.000000e+00 [K]
    dU/dlambda VDW/kʙ            0.000000e+00 [K]
    dU/dlambda Real/kʙ           0.000000e+00 [K]
    dU/dlambda Ewald/kʙ          0.000000e+00 [K]


Initialization: Current cycle: 400 out of 2000
===============================================================================

Box:      31.36645   0.00000   0.00000
           0.00000  31.36645   0.00000
           0.00000   0.00000  31.36645
Lengths:  31.36645  31.36645  31.36645
Angles:   90.00000  90.00000  90.00000
Rectangular boundary conditions

net charge:   0.00000000

component   0 (CO2) lambda:  0 occupancy:  1 (1.000000)
    net charge:   0.00000000 [e]

Amount of molecules per component :
-------------------------------------------------------------------------------
Component 0 (CO2)
    molecules:         5.100000e+01 molecules
    number density:    1.652624e-03 molec/A^3
    density:           1.207436e+02 kg/m^3

Total potential energy/kʙ       -8.796953e+03 [K]
-------------------------------------------------------------------------------
    external field VDW/kʙ        0.000000e+00 [K]
    external field Real/kʙ       0.000000e+00 [K]
    framework-molecule VDW/kʙ    0.000000e+00 [K]
    framework-molecule Real/kʙ   0.000000e+00 [K]
    molecule-molecule VDW/kʙ    -7.925694e+03 [K]
    molecule-molecule Real/kʙ   -5.890968e+02 [K]
    Van der Waals (Tail)/kʙ     -1.565239e+02 [K]
    Ewald Fourier/kʙ             2.873450e+03 [K]
    Ewald self/kʙ               -9.367059e+05 [K]
    Ewald exclusion/kʙ           9.337068e+05 [K]
    intra VDW/kʙ                 0.000000e+00 [K]
    intra Coulombic/kʙ           0.000000e+00 [K]
    polarization/kʙ              0.000000e+00 [K]
    dU/dlambda VDW/kʙ            0.000000e+00 [K]
    dU/dlambda Real/kʙ           0.000000e+00 [K]
    dU/dlambda Ewald/kʙ          0.000000e+00 [K]


Initialization: Current cycle: 500 out of 2000
===============================================================================

Box:      31.68116   0.00000   0.00000
           0.00000  31.68116   0.00000
           0.00000   0.00000  31.68116
Lengths:  31.68116  31.68116  31.68116
Angles:   90.00000  90.00000  90.00000
Rectangular boundary conditions

net charge:   0.00000000

component   0 (CO2) lambda:  0 occupancy:  1 (1.000000)
    net charge:   0.00000000 [e]

Amount of molecules per component :
-------------------------------------------------------------------------------
Component 0 (CO2)
    molecules:         3.500000e+01 molecules
    number density:    1.100689e-03 molec/A^3
    density:           8.041824e+01 kg/m^3

Total potential energy/kʙ       -4.536027e+03 [K]
-------------------------------------------------------------------------------
    external field VDW/kʙ        0.000000e+00 [K]
    external field Real/kʙ       0.000000e+00 [K]
    framework-molecule VDW/kʙ    0.000000e+00 [K]
    framework-molecule Real/kʙ   0.000000e+00 [K]
    molecule-molecule VDW/kʙ    -3.423697e+03 [K]
    molecule-molecule Real/kʙ   -1.121457e+03 [K]
    Van der Waals (Tail)/kʙ     -7.154330e+01 [K]
    Ewald Fourier/kʙ             2.138868e+03 [K]
    Ewald self/kʙ               -6.428374e+05 [K]
    Ewald exclusion/kʙ           6.407792e+05 [K]
    intra VDW/kʙ                 0.000000e+00 [K]
    intra Coulombic/kʙ           0.000000e+00 [K]
    polarization/kʙ              0.000000e+00 [K]
    dU/dlambda VDW/kʙ            0.000000e+00 [K]
    dU/dlambda Real/kʙ           0.000000e+00 [K]
    dU/dlambda Ewald/kʙ          0.000000e+00 [K]


Initialization: Current cycle: 600 out of 2000
===============================================================================

Box:      32.04495   0.00000   0.00000
           0.00000  32.04495   0.00000
           0.00000   0.00000  32.04495
Lengths:  32.04495  32.04495  32.04495
Angles:   90.00000  90.00000  90.00000
Rectangular boundary conditions

net charge:   0.00000000

component   0 (CO2) lambda:  0 occupancy:  1 (1.000000)
    net charge:   0.00000000 [e]

Amount of molecules per component :
-------------------------------------------------------------------------------
Component 0 (CO2)
    molecules:         2.700000e+01 molecules
    number density:    8.205117e-04 molec/A^3
    density:           5.994799e+01 kg/m^3

Total potential energy/kʙ       -2.863084e+03 [K]
-------------------------------------------------------------------------------
    external field VDW/kʙ        0.000000e+00 [K]
    external field Real/kʙ       0.000000e+00 [K]
    framework-molecule VDW/kʙ    0.000000e+00 [K]
    framework-molecule Real/kʙ   0.000000e+00 [K]
    molecule-molecule VDW/kʙ    -2.377621e+03 [K]
    molecule-molecule Real/kʙ   -3.821862e+02 [K]
    Van der Waals (Tail)/kʙ     -4.114194e+01 [K]
    Ewald Fourier/kʙ             1.525617e+03 [K]
    Ewald self/kʙ               -4.959031e+05 [K]
    Ewald exclusion/kʙ           4.943154e+05 [K]
    intra VDW/kʙ                 0.000000e+00 [K]
    intra Coulombic/kʙ           0.000000e+00 [K]
    polarization/kʙ              0.000000e+00 [K]
    dU/dlambda VDW/kʙ            0.000000e+00 [K]
    dU/dlambda Real/kʙ           0.000000e+00 [K]
    dU/dlambda Ewald/kʙ          0.000000e+00 [K]


Initialization: Current cycle: 700 out of 2000
===============================================================================

Box:      32.68087   0.00000   0.00000
           0.00000  32.68087   0.00000
           0.00000   0.00000  32.68087
Lengths:  32.68087  32.68087  32.68087
Angles:   90.00000  90.00000  90.00000
Rectangular boundary conditions

net charge:   0.00000000

component   0 (CO2) lambda:  0 occupancy:  1 (1.000000)
    net charge:   0.00000000 [e]

Amount of molecules per component :
-------------------------------------------------------------------------------
Component 0 (CO2)
    molecules:         3.800000e+01 molecules
    number density:    1.088687e-03 molec/A^3
    density:           7.954132e+01 kg/m^3

Total potential energy/kʙ       -4.899717e+03 [K]
-------------------------------------------------------------------------------
    external field VDW/kʙ        0.000000e+00 [K]
    external field Real/kʙ       0.000000e+00 [K]
    framework-molecule VDW/kʙ    0.000000e+00 [K]
    framework-molecule Real/kʙ   0.000000e+00 [K]
    molecule-molecule VDW/kʙ    -4.742222e+03 [K]
    molecule-molecule Real/kʙ   -1.505581e+01 [K]
    Van der Waals (Tail)/kʙ     -7.682857e+01 [K]
    Ewald Fourier/kʙ             2.169004e+03 [K]
    Ewald self/kʙ               -6.979377e+05 [K]
    Ewald exclusion/kʙ           6.957031e+05 [K]
    intra VDW/kʙ                 0.000000e+00 [K]
    intra Coulombic/kʙ           0.000000e+00 [K]
    polarization/kʙ              0.000000e+00 [K]
    dU/dlambda VDW/kʙ            0.000000e+00 [K]
    dU/dlambda Real/kʙ           0.000000e+00 [K]
    dU/dlambda Ewald/kʙ          0.000000e+00 [K]


Initialization: Current cycle: 800 out of 2000
===============================================================================

Box:      32.96814   0.00000   0.00000
           0.00000  32.96814   0.00000
           0.00000   0.00000  32.96814
Lengths:  32.96814  32.96814  32.96814
Angles:   90.00000  90.00000  90.00000
Rectangular boundary conditions

net charge:   0.00000000

component   0 (CO2) lambda:  0 occupancy:  1 (1.000000)
    net charge:   0.00000000 [e]

Amount of molecules per component :
-------------------------------------------------------------------------------
Component 0 (CO2)
    molecules:         3.300000e+01 molecules
    number density:    9.209387e-04 molec/A^3
    density:           6.728536e+01 kg/m^3

Total potential energy/kʙ       -2.270271e+03 [K]
-------------------------------------------------------------------------------
    external field VDW/kʙ        0.000000e+00 [K]
    external field Real/kʙ       0.000000e+00 [K]
    framework-molecule VDW/kʙ    0.000000e+00 [K]
    framework-molecule Real/kʙ   0.000000e+00 [K]
    molecule-molecule VDW/kʙ    -1.849505e+03 [K]
    molecule-molecule Real/kʙ   -2.979512e+02 [K]
    Van der Waals (Tail)/kʙ     -5.643921e+01 [K]
    Ewald Fourier/kʙ             1.874210e+03 [K]
    Ewald self/kʙ               -6.061038e+05 [K]
    Ewald exclusion/kʙ           6.041632e+05 [K]
    intra VDW/kʙ                 0.000000e+00 [K]
    intra Coulombic/kʙ           0.000000e+00 [K]
    polarization/kʙ              0.000000e+00 [K]
    dU/dlambda VDW/kʙ            0.000000e+00 [K]
    dU/dlambda Real/kʙ           0.000000e+00 [K]
    dU/dlambda Ewald/kʙ          0.000000e+00 [K]


Initialization: Current cycle: 900 out of 2000
===============================================================================

Box:      32.47421   0.00000   0.00000
           0.00000  32.47421   0.00000
           0.00000   0.00000  32.47421
Lengths:  32.47421  32.47421  32.47421
Angles:   90.00000  90.00000  90.00000
Rectangular boundary conditions

net charge:   0.00000000

component   0 (CO2) lambda:  0 occupancy:  1 (1.000000)
    net charge:   0.00000000 [e]

Amount of molecules per component :
-------------------------------------------------------------------------------
Component 0 (CO2)
    molecules:         4.300000e+01 molecules
    number density:    1.255604e-03 molec/A^3
    density:           9.173659e+01 kg/m^3

Total potential energy/kʙ       -7.604030e+03 [K]
-------------------------------------------------------------------------------
    external field VDW/kʙ        0.000000e+00 [K]
    external field Real/kʙ       0.000000e+00 [K]
    framework-molecule VDW/kʙ    0.000000e+00 [K]
    framework-molecule Real/kʙ   0.000000e+00 [K]
    molecule-molecule VDW/kʙ    -5.238365e+03 [K]
    molecule-molecule Real/kʙ   -2.013765e+03 [K]
    Van der Waals (Tail)/kʙ     -1.002669e+02 [K]
    Ewald Fourier/kʙ             2.277009e+03 [K]
    Ewald self/kʙ               -7.897716e+05 [K]
    Ewald exclusion/kʙ           7.872430e+05 [K]
    intra VDW/kʙ                 0.000000e+00 [K]
    intra Coulombic/kʙ           0.000000e+00 [K]
    polarization/kʙ              0.000000e+00 [K]
    dU/dlambda VDW/kʙ            0.000000e+00 [K]
    dU/dlambda Real/kʙ           0.000000e+00 [K]
    dU/dlambda Ewald/kʙ          0.000000e+00 [K]


Initialization: Current cycle: 1000 out of 2000
===============================================================================

Box:      32.63601   0.00000   0.00000
           0.00000  32.63601   0.00000
           0.00000   0.00000  32.63601
Lengths:  32.63601  32.63601  32.63601
Angles:   90.00000  90.00000  90.00000
Rectangular boundary conditions

net charge:   0.00000000

component   0 (CO2) lambda:  0 occupancy:  1 (1.000000)
    net charge:   0.00000000 [e]

Amount of molecules per component :
-------------------------------------------------------------------------------
Component 0 (CO2)
    molecules:         5.000000e+01 molecules
    number density:    1.438397e-03 molec/A^3
    density:           1.050918e+02 kg/m^3

Total potential energy/kʙ       -1.010603e+04 [K]
-------------------------------------------------------------------------------
    external field VDW/kʙ        0.000000e+00 [K]
    external field Real/kʙ       0.000000e+00 [K]
    framework-molecule VDW/kʙ    0.000000e+00 [K]
    framework-molecule Real/kʙ   0.000000e+00 [K]
    molecule-molecule VDW/kʙ    -7.357314e+03 [K]
    molecule-molecule Real/kʙ   -2.159586e+03 [K]
    Van der Waals (Tail)/kʙ     -1.335627e+02 [K]
    Ewald Fourier/kʙ             2.484719e+03 [K]
    Ewald self/kʙ               -9.183391e+05 [K]
    Ewald exclusion/kʙ           9.153988e+05 [K]
    intra VDW/kʙ                 0.000000e+00 [K]
    intra Coulombic/kʙ           0.000000e+00 [K]
    polarization/kʙ              0.000000e+00 [K]
    dU/dlambda VDW/kʙ            0.000000e+00 [K]
    dU/dlambda Real/kʙ           0.000000e+00 [K]
    dU/dlambda Ewald/kʙ          0.000000e+00 [K]


Initialization: Current cycle: 1100 out of 2000
===============================================================================

Box:      32.96396   0.00000   0.00000
           0.00000  32.96396   0.00000
           0.00000   0.00000  32.96396
Lengths:  32.96396  32.96396  32.96396
Angles:   90.00000  90.00000  90.00000
Rectangular boundary conditions

net charge:   0.00000000

component   0 (CO2) lambda:  0 occupancy:  1 (1.000000)
    net charge:   0.00000000 [e]

Amount of molecules per component :
-------------------------------------------------------------------------------
Component 0 (CO2)
    molecules:         3.100000e+01 molecules
    number density:    8.654531e-04 molec/A^3
    density:           6.323149e+01 kg/m^3

Total potential energy/kʙ       -2.531134e+03 [K]
-------------------------------------------------------------------------------
    external field VDW/kʙ        0.000000e+00 [K]
    external field Real/kʙ       0.000000e+00 [K]
    framework-molecule VDW/kʙ    0.000000e+00 [K]
    framework-molecule Real/kʙ   0.000000e+00 [K]
    molecule-molecule VDW/kʙ    -2.309510e+03 [K]
    molecule-molecule Real/kʙ   -1.939115e+02 [K]
    Van der Waals (Tail)/kʙ     -4.982433e+01 [K]
    Ewald Fourier/kʙ             1.845086e+03 [K]
    Ewald self/kʙ               -5.693702e+05 [K]
    Ewald exclusion/kʙ           5.675473e+05 [K]
    intra VDW/kʙ                 0.000000e+00 [K]
    intra Coulombic/kʙ           0.000000e+00 [K]
    polarization/kʙ              0.000000e+00 [K]
    dU/dlambda VDW/kʙ            0.000000e+00 [K]
    dU/dlambda Real/kʙ           0.000000e+00 [K]
    dU/dlambda Ewald/kʙ          0.000000e+00 [K]


Initialization: Current cycle: 1200 out of 2000
===============================================================================

Box:      32.64054   0.00000   0.00000
           0.00000  32.64054   0.00000
           0.00000   0.00000  32.64054
Lengths:  32.64054  32.64054  32.64054
Angles:   90.00000  90.00000  90.00000
Rectangular boundary conditions

net charge:   0.00000000

component   0 (CO2) lambda:  0 occupancy:  1 (1.000000)
    net charge:   0.00000000 [e]

Amount of molecules per component :
-------------------------------------------------------------------------------
Component 0 (CO2)
    molecules:         3.400000e+01 molecules
    number density:    9.777031e-04 molec/A^3
    density:           7.143266e+01 kg/m^3

Total potential energy/kʙ       -3.165706e+03 [K]
-------------------------------------------------------------------------------
    external field VDW/kʙ        0.000000e+00 [K]
    external field Real/kʙ       0.000000e+00 [K]
    framework-molecule VDW/kʙ    0.000000e+00 [K]
    framework-molecule Real/kʙ   0.000000e+00 [K]
    molecule-molecule VDW/kʙ    -2.861542e+03 [K]
    molecule-molecule Real/kʙ   -1.741407e+02 [K]
    Van der Waals (Tail)/kʙ     -6.173367e+01 [K]
    Ewald Fourier/kʙ             1.931102e+03 [K]
    Ewald self/kʙ               -6.244706e+05 [K]
    Ewald exclusion/kʙ           6.224712e+05 [K]
    intra VDW/kʙ                 0.000000e+00 [K]
    intra Coulombic/kʙ           0.000000e+00 [K]
    polarization/kʙ              0.000000e+00 [K]
    dU/dlambda VDW/kʙ            0.000000e+00 [K]
    dU/dlambda Real/kʙ           0.000000e+00 [K]
    dU/dlambda Ewald/kʙ          0.000000e+00 [K]


Initialization: Current cycle: 1300 out of 2000
===============================================================================

Box:      32.37357   0.00000   0.00000
           0.00000  32.37357   0.00000
           0.00000   0.00000  32.37357
Lengths:  32.37357  32.37357  32.37357
Angles:   90.00000  90.00000  90.00000
Rectangular boundary conditions

net charge:   0.00000000

component   0 (CO2) lambda:  0 occupancy:  1 (1.000000)
    net charge:   0.00000000 [e]

Amount of molecules per component :
-------------------------------------------------------------------------------
Component 0 (CO2)
    molecules:         3.600000e+01 molecules
    number density:    1.061037e-03 molec/A^3
    density:           7.752118e+01 kg/m^3

Total potential energy/kʙ       -4.093341e+03 [K]
-------------------------------------------------------------------------------
    external field VDW/kʙ        0.000000e+00 [K]
    external field Real/kʙ       0.000000e+00 [K]
    framework-molecule VDW/kʙ    0.000000e+00 [K]
    framework-molecule Real/kʙ   0.000000e+00 [K]
    molecule-molecule VDW/kʙ    -2.746043e+03 [K]
    molecule-molecule Real/kʙ   -1.129508e+03 [K]
    Van der Waals (Tail)/kʙ     -7.093642e+01 [K]
    Ewald Fourier/kʙ             1.970149e+03 [K]
    Ewald self/kʙ               -6.612042e+05 [K]
    Ewald exclusion/kʙ           6.590872e+05 [K]
    intra VDW/kʙ                 0.000000e+00 [K]
    intra Coulombic/kʙ           0.000000e+00 [K]
    polarization/kʙ              0.000000e+00 [K]
    dU/dlambda VDW/kʙ            0.000000e+00 [K]
    dU/dlambda Real/kʙ           0.000000e+00 [K]
    dU/dlambda Ewald/kʙ          0.000000e+00 [K]


Initialization: Current cycle: 1400 out of 2000
===============================================================================

Box:      33.00909   0.00000   0.00000
           0.00000  33.00909   0.00000
           0.00000   0.00000  33.00909
Lengths:  33.00909  33.00909  33.00909
Angles:   90.00000  90.00000  90.00000
Rectangular boundary conditions

net charge:   0.00000000

component   0 (CO2) lambda:  0 occupancy:  1 (1.000000)
    net charge:   0.00000000 [e]

Amount of molecules per component :
-------------------------------------------------------------------------------
Component 0 (CO2)
    molecules:         3.600000e+01 molecules
    number density:    1.000925e-03 molec/A^3
    density:           7.312932e+01 kg/m^3

Total potential energy/kʙ       -5.046501e+03 [K]
-------------------------------------------------------------------------------
    external field VDW/kʙ        0.000000e+00 [K]
    external field Real/kʙ       0.000000e+00 [K]
    framework-molecule VDW/kʙ    0.000000e+00 [K]
    framework-molecule Real/kʙ   0.000000e+00 [K]
    molecule-molecule VDW/kʙ    -3.975915e+03 [K]
    molecule-molecule Real/kʙ   -8.790461e+02 [K]
    Van der Waals (Tail)/kʙ     -6.691761e+01 [K]
    Ewald Fourier/kʙ             1.992380e+03 [K]
    Ewald self/kʙ               -6.612042e+05 [K]
    Ewald exclusion/kʙ           6.590872e+05 [K]
    intra VDW/kʙ                 0.000000e+00 [K]
    intra Coulombic/kʙ           0.000000e+00 [K]
    polarization/kʙ              0.000000e+00 [K]
    dU/dlambda VDW/kʙ            0.000000e+00 [K]
    dU/dlambda Real/kʙ           0.000000e+00 [K]
    dU/dlambda Ewald/kʙ          0.000000e+00 [K]


Initialization: Current cycle: 1500 out of 2000
===============================================================================

Box:      32.88154   0.00000   0.00000
           0.00000  32.88154   0.00000
           0.00000   0.00000  32.88154
Lengths:  32.88154  32.88154  32.88154
Angles:   90.00000  90.00000  90.00000
Rectangular boundary conditions

net charge:   0.00000000

component   0 (CO2) lambda:  0 occupancy:  1 (1.000000)
    net charge:   0.00000000 [e]

Amount of molecules per component :
-------------------------------------------------------------------------------
Component 0 (CO2)
    molecules:         3.800000e+01 molecules
    number density:    1.068876e-03 molec/A^3
    density:           7.809389e+01 kg/m^3

Total potential energy/kʙ       -4.708319e+03 [K]
-------------------------------------------------------------------------------
    external field VDW/kʙ        0.000000e+00 [K]
    external field Real/kʙ       0.000000e+00 [K]
    framework-molecule VDW/kʙ    0.000000e+00 [K]
    framework-molecule Real/kʙ   0.000000e+00 [K]
    molecule-molecule VDW/kʙ    -3.547313e+03 [K]
    molecule-molecule Real/kʙ   -1.001785e+03 [K]
    Van der Waals (Tail)/kʙ     -7.543051e+01 [K]
    Ewald Fourier/kʙ             2.150824e+03 [K]
    Ewald self/kʙ               -6.979377e+05 [K]
    Ewald exclusion/kʙ           6.957031e+05 [K]
    intra VDW/kʙ                 0.000000e+00 [K]
    intra Coulombic/kʙ           0.000000e+00 [K]
    polarization/kʙ              0.000000e+00 [K]
    dU/dlambda VDW/kʙ            0.000000e+00 [K]
    dU/dlambda Real/kʙ           0.000000e+00 [K]
    dU/dlambda Ewald/kʙ          0.000000e+00 [K]


Initialization: Current cycle: 1600 out of 2000
===============================================================================

Box:      32.86747   0.00000   0.00000
           0.00000  32.86747   0.00000
           0.00000   0.00000  32.86747
Lengths:  32.86747  32.86747  32.86747
Angles:   90.00000  90.00000  90.00000
Rectangular boundary conditions

net charge:   0.00000000

component   0 (CO2) lambda:  0 occupancy:  1 (1.000000)
    net charge:   0.00000000 [e]

Amount of molecules per component :
-------------------------------------------------------------------------------
Component 0 (CO2)
    molecules:         3.300000e+01 molecules
    number density:    9.294270e-04 molec/A^3
    density:           6.790553e+01 kg/m^3

Total potential energy/kʙ       -4.575542e+03 [K]
-------------------------------------------------------------------------------
    external field VDW/kʙ        0.000000e+00 [K]
    external field Real/kʙ       0.000000e+00 [K]
    framework-molecule VDW/kʙ    0.000000e+00 [K]
    framework-molecule Real/kʙ   0.000000e+00 [K]
    molecule-molecule VDW/kʙ    -3.110334e+03 [K]
    molecule-molecule Real/kʙ   -1.456484e+03 [K]
    Van der Waals (Tail)/kʙ     -5.695940e+01 [K]
    Ewald Fourier/kʙ             1.988823e+03 [K]
    Ewald self/kʙ               -6.061038e+05 [K]
    Ewald exclusion/kʙ           6.041632e+05 [K]
    intra VDW/kʙ                 0.000000e+00 [K]
    intra Coulombic/kʙ           0.000000e+00 [K]
    polarization/kʙ              0.000000e+00 [K]
    dU/dlambda VDW/kʙ            0.000000e+00 [K]
    dU/dlambda Real/kʙ           0.000000e+00 [K]
    dU/dlambda Ewald/kʙ          0.000000e+00 [K]


Initialization: Current cycle: 1700 out of 2000
===============================================================================

Box:      33.41321   0.00000   0.00000
           0.00000  33.41321   0.00000
           0.00000   0.00000  33.41321
Lengths:  33.41321  33.41321  33.41321
Angles:   90.00000  90.00000  90.00000
Rectangular boundary conditions

net charge:   0.00000000

component   0 (CO2) lambda:  0 occupancy:  1 (1.000000)
    net charge:   0.00000000 [e]

Amount of molecules per component :
-------------------------------------------------------------------------------
Component 0 (CO2)
    molecules:         4.300000e+01 molecules
    number density:    1.152694e-03 molec/A^3
    density:           8.421778e+01 kg/m^3

Total potential energy/kʙ       -8.846534e+03 [K]
-------------------------------------------------------------------------------
    external field VDW/kʙ        0.000000e+00 [K]
    external field Real/kʙ       0.000000e+00 [K]
    framework-molecule VDW/kʙ    0.000000e+00 [K]
    framework-molecule Real/kʙ   0.000000e+00 [K]
    molecule-molecule VDW/kʙ    -6.683990e+03 [K]
    molecule-molecule Real/kʙ   -1.960122e+03 [K]
    Van der Waals (Tail)/kʙ     -9.204891e+01 [K]
    Ewald Fourier/kʙ             2.418269e+03 [K]
    Ewald self/kʙ               -7.897716e+05 [K]
    Ewald exclusion/kʙ           7.872430e+05 [K]
    intra VDW/kʙ                 0.000000e+00 [K]
    intra Coulombic/kʙ           0.000000e+00 [K]
    polarization/kʙ              0.000000e+00 [K]
    dU/dlambda VDW/kʙ            0.000000e+00 [K]
    dU/dlambda Real/kʙ           0.000000e+00 [K]
    dU/dlambda Ewald/kʙ          0.000000e+00 [K]


Initialization: Current cycle: 1800 out of 2000
===============================================================================

Box:      32.90536   0.00000   0.00000
           0.00000  32.90536   0.00000
           0.00000   0.00000  32.90536
Lengths:  32.90536  32.90536  32.90536
Angles:   90.00000  90.00000  90.00000
Rectangular boundary conditions

net charge:   0.00000000

component   0 (CO2) lambda:  0 occupancy:  1 (1.000000)
    net charge:   0.00000000 [e]

Amount of molecules per component :
-------------------------------------------------------------------------------
Component 0 (CO2)
    molecules:         4.100000e+01 molecules
    number density:    1.150758e-03 molec/A^3
    density:           8.407637e+01 kg/m^3

Total potential energy/kʙ       -7.103830e+03 [K]
-------------------------------------------------------------------------------
    external field VDW/kʙ        0.000000e+00 [K]
    external field Real/kʙ       0.000000e+00 [K]
    framework-molecule VDW/kʙ    0.000000e+00 [K]
    framework-molecule Real/kʙ   0.000000e+00 [K]
    molecule-molecule VDW/kʙ    -5.391614e+03 [K]
    molecule-molecule Real/kʙ   -1.333953e+03 [K]
    Van der Waals (Tail)/kʙ     -8.762019e+01 [K]
    Ewald Fourier/kʙ             2.120389e+03 [K]
    Ewald self/kʙ               -7.530381e+05 [K]
    Ewald exclusion/kʙ           7.506270e+05 [K]
    intra VDW/kʙ                 0.000000e+00 [K]
    intra Coulombic/kʙ           0.000000e+00 [K]
    polarization/kʙ              0.000000e+00 [K]
    dU/dlambda VDW/kʙ            0.000000e+00 [K]
    dU/dlambda Real/kʙ           0.000000e+00 [K]
    dU/dlambda Ewald/kʙ          0.000000e+00 [K]


Initialization: Current cycle: 1900 out of 2000
===============================================================================

Box:      32.95789   0.00000   0.00000
           0.00000  32.95789   0.00000
           0.00000   0.00000  32.95789
Lengths:  32.95789  32.95789  32.95789
Angles:   90.00000  90.00000  90.00000
Rectangular boundary conditions

net charge:   0.00000000

component   0 (CO2) lambda:  0 occupancy:  1 (1.000000)
    net charge:   0.00000000 [e]

Amount of molecules per component :
-------------------------------------------------------------------------------
Component 0 (CO2)
    molecules:         3.900000e+01 molecules
    number density:    1.089398e-03 molec/A^3
    density:           7.959328e+01 kg/m^3

Total potential energy/kʙ       -3.817737e+03 [K]
-------------------------------------------------------------------------------
    external field VDW/kʙ        0.000000e+00 [K]
    external field Real/kʙ       0.000000e+00 [K]
    framework-molecule VDW/kʙ    0.000000e+00 [K]
    framework-molecule Real/kʙ   0.000000e+00 [K]
    molecule-molecule VDW/kʙ    -2.938993e+03 [K]
    molecule-molecule Real/kʙ   -6.129990e+02 [K]
    Van der Waals (Tail)/kʙ     -7.890189e+01 [K]
    Ewald Fourier/kʙ             2.106577e+03 [K]
    Ewald self/kʙ               -7.163045e+05 [K]
    Ewald exclusion/kʙ           7.140111e+05 [K]
    intra VDW/kʙ                 0.000000e+00 [K]
    intra Coulombic/kʙ           0.000000e+00 [K]
    polarization/kʙ              0.000000e+00 [K]
    dU/dlambda VDW/kʙ            0.000000e+00 [K]
    dU/dlambda Real/kʙ           0.000000e+00 [K]
    dU/dlambda Ewald/kʙ          0.000000e+00 [K]


Current cycle: 0 out of 6000
===============================================================================

Box:      32.91437   0.00000   0.00000  Average:  32.91437   0.00000   0.00000
           0.00000  32.91437   0.00000             0.00000  32.91437   0.00000
           0.00000   0.00000  32.91437             0.00000   0.00000  32.91437
Lengths:  32.91437  32.91437  32.91437  Average:  32.91437  32.91437  32.91437
Angles:   90.00000  90.00000  90.00000  Average:  90.00000  90.00000  90.00000
Rectangular boundary conditions

net charge:   0.00000000

component 0 (CO2) lambda:  0 occupancy:  1 (1.000000)
    net charge:   0.00000000 [e]

Amount of molecules per component :
-------------------------------------------------------------------------------
Component 0 (CO2)
    molecules:      4.000000e+01 molecules  (4.000000e+01 +/- 0.000000e+00)
    number density: 1.121769e-03 molec./A^3 (1.121769e-03 +/- 0.000000e+00)
    density:        8.195835e+01 kg/m^3     (8.195835e+01 +/- 0.000000e+00)

Average pressure tensor: 
-------------------------------------------------------------------------------
 4.3366e+01  0.0000e+00  0.0000e+00 +/- 0.0000e+00 0.0000e+00 0.0000e+00 [bar]
 0.0000e+00  4.3366e+01  0.0000e+00 +/- 0.0000e+00 0.0000e+00 0.0000e+00 [bar]
 0.0000e+00  0.0000e+00  4.3366e+01 +/- 0.0000e+00 0.0000e+00 0.0000e+00 [bar]
Ideal-gas pressure:   4.336557e+01 +/ 0.000000e+00 [bar]
Excess pressure:      0.000000e+00 +/ 0.000000e+00 [bar]
Pressure:             4.336557e+01 +/ 0.000000e+00 [bar]

Total potential energy/kʙ  -7.631728e+03 (-7.631728e+03 +/- 0.000000e+00) [K]
-------------------------------------------------------------------------------
ExternalField-molecule
    Van der Waals/kʙ        0.000000e+00 ( 0.000000e+00 +/- 0.000000e+00) [K]
Framework-molecule
    Van der Waals/kʙ        0.000000e+00 ( 0.000000e+00 +/- 0.000000e+00) [K]
    Van der Waals (Tail)/kʙ 0.000000e+00 ( 0.000000e+00 +/- 0.000000e+00) [K]
    Coulombic Real/kʙ       0.000000e+00 ( 0.000000e+00 +/- 0.000000e+00) [K]
    Coulombic Fourier/kʙ    0.000000e+00 ( 0.000000e+00 +/- 0.000000e+00) [K]
Molecule-molecule
    Van der Waals/kʙ       -5.583135e+03 (-5.583135e+03 +/- 0.000000e+00) [K]
    Van der Waals (Tail)/kʙ-8.332965e+01 (-8.332965e+01 +/- 0.000000e+00) [K]
    Coulombic Real/kʙ      -1.913433e+03 (-1.913433e+03 +/- 0.000000e+00) [K]
    Coulombic Fourier/kʙ   -5.183025e+01 (-5.183025e+01 +/- 0.000000e+00) [K]
    Molecule Intra/kʙ       0.000000e+00 ( 0.000000e+00 +/- 0.000000e+00) [K]

Current cycle: 100 out of 6000
===============================================================================

Box:      33.14785   0.00000   0.00000  Average:  32.88374   0.00000   0.00000
           0.00000  33.14785   0.00000             0.00000  32.88374   0.00000
           0.00000   0.00000  33.14785             0.00000   0.00000  32.88374
Lengths:  33.14785  33.14785  33.14785  Average:  32.88374  32.88374  32.88374
Angles:   90.00000  90.00000  90.00000  Average:  90.00000  90.00000  90.00000
Rectangular boundary conditions

net charge:   0.00000000

component 0 (CO2) lambda:  0 occupancy:  1 (1.000000)
    net charge:   0.00000000 [e]

Amount of molecules per component :
-------------------------------------------------------------------------------
Component 0 (CO2)
    molecules:      4.000000e+01 molecules  (4.120792e+01 +/- 0.000000e+00)
    number density: 1.098231e-03 molec./A^3 (1.158088e-03 +/- 0.000000e+00)
    density:        8.023865e+01 kg/m^3     (8.461191e+01 +/- 0.000000e+00)

Average pressure tensor: 
-------------------------------------------------------------------------------
 3.5801e+01  8.9532e-01 -9.3733e-01 +/- 0.0000e+00 0.0000e+00 0.0000e+00 [bar]
 8.9532e-01  4.5631e+01  1.0209e+01 +/- 0.0000e+00 0.0000e+00 0.0000e+00 [bar]
-9.3733e-01  1.0209e+01  3.9515e+01 +/- 0.0000e+00 0.0000e+00 0.0000e+00 [bar]
Ideal-gas pressure:   4.476962e+01 +/ 0.000000e+00 [bar]
Excess pressure:     -4.453813e+00 +/ 0.000000e+00 [bar]
Pressure:             4.031581e+01 +/ 0.000000e+00 [bar]

Total potential energy/kʙ  -5.967995e+03 (-7.125243e+03 +/- 0.000000e+00) [K]
-------------------------------------------------------------------------------
ExternalField-molecule
    Van der Waals/kʙ        0.000000e+00 ( 0.000000e+00 +/- 0.000000e+00) [K]
Framework-molecule
    Van der Waals/kʙ        0.000000e+00 ( 0.000000e+00 +/- 0.000000e+00) [K]
    Van der Waals (Tail)/kʙ 0.000000e+00 ( 0.000000e+00 +/- 0.000000e+00) [K]
    Coulombic Real/kʙ       0.000000e+00 ( 0.000000e+00 +/- 0.000000e+00) [K]
    Coulombic Fourier/kʙ    0.000000e+00 ( 0.000000e+00 +/- 0.000000e+00) [K]
Molecule-molecule
    Van der Waals/kʙ       -4.102121e+03 (-5.221859e+03 +/- 0.000000e+00) [K]
    Van der Waals (Tail)/kʙ-8.158117e+01 (-9.325236e+01 +/- 0.000000e+00) [K]
    Coulombic Real/kʙ      -1.760749e+03 (-1.712958e+03 +/- 0.000000e+00) [K]
    Coulombic Fourier/kʙ   -2.354381e+01 (-9.717464e+01 +/- 0.000000e+00) [K]
    Molecule Intra/kʙ       0.000000e+00 ( 0.000000e+00 +/- 0.000000e+00) [K]

Current cycle: 200 out of 6000
===============================================================================

Box:      33.00536   0.00000   0.00000  Average:  32.92296   0.00000   0.00000
           0.00000  33.00536   0.00000             0.00000  32.92296   0.00000
           0.00000   0.00000  33.00536             0.00000   0.00000  32.92296
Lengths:  33.00536  33.00536  33.00536  Average:  32.92296  32.92296  32.92296
Angles:   90.00000  90.00000  90.00000  Average:  90.00000  90.00000  90.00000
Rectangular boundary conditions

net charge:   0.00000000

component 0 (CO2) lambda:  0 occupancy:  1 (1.000000)
    net charge:   0.00000000 [e]

Amount of molecules per component :
-------------------------------------------------------------------------------
Component 0 (CO2)
    molecules:      3.300000e+01 molecules  (4.088060e+01 +/- 0.000000e+00)
    number density: 9.178262e-04 molec./A^3 (1.144845e-03 +/- 0.000000e+00)
    density:        6.705795e+01 kg/m^3     (8.364437e+01 +/- 0.000000e+00)

Average pressure tensor: 
-------------------------------------------------------------------------------
 3.4563e+01  1.7007e-01 -2.8378e+00 +/- 0.0000e+00 0.0000e+00 0.0000e+00 [bar]
 1.7007e-01  3.6807e+01  6.0928e+00 +/- 0.0000e+00 0.0000e+00 0.0000e+00 [bar]
-2.8378e+00  6.0928e+00  3.6014e+01 +/- 0.0000e+00 0.0000e+00 0.0000e+00 [bar]
Ideal-gas pressure:   4.425768e+01 +/ 0.000000e+00 [bar]
Excess pressure:     -8.462897e+00 +/ 0.000000e+00 [bar]
Pressure:             3.579478e+01 +/ 0.000000e+00 [bar]

Total potential energy/kʙ  -3.758021e+03 (-6.776135e+03 +/- 0.000000e+00) [K]
-------------------------------------------------------------------------------
ExternalField-molecule
    Van der Waals/kʙ        0.000000e+00 ( 0.000000e+00 +/- 0.000000e+00) [K]
Framework-molecule
    Van der Waals/kʙ        0.000000e+00 ( 0.000000e+00 +/- 0.000000e+00) [K]
    Van der Waals (Tail)/kʙ 0.000000e+00 ( 0.000000e+00 +/- 0.000000e+00) [K]
    Coulombic Real/kʙ       0.000000e+00 ( 0.000000e+00 +/- 0.000000e+00) [K]
    Coulombic Fourier/kʙ    0.000000e+00 ( 0.000000e+00 +/- 0.000000e+00) [K]
Molecule-molecule
    Van der Waals/kʙ       -3.129106e+03 (-5.063658e+03 +/- 0.000000e+00) [K]
    Van der Waals (Tail)/kʙ-5.624845e+01 (-9.219848e+01 +/- 0.000000e+00) [K]
    Coulombic Real/kʙ      -3.611226e+02 (-1.506693e+03 +/- 0.000000e+00) [K]
    Coulombic Fourier/kʙ   -2.115443e+02 (-1.135859e+02 +/- 0.000000e+00) [K]
    Molecule Intra/kʙ       0.000000e+00 ( 0.000000e+00 +/- 0.000000e+00) [K]

Current cycle: 300 out of 6000
===============================================================================

Box:      33.13867   0.00000   0.00000  Average:  32.99294   0.00000   0.00000
           0.00000  33.13867   0.00000             0.00000  32.99294   0.00000
           0.00000   0.00000  33.13867             0.00000   0.00000  32.99294
Lengths:  33.13867  33.13867  33.13867  Average:  32.99294  32.99294  32.99294
Angles:   90.00000  90.00000  90.00000  Average:  90.00000  90.00000  90.00000
Rectangular boundary conditions

net charge:   0.00000000

component 0 (CO2) lambda:  0 occupancy:  1 (1.000000)
    net charge:   0.00000000 [e]

Amount of molecules per component :
-------------------------------------------------------------------------------
Component 0 (CO2)
    molecules:      5.100000e+01 molecules  (4.217276e+01 +/- 0.000000e+00)
    number density: 1.401409e-03 molec./A^3 (1.173060e-03 +/- 0.000000e+00)
    density:        1.023893e+02 kg/m^3     (8.570576e+01 +/- 0.000000e+00)

Average pressure tensor: 
-------------------------------------------------------------------------------
 3.5043e+01  8.3415e-01 -5.1831e-01 +/- 0.0000e+00 0.0000e+00 0.0000e+00 [bar]
 8.3415e-01  3.6481e+01  4.0843e+00 +/- 0.0000e+00 0.0000e+00 0.0000e+00 [bar]
-5.1831e-01  4.0843e+00  3.5148e+01 +/- 0.0000e+00 0.0000e+00 0.0000e+00 [bar]
Ideal-gas pressure:   4.534839e+01 +/ 0.000000e+00 [bar]
Excess pressure:     -9.791270e+00 +/ 0.000000e+00 [bar]
Pressure:             3.555712e+01 +/ 0.000000e+00 [bar]

Total potential energy/kʙ  -9.166077e+03 (-7.354861e+03 +/- 0.000000e+00) [K]
-------------------------------------------------------------------------------
ExternalField-molecule
    Van der Waals/kʙ        0.000000e+00 ( 0.000000e+00 +/- 0.000000e+00) [K]
Framework-molecule
    Van der Waals/kʙ        0.000000e+00 ( 0.000000e+00 +/- 0.000000e+00) [K]
    Van der Waals (Tail)/kʙ 0.000000e+00 ( 0.000000e+00 +/- 0.000000e+00) [K]
    Coulombic Real/kʙ       0.000000e+00 ( 0.000000e+00 +/- 0.000000e+00) [K]
    Coulombic Fourier/kʙ    0.000000e+00 ( 0.000000e+00 +/- 0.000000e+00) [K]
Molecule-molecule
    Van der Waals/kʙ       -6.889806e+03 (-5.589305e+03 +/- 0.000000e+00) [K]
    Van der Waals (Tail)/kʙ-1.327307e+02 (-1.003789e+02 +/- 0.000000e+00) [K]
    Coulombic Real/kʙ      -1.760224e+03 (-1.530763e+03 +/- 0.000000e+00) [K]
    Coulombic Fourier/kʙ   -3.833166e+02 (-1.344140e+02 +/- 0.000000e+00) [K]
    Molecule Intra/kʙ       0.000000e+00 ( 0.000000e+00 +/- 0.000000e+00) [K]

Current cycle: 400 out of 6000
===============================================================================

Box:      32.98529   0.00000   0.00000  Average:  33.03573   0.00000   0.00000
           0.00000  32.98529   0.00000             0.00000  33.03573   0.00000
           0.00000   0.00000  32.98529             0.00000   0.00000  33.03573
Lengths:  32.98529  32.98529  32.98529  Average:  33.03573  33.03573  33.03573
Angles:   90.00000  90.00000  90.00000  Average:  90.00000  90.00000  90.00000
Rectangular boundary conditions

net charge:   0.00000000

component 0 (CO2) lambda:  0 occupancy:  1 (1.000000)
    net charge:   0.00000000 [e]

Amount of molecules per component :
-------------------------------------------------------------------------------
Component 0 (CO2)
    molecules:      4.500000e+01 molecules  (4.306983e+01 +/- 0.000000e+00)
    number density: 1.253867e-03 molec./A^3 (1.193185e-03 +/- 0.000000e+00)
    density:        9.160968e+01 kg/m^3     (8.717611e+01 +/- 0.000000e+00)

Average pressure tensor: 
-------------------------------------------------------------------------------
 3.4744e+01  2.2880e+00 -8.8873e-01 +/- 0.0000e+00 0.0000e+00 0.0000e+00 [bar]
 2.2880e+00  3.8248e+01  3.5800e+00 +/- 0.0000e+00 0.0000e+00 0.0000e+00 [bar]
-8.8873e-01  3.5800e+00  3.6156e+01 +/- 0.0000e+00 0.0000e+00 0.0000e+00 [bar]
Ideal-gas pressure:   4.612638e+01 +/ 0.000000e+00 [bar]
Excess pressure:     -9.743497e+00 +/ 0.000000e+00 [bar]
Pressure:             3.638288e+01 +/ 0.000000e+00 [bar]

Total potential energy/kʙ  -9.307806e+03 (-7.528079e+03 +/- 0.000000e+00) [K]
-------------------------------------------------------------------------------
ExternalField-molecule
    Van der Waals/kʙ        0.000000e+00 ( 0.000000e+00 +/- 0.000000e+00) [K]
Framework-molecule
    Van der Waals/kʙ        0.000000e+00 ( 0.000000e+00 +/- 0.000000e+00) [K]
    Van der Waals (Tail)/kʙ 0.000000e+00 ( 0.000000e+00 +/- 0.000000e+00) [K]
    Coulombic Real/kʙ       0.000000e+00 ( 0.000000e+00 +/- 0.000000e+00) [K]
    Coulombic Fourier/kʙ    0.000000e+00 ( 0.000000e+00 +/- 0.000000e+00) [K]
Molecule-molecule
    Van der Waals/kʙ       -5.543061e+03 (-5.665334e+03 +/- 0.000000e+00) [K]
    Van der Waals (Tail)/kʙ-1.047853e+02 (-1.019931e+02 +/- 0.000000e+00) [K]
    Coulombic Real/kʙ      -3.382209e+03 (-1.617829e+03 +/- 0.000000e+00) [K]
    Coulombic Fourier/kʙ   -2.777513e+02 (-1.429220e+02 +/- 0.000000e+00) [K]
    Molecule Intra/kʙ       0.000000e+00 ( 0.000000e+00 +/- 0.000000e+00) [K]

Current cycle: 500 out of 6000
===============================================================================

Box:      32.68937   0.00000   0.00000  Average:  32.99264   0.00000   0.00000
           0.00000  32.68937   0.00000             0.00000  32.99264   0.00000
           0.00000   0.00000  32.68937             0.00000   0.00000  32.99264
Lengths:  32.68937  32.68937  32.68937  Average:  32.99264  32.99264  32.99264
Angles:   90.00000  90.00000  90.00000  Average:  90.00000  90.00000  90.00000
Rectangular boundary conditions

net charge:   0.00000000

component 0 (CO2) lambda:  0 occupancy:  1 (1.000000)
    net charge:   0.00000000 [e]

Amount of molecules per component :
-------------------------------------------------------------------------------
Component 0 (CO2)
    molecules:      3.300000e+01 molecules  (4.366068e+01 +/- 0.000000e+00)
    number density: 9.447008e-04 molec./A^3 (1.215022e-03 +/- 0.000000e+00)
    density:        6.902146e+01 kg/m^3     (8.877158e+01 +/- 0.000000e+00)

Average pressure tensor: 
-------------------------------------------------------------------------------
 3.6141e+01  1.2435e+00 -1.6843e+00 +/- 0.0000e+00 0.0000e+00 0.0000e+00 [bar]
 1.2435e+00  3.8311e+01  2.9970e+00 +/- 0.0000e+00 0.0000e+00 0.0000e+00 [bar]
-1.6843e+00  2.9970e+00  3.6038e+01 +/- 0.0000e+00 0.0000e+00 0.0000e+00 [bar]
Ideal-gas pressure:   4.697057e+01 +/ 0.000000e+00 [bar]
Excess pressure:     -1.014045e+01 +/ 0.000000e+00 [bar]
Pressure:             3.683012e+01 +/ 0.000000e+00 [bar]

Total potential energy/kʙ  -3.671833e+03 (-7.525561e+03 +/- 0.000000e+00) [K]
-------------------------------------------------------------------------------
ExternalField-molecule
    Van der Waals/kʙ        0.000000e+00 ( 0.000000e+00 +/- 0.000000e+00) [K]
Framework-molecule
    Van der Waals/kʙ        0.000000e+00 ( 0.000000e+00 +/- 0.000000e+00) [K]
    Van der Waals (Tail)/kʙ 0.000000e+00 ( 0.000000e+00 +/- 0.000000e+00) [K]
    Coulombic Real/kʙ       0.000000e+00 ( 0.000000e+00 +/- 0.000000e+00) [K]
    Coulombic Fourier/kʙ    0.000000e+00 ( 0.000000e+00 +/- 0.000000e+00) [K]
Molecule-molecule
    Van der Waals/kʙ       -2.784109e+03 (-5.637582e+03 +/- 0.000000e+00) [K]
    Van der Waals (Tail)/kʙ-5.789545e+01 (-1.030857e+02 +/- 0.000000e+00) [K]
    Coulombic Real/kʙ      -9.680148e+02 (-1.647460e+03 +/- 0.000000e+00) [K]
    Coulombic Fourier/kʙ    1.381858e+02 (-1.374328e+02 +/- 0.000000e+00) [K]
    Molecule Intra/kʙ       0.000000e+00 ( 0.000000e+00 +/- 0.000000e+00) [K]

Current cycle: 600 out of 6000
===============================================================================

Box:      32.61354   0.00000   0.00000  Average:  32.94445   0.00000   0.00000
           0.00000  32.61354   0.00000             0.00000  32.94445   0.00000
           0.00000   0.00000  32.61354             0.00000   0.00000  32.94445
Lengths:  32.61354  32.61354  32.61354  Average:  32.94445  32.94445  32.94445
Angles:   90.00000  90.00000  90.00000  Average:  90.00000  90.00000  90.00000
Rectangular boundary conditions

net charge:   0.00000000

component 0 (CO2) lambda:  0 occupancy:  1 (1.000000)
    net charge:   0.00000000 [e]

Amount of molecules per component :
-------------------------------------------------------------------------------
Component 0 (CO2)
    molecules:      3.300000e+01 molecules  (4.187022e+01 +/- 0.000000e+00)
    number density: 9.513054e-04 molec./A^3 (1.169365e-03 +/- 0.000000e+00)
    density:        6.950400e+01 kg/m^3     (8.543578e+01 +/- 0.000000e+00)

Average pressure tensor: 
-------------------------------------------------------------------------------
 3.4150e+01  3.4227e-01 -8.0537e-01 +/- 0.0000e+00 0.0000e+00 0.0000e+00 [bar]
 3.4227e-01  3.6810e+01  1.6842e+00 +/- 0.0000e+00 0.0000e+00 0.0000e+00 [bar]
-8.0537e-01  1.6842e+00  3.5095e+01 +/- 0.0000e+00 0.0000e+00 0.0000e+00 [bar]
Ideal-gas pressure:   4.520554e+01 +/ 0.000000e+00 [bar]
Excess pressure:     -9.854001e+00 +/ 0.000000e+00 [bar]
Pressure:             3.535154e+01 +/ 0.000000e+00 [bar]

Total potential energy/kʙ  -4.279621e+03 (-6.931300e+03 +/- 0.000000e+00) [K]
-------------------------------------------------------------------------------
ExternalField-molecule
    Van der Waals/kʙ        0.000000e+00 ( 0.000000e+00 +/- 0.000000e+00) [K]
Framework-molecule
    Van der Waals/kʙ        0.000000e+00 ( 0.000000e+00 +/- 0.000000e+00) [K]
    Van der Waals (Tail)/kʙ 0.000000e+00 ( 0.000000e+00 +/- 0.000000e+00) [K]
    Coulombic Real/kʙ       0.000000e+00 ( 0.000000e+00 +/- 0.000000e+00) [K]
    Coulombic Fourier/kʙ    0.000000e+00 ( 0.000000e+00 +/- 0.000000e+00) [K]
Molecule-molecule
    Van der Waals/kʙ       -3.293006e+03 (-5.204427e+03 +/- 0.000000e+00) [K]
    Van der Waals (Tail)/kʙ-5.830021e+01 (-9.562441e+01 +/- 0.000000e+00) [K]
    Coulombic Real/kʙ      -6.025089e+02 (-1.493300e+03 +/- 0.000000e+00) [K]
    Coulombic Fourier/kʙ   -3.258053e+02 (-1.379484e+02 +/- 0.000000e+00) [K]
    Molecule Intra/kʙ       0.000000e+00 ( 0.000000e+00 +/- 0.000000e+00) [K]

Current cycle: 700 out of 6000
===============================================================================

Box:      32.90303   0.00000   0.00000  Average:  32.93489   0.00000   0.00000
           0.00000  32.90303   0.00000             0.00000  32.93489   0.00000
           0.00000   0.00000  32.90303             0.00000   0.00000  32.93489
Lengths:  32.90303  32.90303  32.90303  Average:  32.93489  32.93489  32.93489
Angles:   90.00000  90.00000  90.00000  Average:  90.00000  90.00000  90.00000
Rectangular boundary conditions

net charge:   0.00000000

component 0 (CO2) lambda:  0 occupancy:  1 (1.000000)
    net charge:   0.00000000 [e]

Amount of molecules per component :
-------------------------------------------------------------------------------
Component 0 (CO2)
    molecules:      4.900000e+01 molecules  (4.125392e+01 +/- 0.000000e+00)
    number density: 1.375589e-03 molec./A^3 (1.153199e-03 +/- 0.000000e+00)
    density:        1.005029e+02 kg/m^3     (8.425468e+01 +/- 0.000000e+00)

Average pressure tensor: 
-------------------------------------------------------------------------------
 3.3737e+01 -6.9363e-02 -1.5089e+00 +/- 0.0000e+00 0.0000e+00 0.0000e+00 [bar]
-6.9363e-02  3.7383e+01  9.5000e-01 +/- 0.0000e+00 0.0000e+00 0.0000e+00 [bar]
-1.5089e+00  9.5000e-01  3.4734e+01 +/- 0.0000e+00 0.0000e+00 0.0000e+00 [bar]
Ideal-gas pressure:   4.458060e+01 +/ 0.000000e+00 [bar]
Excess pressure:     -9.296068e+00 +/ 0.000000e+00 [bar]
Pressure:             3.528453e+01 +/ 0.000000e+00 [bar]

Total potential energy/kʙ  -6.127442e+03 (-6.748445e+03 +/- 0.000000e+00) [K]
-------------------------------------------------------------------------------
ExternalField-molecule
    Van der Waals/kʙ        0.000000e+00 ( 0.000000e+00 +/- 0.000000e+00) [K]
Framework-molecule
    Van der Waals/kʙ        0.000000e+00 ( 0.000000e+00 +/- 0.000000e+00) [K]
    Van der Waals (Tail)/kʙ 0.000000e+00 ( 0.000000e+00 +/- 0.000000e+00) [K]
    Coulombic Real/kʙ       0.000000e+00 ( 0.000000e+00 +/- 0.000000e+00) [K]
    Coulombic Fourier/kʙ    0.000000e+00 ( 0.000000e+00 +/- 0.000000e+00) [K]
Molecule-molecule
    Van der Waals/kʙ       -4.222823e+03 (-5.037919e+03 +/- 0.000000e+00) [K]
    Van der Waals (Tail)/kʙ-1.251759e+02 (-9.365974e+01 +/- 0.000000e+00) [K]
    Coulombic Real/kʙ      -1.527562e+03 (-1.481985e+03 +/- 0.000000e+00) [K]
    Coulombic Fourier/kʙ   -2.518819e+02 (-1.348816e+02 +/- 0.000000e+00) [K]
    Molecule Intra/kʙ       0.000000e+00 ( 0.000000e+00 +/- 0.000000e+00) [K]

Current cycle: 800 out of 6000
===============================================================================

Box:      33.00873   0.00000   0.00000  Average:  32.95050   0.00000   0.00000
           0.00000  33.00873   0.00000             0.00000  32.95050   0.00000
           0.00000   0.00000  33.00873             0.00000   0.00000  32.95050
Lengths:  33.00873  33.00873  33.00873  Average:  32.95050  32.95050  32.95050
Angles:   90.00000  90.00000  90.00000  Average:  90.00000  90.00000  90.00000
Rectangular boundary conditions

net charge:   0.00000000

component 0 (CO2) lambda:  0 occupancy:  1 (1.000000)
    net charge:   0.00000000 [e]

Amount of molecules per component :
-------------------------------------------------------------------------------
Component 0 (CO2)
    molecules:      4.500000e+01 molecules  (4.064669e+01 +/- 0.000000e+00)
    number density: 1.251198e-03 molec./A^3 (1.134990e-03 +/- 0.000000e+00)
    density:        9.141469e+01 kg/m^3     (8.292429e+01 +/- 0.000000e+00)

Average pressure tensor: 
-------------------------------------------------------------------------------
 3.3066e+01 -5.1472e-01 -2.0204e+00 +/- 0.0000e+00 0.0000e+00 0.0000e+00 [bar]
-5.1472e-01  3.7145e+01  7.0123e-01 +/- 0.0000e+00 0.0000e+00 0.0000e+00 [bar]
-2.0204e+00  7.0123e-01  3.4065e+01 +/- 0.0000e+00 0.0000e+00 0.0000e+00 [bar]
Ideal-gas pressure:   4.387667e+01 +/ 0.000000e+00 [bar]
Excess pressure:     -9.117703e+00 +/ 0.000000e+00 [bar]
Pressure:             3.475896e+01 +/ 0.000000e+00 [bar]

Total potential energy/kʙ  -7.424357e+03 (-6.544914e+03 +/- 0.000000e+00) [K]
-------------------------------------------------------------------------------
ExternalField-molecule
    Van der Waals/kʙ        0.000000e+00 ( 0.000000e+00 +/- 0.000000e+00) [K]
Framework-molecule
    Van der Waals/kʙ        0.000000e+00 ( 0.000000e+00 +/- 0.000000e+00) [K]
    Van der Waals (Tail)/kʙ 0.000000e+00 ( 0.000000e+00 +/- 0.000000e+00) [K]
    Coulombic Real/kʙ       0.000000e+00 ( 0.000000e+00 +/- 0.000000e+00) [K]
    Coulombic Fourier/kʙ    0.000000e+00 ( 0.000000e+00 +/- 0.000000e+00) [K]
Molecule-molecule
    Van der Waals/kʙ       -6.038631e+03 (-4.884852e+03 +/- 0.000000e+00) [K]
    Van der Waals (Tail)/kʙ-1.045622e+02 (-9.089770e+01 +/- 0.000000e+00) [K]
    Coulombic Real/kʙ      -1.230386e+03 (-1.437109e+03 +/- 0.000000e+00) [K]
    Coulombic Fourier/kʙ   -5.077773e+01 (-1.320550e+02 +/- 0.000000e+00) [K]
    Molecule Intra/kʙ       0.000000e+00 ( 0.000000e+00 +/- 0.000000e+00) [K]

Current cycle: 900 out of 6000
===============================================================================

Box:      32.88668   0.00000   0.00000  Average:  32.96001   0.00000   0.00000
           0.00000  32.88668   0.00000             0.00000  32.96001   0.00000
           0.00000   0.00000  32.88668             0.00000   0.00000  32.96001
Lengths:  32.88668  32.88668  32.88668  Average:  32.96001  32.96001  32.96001
Angles:   90.00000  90.00000  90.00000  Average:  90.00000  90.00000  90.00000
Rectangular boundary conditions

net charge:   0.00000000

component 0 (CO2) lambda:  0 occupancy:  1 (1.000000)
    net charge:   0.00000000 [e]

Amount of molecules per component :
-------------------------------------------------------------------------------
Component 0 (CO2)
    molecules:      3.200000e+01 molecules  (4.044173e+01 +/- 0.000000e+00)
    number density: 8.996835e-04 molec./A^3 (1.128477e-03 +/- 0.000000e+00)
    density:        6.573242e+01 kg/m^3     (8.244848e+01 +/- 0.000000e+00)

Average pressure tensor: 
-------------------------------------------------------------------------------
 3.3813e+01 -4.3960e-01 -1.9913e+00 +/- 0.0000e+00 0.0000e+00 0.0000e+00 [bar]
-4.3960e-01  3.7989e+01  1.1360e+00 +/- 0.0000e+00 0.0000e+00 0.0000e+00 [bar]
-1.9913e+00  1.1360e+00  3.4484e+01 +/- 0.0000e+00 0.0000e+00 0.0000e+00 [bar]
Ideal-gas pressure:   4.362491e+01 +/ 0.000000e+00 [bar]
Excess pressure:     -8.196380e+00 +/ 0.000000e+00 [bar]
Pressure:             3.542853e+01 +/ 0.000000e+00 [bar]

Total potential energy/kʙ  -2.857195e+03 (-6.413535e+03 +/- 0.000000e+00) [K]
-------------------------------------------------------------------------------
ExternalField-molecule
    Van der Waals/kʙ        0.000000e+00 ( 0.000000e+00 +/- 0.000000e+00) [K]
Framework-molecule
    Van der Waals/kʙ        0.000000e+00 ( 0.000000e+00 +/- 0.000000e+00) [K]
    Van der Waals (Tail)/kʙ 0.000000e+00 ( 0.000000e+00 +/- 0.000000e+00) [K]
    Coulombic Real/kʙ       0.000000e+00 ( 0.000000e+00 +/- 0.000000e+00) [K]
    Coulombic Fourier/kʙ    0.000000e+00 ( 0.000000e+00 +/- 0.000000e+00) [K]
Molecule-molecule
    Van der Waals/kʙ       -2.357618e+03 (-4.795639e+03 +/- 0.000000e+00) [K]
    Van der Waals (Tail)/kʙ-5.346579e+01 (-9.034992e+01 +/- 0.000000e+00) [K]
    Coulombic Real/kʙ      -4.213215e+02 (-1.397461e+03 +/- 0.000000e+00) [K]
    Coulombic Fourier/kʙ   -2.478997e+01 (-1.300858e+02 +/- 0.000000e+00) [K]
    Molecule Intra/kʙ       0.000000e+00 ( 0.000000e+00 +/- 0.000000e+00) [K]

Current cycle: 1000 out of 6000
===============================================================================

Box:      32.59302   0.00000   0.00000  Average:  32.94209   0.00000   0.00000
           0.00000  32.59302   0.00000             0.00000  32.94209   0.00000
           0.00000   0.00000  32.59302             0.00000   0.00000  32.94209
Lengths:  32.59302  32.59302  32.59302  Average:  32.94209  32.94209  32.94209
Angles:   90.00000  90.00000  90.00000  Average:  90.00000  90.00000  90.00000
Rectangular boundary conditions

net charge:   0.00000000

component 0 (CO2) lambda:  0 occupancy:  1 (1.000000)
    net charge:   0.00000000 [e]

Amount of molecules per component :
-------------------------------------------------------------------------------
Component 0 (CO2)
    molecules:      3.500000e+01 molecules  (3.939261e+01 +/- 0.000000e+00)
    number density: 1.010867e-03 molec./A^3 (1.100603e-03 +/- 0.000000e+00)
    density:        7.385568e+01 kg/m^3     (8.041193e+01 +/- 0.000000e+00)

Average pressure tensor: 
-------------------------------------------------------------------------------
 3.2933e+01 -1.6602e-01 -1.5897e+00 +/- 0.0000e+00 0.0000e+00 0.0000e+00 [bar]
-1.6602e-01  3.7426e+01  1.3999e+00 +/- 0.0000e+00 0.0000e+00 0.0000e+00 [bar]
-1.5897e+00  1.3999e+00  3.3418e+01 +/- 0.0000e+00 0.0000e+00 0.0000e+00 [bar]
Ideal-gas pressure:   4.254734e+01 +/ 0.000000e+00 [bar]
Excess pressure:     -7.955141e+00 +/ 0.000000e+00 [bar]
Pressure:             3.459220e+01 +/ 0.000000e+00 [bar]

Total potential energy/kʙ  -3.437119e+03 (-6.100128e+03 +/- 0.000000e+00) [K]
-------------------------------------------------------------------------------
ExternalField-molecule
    Van der Waals/kʙ        0.000000e+00 ( 0.000000e+00 +/- 0.000000e+00) [K]
Framework-molecule
    Van der Waals/kʙ        0.000000e+00 ( 0.000000e+00 +/- 0.000000e+00) [K]
    Van der Waals (Tail)/kʙ 0.000000e+00 ( 0.000000e+00 +/- 0.000000e+00) [K]
    Coulombic Real/kʙ       0.000000e+00 ( 0.000000e+00 +/- 0.000000e+00) [K]
    Coulombic Fourier/kʙ    0.000000e+00 ( 0.000000e+00 +/- 0.000000e+00) [K]
Molecule-molecule
    Van der Waals/kʙ       -3.344809e+03 (-4.570803e+03 +/- 0.000000e+00) [K]
    Van der Waals (Tail)/kʙ-6.570499e+01 (-8.631581e+01 +/- 0.000000e+00) [K]
    Coulombic Real/kʙ       1.617635e+01 (-1.322922e+03 +/- 0.000000e+00) [K]
    Coulombic Fourier/kʙ   -4.278098e+01 (-1.200869e+02 +/- 0.000000e+00) [K]
    Molecule Intra/kʙ       0.000000e+00 ( 0.000000e+00 +/- 0.000000e+00) [K]

Current cycle: 1100 out of 6000
===============================================================================

Box:      32.55435   0.00000   0.00000  Average:  32.89926   0.00000   0.00000
           0.00000  32.55435   0.00000             0.00000  32.89926   0.00000
           0.00000   0.00000  32.55435             0.00000   0.00000  32.89926
Lengths:  32.55435  32.55435  32.55435  Average:  32.89926  32.89926  32.89926
Angles:   90.00000  90.00000  90.00000  Average:  90.00000  90.00000  90.00000
Rectangular boundary conditions

net charge:   0.00000000

component 0 (CO2) lambda:  0 occupancy:  1 (1.000000)
    net charge:   0.00000000 [e]

Amount of molecules per component :
-------------------------------------------------------------------------------
Component 0 (CO2)
    molecules:      4.500000e+01 molecules  (3.914986e+01 +/- 0.000000e+00)
    number density: 1.304323e-03 molec./A^3 (1.098066e-03 +/- 0.000000e+00)
    density:        9.529610e+01 kg/m^3     (8.022655e+01 +/- 0.000000e+00)

Average pressure tensor: 
-------------------------------------------------------------------------------
 3.3020e+01  4.4422e-02 -2.0830e+00 +/- 0.0000e+00 0.0000e+00 0.0000e+00 [bar]
 4.4422e-02  3.8094e+01  1.2634e+00 +/- 0.0000e+00 0.0000e+00 0.0000e+00 [bar]
-2.0830e+00  1.2634e+00  3.4832e+01 +/- 0.0000e+00 0.0000e+00 0.0000e+00 [bar]
Ideal-gas pressure:   4.244925e+01 +/ 0.000000e+00 [bar]
Excess pressure:     -7.134073e+00 +/ 0.000000e+00 [bar]
Pressure:             3.531518e+01 +/ 0.000000e+00 [bar]

Total potential energy/kʙ  -7.664775e+03 (-6.092038e+03 +/- 0.000000e+00) [K]
-------------------------------------------------------------------------------
ExternalField-molecule
    Van der Waals/kʙ        0.000000e+00 ( 0.000000e+00 +/- 0.000000e+00) [K]
Framework-molecule
    Van der Waals/kʙ        0.000000e+00 ( 0.000000e+00 +/- 0.000000e+00) [K]
    Van der Waals (Tail)/kʙ 0.000000e+00 ( 0.000000e+00 +/- 0.000000e+00) [K]
    Coulombic Real/kʙ       0.000000e+00 ( 0.000000e+00 +/- 0.000000e+00) [K]
    Coulombic Fourier/kʙ    0.000000e+00 ( 0.000000e+00 +/- 0.000000e+00) [K]
Molecule-molecule
    Van der Waals/kʙ       -5.583369e+03 (-4.552048e+03 +/- 0.000000e+00) [K]
    Van der Waals (Tail)/kʙ-1.090019e+02 (-8.605872e+01 +/- 0.000000e+00) [K]
    Coulombic Real/kʙ      -1.761969e+03 (-1.332734e+03 +/- 0.000000e+00) [K]
    Coulombic Fourier/kʙ   -2.104358e+02 (-1.211974e+02 +/- 0.000000e+00) [K]
    Molecule Intra/kʙ       0.000000e+00 ( 0.000000e+00 +/- 0.000000e+00) [K]

Current cycle: 1200 out of 6000
===============================================================================

Box:      32.03099   0.00000   0.00000  Average:  32.84266   0.00000   0.00000
           0.00000  32.03099   0.00000             0.00000  32.84266   0.00000
           0.00000   0.00000  32.03099             0.00000   0.00000  32.84266
Lengths:  32.03099  32.03099  32.03099  Average:  32.84266  32.84266  32.84266
Angles:   90.00000  90.00000  90.00000  Average:  90.00000  90.00000  90.00000
Rectangular boundary conditions

net charge:   0.00000000

component 0 (CO2) lambda:  0 occupancy:  1 (1.000000)
    net charge:   0.00000000 [e]

Amount of molecules per component :
-------------------------------------------------------------------------------
Component 0 (CO2)
    molecules:      4.200000e+01 molecules  (3.918152e+01 +/- 0.000000e+00)
    number density: 1.278022e-03 molec./A^3 (1.105196e-03 +/- 0.000000e+00)
    density:        9.337444e+01 kg/m^3     (8.074752e+01 +/- 0.000000e+00)

Average pressure tensor: 
-------------------------------------------------------------------------------
 3.2854e+01  1.0671e-01 -2.0729e+00 +/- 0.0000e+00 0.0000e+00 0.0000e+00 [bar]
 1.0671e-01  3.7493e+01  1.4268e+00 +/- 0.0000e+00 0.0000e+00 0.0000e+00 [bar]
-2.0729e+00  1.4268e+00  3.4053e+01 +/- 0.0000e+00 0.0000e+00 0.0000e+00 [bar]
Ideal-gas pressure:   4.272490e+01 +/ 0.000000e+00 [bar]
Excess pressure:     -7.924759e+00 +/ 0.000000e+00 [bar]
Pressure:             3.480014e+01 +/ 0.000000e+00 [bar]

Total potential energy/kʙ  -6.726930e+03 (-6.143766e+03 +/- 0.000000e+00) [K]
-------------------------------------------------------------------------------
ExternalField-molecule
    Van der Waals/kʙ        0.000000e+00 ( 0.000000e+00 +/- 0.000000e+00) [K]
Framework-molecule
    Van der Waals/kʙ        0.000000e+00 ( 0.000000e+00 +/- 0.000000e+00) [K]
    Van der Waals (Tail)/kʙ 0.000000e+00 ( 0.000000e+00 +/- 0.000000e+00) [K]
    Coulombic Real/kʙ       0.000000e+00 ( 0.000000e+00 +/- 0.000000e+00) [K]
    Coulombic Fourier/kʙ    0.000000e+00 ( 0.000000e+00 +/- 0.000000e+00) [K]
Molecule-molecule
    Van der Waals/kʙ       -5.243260e+03 (-4.596903e+03 +/- 0.000000e+00) [K]
    Van der Waals (Tail)/kʙ-9.968359e+01 (-8.687609e+01 +/- 0.000000e+00) [K]
    Coulombic Real/kʙ      -1.234939e+03 (-1.339029e+03 +/- 0.000000e+00) [K]
    Coulombic Fourier/kʙ   -1.490463e+02 (-1.209588e+02 +/- 0.000000e+00) [K]
    Molecule Intra/kʙ       0.000000e+00 ( 0.000000e+00 +/- 0.000000e+00) [K]

Current cycle: 1300 out of 6000
===============================================================================

Box:      32.09875   0.00000   0.00000  Average:  32.79177   0.00000   0.00000
           0.00000  32.09875   0.00000             0.00000  32.79177   0.00000
           0.00000   0.00000  32.09875             0.00000   0.00000  32.79177
Lengths:  32.09875  32.09875  32.09875  Average:  32.79177  32.79177  32.79177
Angles:   90.00000  90.00000  90.00000  Average:  90.00000  90.00000  90.00000
Rectangular boundary conditions

net charge:   0.00000000

component 0 (CO2) lambda:  0 occupancy:  1 (1.000000)
    net charge:   0.00000000 [e]

Amount of molecules per component :
-------------------------------------------------------------------------------
Component 0 (CO2)
    molecules:      3.900000e+01 molecules  (3.885242e+01 +/- 0.000000e+00)
    number density: 1.179235e-03 molec./A^3 (1.100616e-03 +/- 0.000000e+00)
    density:        8.615694e+01 kg/m^3     (8.041292e+01 +/- 0.000000e+00)

Average pressure tensor: 
-------------------------------------------------------------------------------
 3.2560e+01  9.1246e-02 -1.4105e+00 +/- 0.0000e+00 0.0000e+00 0.0000e+00 [bar]
 9.1246e-02  3.6425e+01  1.6537e+00 +/- 0.0000e+00 0.0000e+00 0.0000e+00 [bar]
-1.4105e+00  1.6537e+00  3.3420e+01 +/- 0.0000e+00 0.0000e+00 0.0000e+00 [bar]
Ideal-gas pressure:   4.254786e+01 +/ 0.000000e+00 [bar]
Excess pressure:     -8.412731e+00 +/ 0.000000e+00 [bar]
Pressure:             3.413513e+01 +/ 0.000000e+00 [bar]

Total potential energy/kʙ  -6.797255e+03 (-6.132881e+03 +/- 0.000000e+00) [K]
-------------------------------------------------------------------------------
ExternalField-molecule
    Van der Waals/kʙ        0.000000e+00 ( 0.000000e+00 +/- 0.000000e+00) [K]
Framework-molecule
    Van der Waals/kʙ        0.000000e+00 ( 0.000000e+00 +/- 0.000000e+00) [K]
    Van der Waals (Tail)/kʙ 0.000000e+00 ( 0.000000e+00 +/- 0.000000e+00) [K]
    Coulombic Real/kʙ       0.000000e+00 ( 0.000000e+00 +/- 0.000000e+00) [K]
    Coulombic Fourier/kʙ    0.000000e+00 ( 0.000000e+00 +/- 0.000000e+00) [K]
Molecule-molecule
    Van der Waals/kʙ       -5.926736e+03 (-4.596269e+03 +/- 0.000000e+00) [K]
    Van der Waals (Tail)/kʙ-8.540853e+01 (-8.617974e+01 +/- 0.000000e+00) [K]
    Coulombic Real/kʙ      -6.852758e+02 (-1.332316e+03 +/- 0.000000e+00) [K]
    Coulombic Fourier/kʙ   -9.983460e+01 (-1.181167e+02 +/- 0.000000e+00) [K]
    Molecule Intra/kʙ       0.000000e+00 ( 0.000000e+00 +/- 0.000000e+00) [K]

Current cycle: 1400 out of 6000
===============================================================================

Box:      32.06532   0.00000   0.00000  Average:  32.74131   0.00000   0.00000
           0.00000  32.06532   0.00000             0.00000  32.74131   0.00000
           0.00000   0.00000  32.06532             0.00000   0.00000  32.74131
Lengths:  32.06532  32.06532  32.06532  Average:  32.74131  32.74131  32.74131
Angles:   90.00000  90.00000  90.00000  Average:  90.00000  90.00000  90.00000
Rectangular boundary conditions

net charge:   0.00000000

component 0 (CO2) lambda:  0 occupancy:  1 (1.000000)
    net charge:   0.00000000 [e]

Amount of molecules per component :
-------------------------------------------------------------------------------
Component 0 (CO2)
    molecules:      3.600000e+01 molecules  (3.866167e+01 +/- 0.000000e+00)
    number density: 1.091932e-03 molec./A^3 (1.100243e-03 +/- 0.000000e+00)
    density:        7.977845e+01 kg/m^3     (8.038561e+01 +/- 0.000000e+00)

Average pressure tensor: 
-------------------------------------------------------------------------------
 3.2582e+01 -4.6369e-02 -1.3832e+00 +/- 0.0000e+00 0.0000e+00 0.0000e+00 [bar]
-4.6369e-02  3.5824e+01  1.6285e+00 +/- 0.0000e+00 0.0000e+00 0.0000e+00 [bar]
-1.3832e+00  1.6285e+00  3.3158e+01 +/- 0.0000e+00 0.0000e+00 0.0000e+00 [bar]
Ideal-gas pressure:   4.253341e+01 +/ 0.000000e+00 [bar]
Excess pressure:     -8.678665e+00 +/ 0.000000e+00 [bar]
Pressure:             3.385474e+01 +/ 0.000000e+00 [bar]

Total potential energy/kʙ  -5.932465e+03 (-6.064302e+03 +/- 0.000000e+00) [K]
-------------------------------------------------------------------------------
ExternalField-molecule
    Van der Waals/kʙ        0.000000e+00 ( 0.000000e+00 +/- 0.000000e+00) [K]
Framework-molecule
    Van der Waals/kʙ        0.000000e+00 ( 0.000000e+00 +/- 0.000000e+00) [K]
    Van der Waals (Tail)/kʙ 0.000000e+00 ( 0.000000e+00 +/- 0.000000e+00) [K]
    Coulombic Real/kʙ       0.000000e+00 ( 0.000000e+00 +/- 0.000000e+00) [K]
    Coulombic Fourier/kʙ    0.000000e+00 ( 0.000000e+00 +/- 0.000000e+00) [K]
Molecule-molecule
    Van der Waals/kʙ       -4.069231e+03 (-4.536171e+03 +/- 0.000000e+00) [K]
    Van der Waals (Tail)/kʙ-7.300195e+01 (-8.540466e+01 +/- 0.000000e+00) [K]
    Coulombic Real/kʙ      -1.575379e+03 (-1.324133e+03 +/- 0.000000e+00) [K]
    Coulombic Fourier/kʙ   -2.148543e+02 (-1.185933e+02 +/- 0.000000e+00) [K]
    Molecule Intra/kʙ       0.000000e+00 ( 0.000000e+00 +/- 0.000000e+00) [K]

Current cycle: 1500 out of 6000
===============================================================================

Box:      32.25934   0.00000   0.00000  Average:  32.70449   0.00000   0.00000
           0.00000  32.25934   0.00000             0.00000  32.70449   0.00000
           0.00000   0.00000  32.25934             0.00000   0.00000  32.70449
[...]
    number density: 1.520795e-03 molec./A^3 (1.151125e-03 +/- 1.800320e-04)
    density:        1.111119e+02 kg/m^3     (8.410317e+01 +/- 1.315345e+01)

Average pressure tensor: 
-------------------------------------------------------------------------------
 3.4634e+01 -4.8123e-01 -4.6352e-01 +/- 1.5724e+00 5.7550e-01 1.8966e+00 [bar]
-4.8123e-01  3.5244e+01  5.8264e-01 +/- 5.7550e-01 4.6455e+00 1.5351e+00 [bar]
-4.6352e-01  5.8264e-01  3.5752e+01 +/- 1.8966e+00 1.5351e+00 4.9534e+00 [bar]
Ideal-gas pressure:   4.450044e+01 +/ 6.959715e+00 [bar]
Excess pressure:     -9.290348e+00 +/ 3.734976e+00 [bar]
Pressure:             3.521009e+01 +/ 3.341381e+00 [bar]

Total potential energy/kʙ  -1.211984e+04 (-6.776101e+03 +/- 2.796435e+03) [K]
-------------------------------------------------------------------------------
ExternalField-molecule
    Van der Waals/kʙ        0.000000e+00 ( 0.000000e+00 +/- 0.000000e+00) [K]
Framework-molecule
    Van der Waals/kʙ        0.000000e+00 ( 0.000000e+00 +/- 0.000000e+00) [K]
    Van der Waals (Tail)/kʙ 0.000000e+00 ( 0.000000e+00 +/- 0.000000e+00) [K]
    Coulombic Real/kʙ       0.000000e+00 ( 0.000000e+00 +/- 0.000000e+00) [K]
    Coulombic Fourier/kʙ    0.000000e+00 ( 0.000000e+00 +/- 0.000000e+00) [K]
Molecule-molecule
    Van der Waals/kʙ       -8.418918e+03 (-5.064516e+03 +/- 2.080871e+03) [K]
    Van der Waals (Tail)/kʙ-1.666322e+02 (-9.461895e+01 +/- 3.723029e+01) [K]
    Coulombic Real/kʙ      -3.320770e+03 (-1.485578e+03 +/- 6.279047e+02) [K]
    Coulombic Fourier/kʙ   -2.135216e+02 (-1.313878e+02 +/- 5.468900e+01) [K]
    Molecule Intra/kʙ       0.000000e+00 ( 0.000000e+00 +/- 0.000000e+00) [K]

Current cycle: 5800 out of 6000
===============================================================================

Box:      33.69379   0.00000   0.00000  Average:  33.00345   0.00000   0.00000
           0.00000  33.69379   0.00000             0.00000  33.00345   0.00000
           0.00000   0.00000  33.69379             0.00000   0.00000  33.00345
Lengths:  33.69379  33.69379  33.69379  Average:  33.00345  33.00345  33.00345
Angles:   90.00000  90.00000  90.00000  Average:  90.00000  90.00000  90.00000
Rectangular boundary conditions

net charge:   0.00000000

component 0 (CO2) lambda:  0 occupancy:  1 (1.000000)
    net charge:   0.00000000 [e]

Amount of molecules per component :
-------------------------------------------------------------------------------
Component 0 (CO2)
    molecules:      5.300000e+01 molecules  (4.186657e+01 +/- 9.338169e+00)
    number density: 1.385563e-03 molec./A^3 (1.157573e-03 +/- 1.858610e-04)
    density:        1.012316e+02 kg/m^3     (8.457428e+01 +/- 1.357933e+01)

Average pressure tensor: 
-------------------------------------------------------------------------------
 3.4803e+01 -3.8355e-01 -5.0934e-01 +/- 1.9119e+00 3.6738e-01 1.8754e+00 [bar]
-3.8355e-01  3.5212e+01  6.5287e-01 +/- 3.6738e-01 4.3005e+00 1.1951e+00 [bar]
-5.0934e-01  6.5287e-01  3.5805e+01 +/- 1.8754e+00 1.1951e+00 4.8016e+00 [bar]
Ideal-gas pressure:   4.474970e+01 +/ 7.185055e+00 [bar]
Excess pressure:     -9.476414e+00 +/ 4.013593e+00 [bar]
Pressure:             3.527329e+01 +/ 3.291773e+00 [bar]

Total potential energy/kʙ  -1.171457e+04 (-6.869948e+03 +/- 2.864390e+03) [K]
-------------------------------------------------------------------------------
ExternalField-molecule
    Van der Waals/kʙ        0.000000e+00 ( 0.000000e+00 +/- 0.000000e+00) [K]
Framework-molecule
    Van der Waals/kʙ        0.000000e+00 ( 0.000000e+00 +/- 0.000000e+00) [K]
    Van der Waals (Tail)/kʙ 0.000000e+00 ( 0.000000e+00 +/- 0.000000e+00) [K]
    Coulombic Real/kʙ       0.000000e+00 ( 0.000000e+00 +/- 0.000000e+00) [K]
    Coulombic Fourier/kʙ    0.000000e+00 ( 0.000000e+00 +/- 0.000000e+00) [K]
Molecule-molecule
    Van der Waals/kʙ       -8.137556e+03 (-5.130619e+03 +/- 2.121198e+03) [K]
    Van der Waals (Tail)/kʙ-1.363761e+02 (-9.575524e+01 +/- 3.782404e+01) [K]
    Coulombic Real/kʙ      -3.402973e+03 (-1.511486e+03 +/- 6.573998e+02) [K]
    Coulombic Fourier/kʙ   -3.766633e+01 (-1.320875e+02 +/- 5.259291e+01) [K]
    Molecule Intra/kʙ       0.000000e+00 ( 0.000000e+00 +/- 0.000000e+00) [K]

Current cycle: 5900 out of 6000
===============================================================================

Box:      33.83157   0.00000   0.00000  Average:  33.01547   0.00000   0.00000
           0.00000  33.83157   0.00000             0.00000  33.01547   0.00000
           0.00000   0.00000  33.83157             0.00000   0.00000  33.01547
Lengths:  33.83157  33.83157  33.83157  Average:  33.01547  33.01547  33.01547
Angles:   90.00000  90.00000  90.00000  Average:  90.00000  90.00000  90.00000
Rectangular boundary conditions

net charge:   0.00000000

component 0 (CO2) lambda:  0 occupancy:  1 (1.000000)
    net charge:   0.00000000 [e]

Amount of molecules per component :
-------------------------------------------------------------------------------
Component 0 (CO2)
    molecules:      5.900000e+01 molecules  (4.201542e+01 +/- 9.162760e+00)
    number density: 1.523651e-03 molec./A^3 (1.160352e-03 +/- 1.811716e-04)
    density:        1.113206e+02 kg/m^3     (8.477733e+01 +/- 1.323670e+01)

Average pressure tensor: 
-------------------------------------------------------------------------------
 3.4846e+01 -3.1373e-01 -4.5562e-01 +/- 1.9201e+00 3.7219e-01 1.8924e+00 [bar]
-3.1373e-01  3.5335e+01  7.3760e-01 +/- 3.7219e-01 4.3858e+00 8.8248e-01 [bar]
-4.5562e-01  7.3760e-01  3.5685e+01 +/- 1.8924e+00 8.8248e-01 4.2886e+00 [bar]
Ideal-gas pressure:   4.485714e+01 +/ 7.003768e+00 [bar]
Excess pressure:     -9.568310e+00 +/ 3.998410e+00 [bar]
Pressure:             3.528883e+01 +/ 3.133960e+00 [bar]

Total potential energy/kʙ  -1.410418e+04 (-6.922940e+03 +/- 2.815529e+03) [K]
-------------------------------------------------------------------------------
ExternalField-molecule
    Van der Waals/kʙ        0.000000e+00 ( 0.000000e+00 +/- 0.000000e+00) [K]
Framework-molecule
    Van der Waals/kʙ        0.000000e+00 ( 0.000000e+00 +/- 0.000000e+00) [K]
    Van der Waals (Tail)/kʙ 0.000000e+00 ( 0.000000e+00 +/- 0.000000e+00) [K]
    Coulombic Real/kʙ       0.000000e+00 ( 0.000000e+00 +/- 0.000000e+00) [K]
    Coulombic Fourier/kʙ    0.000000e+00 ( 0.000000e+00 +/- 0.000000e+00) [K]
Molecule-molecule
    Van der Waals/kʙ       -1.131161e+04 (-5.169435e+03 +/- 2.085558e+03) [K]
    Van der Waals (Tail)/kʙ-1.669452e+02 (-9.642240e+01 +/- 3.713776e+01) [K]
    Coulombic Real/kʙ      -2.401850e+03 (-1.523917e+03 +/- 6.454769e+02) [K]
    Coulombic Fourier/kʙ   -2.237701e+02 (-1.331654e+02 +/- 5.204471e+01) [K]
    Molecule Intra/kʙ       0.000000e+00 ( 0.000000e+00 +/- 0.000000e+00) [K]


Energy statistics             |  Energy [K]   | Recomputed [K]|  Drift [K]    |
===============================================================================
Total potential energy/kʙ     | -7.082553e+03 | -7.043218e+03 | -3.933514e+01 |
    external field VDW/kʙ     |  0.000000e+00 |  0.000000e+00 |  0.000000e+00 |
    external field Real/kʙ    |  0.000000e+00 |  0.000000e+00 |  0.000000e+00 |
    framework-molecule VDW/kʙ |  0.000000e+00 |  0.000000e+00 |  0.000000e+00 |
    framework-molecule Real/kʙ|  0.000000e+00 |  0.000000e+00 |  0.000000e+00 |
    molecule-molecule VDW/kʙ  | -5.260781e+03 | -5.222212e+03 | -3.856856e+01 |
    molecule-molecule Real/kʙ | -1.429552e+03 | -1.428785e+03 | -7.665776e-01 |
    Van der Waals (Tail)/kʙ   | -1.334600e+02 | -1.334600e+02 |  3.418348e-13 |
    Ewald Fourier/kʙ          |  2.799132e+03 |  2.799132e+03 |  1.640807e-12 |
    Ewald self/kʙ             | -9.550727e+05 | -9.550727e+05 |  0.000000e+00 |
    Ewald exclusion/kʙ        |  9.520148e+05 |  9.520148e+05 |  5.600621e-10 |
    intra VDW/kʙ              |  0.000000e+00 |  0.000000e+00 |  0.000000e+00 |
    intra Coulombic/kʙ        |  0.000000e+00 |  0.000000e+00 |  0.000000e+00 |
    polarization/kʙ           |  0.000000e+00 |  0.000000e+00 |  0.000000e+00 |
    dU/dlambda VDW/kʙ         |  0.000000e+00 |  0.000000e+00 |  0.000000e+00 |
    dU/dlambda Real/kʙ        |  0.000000e+00 |  0.000000e+00 |  0.000000e+00 |
    dU/dlambda Ewald/kʙ       |  0.000000e+00 |  0.000000e+00 |  0.000000e+00 |
-------------------------------------------------------------------------------


Monte-Carlo moves statistics
===============================================================================

    Gibbs volume         all:                3013
    Gibbs volume         total:              6010
    Gibbs volume         constructed:        6010
    Gibbs volume         accepted:           5097
    Gibbs volume         fraction:       0.848087
    Gibbs volume         max-change:     0.037500

Component 0 [CO2]
    Reinsertion (CBMC)   all:              149291
    Reinsertion (CBMC)   total:            149291
    Reinsertion (CBMC)   constructed:      149291
    Reinsertion (CBMC)   accepted:          95895
    Reinsertion (CBMC)   fraction:       0.642336
    Reinsertion (CBMC)   max-change:     0.000000

    Gibbs swap (CBMC)    all:              298087
    Gibbs swap (CBMC)    total:            597934
    Gibbs swap (CBMC)    constructed:      593239
    Gibbs swap (CBMC)    accepted:         127543
    Gibbs swap (CBMC)    fraction:       0.213306
    Gibbs swap (CBMC)    max-change:     0.000000

    Translation          all:              149417
    Translation          total:             49749      49804      49864
    Translation          constructed:       49631      49709      49760
    Translation          accepted:          40297      40496      40436
    Translation          fraction:       0.810006   0.813107   0.810926
    Translation          max-change:     1.500000   1.500000   1.500000

    Rotation             all:              148647
    Rotation             total:             49274      49398      49975
    Rotation             constructed:       49242      49375      49936
    Rotation             accepted:          39662      39858      40408
    Rotation             fraction:       0.804928   0.806875   0.808564
    Rotation             max-change:     1.500000   1.500000   1.500000



Production run counting of the MC moves summed over systems and components
===============================================================================

Reinsertion (CBMC)                   298230 (19.8820 [%])
Gibbs volume                           6010 (0.4007 [%])
Gibbs swap (CBMC)                    597934 (39.8623 [%])
Translation                          299400 (19.9600 [%])
Rotation                             298426 (19.8951 [%])

Production count MC-steps:          1500000 [-]
               All summed:          1500000 [-]
               difference:                0 [-]


Production run CPU timings of the MC moves
===============================================================================

Component 0 CO2

Rotation                              8.509411 [s]
    Ewald                             6.030884 [s]
    ExternalField-Molecule            0.005246 [s]
    Framework-Molecule                0.005477 [s]
    Molecule-Molecule                 1.675600 [s]
    Overhead                          0.792204 [s]

Reinsertion (CBMC)                   23.964927 [s]
    Ewald                             6.044705 [s]
    NonEwald                         17.283400 [s]
    Overhead                          0.636822 [s]

Translation                           8.518010 [s]
    Ewald                             6.012762 [s]
    ExternalField-Molecule            0.004672 [s]
    Framework-Molecule                0.013051 [s]
    Molecule-Molecule                 1.689231 [s]
    Overhead                          0.798294 [s]



Gibbs swap (CBMC)                   166.921957 [s]
    Ewald                            27.199486 [s]
    NonEwald                        136.235793 [s]
    Tail                              1.478128 [s]

Gibbs volume                         19.808959 [s]
    Ewald                             9.771884 [s]
    NonEwald                          9.217794 [s]
    Tail                              0.644964 [s]

Property sampling                     0.256217 [s]
Energy/pressure sampling:             0.734047 [s]


Production run CPU timings of the MC moves summed over systems and components
===============================================================================


Translation                          29.758520 [s]
    Ewald                            17.385559 [s]
    ExternalField-Molecule            0.009555 [s]
    Framework-Molecule                0.026214 [s]
    Molecule-Molecule                10.431010 [s]
    Overhead                          1.906182 [s]

Rotation                             29.582371 [s]
    Ewald                            17.356175 [s]
    ExternalField-Molecule            0.011069 [s]
    Framework-Molecule                0.010845 [s]
    Molecule-Molecule                10.405350 [s]
    Overhead                          1.798932 [s]

Reinsertion (CBMC)                  102.608577 [s]
    Ewald                            17.182436 [s]
    NonEwald                         84.435815 [s]
    Overhead                          0.990326 [s]

Gibbs volume                         39.524999 [s]
    Ewald                            19.504148 [s]
    NonEwald                         18.379707 [s]
    Tail                              1.289807 [s]
    Overhead                          0.351337 [s]

Gibbs swap (CBMC)                   291.222044 [s]
    Ewald                            54.037729 [s]
    NonEwald                        230.451954 [s]
    Tail                              2.821963 [s]
    Overhead                          3.910398 [s]

Property sampling:                    0.581643 [s]
Energy/pressure sampling:             9.017653 [s]

Production simulation time:         503.785118 [s]
                All summed:         502.295807 [s]
                  Overhead:           1.489311 [s]


Initalization simulation time:      162.704369 [s]
Equilibration simulation time:        0.000000 [s]
Production simulation time:         503.785118 [s]
Total simulation time:              666.489487 [s]


Energy averages and statistics:
===============================================================================

Framework-molecule energy:
-------------------------------------------------------------------------------



Framework-molecule energy contributions per energy type:
-------------------------------------------------------------------------------



Inter-molecular energy:
-------------------------------------------------------------------------------

    Inter-molecular energy/kʙ 0-0 [CO2-CO2]:
    ---------------------------------------------------------------------------
        Block[  0] -6.138907e+03
        Block[  1] -5.015130e+03
        Block[  2] -5.973438e+03
        Block[  3] -6.932256e+03
        Block[  4] -1.067501e+04
        -----------------------------------------------------------------------
        Average  -6.946948e+03 +/-  2.722126e+03 [K]



Inter-molecular energy contributions per energy type:
-------------------------------------------------------------------------------

    Van der Waals energy/kʙ 0-0 [CO2-CO2]:
    ---------------------------------------------------------------------------
        Block[  0] -4.591517e+03
        Block[  1] -3.695660e+03
        Block[  2] -4.474943e+03
        Block[  3] -5.251785e+03
        Block[  4] -7.952929e+03
        -----------------------------------------------------------------------
        Average  -5.193367e+03 +/-  2.034268e+03 [K]

    VDW Tail-Correction energy/kʙ 0-0 [CO2-CO2]:
    ---------------------------------------------------------------------------
        Block[  0] -8.676936e+01
        Block[  1] -6.927176e+01
        Block[  2] -8.423376e+01
        Block[  3] -9.827450e+01
        Block[  4] -1.461139e+02
        -----------------------------------------------------------------------
        Average  -9.693266e+01 +/-  3.646125e+01 [K]

    Coulomb Real energy/kʙ 0-0 [CO2-CO2]:
    ---------------------------------------------------------------------------
        Block[  0] -1.339896e+03
        Block[  1] -1.157231e+03
        Block[  2] -1.291496e+03
        Block[  3] -1.452309e+03
        Block[  4] -2.373273e+03
        -----------------------------------------------------------------------
        Average  -1.522841e+03 +/-  6.046551e+02 [K]

    Coulomb Fourier energy/kʙ 0-0 [CO2-CO2]:
    ---------------------------------------------------------------------------
        Block[  0] -1.207247e+02
        Block[  1] -9.296725e+01
        Block[  2] -1.227646e+02
        Block[  3] -1.298870e+02
        Block[  4] -2.026953e+02
        -----------------------------------------------------------------------
        Average  -1.338078e+02 +/-  5.089223e+01 [K]


Total energy/kʙ
-------------------------------------------------------------------------------
    Block[  0] -6.138907e+03
    Block[  1] -5.015130e+03
    Block[  2] -5.973438e+03
    Block[  3] -6.932256e+03
    Block[  4] -1.067501e+04
    ---------------------------------------------------------------------------
    Average  -6.946948e+03 +/-  2.722126e+03 [K]

Pressure averages and statistics:
===============================================================================

Average pressure tensor: 
-------------------------------------------------------------------------------
 3.4675e+01 -3.8993e-01 -4.4914e-01 +/- 1.4927e+00 3.6844e-01 1.8922e+00 [bar]
-3.8993e-01  3.5325e+01  8.1541e-01 +/- 3.6844e-01 4.1818e+00 6.5296e-01 [bar]
-4.4914e-01  8.1541e-01  3.5757e+01 +/- 1.8922e+00 6.5296e-01 4.2744e+00 [bar]

    Block[  0]  4.271933e+06
    Block[  1]  3.971175e+06
    Block[  2]  4.263814e+06
    Block[  3]  4.561858e+06
    Block[  4]  5.424571e+06
    ---------------------------------------------------------------------------
    Ideal gas pressure   4.498670e+06 +/-  4.172843e-02 [Pa]
                         4.498670e+01 +/-  6.929174e+00 [bar]


    Block[  0] -7.902218e+05
    Block[  1] -6.692794e+05
    Block[  2] -9.139490e+05
    Block[  3] -9.491827e+05
    Block[  4] -1.544474e+06
    ---------------------------------------------------------------------------
    Excess pressure  -9.734214e+05 +/-  4.193003e+05 [Pa]
                     -9.734214e+00 +/-  4.193003e+00 [bar]


    Block[  0]  3.481712e+06
    Block[  1]  3.301895e+06
    Block[  2]  3.349865e+06
    Block[  3]  3.612676e+06
    Block[  4]  3.880097e+06
    ---------------------------------------------------------------------------
    Pressure average   3.525249e+06 +/-  2.885585e+05 [Pa]
                       3.525249e+01 +/-  2.885585e+00 [bar]


Enthalpy of adsorption
===============================================================================

Component 0 [CO2]
-------------------------------------------------------------------------------
    Block[  0] -5.734669e+02
    Block[  1] -5.692444e+02
    Block[  2] -5.657112e+02
    Block[  3] -5.988346e+02
    Block[  4] -6.385794e+02
    ---------------------------------------------------------------------------
    Enthalpy of adsorption: -5.891673e+02 +/-  3.790347e+01 [K]
                            -4.898611e+00 +/-  3.151470e-01 [kJ/mol]
    Warning: need to subtract the ideal-gas energy.


Densities
===============================================================================

Component 0 (CO2)
    Block[  0] 39.17916666666667
    Block[  1] 34.325
    Block[  2] 39.73583333333334
    Block[  3] 43.888333333333335
    Block[  4] 53.7725
    -----------------------------------------------------------------------
    Density average   4.218017e+01 +/-  9.080203e+00 [molecules]
    Density average   1.163704e-03 +/-  1.792420e-04 [molec/A^3]
    Density average   8.502219e+01 +/-  1.309573e+01 [kg.m⁻³]

