Compiler and run-time data
===============================================================================
RASPA 3.0.4

Random seed: 2410839748

Compiled as a 64-bits application
Compiler: gcc Ubuntu Clang 18.1.3 (1ubuntu1)
Compile Date = Mar 15 2025, Compile Time = 19:39:45

2025-06-03 11:00:36.102433
Simulation started on Tue, Jun 03
The start time was 11:00:00

Hostname:    c062
OS type:     Linux on x86_64
OS release:  6.8.0-58-generic
OS version:  #60-Ubuntu SMP PREEMPT_DYNAMIC Fri Mar 14 18:29:48 UTC 2025


Mutual consistent basic set of units:
===============================================================================

Unit of temperature: 1 [K]
Unit of length:      1e-10 [m]
Unit of time:        1e-12 [s]
Unit of mass:        1.6605402e-27 [kg]
Unit of charge:      1.60217733e-19 [C/particle]


Boltzmann constant (internal units):          0.8314464919307584 [-]
represents conversion from energy (internal units) to temperature (in Kelvin)

Derived units and their conversion factors:
===============================================================================

Unit of energy:                           1.6605402000000002e-23 [J]
Unit of energy:                           10.000008872307538 [J.mol⁻¹]
Unit of velocity:                         100 [m.s⁻¹]
Unit of force:                            1.6605402000000002e-13 [N]
Unit of diffusion:                        1.0000000000000002e-08 [m².s⁻¹]
Unit of acceleration:                     1.0000000000000002e-08 [m².s⁻¹]
Unit of torque:                           1.6605402000000002e-23 [N.m]
Unit of pressure:                         16605402 [Pa]
Unit of volume:                           1e-30 [m³]
Unit of density:                          1660.5402 [kg.m⁻³]
Unit of dynamic viscosity:                1.6605401999999997e-05 [N.s.m⁻²]
Unit of enthalpy:                         1.6605402000000002e-23 [J]
Unit of polarizability:                   1.5458657349975198e-35 [-]
Unit of Coulomb potential:                167101.08000665612 [K]
Unit of dielectric constant:              1.5458657349975193e-05 [s².C².kg⁻¹.m⁻³]
Unit of dipole moment:                    1.60217733e-29 [C.m]
Unit of Debye:                            4.803206799099162 [C.m]
Unit of electric potential:               0.00010364272224473431 [V]
Unit of electric field:                   1036427.222447343 [V.m⁻¹]
Unit of isothermal compressibility:       6.02213665167516e-08 [Pa⁻¹]
Unit of heat capacity:                    10.000008872307538 [J.mol⁻¹.K⁻¹]
Unit of volumetric expansion coefficient: 1 [K⁻¹]


Internal conversion factors:
===============================================================================

Energy (internal units) to Kelvin:      1.202724284692786 [-]
Kelvin to energy (internal units):      0.8314457542157567 [-]


System definitions
===============================================================================

Temperature:          280 [K]
Beta:                 0.004295440062697377 [-]
Pressure:             0 [Pa]
Helium void fraction: 1 [-]

Box:      30.00000   0.00000   0.00000
           0.00000  30.00000   0.00000
           0.00000   0.00000  30.00000
Lengths:  30.00000  30.00000  30.00000
Angles:   90.00000  90.00000  90.00000
Rectangular boundary conditions



Property measurement settings
===============================================================================




Pseudo-atoms
===============================================================================

  0 - C_co2    framework-atom: false
  1 - O_co2    framework-atom: false

  0 - C_co2    mass: 12.00000, charge:  0.70000
  1 - O_co2    mass: 15.99940, charge: -0.35000

  0 - C_co2    polarizability:  0.00000
  1 - O_co2    polarizability:  0.00000

  0 - J. J. Potoff et al., AIChE J. 2001, 47, 1676–1682.
  1 - J. J. Potoff et al., AIChE J. 2001, 47, 1676–1682.

Force field status
===============================================================================

Cutoff Framework-Molecule VDW:  10.00000 [Å]
Cutoff Molecule-Molecule VDW:   10.00000 [Å]
Cutoff Coulomb:                 10.00000 [Å]

Overlap-criteria VDW:           1.000000e+05 [K]

C_co2    - C_co2    Lennard-Jones p₀/kʙ:  27.00000 [K], p₁:  2.80000 [Å]
                                  shift:   0.00000 [K], tailcorrections: true
C_co2    - O_co2    Lennard-Jones p₀/kʙ:  46.18441 [K], p₁:  2.92500 [Å]
                                  shift:   0.00000 [K], tailcorrections: true
O_co2    - O_co2    Lennard-Jones p₀/kʙ:  79.00000 [K], p₁:  3.05000 [Å]
                                  shift:   0.00000 [K], tailcorrections: true

Ewald precision: 1e-06
Ewald alpha: 0.32079885109097883
Ewald k-vectors: 10 10 10


Component definitions
===============================================================================

Component 0 [CO2]

    Type: Adsorbate

    Critical temperature:  304.1282 [K]
    Critical pressure:     7377300 [Pa]
    Acentric factor:       0.22394 [-]

    Mol-fraction:                 1 [-]
    Swappable:                   true

    Mass:                         43.9988 [-]
    Fugacity coefficient:         -nan [-]
    Bulk fluid density:           0 [-]
    Compressibility:              1 [-]
    Excess molecules:             0 [-]

    Number Of Atoms:    3
    CBMC starting bead: 0
      0: O_co2  position  0.00000 -0.00000  1.16000, charge -0.35000
      1: C_co2  position  0.00000 -0.00000  0.00000, charge  0.70000
      2: O_co2  position  0.00000 -0.00000 -1.16000, charge -0.35000
    Diagonalized inertia-vector:      43.05758528 43.05758528 0.00000000
    Translational degrees of freedom: 3
    Rotational degrees of freedom:    2
    Shape of the molecule is: 'Linear'
    Net-charge:        0.00000000 [e]

    Move probabilities:
    Translation:                   0.199203 [-]
    Random translation:            0.000000 [-]
    Rotation:                      0.199203 [-]
    Random rotation:               0.000000 [-]
    Volume change:                 0.000000 [-]
    Reinsertion (CBMC):            0.199203 [-]
    Identity change (CBMC):        0.000000 [-]
    Swap:                          0.000000 [-]
    Swap (CBMC):                   0.000000 [-]
    Swap (CFCMC):                  0.000000 [-]
    Swap (CB/CFCMC):               0.000000 [-]
    Gibbs volume:                  0.003984 [-]
    Gibbs swap (CBMC):             0.398406 [-]
    Gibbs swap (CFCMC):            0.000000 [-]
    Widom:                         0.000000 [-]
    Widom (CFCMC):                 0.000000 [-]
    Widom (CB/CFCMC):              0.000000 [-]
    Parallel tempering:            0.000000 [-]
    Hybrid MC:                     0.000000 [-]

    number of blocking-pockets: 0

    number of bonds: 0





Number of pseudo-atoms
===============================================================================

Component   0 (CO2)
-------------------------------------------------------------------------------
    index   0 (C_co2): 210 atoms
    index   1 (O_co2): 420 atoms

Total number of pseudo-atoms:
-------------------------------------------------------------------------------
    index   0 (C_co2): 210 atoms
    index   1 (O_co2): 420 atoms




Energy status Recomputed from scratch
===============================================================================

Total potential energy/kʙ       -1.066221e+05 [K]
    external field VDW/kʙ        0.000000e+00 [K]
    external field Real/kʙ       0.000000e+00 [K]
    framework-molecule VDW/kʙ    0.000000e+00 [K]
    framework-molecule Real/kʙ   0.000000e+00 [K]
    molecule-molecule VDW/kʙ    -8.040884e+04 [K]
    molecule-molecule Real/kʙ   -1.697198e+04 [K]
    Van der Waals (Tail)/kʙ     -5.240630e+03 [K]
    Ewald Fourier/kʙ             2.651411e+04 [K]
    Ewald self/kʙ               -4.668139e+06 [K]
    Ewald exclusion/kʙ           4.637624e+06 [K]
    intra VDW/kʙ                 0.000000e+00 [K]
    intra Coulombic/kʙ           0.000000e+00 [K]
    polarization/kʙ              0.000000e+00 [K]
    dU/dlambda VDW/kʙ            0.000000e+00 [K]
    dU/dlambda Real/kʙ           0.000000e+00 [K]
    dU/dlambda Ewald/kʙ          0.000000e+00 [K]





Initialization: Current cycle: 0 out of 2000
===============================================================================

Box:      30.00000   0.00000   0.00000
           0.00000  30.00000   0.00000
           0.00000   0.00000  30.00000
Lengths:  30.00000  30.00000  30.00000
Angles:   90.00000  90.00000  90.00000
Rectangular boundary conditions

net charge:   0.00000000

component   0 (CO2) lambda:  0 occupancy:  0 (0.000000)
    net charge:   0.00000000 [e]

Amount of molecules per component :
-------------------------------------------------------------------------------
Component 0 (CO2)
    molecules:         2.080000e+02 molecules
    number density:    7.703704e-03 molec/A^3
    density:           5.628458e+02 kg/m^3

Total potential energy/kʙ       -1.117149e+05 [K]
-------------------------------------------------------------------------------
    external field VDW/kʙ        0.000000e+00 [K]
    external field Real/kʙ       0.000000e+00 [K]
    framework-molecule VDW/kʙ    0.000000e+00 [K]
    framework-molecule Real/kʙ   0.000000e+00 [K]
    molecule-molecule VDW/kʙ    -8.272602e+04 [K]
    molecule-molecule Real/kʙ   -1.831550e+04 [K]
    Van der Waals (Tail)/kʙ     -5.141284e+03 [K]
    Ewald Fourier/kʙ             2.469207e+04 [K]
    Ewald self/kʙ               -4.623680e+06 [K]
    Ewald exclusion/kʙ           4.593456e+06 [K]
    intra VDW/kʙ                 0.000000e+00 [K]
    intra Coulombic/kʙ           0.000000e+00 [K]
    polarization/kʙ              0.000000e+00 [K]
    dU/dlambda VDW/kʙ            0.000000e+00 [K]
    dU/dlambda Real/kʙ           0.000000e+00 [K]
    dU/dlambda Ewald/kʙ          0.000000e+00 [K]


Initialization: Current cycle: 100 out of 2000
===============================================================================

Box:      29.38654   0.00000   0.00000
           0.00000  29.38654   0.00000
           0.00000   0.00000  29.38654
Lengths:  29.38654  29.38654  29.38654
Angles:   90.00000  90.00000  90.00000
Rectangular boundary conditions

net charge:   0.00000000

component   0 (CO2) lambda:  0 occupancy:  0 (0.000000)
    net charge:   0.00000000 [e]

Amount of molecules per component :
-------------------------------------------------------------------------------
Component 0 (CO2)
    molecules:         2.080000e+02 molecules
    number density:    8.196306e-03 molec/A^3
    density:           5.988361e+02 kg/m^3

Total potential energy/kʙ       -1.895438e+05 [K]
-------------------------------------------------------------------------------
    external field VDW/kʙ        0.000000e+00 [K]
    external field Real/kʙ       0.000000e+00 [K]
    framework-molecule VDW/kʙ    0.000000e+00 [K]
    framework-molecule Real/kʙ   0.000000e+00 [K]
    molecule-molecule VDW/kʙ    -1.434513e+05 [K]
    molecule-molecule Real/kʙ   -2.965741e+04 [K]
    Van der Waals (Tail)/kʙ     -5.470036e+03 [K]
    Ewald Fourier/kʙ             1.925917e+04 [K]
    Ewald self/kʙ               -4.623680e+06 [K]
    Ewald exclusion/kʙ           4.593456e+06 [K]
    intra VDW/kʙ                 0.000000e+00 [K]
    intra Coulombic/kʙ           0.000000e+00 [K]
    polarization/kʙ              0.000000e+00 [K]
    dU/dlambda VDW/kʙ            0.000000e+00 [K]
    dU/dlambda Real/kʙ           0.000000e+00 [K]
    dU/dlambda Ewald/kʙ          0.000000e+00 [K]


Initialization: Current cycle: 200 out of 2000
===============================================================================

Box:      29.67479   0.00000   0.00000
           0.00000  29.67479   0.00000
           0.00000   0.00000  29.67479
Lengths:  29.67479  29.67479  29.67479
Angles:   90.00000  90.00000  90.00000
Rectangular boundary conditions

net charge:   0.00000000

component   0 (CO2) lambda:  0 occupancy:  0 (0.000000)
    net charge:   0.00000000 [e]

Amount of molecules per component :
-------------------------------------------------------------------------------
Component 0 (CO2)
    molecules:         2.150000e+02 molecules
    number density:    8.227646e-03 molec/A^3
    density:           6.011259e+02 kg/m^3

Total potential energy/kʙ       -1.876502e+05 [K]
-------------------------------------------------------------------------------
    external field VDW/kʙ        0.000000e+00 [K]
    external field Real/kʙ       0.000000e+00 [K]
    framework-molecule VDW/kʙ    0.000000e+00 [K]
    framework-molecule Real/kʙ   0.000000e+00 [K]
    molecule-molecule VDW/kʙ    -1.379476e+05 [K]
    molecule-molecule Real/kʙ   -3.316523e+04 [K]
    Van der Waals (Tail)/kʙ     -5.675743e+03 [K]
    Ewald Fourier/kʙ             2.037965e+04 [K]
    Ewald self/kʙ               -4.779285e+06 [K]
    Ewald exclusion/kʙ           4.748044e+06 [K]
    intra VDW/kʙ                 0.000000e+00 [K]
    intra Coulombic/kʙ           0.000000e+00 [K]
    polarization/kʙ              0.000000e+00 [K]
    dU/dlambda VDW/kʙ            0.000000e+00 [K]
    dU/dlambda Real/kʙ           0.000000e+00 [K]
    dU/dlambda Ewald/kʙ          0.000000e+00 [K]


Initialization: Current cycle: 300 out of 2000
===============================================================================

Box:      28.94928   0.00000   0.00000
           0.00000  28.94928   0.00000
           0.00000   0.00000  28.94928
Lengths:  28.94928  28.94928  28.94928
Angles:   90.00000  90.00000  90.00000
Rectangular boundary conditions

net charge:   0.00000000

component   0 (CO2) lambda:  0 occupancy:  0 (0.000000)
    net charge:   0.00000000 [e]

Amount of molecules per component :
-------------------------------------------------------------------------------
Component 0 (CO2)
    molecules:         2.010000e+02 molecules
    number density:    8.284818e-03 molec/A^3
    density:           6.053030e+02 kg/m^3

Total potential energy/kʙ       -1.697844e+05 [K]
-------------------------------------------------------------------------------
    external field VDW/kʙ        0.000000e+00 [K]
    external field Real/kʙ       0.000000e+00 [K]
    framework-molecule VDW/kʙ    0.000000e+00 [K]
    framework-molecule Real/kʙ   0.000000e+00 [K]
    molecule-molecule VDW/kʙ    -1.258924e+05 [K]
    molecule-molecule Real/kʙ   -3.069444e+04 [K]
    Van der Waals (Tail)/kʙ     -5.343031e+03 [K]
    Ewald Fourier/kʙ             2.135244e+04 [K]
    Ewald self/kʙ               -4.468076e+06 [K]
    Ewald exclusion/kʙ           4.438869e+06 [K]
    intra VDW/kʙ                 0.000000e+00 [K]
    intra Coulombic/kʙ           0.000000e+00 [K]
    polarization/kʙ              0.000000e+00 [K]
    dU/dlambda VDW/kʙ            0.000000e+00 [K]
    dU/dlambda Real/kʙ           0.000000e+00 [K]
    dU/dlambda Ewald/kʙ          0.000000e+00 [K]


Initialization: Current cycle: 400 out of 2000
===============================================================================

Box:      28.49625   0.00000   0.00000
           0.00000  28.49625   0.00000
           0.00000   0.00000  28.49625
Lengths:  28.49625  28.49625  28.49625
Angles:   90.00000  90.00000  90.00000
Rectangular boundary conditions

net charge:   0.00000000

component   0 (CO2) lambda:  0 occupancy:  0 (0.000000)
    net charge:   0.00000000 [e]

Amount of molecules per component :
-------------------------------------------------------------------------------
Component 0 (CO2)
    molecules:         1.990000e+02 molecules
    number density:    8.599829e-03 molec/A^3
    density:           6.283182e+02 kg/m^3

Total potential energy/kʙ       -1.773409e+05 [K]
-------------------------------------------------------------------------------
    external field VDW/kʙ        0.000000e+00 [K]
    external field Real/kʙ       0.000000e+00 [K]
    framework-molecule VDW/kʙ    0.000000e+00 [K]
    framework-molecule Real/kʙ   0.000000e+00 [K]
    molecule-molecule VDW/kʙ    -1.317203e+05 [K]
    molecule-molecule Real/kʙ   -3.058040e+04 [K]
    Van der Waals (Tail)/kʙ     -5.491002e+03 [K]
    Ewald Fourier/kʙ             1.936720e+04 [K]
    Ewald self/kʙ               -4.423617e+06 [K]
    Ewald exclusion/kʙ           4.394701e+06 [K]
    intra VDW/kʙ                 0.000000e+00 [K]
    intra Coulombic/kʙ           0.000000e+00 [K]
    polarization/kʙ              0.000000e+00 [K]
    dU/dlambda VDW/kʙ            0.000000e+00 [K]
    dU/dlambda Real/kʙ           0.000000e+00 [K]
    dU/dlambda Ewald/kʙ          0.000000e+00 [K]


Initialization: Current cycle: 500 out of 2000
===============================================================================

Box:      28.10578   0.00000   0.00000
           0.00000  28.10578   0.00000
           0.00000   0.00000  28.10578
Lengths:  28.10578  28.10578  28.10578
Angles:   90.00000  90.00000  90.00000
Rectangular boundary conditions

net charge:   0.00000000

component   0 (CO2) lambda:  0 occupancy:  0 (0.000000)
    net charge:   0.00000000 [e]

Amount of molecules per component :
-------------------------------------------------------------------------------
Component 0 (CO2)
    molecules:         2.150000e+02 molecules
    number density:    9.683925e-03 molec/A^3
    density:           7.075241e+02 kg/m^3

Total potential energy/kʙ       -2.262920e+05 [K]
-------------------------------------------------------------------------------
    external field VDW/kʙ        0.000000e+00 [K]
    external field Real/kʙ       0.000000e+00 [K]
    framework-molecule VDW/kʙ    0.000000e+00 [K]
    framework-molecule Real/kʙ   0.000000e+00 [K]
    molecule-molecule VDW/kʙ    -1.651033e+05 [K]
    molecule-molecule Real/kʙ   -4.283848e+04 [K]
    Van der Waals (Tail)/kʙ     -6.680340e+03 [K]
    Ewald Fourier/kʙ             1.957149e+04 [K]
    Ewald self/kʙ               -4.779285e+06 [K]
    Ewald exclusion/kʙ           4.748044e+06 [K]
    intra VDW/kʙ                 0.000000e+00 [K]
    intra Coulombic/kʙ           0.000000e+00 [K]
    polarization/kʙ              0.000000e+00 [K]
    dU/dlambda VDW/kʙ            0.000000e+00 [K]
    dU/dlambda Real/kʙ           0.000000e+00 [K]
    dU/dlambda Ewald/kʙ          0.000000e+00 [K]


Initialization: Current cycle: 600 out of 2000
===============================================================================

Box:      27.63022   0.00000   0.00000
           0.00000  27.63022   0.00000
           0.00000   0.00000  27.63022
Lengths:  27.63022  27.63022  27.63022
Angles:   90.00000  90.00000  90.00000
Rectangular boundary conditions

net charge:   0.00000000

component   0 (CO2) lambda:  0 occupancy:  0 (0.000000)
    net charge:   0.00000000 [e]

Amount of molecules per component :
-------------------------------------------------------------------------------
Component 0 (CO2)
    molecules:         2.230000e+02 molecules
    number density:    1.057187e-02 molec/A^3
    density:           7.723993e+02 kg/m^3

Total potential energy/kʙ       -2.405526e+05 [K]
-------------------------------------------------------------------------------
    external field VDW/kʙ        0.000000e+00 [K]
    external field Real/kʙ       0.000000e+00 [K]
    framework-molecule VDW/kʙ    0.000000e+00 [K]
    framework-molecule Real/kʙ   0.000000e+00 [K]
    molecule-molecule VDW/kʙ    -1.801268e+05 [K]
    molecule-molecule Real/kʙ   -4.039934e+04 [K]
    Van der Waals (Tail)/kʙ     -7.564245e+03 [K]
    Ewald Fourier/kʙ             1.994156e+04 [K]
    Ewald self/kʙ               -4.957119e+06 [K]
    Ewald exclusion/kʙ           4.924715e+06 [K]
    intra VDW/kʙ                 0.000000e+00 [K]
    intra Coulombic/kʙ           0.000000e+00 [K]
    polarization/kʙ              0.000000e+00 [K]
    dU/dlambda VDW/kʙ            0.000000e+00 [K]
    dU/dlambda Real/kʙ           0.000000e+00 [K]
    dU/dlambda Ewald/kʙ          0.000000e+00 [K]


Initialization: Current cycle: 700 out of 2000
===============================================================================

Box:      26.72868   0.00000   0.00000
           0.00000  26.72868   0.00000
           0.00000   0.00000  26.72868
Lengths:  26.72868  26.72868  26.72868
Angles:   90.00000  90.00000  90.00000
Rectangular boundary conditions

net charge:   0.00000000

component   0 (CO2) lambda:  0 occupancy:  0 (0.000000)
    net charge:   0.00000000 [e]

Amount of molecules per component :
-------------------------------------------------------------------------------
Component 0 (CO2)
    molecules:         2.120000e+02 molecules
    number density:    1.110206e-02 molec/A^3
    density:           8.111352e+02 kg/m^3

Total potential energy/kʙ       -2.431521e+05 [K]
-------------------------------------------------------------------------------
    external field VDW/kʙ        0.000000e+00 [K]
    external field Real/kʙ       0.000000e+00 [K]
    framework-molecule VDW/kʙ    0.000000e+00 [K]
    framework-molecule Real/kʙ   0.000000e+00 [K]
    molecule-molecule VDW/kʙ    -1.795715e+05 [K]
    molecule-molecule Real/kʙ   -4.374726e+04 [K]
    Van der Waals (Tail)/kʙ     -7.551756e+03 [K]
    Ewald Fourier/kʙ             1.852381e+04 [K]
    Ewald self/kʙ               -4.712597e+06 [K]
    Ewald exclusion/kʙ           4.681792e+06 [K]
    intra VDW/kʙ                 0.000000e+00 [K]
    intra Coulombic/kʙ           0.000000e+00 [K]
    polarization/kʙ              0.000000e+00 [K]
    dU/dlambda VDW/kʙ            0.000000e+00 [K]
    dU/dlambda Real/kʙ           0.000000e+00 [K]
    dU/dlambda Ewald/kʙ          0.000000e+00 [K]


Initialization: Current cycle: 800 out of 2000
===============================================================================

Box:      26.28821   0.00000   0.00000
           0.00000  26.28821   0.00000
           0.00000   0.00000  26.28821
Lengths:  26.28821  26.28821  26.28821
Angles:   90.00000  90.00000  90.00000
Rectangular boundary conditions

net charge:   0.00000000

component   0 (CO2) lambda:  0 occupancy:  0 (0.000000)
    net charge:   0.00000000 [e]

Amount of molecules per component :
-------------------------------------------------------------------------------
Component 0 (CO2)
    molecules:         2.170000e+02 molecules
    number density:    1.194474e-02 molec/A^3
    density:           8.727029e+02 kg/m^3

Total potential energy/kʙ       -2.525593e+05 [K]
-------------------------------------------------------------------------------
    external field VDW/kʙ        0.000000e+00 [K]
    external field Real/kʙ       0.000000e+00 [K]
    framework-molecule VDW/kʙ    0.000000e+00 [K]
    framework-molecule Real/kʙ   0.000000e+00 [K]
    molecule-molecule VDW/kʙ    -1.838962e+05 [K]
    molecule-molecule Real/kʙ   -4.746542e+04 [K]
    Van der Waals (Tail)/kʙ     -8.316584e+03 [K]
    Ewald Fourier/kʙ             1.865080e+04 [K]
    Ewald self/kʙ               -4.823743e+06 [K]
    Ewald exclusion/kʙ           4.792211e+06 [K]
    intra VDW/kʙ                 0.000000e+00 [K]
    intra Coulombic/kʙ           0.000000e+00 [K]
    polarization/kʙ              0.000000e+00 [K]
    dU/dlambda VDW/kʙ            0.000000e+00 [K]
    dU/dlambda Real/kʙ           0.000000e+00 [K]
    dU/dlambda Ewald/kʙ          0.000000e+00 [K]


Initialization: Current cycle: 900 out of 2000
===============================================================================

Box:      27.03222   0.00000   0.00000
           0.00000  27.03222   0.00000
           0.00000   0.00000  27.03222
Lengths:  27.03222  27.03222  27.03222
Angles:   90.00000  90.00000  90.00000
Rectangular boundary conditions

net charge:   0.00000000

component   0 (CO2) lambda:  0 occupancy:  0 (0.000000)
    net charge:   0.00000000 [e]

Amount of molecules per component :
-------------------------------------------------------------------------------
Component 0 (CO2)
    molecules:         2.070000e+02 molecules
    number density:    1.047913e-02 molec/A^3
    density:           7.656235e+02 kg/m^3

Total potential energy/kʙ       -2.228861e+05 [K]
-------------------------------------------------------------------------------
    external field VDW/kʙ        0.000000e+00 [K]
    external field Real/kʙ       0.000000e+00 [K]
    framework-molecule VDW/kʙ    0.000000e+00 [K]
    framework-molecule Real/kʙ   0.000000e+00 [K]
    molecule-molecule VDW/kʙ    -1.649935e+05 [K]
    molecule-molecule Real/kʙ   -3.901872e+04 [K]
    Van der Waals (Tail)/kʙ     -6.959923e+03 [K]
    Ewald Fourier/kʙ             1.816489e+04 [K]
    Ewald self/kʙ               -4.601451e+06 [K]
    Ewald exclusion/kʙ           4.571372e+06 [K]
    intra VDW/kʙ                 0.000000e+00 [K]
    intra Coulombic/kʙ           0.000000e+00 [K]
    polarization/kʙ              0.000000e+00 [K]
    dU/dlambda VDW/kʙ            0.000000e+00 [K]
    dU/dlambda Real/kʙ           0.000000e+00 [K]
    dU/dlambda Ewald/kʙ          0.000000e+00 [K]


Initialization: Current cycle: 1000 out of 2000
===============================================================================

Box:      26.79548   0.00000   0.00000
           0.00000  26.79548   0.00000
           0.00000   0.00000  26.79548
Lengths:  26.79548  26.79548  26.79548
Angles:   90.00000  90.00000  90.00000
Rectangular boundary conditions

net charge:   0.00000000

component   0 (CO2) lambda:  0 occupancy:  0 (0.000000)
    net charge:   0.00000000 [e]

Amount of molecules per component :
-------------------------------------------------------------------------------
Component 0 (CO2)
    molecules:         2.000000e+02 molecules
    number density:    1.039550e-02 molec/A^3
    density:           7.595133e+02 kg/m^3

Total potential energy/kʙ       -2.170471e+05 [K]
-------------------------------------------------------------------------------
    external field VDW/kʙ        0.000000e+00 [K]
    external field Real/kʙ       0.000000e+00 [K]
    framework-molecule VDW/kʙ    0.000000e+00 [K]
    framework-molecule Real/kʙ   0.000000e+00 [K]
    molecule-molecule VDW/kʙ    -1.575120e+05 [K]
    molecule-molecule Real/kʙ   -4.135267e+04 [K]
    Van der Waals (Tail)/kʙ     -6.670897e+03 [K]
    Ewald Fourier/kʙ             1.755020e+04 [K]
    Ewald self/kʙ               -4.445846e+06 [K]
    Ewald exclusion/kʙ           4.416785e+06 [K]
    intra VDW/kʙ                 0.000000e+00 [K]
    intra Coulombic/kʙ           0.000000e+00 [K]
    polarization/kʙ              0.000000e+00 [K]
    dU/dlambda VDW/kʙ            0.000000e+00 [K]
    dU/dlambda Real/kʙ           0.000000e+00 [K]
    dU/dlambda Ewald/kʙ          0.000000e+00 [K]


Initialization: Current cycle: 1100 out of 2000
===============================================================================

Box:      26.29478   0.00000   0.00000
           0.00000  26.29478   0.00000
           0.00000   0.00000  26.29478
Lengths:  26.29478  26.29478  26.29478
Angles:   90.00000  90.00000  90.00000
Rectangular boundary conditions

net charge:   0.00000000

component   0 (CO2) lambda:  0 occupancy:  0 (0.000000)
    net charge:   0.00000000 [e]

Amount of molecules per component :
-------------------------------------------------------------------------------
Component 0 (CO2)
    molecules:         2.190000e+02 molecules
    number density:    1.204580e-02 molec/A^3
    density:           8.800866e+02 kg/m^3

Total potential energy/kʙ       -2.667407e+05 [K]
-------------------------------------------------------------------------------
    external field VDW/kʙ        0.000000e+00 [K]
    external field Real/kʙ       0.000000e+00 [K]
    framework-molecule VDW/kʙ    0.000000e+00 [K]
    framework-molecule Real/kʙ   0.000000e+00 [K]
    molecule-molecule VDW/kʙ    -1.958708e+05 [K]
    molecule-molecule Real/kʙ   -4.911954e+04 [K]
    Van der Waals (Tail)/kʙ     -8.464248e+03 [K]
    Ewald Fourier/kʙ             1.853641e+04 [K]
    Ewald self/kʙ               -4.868202e+06 [K]
    Ewald exclusion/kʙ           4.836379e+06 [K]
    intra VDW/kʙ                 0.000000e+00 [K]
    intra Coulombic/kʙ           0.000000e+00 [K]
    polarization/kʙ              0.000000e+00 [K]
    dU/dlambda VDW/kʙ            0.000000e+00 [K]
    dU/dlambda Real/kʙ           0.000000e+00 [K]
    dU/dlambda Ewald/kʙ          0.000000e+00 [K]


Initialization: Current cycle: 1200 out of 2000
===============================================================================

Box:      26.78876   0.00000   0.00000
           0.00000  26.78876   0.00000
           0.00000   0.00000  26.78876
Lengths:  26.78876  26.78876  26.78876
Angles:   90.00000  90.00000  90.00000
Rectangular boundary conditions

net charge:   0.00000000

component   0 (CO2) lambda:  0 occupancy:  0 (0.000000)
    net charge:   0.00000000 [e]

Amount of molecules per component :
-------------------------------------------------------------------------------
Component 0 (CO2)
    molecules:         2.160000e+02 molecules
    number density:    1.123560e-02 molec/A^3
    density:           8.208918e+02 kg/m^3

Total potential energy/kʙ       -2.417842e+05 [K]
-------------------------------------------------------------------------------
    external field VDW/kʙ        0.000000e+00 [K]
    external field Real/kʙ       0.000000e+00 [K]
    framework-molecule VDW/kʙ    0.000000e+00 [K]
    framework-molecule Real/kʙ   0.000000e+00 [K]
    molecule-molecule VDW/kʙ    -1.772434e+05 [K]
    molecule-molecule Real/kʙ   -4.502023e+04 [K]
    Van der Waals (Tail)/kʙ     -7.786791e+03 [K]
    Ewald Fourier/kʙ             1.965282e+04 [K]
    Ewald self/kʙ               -4.801514e+06 [K]
    Ewald exclusion/kʙ           4.770128e+06 [K]
    intra VDW/kʙ                 0.000000e+00 [K]
    intra Coulombic/kʙ           0.000000e+00 [K]
    polarization/kʙ              0.000000e+00 [K]
    dU/dlambda VDW/kʙ            0.000000e+00 [K]
    dU/dlambda Real/kʙ           0.000000e+00 [K]
    dU/dlambda Ewald/kʙ          0.000000e+00 [K]


Initialization: Current cycle: 1300 out of 2000
===============================================================================

Box:      27.17623   0.00000   0.00000
           0.00000  27.17623   0.00000
           0.00000   0.00000  27.17623
Lengths:  27.17623  27.17623  27.17623
Angles:   90.00000  90.00000  90.00000
Rectangular boundary conditions

net charge:   0.00000000

component   0 (CO2) lambda:  0 occupancy:  0 (0.000000)
    net charge:   0.00000000 [e]

Amount of molecules per component :
-------------------------------------------------------------------------------
Component 0 (CO2)
    molecules:         2.140000e+02 molecules
    number density:    1.066219e-02 molec/A^3
    density:           7.789976e+02 kg/m^3

Total potential energy/kʙ       -2.230737e+05 [K]
-------------------------------------------------------------------------------
    external field VDW/kʙ        0.000000e+00 [K]
    external field Real/kʙ       0.000000e+00 [K]
    framework-molecule VDW/kʙ    0.000000e+00 [K]
    framework-molecule Real/kʙ   0.000000e+00 [K]
    molecule-molecule VDW/kʙ    -1.672514e+05 [K]
    molecule-molecule Real/kʙ   -3.660461e+04 [K]
    Van der Waals (Tail)/kʙ     -7.320972e+03 [K]
    Ewald Fourier/kʙ             1.919937e+04 [K]
    Ewald self/kʙ               -4.757056e+06 [K]
    Ewald exclusion/kʙ           4.725960e+06 [K]
    intra VDW/kʙ                 0.000000e+00 [K]
    intra Coulombic/kʙ           0.000000e+00 [K]
    polarization/kʙ              0.000000e+00 [K]
    dU/dlambda VDW/kʙ            0.000000e+00 [K]
    dU/dlambda Real/kʙ           0.000000e+00 [K]
    dU/dlambda Ewald/kʙ          0.000000e+00 [K]


Initialization: Current cycle: 1400 out of 2000
===============================================================================

Box:      26.22356   0.00000   0.00000
           0.00000  26.22356   0.00000
           0.00000   0.00000  26.22356
Lengths:  26.22356  26.22356  26.22356
Angles:   90.00000  90.00000  90.00000
Rectangular boundary conditions

net charge:   0.00000000

component   0 (CO2) lambda:  0 occupancy:  0 (0.000000)
    net charge:   0.00000000 [e]

Amount of molecules per component :
-------------------------------------------------------------------------------
Component 0 (CO2)
    molecules:         2.140000e+02 molecules
    number density:    1.186695e-02 molec/A^3
    density:           8.670195e+02 kg/m^3

Total potential energy/kʙ       -2.590774e+05 [K]
-------------------------------------------------------------------------------
    external field VDW/kʙ        0.000000e+00 [K]
    external field Real/kʙ       0.000000e+00 [K]
    framework-molecule VDW/kʙ    0.000000e+00 [K]
    framework-molecule Real/kʙ   0.000000e+00 [K]
    molecule-molecule VDW/kʙ    -1.881810e+05 [K]
    molecule-molecule Real/kʙ   -4.876241e+04 [K]
    Van der Waals (Tail)/kʙ     -8.148196e+03 [K]
    Ewald Fourier/kʙ             1.711018e+04 [K]
    Ewald self/kʙ               -4.757056e+06 [K]
    Ewald exclusion/kʙ           4.725960e+06 [K]
    intra VDW/kʙ                 0.000000e+00 [K]
    intra Coulombic/kʙ           0.000000e+00 [K]
    polarization/kʙ              0.000000e+00 [K]
    dU/dlambda VDW/kʙ            0.000000e+00 [K]
    dU/dlambda Real/kʙ           0.000000e+00 [K]
    dU/dlambda Ewald/kʙ          0.000000e+00 [K]


Initialization: Current cycle: 1500 out of 2000
===============================================================================

Box:      26.42336   0.00000   0.00000
           0.00000  26.42336   0.00000
           0.00000   0.00000  26.42336
Lengths:  26.42336  26.42336  26.42336
Angles:   90.00000  90.00000  90.00000
Rectangular boundary conditions

net charge:   0.00000000

component   0 (CO2) lambda:  0 occupancy:  0 (0.000000)
    net charge:   0.00000000 [e]

Amount of molecules per component :
-------------------------------------------------------------------------------
Component 0 (CO2)
    molecules:         2.120000e+02 molecules
    number density:    1.149137e-02 molec/A^3
    density:           8.395791e+02 kg/m^3

Total potential energy/kʙ       -2.434926e+05 [K]
-------------------------------------------------------------------------------
    external field VDW/kʙ        0.000000e+00 [K]
    external field Real/kʙ       0.000000e+00 [K]
    framework-molecule VDW/kʙ    0.000000e+00 [K]
    framework-molecule Real/kʙ   0.000000e+00 [K]
    molecule-molecule VDW/kʙ    -1.822071e+05 [K]
    molecule-molecule Real/kʙ   -4.014931e+04 [K]
    Van der Waals (Tail)/kʙ     -7.816572e+03 [K]
    Ewald Fourier/kʙ             1.748581e+04 [K]
    Ewald self/kʙ               -4.712597e+06 [K]
    Ewald exclusion/kʙ           4.681792e+06 [K]
    intra VDW/kʙ                 0.000000e+00 [K]
    intra Coulombic/kʙ           0.000000e+00 [K]
    polarization/kʙ              0.000000e+00 [K]
    dU/dlambda VDW/kʙ            0.000000e+00 [K]
    dU/dlambda Real/kʙ           0.000000e+00 [K]
    dU/dlambda Ewald/kʙ          0.000000e+00 [K]


Initialization: Current cycle: 1600 out of 2000
===============================================================================

Box:      26.44512   0.00000   0.00000
           0.00000  26.44512   0.00000
           0.00000   0.00000  26.44512
Lengths:  26.44512  26.44512  26.44512
Angles:   90.00000  90.00000  90.00000
Rectangular boundary conditions

net charge:   0.00000000

component   0 (CO2) lambda:  0 occupancy:  0 (0.000000)
    net charge:   0.00000000 [e]

Amount of molecules per component :
-------------------------------------------------------------------------------
Component 0 (CO2)
    molecules:         2.170000e+02 molecules
    number density:    1.173338e-02 molec/A^3
    density:           8.572605e+02 kg/m^3

Total potential energy/kʙ       -2.704873e+05 [K]
-------------------------------------------------------------------------------
    external field VDW/kʙ        0.000000e+00 [K]
    external field Real/kʙ       0.000000e+00 [K]
    framework-molecule VDW/kʙ    0.000000e+00 [K]
    framework-molecule Real/kʙ   0.000000e+00 [K]
    molecule-molecule VDW/kʙ    -1.957784e+05 [K]
    molecule-molecule Real/kʙ   -5.150714e+04 [K]
    Van der Waals (Tail)/kʙ     -8.169423e+03 [K]
    Ewald Fourier/kʙ             1.649964e+04 [K]
    Ewald self/kʙ               -4.823743e+06 [K]
    Ewald exclusion/kʙ           4.792211e+06 [K]
    intra VDW/kʙ                 0.000000e+00 [K]
    intra Coulombic/kʙ           0.000000e+00 [K]
    polarization/kʙ              0.000000e+00 [K]
    dU/dlambda VDW/kʙ            0.000000e+00 [K]
    dU/dlambda Real/kʙ           0.000000e+00 [K]
    dU/dlambda Ewald/kʙ          0.000000e+00 [K]


Initialization: Current cycle: 1700 out of 2000
===============================================================================

Box:      25.55866   0.00000   0.00000
           0.00000  25.55866   0.00000
           0.00000   0.00000  25.55866
Lengths:  25.55866  25.55866  25.55866
Angles:   90.00000  90.00000  90.00000
Rectangular boundary conditions

net charge:   0.00000000

component   0 (CO2) lambda:  0 occupancy:  0 (0.000000)
    net charge:   0.00000000 [e]

Amount of molecules per component :
-------------------------------------------------------------------------------
Component 0 (CO2)
    molecules:         2.070000e+02 molecules
    number density:    1.239812e-02 molec/A^3
    density:           9.058279e+02 kg/m^3

Total potential energy/kʙ       -2.542051e+05 [K]
-------------------------------------------------------------------------------
    external field VDW/kʙ        0.000000e+00 [K]
    external field Real/kʙ       0.000000e+00 [K]
    framework-molecule VDW/kʙ    0.000000e+00 [K]
    framework-molecule Real/kʙ   0.000000e+00 [K]
    molecule-molecule VDW/kʙ    -1.870230e+05 [K]
    molecule-molecule Real/kʙ   -4.592945e+04 [K]
    Van der Waals (Tail)/kʙ     -8.234455e+03 [K]
    Ewald Fourier/kʙ             1.706068e+04 [K]
    Ewald self/kʙ               -4.601451e+06 [K]
    Ewald exclusion/kʙ           4.571372e+06 [K]
    intra VDW/kʙ                 0.000000e+00 [K]
    intra Coulombic/kʙ           0.000000e+00 [K]
    polarization/kʙ              0.000000e+00 [K]
    dU/dlambda VDW/kʙ            0.000000e+00 [K]
    dU/dlambda Real/kʙ           0.000000e+00 [K]
    dU/dlambda Ewald/kʙ          0.000000e+00 [K]


Initialization: Current cycle: 1800 out of 2000
===============================================================================

Box:      26.38640   0.00000   0.00000
           0.00000  26.38640   0.00000
           0.00000   0.00000  26.38640
Lengths:  26.38640  26.38640  26.38640
Angles:   90.00000  90.00000  90.00000
Rectangular boundary conditions

net charge:   0.00000000

component   0 (CO2) lambda:  0 occupancy:  0 (0.000000)
    net charge:   0.00000000 [e]

Amount of molecules per component :
-------------------------------------------------------------------------------
Component 0 (CO2)
    molecules:         2.090000e+02 molecules
    number density:    1.137643e-02 molec/A^3
    density:           8.311814e+02 kg/m^3

Total potential energy/kʙ       -2.454440e+05 [K]
-------------------------------------------------------------------------------
    external field VDW/kʙ        0.000000e+00 [K]
    external field Real/kʙ       0.000000e+00 [K]
    framework-molecule VDW/kʙ    0.000000e+00 [K]
    framework-molecule Real/kʙ   0.000000e+00 [K]
    molecule-molecule VDW/kʙ    -1.848109e+05 [K]
    molecule-molecule Real/kʙ   -4.057759e+04 [K]
    Van der Waals (Tail)/kʙ     -7.628883e+03 [K]
    Ewald Fourier/kʙ             1.794280e+04 [K]
    Ewald self/kʙ               -4.645910e+06 [K]
    Ewald exclusion/kʙ           4.615540e+06 [K]
    intra VDW/kʙ                 0.000000e+00 [K]
    intra Coulombic/kʙ           0.000000e+00 [K]
    polarization/kʙ              0.000000e+00 [K]
    dU/dlambda VDW/kʙ            0.000000e+00 [K]
    dU/dlambda Real/kʙ           0.000000e+00 [K]
    dU/dlambda Ewald/kʙ          0.000000e+00 [K]


Initialization: Current cycle: 1900 out of 2000
===============================================================================

Box:      26.30432   0.00000   0.00000
           0.00000  26.30432   0.00000
           0.00000   0.00000  26.30432
Lengths:  26.30432  26.30432  26.30432
Angles:   90.00000  90.00000  90.00000
Rectangular boundary conditions

net charge:   0.00000000

component   0 (CO2) lambda:  0 occupancy:  0 (0.000000)
    net charge:   0.00000000 [e]

Amount of molecules per component :
-------------------------------------------------------------------------------
Component 0 (CO2)
    molecules:         2.110000e+02 molecules
    number density:    1.159314e-02 molec/A^3
    density:           8.470149e+02 kg/m^3

Total potential energy/kʙ       -2.517045e+05 [K]
-------------------------------------------------------------------------------
    external field VDW/kʙ        0.000000e+00 [K]
    external field Real/kʙ       0.000000e+00 [K]
    framework-molecule VDW/kʙ    0.000000e+00 [K]
    framework-molecule Real/kʙ   0.000000e+00 [K]
    molecule-molecule VDW/kʙ    -1.814635e+05 [K]
    molecule-molecule Real/kʙ   -5.015283e+04 [K]
    Van der Waals (Tail)/kʙ     -7.848603e+03 [K]
    Ewald Fourier/kʙ             1.842057e+04 [K]
    Ewald self/kʙ               -4.690368e+06 [K]
    Ewald exclusion/kʙ           4.659708e+06 [K]
    intra VDW/kʙ                 0.000000e+00 [K]
    intra Coulombic/kʙ           0.000000e+00 [K]
    polarization/kʙ              0.000000e+00 [K]
    dU/dlambda VDW/kʙ            0.000000e+00 [K]
    dU/dlambda Real/kʙ           0.000000e+00 [K]
    dU/dlambda Ewald/kʙ          0.000000e+00 [K]


Current cycle: 0 out of 6000
===============================================================================

Box:      26.37237   0.00000   0.00000  Average:  26.37237   0.00000   0.00000
           0.00000  26.37237   0.00000             0.00000  26.37237   0.00000
           0.00000   0.00000  26.37237             0.00000   0.00000  26.37237
Lengths:  26.37237  26.37237  26.37237  Average:  26.37237  26.37237  26.37237
Angles:   90.00000  90.00000  90.00000  Average:  90.00000  90.00000  90.00000
Rectangular boundary conditions

net charge:   0.00000000

component 0 (CO2) lambda:  0 occupancy:  0 (0.000000)
    net charge:   0.00000000 [e]

Amount of molecules per component :
-------------------------------------------------------------------------------
Component 0 (CO2)
    molecules:      2.100000e+02 molecules  (2.100000e+02 +/- 0.000000e+00)
    number density: 1.144912e-02 molec./A^3 (1.144912e-02 +/- 0.000000e+00)
    density:        8.364920e+02 kg/m^3     (8.364920e+02 +/- 0.000000e+00)

Average pressure tensor: 
-------------------------------------------------------------------------------
 4.4260e+02  0.0000e+00  0.0000e+00 +/- 0.0000e+00 0.0000e+00 0.0000e+00 [bar]
 0.0000e+00  4.4260e+02  0.0000e+00 +/- 0.0000e+00 0.0000e+00 0.0000e+00 [bar]
 0.0000e+00  0.0000e+00  4.4260e+02 +/- 0.0000e+00 0.0000e+00 0.0000e+00 [bar]
Ideal-gas pressure:   4.426023e+02 +/ 0.000000e+00 [bar]
Excess pressure:      0.000000e+00 +/ 0.000000e+00 [bar]
Pressure:             4.426023e+02 +/ 0.000000e+00 [bar]

Total potential energy/kʙ  -2.404950e+05 (-2.404950e+05 +/- 0.000000e+00) [K]
-------------------------------------------------------------------------------
ExternalField-molecule
    Van der Waals/kʙ        0.000000e+00 ( 0.000000e+00 +/- 0.000000e+00) [K]
Framework-molecule
    Van der Waals/kʙ        0.000000e+00 ( 0.000000e+00 +/- 0.000000e+00) [K]
    Van der Waals (Tail)/kʙ 0.000000e+00 ( 0.000000e+00 +/- 0.000000e+00) [K]
    Coulombic Real/kʙ       0.000000e+00 ( 0.000000e+00 +/- 0.000000e+00) [K]
    Coulombic Fourier/kʙ    0.000000e+00 ( 0.000000e+00 +/- 0.000000e+00) [K]
Molecule-molecule
    Van der Waals/kʙ       -1.803808e+05 (-1.803808e+05 +/- 0.000000e+00) [K]
    Van der Waals (Tail)/kʙ-7.714360e+03 (-7.714360e+03 +/- 0.000000e+00) [K]
    Coulombic Real/kʙ      -3.983373e+04 (-3.983373e+04 +/- 0.000000e+00) [K]
    Coulombic Fourier/kʙ   -1.256612e+04 (-1.256612e+04 +/- 0.000000e+00) [K]
    Molecule Intra/kʙ       0.000000e+00 ( 0.000000e+00 +/- 0.000000e+00) [K]

Current cycle: 100 out of 6000
===============================================================================

Box:      26.00088   0.00000   0.00000  Average:  26.41775   0.00000   0.00000
           0.00000  26.00088   0.00000             0.00000  26.41775   0.00000
           0.00000   0.00000  26.00088             0.00000   0.00000  26.41775
Lengths:  26.00088  26.00088  26.00088  Average:  26.41775  26.41775  26.41775
Angles:   90.00000  90.00000  90.00000  Average:  90.00000  90.00000  90.00000
Rectangular boundary conditions

net charge:   0.00000000

component 0 (CO2) lambda:  0 occupancy:  0 (0.000000)
    net charge:   0.00000000 [e]

Amount of molecules per component :
-------------------------------------------------------------------------------
Component 0 (CO2)
    molecules:      2.100000e+02 molecules  (2.087921e+02 +/- 0.000000e+00)
    number density: 1.194689e-02 molec./A^3 (1.132509e-02 +/- 0.000000e+00)
    density:        8.728603e+02 kg/m^3     (8.274301e+02 +/- 0.000000e+00)

Average pressure tensor: 
-------------------------------------------------------------------------------
-1.8184e+02  3.1411e+01  4.6751e+01 +/- 0.0000e+00 0.0000e+00 0.0000e+00 [bar]
 3.1411e+01 -1.5019e+02 -8.9847e+01 +/- 0.0000e+00 0.0000e+00 0.0000e+00 [bar]
 4.6751e+01 -8.9847e+01 -1.6572e+02 +/- 0.0000e+00 0.0000e+00 0.0000e+00 [bar]
Ideal-gas pressure:   4.378075e+02 +/ 0.000000e+00 [bar]
Excess pressure:     -6.037250e+02 +/ 0.000000e+00 [bar]
Pressure:            -1.659175e+02 +/ 0.000000e+00 [bar]

Total potential energy/kʙ  -2.536368e+05 (-2.428670e+05 +/- 0.000000e+00) [K]
-------------------------------------------------------------------------------
ExternalField-molecule
    Van der Waals/kʙ        0.000000e+00 ( 0.000000e+00 +/- 0.000000e+00) [K]
Framework-molecule
    Van der Waals/kʙ        0.000000e+00 ( 0.000000e+00 +/- 0.000000e+00) [K]
    Van der Waals (Tail)/kʙ 0.000000e+00 ( 0.000000e+00 +/- 0.000000e+00) [K]
    Coulombic Real/kʙ       0.000000e+00 ( 0.000000e+00 +/- 0.000000e+00) [K]
    Coulombic Fourier/kʙ    0.000000e+00 ( 0.000000e+00 +/- 0.000000e+00) [K]
Molecule-molecule
    Van der Waals/kʙ       -1.815946e+05 (-1.774577e+05 +/- 0.000000e+00) [K]
    Van der Waals (Tail)/kʙ-8.049759e+03 (-7.570714e+03 +/- 0.000000e+00) [K]
    Coulombic Real/kʙ      -5.017741e+04 (-4.474396e+04 +/- 0.000000e+00) [K]
    Coulombic Fourier/kʙ   -1.381500e+04 (-1.309456e+04 +/- 0.000000e+00) [K]
    Molecule Intra/kʙ       0.000000e+00 ( 0.000000e+00 +/- 0.000000e+00) [K]

Current cycle: 200 out of 6000
===============================================================================

Box:      26.22947   0.00000   0.00000  Average:  26.35687   0.00000   0.00000
           0.00000  26.22947   0.00000             0.00000  26.35687   0.00000
           0.00000   0.00000  26.22947             0.00000   0.00000  26.35687
Lengths:  26.22947  26.22947  26.22947  Average:  26.35687  26.35687  26.35687
Angles:   90.00000  90.00000  90.00000  Average:  90.00000  90.00000  90.00000
Rectangular boundary conditions

net charge:   0.00000000

component 0 (CO2) lambda:  0 occupancy:  0 (0.000000)
    net charge:   0.00000000 [e]

Amount of molecules per component :
-------------------------------------------------------------------------------
Component 0 (CO2)
    molecules:      2.170000e+02 molecules  (2.091194e+02 +/- 0.000000e+00)
    number density: 1.202517e-02 molec./A^3 (1.142171e-02 +/- 0.000000e+00)
    density:        8.785797e+02 kg/m^3     (8.344900e+02 +/- 0.000000e+00)

Average pressure tensor: 
-------------------------------------------------------------------------------
-8.1647e+01  2.0866e+01  1.0154e+02 +/- 0.0000e+00 0.0000e+00 0.0000e+00 [bar]
 2.0866e+01 -8.7912e+01 -3.5921e+01 +/- 0.0000e+00 0.0000e+00 0.0000e+00 [bar]
 1.0154e+02 -3.5921e+01 -1.1884e+02 +/- 0.0000e+00 0.0000e+00 0.0000e+00 [bar]
Ideal-gas pressure:   4.415430e+02 +/ 0.000000e+00 [bar]
Excess pressure:     -5.376763e+02 +/ 0.000000e+00 [bar]
Pressure:            -9.613331e+01 +/ 0.000000e+00 [bar]

Total potential energy/kʙ  -2.555709e+05 (-2.425011e+05 +/- 0.000000e+00) [K]
-------------------------------------------------------------------------------
ExternalField-molecule
    Van der Waals/kʙ        0.000000e+00 ( 0.000000e+00 +/- 0.000000e+00) [K]
Framework-molecule
    Van der Waals/kʙ        0.000000e+00 ( 0.000000e+00 +/- 0.000000e+00) [K]
    Van der Waals (Tail)/kʙ 0.000000e+00 ( 0.000000e+00 +/- 0.000000e+00) [K]
    Coulombic Real/kʙ       0.000000e+00 ( 0.000000e+00 +/- 0.000000e+00) [K]
    Coulombic Fourier/kʙ    0.000000e+00 ( 0.000000e+00 +/- 0.000000e+00) [K]
Molecule-molecule
    Van der Waals/kʙ       -1.853891e+05 (-1.777018e+05 +/- 0.000000e+00) [K]
    Van der Waals (Tail)/kʙ-8.372588e+03 (-7.618867e+03 +/- 0.000000e+00) [K]
    Coulombic Real/kʙ      -4.918754e+04 (-4.437518e+04 +/- 0.000000e+00) [K]
    Coulombic Fourier/kʙ   -1.262171e+04 (-1.280522e+04 +/- 0.000000e+00) [K]
    Molecule Intra/kʙ       0.000000e+00 ( 0.000000e+00 +/- 0.000000e+00) [K]

Current cycle: 300 out of 6000
===============================================================================

Box:      26.01580   0.00000   0.00000  Average:  26.24577   0.00000   0.00000
           0.00000  26.01580   0.00000             0.00000  26.24577   0.00000
           0.00000   0.00000  26.01580             0.00000   0.00000  26.24577
Lengths:  26.01580  26.01580  26.01580  Average:  26.24577  26.24577  26.24577
Angles:   90.00000  90.00000  90.00000  Average:  90.00000  90.00000  90.00000
Rectangular boundary conditions

net charge:   0.00000000

component 0 (CO2) lambda:  0 occupancy:  0 (0.000000)
    net charge:   0.00000000 [e]

Amount of molecules per component :
-------------------------------------------------------------------------------
Component 0 (CO2)
    molecules:      1.990000e+02 molecules  (2.078272e+02 +/- 0.000000e+00)
    number density: 1.130165e-02 molec./A^3 (1.149581e-02 +/- 0.000000e+00)
    density:        8.257177e+02 kg/m^3     (8.399039e+02 +/- 0.000000e+00)

Average pressure tensor: 
-------------------------------------------------------------------------------
 2.3428e+01  3.7352e+00  4.7588e+01 +/- 0.0000e+00 0.0000e+00 0.0000e+00 [bar]
 3.7352e+00 -4.2046e+01 -3.6171e+01 +/- 0.0000e+00 0.0000e+00 0.0000e+00 [bar]
 4.7588e+01 -3.6171e+01 -5.4514e+01 +/- 0.0000e+00 0.0000e+00 0.0000e+00 [bar]
Ideal-gas pressure:   4.444076e+02 +/ 0.000000e+00 [bar]
Excess pressure:     -4.687847e+02 +/ 0.000000e+00 [bar]
Pressure:            -2.437710e+01 +/ 0.000000e+00 [bar]

Total potential energy/kʙ  -2.232356e+05 (-2.406407e+05 +/- 0.000000e+00) [K]
-------------------------------------------------------------------------------
ExternalField-molecule
    Van der Waals/kʙ        0.000000e+00 ( 0.000000e+00 +/- 0.000000e+00) [K]
Framework-molecule
    Van der Waals/kʙ        0.000000e+00 ( 0.000000e+00 +/- 0.000000e+00) [K]
    Van der Waals (Tail)/kʙ 0.000000e+00 ( 0.000000e+00 +/- 0.000000e+00) [K]
    Coulombic Real/kʙ       0.000000e+00 ( 0.000000e+00 +/- 0.000000e+00) [K]
    Coulombic Fourier/kʙ    0.000000e+00 ( 0.000000e+00 +/- 0.000000e+00) [K]
Molecule-molecule
    Van der Waals/kʙ       -1.666108e+05 (-1.758754e+05 +/- 0.000000e+00) [K]
    Van der Waals (Tail)/kʙ-7.216116e+03 (-7.580689e+03 +/- 0.000000e+00) [K]
    Coulombic Real/kʙ      -3.890492e+04 (-4.454532e+04 +/- 0.000000e+00) [K]
    Coulombic Fourier/kʙ   -1.050379e+04 (-1.263928e+04 +/- 0.000000e+00) [K]
    Molecule Intra/kʙ       0.000000e+00 ( 0.000000e+00 +/- 0.000000e+00) [K]

Current cycle: 400 out of 6000
===============================================================================

Box:      26.26119   0.00000   0.00000  Average:  26.17730   0.00000   0.00000
           0.00000  26.26119   0.00000             0.00000  26.17730   0.00000
           0.00000   0.00000  26.26119             0.00000   0.00000  26.17730
Lengths:  26.26119  26.26119  26.26119  Average:  26.17730  26.17730  26.17730
Angles:   90.00000  90.00000  90.00000  Average:  90.00000  90.00000  90.00000
Rectangular boundary conditions

net charge:   0.00000000

component 0 (CO2) lambda:  0 occupancy:  0 (0.000000)
    net charge:   0.00000000 [e]

Amount of molecules per component :
-------------------------------------------------------------------------------
Component 0 (CO2)
    molecules:      2.050000e+02 molecules  (2.069302e+02 +/- 0.000000e+00)
    number density: 1.131907e-02 molec./A^3 (1.153634e-02 +/- 0.000000e+00)
    density:        8.269906e+02 kg/m^3     (8.428647e+02 +/- 0.000000e+00)

Average pressure tensor: 
-------------------------------------------------------------------------------
 7.4421e+01  8.2827e+00  4.4423e+01 +/- 0.0000e+00 0.0000e+00 0.0000e+00 [bar]
 8.2827e+00 -3.1787e+01 -6.0675e+00 +/- 0.0000e+00 0.0000e+00 0.0000e+00 [bar]
 4.4423e+01 -6.0675e+00 -2.7584e+01 +/- 0.0000e+00 0.0000e+00 0.0000e+00 [bar]
Ideal-gas pressure:   4.459742e+02 +/ 0.000000e+00 [bar]
Excess pressure:     -4.409574e+02 +/ 0.000000e+00 [bar]
Pressure:             5.016814e+00 +/ 0.000000e+00 [bar]

Total potential energy/kʙ  -2.388085e+05 (-2.409949e+05 +/- 0.000000e+00) [K]
-------------------------------------------------------------------------------
ExternalField-molecule
    Van der Waals/kʙ        0.000000e+00 ( 0.000000e+00 +/- 0.000000e+00) [K]
Framework-molecule
    Van der Waals/kʙ        0.000000e+00 ( 0.000000e+00 +/- 0.000000e+00) [K]
    Van der Waals (Tail)/kʙ 0.000000e+00 ( 0.000000e+00 +/- 0.000000e+00) [K]
    Coulombic Real/kʙ       0.000000e+00 ( 0.000000e+00 +/- 0.000000e+00) [K]
    Coulombic Fourier/kʙ    0.000000e+00 ( 0.000000e+00 +/- 0.000000e+00) [K]
Molecule-molecule
    Van der Waals/kʙ       -1.708953e+05 (-1.759963e+05 +/- 0.000000e+00) [K]
    Van der Waals (Tail)/kʙ-7.445147e+03 (-7.608632e+03 +/- 0.000000e+00) [K]
    Coulombic Real/kʙ      -4.729359e+04 (-4.466545e+04 +/- 0.000000e+00) [K]
    Coulombic Fourier/kʙ   -1.317446e+04 (-1.272455e+04 +/- 0.000000e+00) [K]
    Molecule Intra/kʙ       0.000000e+00 ( 0.000000e+00 +/- 0.000000e+00) [K]

Current cycle: 500 out of 6000
===============================================================================

Box:      26.71595   0.00000   0.00000  Average:  26.24493   0.00000   0.00000
           0.00000  26.71595   0.00000             0.00000  26.24493   0.00000
           0.00000   0.00000  26.71595             0.00000   0.00000  26.24493
Lengths:  26.71595  26.71595  26.71595  Average:  26.24493  26.24493  26.24493
Angles:   90.00000  90.00000  90.00000  Average:  90.00000  90.00000  90.00000
Rectangular boundary conditions

net charge:   0.00000000

component 0 (CO2) lambda:  0 occupancy:  0 (0.000000)
    net charge:   0.00000000 [e]

Amount of molecules per component :
-------------------------------------------------------------------------------
Component 0 (CO2)
    molecules:      2.170000e+02 molecules  (2.063393e+02 +/- 0.000000e+00)
    number density: 1.138014e-02 molec./A^3 (1.141841e-02 +/- 0.000000e+00)
    density:        8.314526e+02 kg/m^3     (8.342484e+02 +/- 0.000000e+00)

Average pressure tensor: 
-------------------------------------------------------------------------------
 3.8244e+01  1.8917e+01  3.3072e+01 +/- 0.0000e+00 0.0000e+00 0.0000e+00 [bar]
 1.8917e+01 -4.3715e+01  6.3002e-01 +/- 0.0000e+00 0.0000e+00 0.0000e+00 [bar]
 3.3072e+01  6.3002e-01 -3.2117e+01 +/- 0.0000e+00 0.0000e+00 0.0000e+00 [bar]
Ideal-gas pressure:   4.414152e+02 +/ 0.000000e+00 [bar]
Excess pressure:     -4.539448e+02 +/ 0.000000e+00 [bar]
Pressure:            -1.252957e+01 +/ 0.000000e+00 [bar]

Total potential energy/kʙ  -2.523694e+05 (-2.385451e+05 +/- 0.000000e+00) [K]
-------------------------------------------------------------------------------
ExternalField-molecule
    Van der Waals/kʙ        0.000000e+00 ( 0.000000e+00 +/- 0.000000e+00) [K]
Framework-molecule
    Van der Waals/kʙ        0.000000e+00 ( 0.000000e+00 +/- 0.000000e+00) [K]
    Van der Waals (Tail)/kʙ 0.000000e+00 ( 0.000000e+00 +/- 0.000000e+00) [K]
    Coulombic Real/kʙ       0.000000e+00 ( 0.000000e+00 +/- 0.000000e+00) [K]
    Coulombic Fourier/kʙ    0.000000e+00 ( 0.000000e+00 +/- 0.000000e+00) [K]
Molecule-molecule
    Van der Waals/kʙ       -1.860171e+05 (-1.746532e+05 +/- 0.000000e+00) [K]
    Van der Waals (Tail)/kʙ-7.923482e+03 (-7.537396e+03 +/- 0.000000e+00) [K]
    Coulombic Real/kʙ      -4.533446e+04 (-4.387067e+04 +/- 0.000000e+00) [K]
    Coulombic Fourier/kʙ   -1.309434e+04 (-1.248383e+04 +/- 0.000000e+00) [K]
    Molecule Intra/kʙ       0.000000e+00 ( 0.000000e+00 +/- 0.000000e+00) [K]

Current cycle: 600 out of 6000
===============================================================================

Box:      26.82874   0.00000   0.00000  Average:  26.31976   0.00000   0.00000
           0.00000  26.82874   0.00000             0.00000  26.31976   0.00000
           0.00000   0.00000  26.82874             0.00000   0.00000  26.31976
Lengths:  26.82874  26.82874  26.82874  Average:  26.31976  26.31976  26.31976
Angles:   90.00000  90.00000  90.00000  Average:  90.00000  90.00000  90.00000
Rectangular boundary conditions

net charge:   0.00000000

component 0 (CO2) lambda:  0 occupancy:  0 (0.000000)
    net charge:   0.00000000 [e]

Amount of molecules per component :
-------------------------------------------------------------------------------
Component 0 (CO2)
    molecules:      2.170000e+02 molecules  (2.081298e+02 +/- 0.000000e+00)
    number density: 1.123722e-02 molec./A^3 (1.141766e-02 +/- 0.000000e+00)
    density:        8.210107e+02 kg/m^3     (8.341938e+02 +/- 0.000000e+00)

Average pressure tensor: 
-------------------------------------------------------------------------------
 4.2581e+01  2.2748e+01  4.0515e+01 +/- 0.0000e+00 0.0000e+00 0.0000e+00 [bar]
 2.2748e+01 -4.0545e+01  2.2041e+01 +/- 0.0000e+00 0.0000e+00 0.0000e+00 [bar]
 4.0515e+01  2.2041e+01 -3.2825e+01 +/- 0.0000e+00 0.0000e+00 0.0000e+00 [bar]
Ideal-gas pressure:   4.413863e+02 +/ 0.000000e+00 [bar]
Excess pressure:     -4.516492e+02 +/ 0.000000e+00 [bar]
Pressure:            -1.026292e+01 +/ 0.000000e+00 [bar]

Total potential energy/kʙ  -2.495544e+05 (-2.411943e+05 +/- 0.000000e+00) [K]
-------------------------------------------------------------------------------
ExternalField-molecule
    Van der Waals/kʙ        0.000000e+00 ( 0.000000e+00 +/- 0.000000e+00) [K]
Framework-molecule
    Van der Waals/kʙ        0.000000e+00 ( 0.000000e+00 +/- 0.000000e+00) [K]
    Van der Waals (Tail)/kʙ 0.000000e+00 ( 0.000000e+00 +/- 0.000000e+00) [K]
    Coulombic Real/kʙ       0.000000e+00 ( 0.000000e+00 +/- 0.000000e+00) [K]
    Coulombic Fourier/kʙ    0.000000e+00 ( 0.000000e+00 +/- 0.000000e+00) [K]
Molecule-molecule
    Van der Waals/kʙ       -1.812395e+05 (-1.762639e+05 +/- 0.000000e+00) [K]
    Van der Waals (Tail)/kʙ-7.823974e+03 (-7.611401e+03 +/- 0.000000e+00) [K]
    Coulombic Real/kʙ      -4.649305e+04 (-4.467155e+04 +/- 0.000000e+00) [K]
    Coulombic Fourier/kʙ   -1.399794e+04 (-1.264749e+04 +/- 0.000000e+00) [K]
    Molecule Intra/kʙ       0.000000e+00 ( 0.000000e+00 +/- 0.000000e+00) [K]

Current cycle: 700 out of 6000
===============================================================================

Box:      26.39002   0.00000   0.00000  Average:  26.33521   0.00000   0.00000
           0.00000  26.39002   0.00000             0.00000  26.33521   0.00000
           0.00000   0.00000  26.39002             0.00000   0.00000  26.33521
Lengths:  26.39002  26.39002  26.39002  Average:  26.33521  26.33521  26.33521
Angles:   90.00000  90.00000  90.00000  Average:  90.00000  90.00000  90.00000
Rectangular boundary conditions

net charge:   0.00000000

component 0 (CO2) lambda:  0 occupancy:  0 (0.000000)
    net charge:   0.00000000 [e]

Amount of molecules per component :
-------------------------------------------------------------------------------
Component 0 (CO2)
    molecules:      2.010000e+02 molecules  (2.087461e+02 +/- 0.000000e+00)
    number density: 1.093646e-02 molec./A^3 (1.143085e-02 +/- 0.000000e+00)
    density:        7.990366e+02 kg/m^3     (8.351572e+02 +/- 0.000000e+00)

Average pressure tensor: 
-------------------------------------------------------------------------------
 1.8101e+01  2.3405e+01  3.9720e+01 +/- 0.0000e+00 0.0000e+00 0.0000e+00 [bar]
 2.3405e+01 -3.1848e+01  9.1967e+00 +/- 0.0000e+00 0.0000e+00 0.0000e+00 [bar]
 3.9720e+01  9.1967e+00 -4.7006e+01 +/- 0.0000e+00 0.0000e+00 0.0000e+00 [bar]
Ideal-gas pressure:   4.418961e+02 +/ 0.000000e+00 [bar]
Excess pressure:     -4.621472e+02 +/ 0.000000e+00 [bar]
Pressure:            -2.025117e+01 +/ 0.000000e+00 [bar]

Total potential energy/kʙ  -2.242241e+05 (-2.417723e+05 +/- 0.000000e+00) [K]
-------------------------------------------------------------------------------
ExternalField-molecule
    Van der Waals/kʙ        0.000000e+00 ( 0.000000e+00 +/- 0.000000e+00) [K]
Framework-molecule
    Van der Waals/kʙ        0.000000e+00 ( 0.000000e+00 +/- 0.000000e+00) [K]
    Van der Waals (Tail)/kʙ 0.000000e+00 ( 0.000000e+00 +/- 0.000000e+00) [K]
    Coulombic Real/kʙ       0.000000e+00 ( 0.000000e+00 +/- 0.000000e+00) [K]
    Coulombic Fourier/kʙ    0.000000e+00 ( 0.000000e+00 +/- 0.000000e+00) [K]
Molecule-molecule
    Van der Waals/kʙ       -1.680445e+05 (-1.769506e+05 +/- 0.000000e+00) [K]
    Van der Waals (Tail)/kʙ-7.053125e+03 (-7.630316e+03 +/- 0.000000e+00) [K]
    Coulombic Real/kʙ      -3.853087e+04 (-4.451907e+04 +/- 0.000000e+00) [K]
    Coulombic Fourier/kʙ   -1.059560e+04 (-1.267237e+04 +/- 0.000000e+00) [K]
    Molecule Intra/kʙ       0.000000e+00 ( 0.000000e+00 +/- 0.000000e+00) [K]

Current cycle: 800 out of 6000
===============================================================================

Box:      26.22414   0.00000   0.00000  Average:  26.31095   0.00000   0.00000
           0.00000  26.22414   0.00000             0.00000  26.31095   0.00000
           0.00000   0.00000  26.22414             0.00000   0.00000  26.31095
Lengths:  26.22414  26.22414  26.22414  Average:  26.31095  26.31095  26.31095
Angles:   90.00000  90.00000  90.00000  Average:  90.00000  90.00000  90.00000
Rectangular boundary conditions

net charge:   0.00000000

component 0 (CO2) lambda:  0 occupancy:  0 (0.000000)
    net charge:   0.00000000 [e]

Amount of molecules per component :
-------------------------------------------------------------------------------
Component 0 (CO2)
    molecules:      2.050000e+02 molecules  (2.093533e+02 +/- 0.000000e+00)
    number density: 1.136712e-02 molec./A^3 (1.149717e-02 +/- 0.000000e+00)
    density:        8.305009e+02 kg/m^3     (8.400026e+02 +/- 0.000000e+00)

Average pressure tensor: 
-------------------------------------------------------------------------------
-4.4547e-01  1.7068e+01  2.8030e+01 +/- 0.0000e+00 0.0000e+00 0.0000e+00 [bar]
 1.7068e+01 -3.7717e+01  1.3630e+00 +/- 0.0000e+00 0.0000e+00 0.0000e+00 [bar]
 2.8030e+01  1.3630e+00 -2.1424e+01 +/- 0.0000e+00 0.0000e+00 0.0000e+00 [bar]
Ideal-gas pressure:   4.444598e+02 +/ 0.000000e+00 [bar]
Excess pressure:     -4.643220e+02 +/ 0.000000e+00 [bar]
Pressure:            -1.986218e+01 +/ 0.000000e+00 [bar]

Total potential energy/kʙ  -2.423217e+05 (-2.441941e+05 +/- 0.000000e+00) [K]
-------------------------------------------------------------------------------
ExternalField-molecule
    Van der Waals/kʙ        0.000000e+00 ( 0.000000e+00 +/- 0.000000e+00) [K]
Framework-molecule
    Van der Waals/kʙ        0.000000e+00 ( 0.000000e+00 +/- 0.000000e+00) [K]
    Van der Waals (Tail)/kʙ 0.000000e+00 ( 0.000000e+00 +/- 0.000000e+00) [K]
    Coulombic Real/kʙ       0.000000e+00 ( 0.000000e+00 +/- 0.000000e+00) [K]
    Coulombic Fourier/kʙ    0.000000e+00 ( 0.000000e+00 +/- 0.000000e+00) [K]
Molecule-molecule
    Van der Waals/kʙ       -1.754539e+05 (-1.785221e+05 +/- 0.000000e+00) [K]
    Van der Waals (Tail)/kʙ-7.476749e+03 (-7.693230e+03 +/- 0.000000e+00) [K]
    Coulombic Real/kʙ      -4.595822e+04 (-4.518722e+04 +/- 0.000000e+00) [K]
    Coulombic Fourier/kʙ   -1.343280e+04 (-1.279159e+04 +/- 0.000000e+00) [K]
    Molecule Intra/kʙ       0.000000e+00 ( 0.000000e+00 +/- 0.000000e+00) [K]

Current cycle: 900 out of 6000
===============================================================================

Box:      26.41539   0.00000   0.00000  Average:  26.29629   0.00000   0.00000
           0.00000  26.41539   0.00000             0.00000  26.29629   0.00000
           0.00000   0.00000  26.41539             0.00000   0.00000  26.29629
Lengths:  26.41539  26.41539  26.41539  Average:  26.29629  26.29629  26.29629
Angles:   90.00000  90.00000  90.00000  Average:  90.00000  90.00000  90.00000
Rectangular boundary conditions

net charge:   0.00000000

component 0 (CO2) lambda:  0 occupancy:  0 (0.000000)
    net charge:   0.00000000 [e]

Amount of molecules per component :
-------------------------------------------------------------------------------
Component 0 (CO2)
    molecules:      2.180000e+02 molecules  (2.095583e+02 +/- 0.000000e+00)
    number density: 1.182730e-02 molec./A^3 (1.152800e-02 +/- 0.000000e+00)
    density:        8.641226e+02 kg/m^3     (8.422558e+02 +/- 0.000000e+00)

Average pressure tensor: 
-------------------------------------------------------------------------------
-3.0651e+00  4.8584e+00  2.3571e+01 +/- 0.0000e+00 0.0000e+00 0.0000e+00 [bar]
 4.8584e+00 -2.6217e+01  2.0110e+00 +/- 0.0000e+00 0.0000e+00 0.0000e+00 [bar]
 2.3571e+01  2.0110e+00 -3.7957e+01 +/- 0.0000e+00 0.0000e+00 0.0000e+00 [bar]
Ideal-gas pressure:   4.456520e+02 +/ 0.000000e+00 [bar]
Excess pressure:     -4.680649e+02 +/ 0.000000e+00 [bar]
Pressure:            -2.241289e+01 +/ 0.000000e+00 [bar]

Total potential energy/kʙ  -2.609068e+05 (-2.449461e+05 +/- 0.000000e+00) [K]
-------------------------------------------------------------------------------
ExternalField-molecule
    Van der Waals/kʙ        0.000000e+00 ( 0.000000e+00 +/- 0.000000e+00) [K]
Framework-molecule
    Van der Waals/kʙ        0.000000e+00 ( 0.000000e+00 +/- 0.000000e+00) [K]
    Van der Waals (Tail)/kʙ 0.000000e+00 ( 0.000000e+00 +/- 0.000000e+00) [K]
    Coulombic Real/kʙ       0.000000e+00 ( 0.000000e+00 +/- 0.000000e+00) [K]
    Coulombic Fourier/kʙ    0.000000e+00 ( 0.000000e+00 +/- 0.000000e+00) [K]
Molecule-molecule
    Van der Waals/kʙ       -1.865964e+05 (-1.790240e+05 +/- 0.000000e+00) [K]
    Van der Waals (Tail)/kʙ-8.272765e+03 (-7.712482e+03 +/- 0.000000e+00) [K]
    Coulombic Real/kʙ      -5.211216e+04 (-4.540976e+04 +/- 0.000000e+00) [K]
    Coulombic Fourier/kʙ   -1.392541e+04 (-1.279980e+04 +/- 0.000000e+00) [K]
    Molecule Intra/kʙ       0.000000e+00 ( 0.000000e+00 +/- 0.000000e+00) [K]

Current cycle: 1000 out of 6000
===============================================================================

Box:      26.85901   0.00000   0.00000  Average:  26.32424   0.00000   0.00000
           0.00000  26.85901   0.00000             0.00000  26.32424   0.00000
           0.00000   0.00000  26.85901             0.00000   0.00000  26.32424
Lengths:  26.85901  26.85901  26.85901  Average:  26.32424  26.32424  26.32424
Angles:   90.00000  90.00000  90.00000  Average:  90.00000  90.00000  90.00000
Rectangular boundary conditions

net charge:   0.00000000

component 0 (CO2) lambda:  0 occupancy:  0 (0.000000)
    net charge:   0.00000000 [e]

Amount of molecules per component :
-------------------------------------------------------------------------------
Component 0 (CO2)
    molecules:      2.150000e+02 molecules  (2.106074e+02 +/- 0.000000e+00)
    number density: 1.109605e-02 molec./A^3 (1.154772e-02 +/- 0.000000e+00)
    density:        8.106966e+02 kg/m^3     (8.436963e+02 +/- 0.000000e+00)

Average pressure tensor: 
-------------------------------------------------------------------------------
-7.5777e+00  1.0444e+01  2.5144e+01 +/- 0.0000e+00 0.0000e+00 0.0000e+00 [bar]
 1.0444e+01 -1.0559e+01 -6.4693e+00 +/- 0.0000e+00 0.0000e+00 0.0000e+00 [bar]
 2.5144e+01 -6.4693e+00 -3.9345e+01 +/- 0.0000e+00 0.0000e+00 0.0000e+00 [bar]
Ideal-gas pressure:   4.464143e+02 +/ 0.000000e+00 [bar]
Excess pressure:     -4.655747e+02 +/ 0.000000e+00 [bar]
Pressure:            -1.916045e+01 +/ 0.000000e+00 [bar]

Total potential energy/kʙ  -2.451784e+05 (-2.467951e+05 +/- 0.000000e+00) [K]
-------------------------------------------------------------------------------
ExternalField-molecule
    Van der Waals/kʙ        0.000000e+00 ( 0.000000e+00 +/- 0.000000e+00) [K]
Framework-molecule
    Van der Waals/kʙ        0.000000e+00 ( 0.000000e+00 +/- 0.000000e+00) [K]
    Van der Waals (Tail)/kʙ 0.000000e+00 ( 0.000000e+00 +/- 0.000000e+00) [K]
    Coulombic Real/kʙ       0.000000e+00 ( 0.000000e+00 +/- 0.000000e+00) [K]
    Coulombic Fourier/kʙ    0.000000e+00 ( 0.000000e+00 +/- 0.000000e+00) [K]
Molecule-molecule
    Van der Waals/kʙ       -1.815288e+05 (-1.802791e+05 +/- 0.000000e+00) [K]
    Van der Waals (Tail)/kʙ-7.654479e+03 (-7.766536e+03 +/- 0.000000e+00) [K]
    Coulombic Real/kʙ      -4.310723e+04 (-4.581498e+04 +/- 0.000000e+00) [K]
    Coulombic Fourier/kʙ   -1.288785e+04 (-1.293443e+04 +/- 0.000000e+00) [K]
    Molecule Intra/kʙ       0.000000e+00 ( 0.000000e+00 +/- 0.000000e+00) [K]

Current cycle: 1100 out of 6000
===============================================================================

Box:      26.91577   0.00000   0.00000  Average:  26.38893   0.00000   0.00000
           0.00000  26.91577   0.00000             0.00000  26.38893   0.00000
           0.00000   0.00000  26.91577             0.00000   0.00000  26.38893
Lengths:  26.91577  26.91577  26.91577  Average:  26.38893  26.38893  26.38893
Angles:   90.00000  90.00000  90.00000  Average:  90.00000  90.00000  90.00000
Rectangular boundary conditions

net charge:   0.00000000

component 0 (CO2) lambda:  0 occupancy:  0 (0.000000)
    net charge:   0.00000000 [e]

Amount of molecules per component :
-------------------------------------------------------------------------------
Component 0 (CO2)
    molecules:      2.050000e+02 molecules  (2.108501e+02 +/- 0.000000e+00)
    number density: 1.051317e-02 molec./A^3 (1.147923e-02 +/- 0.000000e+00)
    density:        7.681101e+02 kg/m^3     (8.386923e+02 +/- 0.000000e+00)

Average pressure tensor: 
-------------------------------------------------------------------------------
-1.6864e+01  8.4226e+00  2.0533e+01 +/- 0.0000e+00 0.0000e+00 0.0000e+00 [bar]
 8.4226e+00 -2.4534e+01  1.4324e+00 +/- 0.0000e+00 0.0000e+00 0.0000e+00 [bar]
 2.0533e+01  1.4324e+00 -4.6258e+01 +/- 0.0000e+00 0.0000e+00 0.0000e+00 [bar]
Ideal-gas pressure:   4.437665e+02 +/ 0.000000e+00 [bar]
Excess pressure:     -4.729853e+02 +/ 0.000000e+00 [bar]
Pressure:            -2.921876e+01 +/ 0.000000e+00 [bar]

Total potential energy/kʙ  -2.178920e+05 (-2.452386e+05 +/- 0.000000e+00) [K]
-------------------------------------------------------------------------------
ExternalField-molecule
    Van der Waals/kʙ        0.000000e+00 ( 0.000000e+00 +/- 0.000000e+00) [K]
Framework-molecule
    Van der Waals/kʙ        0.000000e+00 ( 0.000000e+00 +/- 0.000000e+00) [K]
    Van der Waals (Tail)/kʙ 0.000000e+00 ( 0.000000e+00 +/- 0.000000e+00) [K]
    Coulombic Real/kʙ       0.000000e+00 ( 0.000000e+00 +/- 0.000000e+00) [K]
    Coulombic Fourier/kʙ    0.000000e+00 ( 0.000000e+00 +/- 0.000000e+00) [K]
Molecule-molecule
    Van der Waals/kʙ       -1.614664e+05 (-1.792404e+05 +/- 0.000000e+00) [K]
    Van der Waals (Tail)/kʙ-6.915064e+03 (-7.722165e+03 +/- 0.000000e+00) [K]
    Coulombic Real/kʙ      -3.833667e+04 (-4.544386e+04 +/- 0.000000e+00) [K]
    Coulombic Fourier/kʙ   -1.117385e+04 (-1.283216e+04 +/- 0.000000e+00) [K]
    Molecule Intra/kʙ       0.000000e+00 ( 0.000000e+00 +/- 0.000000e+00) [K]

Current cycle: 1200 out of 6000
===============================================================================

Box:      27.64898   0.00000   0.00000  Average:  26.47205   0.00000   0.00000
           0.00000  27.64898   0.00000             0.00000  26.47205   0.00000
           0.00000   0.00000  27.64898             0.00000   0.00000  26.47205
Lengths:  27.64898  27.64898  27.64898  Average:  26.47205  26.47205  26.47205
Angles:   90.00000  90.00000  90.00000  Average:  90.00000  90.00000  90.00000
Rectangular boundary conditions

net charge:   0.00000000

component 0 (CO2) lambda:  0 occupancy:  0 (0.000000)
    net charge:   0.00000000 [e]

Amount of molecules per component :
-------------------------------------------------------------------------------
Component 0 (CO2)
    molecules:      2.080000e+02 molecules  (2.108185e+02 +/- 0.000000e+00)
    number density: 9.840702e-03 molec./A^3 (1.137745e-02 +/- 0.000000e+00)
    density:        7.189785e+02 kg/m^3     (8.312558e+02 +/- 0.000000e+00)

Average pressure tensor: 
-------------------------------------------------------------------------------
-9.4609e+00  4.7527e+00  1.4579e+01 +/- 0.0000e+00 0.0000e+00 0.0000e+00 [bar]
 4.7527e+00 -1.9220e+01 -4.5926e-01 +/- 0.0000e+00 0.0000e+00 0.0000e+00 [bar]
 1.4579e+01 -4.5926e-01 -4.1952e+01 +/- 0.0000e+00 0.0000e+00 0.0000e+00 [bar]
Ideal-gas pressure:   4.398318e+02 +/ 0.000000e+00 [bar]
Excess pressure:     -4.633762e+02 +/ 0.000000e+00 [bar]
Pressure:            -2.354441e+01 +/ 0.000000e+00 [bar]

Total potential energy/kʙ  -2.189705e+05 (-2.429447e+05 +/- 0.000000e+00) [K]
-------------------------------------------------------------------------------
ExternalField-molecule
    Van der Waals/kʙ        0.000000e+00 ( 0.000000e+00 +/- 0.000000e+00) [K]
Framework-molecule
    Van der Waals/kʙ        0.000000e+00 ( 0.000000e+00 +/- 0.000000e+00) [K]
    Van der Waals (Tail)/kʙ 0.000000e+00 ( 0.000000e+00 +/- 0.000000e+00) [K]
    Coulombic Real/kʙ       0.000000e+00 ( 0.000000e+00 +/- 0.000000e+00) [K]
    Coulombic Fourier/kʙ    0.000000e+00 ( 0.000000e+00 +/- 0.000000e+00) [K]
Molecule-molecule
    Van der Waals/kʙ       -1.607967e+05 (-1.776576e+05 +/- 0.000000e+00) [K]
    Van der Waals (Tail)/kʙ-6.567470e+03 (-7.651015e+03 +/- 0.000000e+00) [K]
    Coulombic Real/kʙ      -3.965500e+04 (-4.492664e+04 +/- 0.000000e+00) [K]
    Coulombic Fourier/kʙ   -1.195138e+04 (-1.270945e+04 +/- 0.000000e+00) [K]
    Molecule Intra/kʙ       0.000000e+00 ( 0.000000e+00 +/- 0.000000e+00) [K]

Current cycle: 1300 out of 6000
===============================================================================

Box:      27.55755   0.00000   0.00000  Average:  26.54677   0.00000   0.00000
           0.00000  27.55755   0.00000             0.00000  26.54677   0.00000
           0.00000   0.00000  27.55755             0.00000   0.00000  26.54677
Lengths:  27.55755  27.55755  27.55755  Average:  26.54677  26.54677  26.54677
Angles:   90.00000  90.00000  90.00000  Average:  90.00000  90.00000  90.00000
Rectangular boundary conditions

net charge:   0.00000000

component 0 (CO2) lambda:  0 occupancy:  0 (0.000000)
    net charge:   0.00000000 [e]

Amount of molecules per component :
-------------------------------------------------------------------------------
Component 0 (CO2)
    molecules:      2.110000e+02 molecules  (2.111476e+02 +/- 0.000000e+00)
    number density: 1.008232e-02 molec./A^3 (1.130262e-02 +/- 0.000000e+00)
    density:        7.366317e+02 kg/m^3     (8.257886e+02 +/- 0.000000e+00)

Average pressure tensor: 
-------------------------------------------------------------------------------
-1.2485e+01  4.7414e+00  1.2899e+01 +/- 0.0000e+00 0.0000e+00 0.0000e+00 [bar]
 4.7414e+00 -1.7785e+01  6.9045e-01 +/- 0.0000e+00 0.0000e+00 0.0000e+00 [bar]
 1.2899e+01  6.9045e-01 -3.6867e+01 +/- 0.0000e+00 0.0000e+00 0.0000e+00 [bar]
Ideal-gas pressure:   4.369390e+02 +/ 0.000000e+00 [bar]
Excess pressure:     -4.593181e+02 +/ 0.000000e+00 [bar]
Pressure:            -2.237914e+01 +/ 0.000000e+00 [bar]

Total potential energy/kʙ  -2.251123e+05 (-2.417488e+05 +/- 0.000000e+00) [K]
-------------------------------------------------------------------------------
ExternalField-molecule
    Van der Waals/kʙ        0.000000e+00 ( 0.000000e+00 +/- 0.000000e+00) [K]
Framework-molecule
    Van der Waals/kʙ        0.000000e+00 ( 0.000000e+00 +/- 0.000000e+00) [K]
    Van der Waals (Tail)/kʙ 0.000000e+00 ( 0.000000e+00 +/- 0.000000e+00) [K]
    Coulombic Real/kʙ       0.000000e+00 ( 0.000000e+00 +/- 0.000000e+00) [K]
    Coulombic Fourier/kʙ    0.000000e+00 ( 0.000000e+00 +/- 0.000000e+00) [K]
Molecule-molecule
    Van der Waals/kʙ       -1.666470e+05 (-1.768654e+05 +/- 0.000000e+00) [K]
    Van der Waals (Tail)/kʙ-6.825771e+03 (-7.605877e+03 +/- 0.000000e+00) [K]
    Coulombic Real/kʙ      -3.955962e+04 (-4.463462e+04 +/- 0.000000e+00) [K]
    Coulombic Fourier/kʙ   -1.207991e+04 (-1.264291e+04 +/- 0.000000e+00) [K]
    Molecule Intra/kʙ       0.000000e+00 ( 0.000000e+00 +/- 0.000000e+00) [K]

Current cycle: 1400 out of 6000
===============================================================================

Box:      27.60278   0.00000   0.00000  Average:  26.62022   0.00000   0.00000
           0.00000  27.60278   0.00000             0.00000  26.62022   0.00000
           0.00000   0.00000  27.60278             0.00000   0.00000  26.62022
Lengths:  27.60278  27.60278  27.60278  Average:  26.62022  26.62022  26.62022
Angles:   90.00000  90.00000  90.00000  Average:  90.00000  90.00000  90.00000
Rectangular boundary conditions

net charge:   0.00000000

component 0 (CO2) lambda:  0 occupancy:  0 (0.000000)
    net charge:   0.00000000 [e]

Amount of molecules per component :
-------------------------------------------------------------------------------
Component 0 (CO2)
    molecules:      2.140000e+02 molecules  (2.113383e+02 +/- 0.000000e+00)
    number density: 1.017549e-02 molec./A^3 (1.122374e-02 +/- 0.000000e+00)
    density:        7.434389e+02 kg/m^3     (8.200255e+02 +/- 0.000000e+00)

Average pressure tensor: 
-------------------------------------------------------------------------------
-1.0267e+01  7.5796e+00  1.5233e+01 +/- 0.0000e+00 0.0000e+00 0.0000e+00 [bar]
 7.5796e+00 -2.1261e+01  2.5773e+00 +/- 0.0000e+00 0.0000e+00 0.0000e+00 [bar]
 1.5233e+01  2.5773e+00 -3.4836e+01 +/- 0.0000e+00 0.0000e+00 0.0000e+00 [bar]
Ideal-gas pressure:   4.338896e+02 +/ 0.000000e+00 [bar]
Excess pressure:     -4.560108e+02 +/ 0.000000e+00 [bar]
Pressure:            -2.212117e+01 +/ 0.000000e+00 [bar]

Total potential energy/kʙ  -2.342345e+05 (-2.406527e+05 +/- 0.000000e+00) [K]
-------------------------------------------------------------------------------
ExternalField-molecule
    Van der Waals/kʙ        0.000000e+00 ( 0.000000e+00 +/- 0.000000e+00) [K]
Framework-molecule
    Van der Waals/kʙ        0.000000e+00 ( 0.000000e+00 +/- 0.000000e+00) [K]
    Van der Waals (Tail)/kʙ 0.000000e+00 ( 0.000000e+00 +/- 0.000000e+00) [K]
    Coulombic Real/kʙ       0.000000e+00 ( 0.000000e+00 +/- 0.000000e+00) [K]
    Coulombic Fourier/kʙ    0.000000e+00 ( 0.000000e+00 +/- 0.000000e+00) [K]
Molecule-molecule
    Van der Waals/kʙ       -1.680216e+05 (-1.759900e+05 +/- 0.000000e+00) [K]
    Van der Waals (Tail)/kʙ-6.986793e+03 (-7.560046e+03 +/- 0.000000e+00) [K]
    Coulombic Real/kʙ      -4.665503e+04 (-4.450746e+04 +/- 0.000000e+00) [K]
    Coulombic Fourier/kʙ   -1.257106e+04 (-1.259520e+04 +/- 0.000000e+00) [K]
    Molecule Intra/kʙ       0.000000e+00 ( 0.000000e+00 +/- 0.000000e+00) [K]

Current cycle: 1500 out of 6000
===============================================================================

Box:      27.33680   0.00000   0.00000  Average:  26.67408   0.00000   0.00000
           0.00000  27.33680   0.00000             0.00000  26.67408   0.00000
           0.00000   0.00000  27.33680             0.00000   0.00000  26.67408
[...]
    number density: 1.256206e-02 molec./A^3 (1.161340e-02 +/- 9.492583e-04)
    density:        9.178057e+02 kg/m^3     (8.484952e+02 +/- 6.935443e+01)

Average pressure tensor: 
-------------------------------------------------------------------------------
 2.9815e+01 -1.4361e-01  1.0933e+01 +/- 9.0146e+01 1.6268e+01 2.9919e+01 [bar]
-1.4361e-01  3.0328e+01  1.3295e+01 +/- 1.6268e+01 9.7110e+01 2.3066e+01 [bar]
 1.0933e+01  1.3295e+01  3.2989e+00 +/- 2.9919e+01 2.3066e+01 6.2847e+01 [bar]
Ideal-gas pressure:   4.489534e+02 +/ 3.669662e+01 [bar]
Excess pressure:     -4.278062e+02 +/ 5.651164e+01 [bar]
Pressure:             2.114728e+01 +/ 7.902056e+01 [bar]

Total potential energy/kʙ  -2.494293e+05 (-2.467416e+05 +/- 1.147244e+04) [K]
-------------------------------------------------------------------------------
ExternalField-molecule
    Van der Waals/kʙ        0.000000e+00 ( 0.000000e+00 +/- 0.000000e+00) [K]
Framework-molecule
    Van der Waals/kʙ        0.000000e+00 ( 0.000000e+00 +/- 0.000000e+00) [K]
    Van der Waals (Tail)/kʙ 0.000000e+00 ( 0.000000e+00 +/- 0.000000e+00) [K]
    Coulombic Real/kʙ       0.000000e+00 ( 0.000000e+00 +/- 0.000000e+00) [K]
    Coulombic Fourier/kʙ    0.000000e+00 ( 0.000000e+00 +/- 0.000000e+00) [K]
Molecule-molecule
    Van der Waals/kʙ       -1.825094e+05 (-1.799202e+05 +/- 7.377416e+03) [K]
    Van der Waals (Tail)/kʙ-7.698444e+03 (-7.741693e+03 +/- 3.978256e+02) [K]
    Coulombic Real/kʙ      -4.681302e+04 (-4.635665e+04 +/- 3.179741e+03) [K]
    Coulombic Fourier/kʙ   -1.240844e+04 (-1.272311e+04 +/- 6.149627e+02) [K]
    Molecule Intra/kʙ       0.000000e+00 ( 0.000000e+00 +/- 0.000000e+00) [K]

Current cycle: 5800 out of 6000
===============================================================================

Box:      25.06564   0.00000   0.00000  Average:  26.18739   0.00000   0.00000
           0.00000  25.06564   0.00000             0.00000  26.18739   0.00000
           0.00000   0.00000  25.06564             0.00000   0.00000  26.18739
Lengths:  25.06564  25.06564  25.06564  Average:  26.18739  26.18739  26.18739
Angles:   90.00000  90.00000  90.00000  Average:  90.00000  90.00000  90.00000
Rectangular boundary conditions

net charge:   0.00000000

component 0 (CO2) lambda:  0 occupancy:  0 (0.000000)
    net charge:   0.00000000 [e]

Amount of molecules per component :
-------------------------------------------------------------------------------
Component 0 (CO2)
    molecules:      1.970000e+02 molecules  (2.081334e+02 +/- 9.338169e+00)
    number density: 1.250921e-02 molec./A^3 (1.162942e-02 +/- 9.513169e-04)
    density:        9.139439e+02 kg/m^3     (8.496654e+02 +/- 6.950484e+01)

Average pressure tensor: 
-------------------------------------------------------------------------------
 2.9007e+01  1.2333e+00  1.0393e+01 +/- 8.1203e+01 1.1733e+01 3.0045e+01 [bar]
 1.2333e+00  2.8809e+01  1.2072e+01 +/- 1.1733e+01 8.4922e+01 1.9671e+01 [bar]
 1.0393e+01  1.2072e+01  4.4026e+00 +/- 3.0045e+01 1.9671e+01 6.2292e+01 [bar]
Ideal-gas pressure:   4.495726e+02 +/ 3.677621e+01 [bar]
Excess pressure:     -4.288332e+02 +/ 4.906576e+01 [bar]
Pressure:             2.073942e+01 +/ 7.166570e+01 [bar]

Total potential energy/kʙ  -2.550460e+05 (-2.467678e+05 +/- 1.147410e+04) [K]
-------------------------------------------------------------------------------
ExternalField-molecule
    Van der Waals/kʙ        0.000000e+00 ( 0.000000e+00 +/- 0.000000e+00) [K]
Framework-molecule
    Van der Waals/kʙ        0.000000e+00 ( 0.000000e+00 +/- 0.000000e+00) [K]
    Van der Waals (Tail)/kʙ 0.000000e+00 ( 0.000000e+00 +/- 0.000000e+00) [K]
    Coulombic Real/kʙ       0.000000e+00 ( 0.000000e+00 +/- 0.000000e+00) [K]
    Coulombic Fourier/kʙ    0.000000e+00 ( 0.000000e+00 +/- 0.000000e+00) [K]
Molecule-molecule
    Van der Waals/kʙ       -1.845228e+05 (-1.799211e+05 +/- 7.377373e+03) [K]
    Van der Waals (Tail)/kʙ-7.906871e+03 (-7.742767e+03 +/- 3.976639e+02) [K]
    Coulombic Real/kʙ      -5.019660e+04 (-4.637979e+04 +/- 3.182412e+03) [K]
    Coulombic Fourier/kʙ   -1.241971e+04 (-1.272415e+04 +/- 6.130549e+02) [K]
    Molecule Intra/kʙ       0.000000e+00 ( 0.000000e+00 +/- 0.000000e+00) [K]

Current cycle: 5900 out of 6000
===============================================================================

Box:      24.81313   0.00000   0.00000  Average:  26.16778   0.00000   0.00000
           0.00000  24.81313   0.00000             0.00000  26.16778   0.00000
           0.00000   0.00000  24.81313             0.00000   0.00000  26.16778
Lengths:  24.81313  24.81313  24.81313  Average:  26.16778  26.16778  26.16778
Angles:   90.00000  90.00000  90.00000  Average:  90.00000  90.00000  90.00000
Rectangular boundary conditions

net charge:   0.00000000

component 0 (CO2) lambda:  0 occupancy:  0 (0.000000)
    net charge:   0.00000000 [e]

Amount of molecules per component :
-------------------------------------------------------------------------------
Component 0 (CO2)
    molecules:      1.910000e+02 molecules  (2.079846e+02 +/- 9.162760e+00)
    number density: 1.250227e-02 molec./A^3 (1.164778e-02 +/- 9.583299e-04)
    density:        9.134370e+02 kg/m^3     (8.510070e+02 +/- 7.001722e+01)

Average pressure tensor: 
-------------------------------------------------------------------------------
 2.9604e+01 -2.3074e+00  8.9842e+00 +/- 7.7763e+01 2.0040e+01 3.0713e+01 [bar]
-2.3074e+00  2.8711e+01  1.0352e+01 +/- 2.0040e+01 7.8988e+01 1.7116e+01 [bar]
 8.9842e+00  1.0352e+01  2.8417e+00 +/- 3.0713e+01 1.7116e+01 5.6040e+01 [bar]
Ideal-gas pressure:   4.502824e+02 +/ 3.704732e+01 [bar]
Excess pressure:     -4.298970e+02 +/ 4.297562e+01 [bar]
Pressure:             2.038543e+01 +/ 6.591254e+01 [bar]

Total potential energy/kʙ  -2.483413e+05 (-2.468979e+05 +/- 1.149817e+04) [K]
-------------------------------------------------------------------------------
ExternalField-molecule
    Van der Waals/kʙ        0.000000e+00 ( 0.000000e+00 +/- 0.000000e+00) [K]
Framework-molecule
    Van der Waals/kʙ        0.000000e+00 ( 0.000000e+00 +/- 0.000000e+00) [K]
    Van der Waals (Tail)/kʙ 0.000000e+00 ( 0.000000e+00 +/- 0.000000e+00) [K]
    Coulombic Real/kʙ       0.000000e+00 ( 0.000000e+00 +/- 0.000000e+00) [K]
    Coulombic Fourier/kʙ    0.000000e+00 ( 0.000000e+00 +/- 0.000000e+00) [K]
Molecule-molecule
    Van der Waals/kʙ       -1.785638e+05 (-1.800328e+05 +/- 7.383014e+03) [K]
    Van der Waals (Tail)/kʙ-7.661800e+03 (-7.746685e+03 +/- 3.987402e+02) [K]
    Coulombic Real/kʙ      -4.987774e+04 (-4.640176e+04 +/- 3.184479e+03) [K]
    Coulombic Fourier/kʙ   -1.223797e+04 (-1.271662e+04 +/- 6.155130e+02) [K]
    Molecule Intra/kʙ       0.000000e+00 ( 0.000000e+00 +/- 0.000000e+00) [K]


Energy statistics             |  Energy [K]   | Recomputed [K]|  Drift [K]    |
===============================================================================
Total potential energy/kʙ     | -2.364150e+05 | -2.368824e+05 |  4.673683e+02 |
    external field VDW/kʙ     |  0.000000e+00 |  0.000000e+00 |  0.000000e+00 |
    external field Real/kʙ    |  0.000000e+00 |  0.000000e+00 |  0.000000e+00 |
    framework-molecule VDW/kʙ |  0.000000e+00 |  0.000000e+00 |  0.000000e+00 |
    framework-molecule Real/kʙ|  0.000000e+00 |  0.000000e+00 |  0.000000e+00 |
    molecule-molecule VDW/kʙ  | -1.748925e+05 | -1.753596e+05 |  4.671393e+02 |
    molecule-molecule Real/kʙ | -4.189122e+04 | -4.189145e+04 |  2.289704e-01 |
    Van der Waals (Tail)/kʙ   | -7.682334e+03 | -7.682334e+03 |  2.734678e-11 |
    Ewald Fourier/kʙ          |  1.682212e+04 |  1.682212e+04 | -1.312646e-11 |
    Ewald self/kʙ             | -4.401388e+06 | -4.401388e+06 |  1.680186e-09 |
    Ewald exclusion/kʙ        |  4.372617e+06 |  4.372617e+06 |  0.000000e+00 |
    intra VDW/kʙ              |  0.000000e+00 |  0.000000e+00 |  0.000000e+00 |
    intra Coulombic/kʙ        |  0.000000e+00 |  0.000000e+00 |  0.000000e+00 |
    polarization/kʙ           |  0.000000e+00 |  0.000000e+00 |  0.000000e+00 |
    dU/dlambda VDW/kʙ         |  0.000000e+00 |  0.000000e+00 |  0.000000e+00 |
    dU/dlambda Real/kʙ        |  0.000000e+00 |  0.000000e+00 |  0.000000e+00 |
    dU/dlambda Ewald/kʙ       |  0.000000e+00 |  0.000000e+00 |  0.000000e+00 |
-------------------------------------------------------------------------------


Monte-Carlo moves statistics
===============================================================================

    Gibbs volume         all:                2997
    Gibbs volume         total:              6010
    Gibbs volume         constructed:        6010
    Gibbs volume         accepted:           5097
    Gibbs volume         fraction:       0.848087
    Gibbs volume         max-change:     0.037500

Component 0 [CO2]
    Reinsertion (CBMC)   all:              148939
    Reinsertion (CBMC)   total:            148939
    Reinsertion (CBMC)   constructed:      146740
    Reinsertion (CBMC)   accepted:          17666
    Reinsertion (CBMC)   fraction:       0.118612
    Reinsertion (CBMC)   max-change:     0.000000

    Gibbs swap (CBMC)    all:              299847
    Gibbs swap (CBMC)    total:            597934
    Gibbs swap (CBMC)    constructed:      593239
    Gibbs swap (CBMC)    accepted:         127543
    Gibbs swap (CBMC)    fraction:       0.213306
    Gibbs swap (CBMC)    max-change:     0.000000

    Translation          all:              149983
    Translation          total:             49764      50047      50172
    Translation          constructed:       49764      50045      50172
    Translation          accepted:          29043      26295      29305
    Translation          fraction:       0.583615   0.525406   0.584091
    Translation          max-change:     0.797862   0.872583   0.797294

    Rotation             all:              149779
    Rotation             total:             50177      49842      49760
    Rotation             constructed:       50177      49804      49562
    Rotation             accepted:          33042      22236      19020
    Rotation             fraction:       0.658509   0.446130   0.382235
    Rotation             max-change:     0.675384   1.016720   1.086845



Production run counting of the MC moves summed over systems and components
===============================================================================

Reinsertion (CBMC)                   298230 (19.8820 [%])
Gibbs volume                           6010 (0.4007 [%])
Gibbs swap (CBMC)                    597934 (39.8623 [%])
Translation                          299400 (19.9600 [%])
Rotation                             298426 (19.8951 [%])

Production count MC-steps:          1500000 [-]
               All summed:          1500000 [-]
               difference:                0 [-]


Production run CPU timings of the MC moves
===============================================================================

Component 0 CO2

Rotation                             21.072960 [s]
    Ewald                            11.325291 [s]
    ExternalField-Molecule            0.005823 [s]
    Framework-Molecule                0.005368 [s]
    Molecule-Molecule                 8.729750 [s]
    Overhead                          1.006728 [s]

Reinsertion (CBMC)                   78.643650 [s]
    Ewald                            11.137731 [s]
    NonEwald                         67.152415 [s]
    Overhead                          0.353504 [s]

Translation                          21.240510 [s]
    Ewald                            11.372797 [s]
    ExternalField-Molecule            0.004883 [s]
    Framework-Molecule                0.013163 [s]
    Molecule-Molecule                 8.741779 [s]
    Overhead                          1.107888 [s]



Gibbs swap (CBMC)                   124.300087 [s]
    Ewald                            26.838243 [s]
    NonEwald                         94.216161 [s]
    Tail                              1.343835 [s]

Gibbs volume                         19.716040 [s]
    Ewald                             9.732264 [s]
    NonEwald                          9.161913 [s]
    Tail                              0.644843 [s]

Property sampling                     0.325426 [s]
Energy/pressure sampling:             8.283606 [s]


Production run CPU timings of the MC moves summed over systems and components
===============================================================================


Translation                          29.758520 [s]
    Ewald                            17.385559 [s]
    ExternalField-Molecule            0.009555 [s]
    Framework-Molecule                0.026214 [s]
    Molecule-Molecule                10.431010 [s]
    Overhead                          1.906182 [s]

Rotation                             29.582371 [s]
    Ewald                            17.356175 [s]
    ExternalField-Molecule            0.011069 [s]
    Framework-Molecule                0.010845 [s]
    Molecule-Molecule                10.405350 [s]
    Overhead                          1.798932 [s]

Reinsertion (CBMC)                  102.608577 [s]
    Ewald                            17.182436 [s]
    NonEwald                         84.435815 [s]
    Overhead                          0.990326 [s]

Gibbs volume                         39.524999 [s]
    Ewald                            19.504148 [s]
    NonEwald                         18.379707 [s]
    Tail                              1.289807 [s]
    Overhead                          0.351337 [s]

Gibbs swap (CBMC)                   291.222044 [s]
    Ewald                            54.037729 [s]
    NonEwald                        230.451954 [s]
    Tail                              2.821963 [s]
    Overhead                          3.910398 [s]

Property sampling:                    0.581643 [s]
Energy/pressure sampling:             9.017653 [s]

Production simulation time:         503.785118 [s]
                All summed:         502.295807 [s]
                  Overhead:           1.489311 [s]


Initalization simulation time:      162.704369 [s]
Equilibration simulation time:        0.000000 [s]
Production simulation time:         503.785118 [s]
Total simulation time:              666.489487 [s]


Energy averages and statistics:
===============================================================================

Framework-molecule energy:
-------------------------------------------------------------------------------



Framework-molecule energy contributions per energy type:
-------------------------------------------------------------------------------



Inter-molecular energy:
-------------------------------------------------------------------------------

    Inter-molecular energy/kʙ 0-0 [CO2-CO2]:
    ---------------------------------------------------------------------------
        Block[  0] -2.431445e+05
        Block[  1] -2.336303e+05
        Block[  2] -2.509941e+05
        Block[  3] -2.584788e+05
        Block[  4] -2.488073e+05
        -----------------------------------------------------------------------
        Average  -2.470110e+05 +/-  1.152280e+04 [K]



Inter-molecular energy contributions per energy type:
-------------------------------------------------------------------------------

    Van der Waals energy/kʙ 0-0 [CO2-CO2]:
    ---------------------------------------------------------------------------
        Block[  0] -1.777982e+05
        Block[  1] -1.715587e+05
        Block[  2] -1.828140e+05
        Block[  3] -1.875659e+05
        Block[  4] -1.808022e+05
        -----------------------------------------------------------------------
        Average  -1.801078e+05 +/-  7.392976e+03 [K]

    VDW Tail-Correction energy/kʙ 0-0 [CO2-CO2]:
    ---------------------------------------------------------------------------
        Block[  0] -7.660045e+03
        Block[  1] -7.249609e+03
        Block[  2] -7.887689e+03
        Block[  3] -8.107764e+03
        Block[  4] -7.849895e+03
        -----------------------------------------------------------------------
        Average  -7.751000e+03 +/-  4.000767e+02 [K]

    Coulomb Real energy/kʙ 0-0 [CO2-CO2]:
    ---------------------------------------------------------------------------
        Block[  0] -4.497057e+04
        Block[  1] -4.282518e+04
        Block[  2] -4.732876e+04
        Block[  3] -4.947187e+04
        Block[  4] -4.757274e+04
        -----------------------------------------------------------------------
        Average  -4.643382e+04 +/-  3.194886e+03 [K]

    Coulomb Fourier energy/kʙ 0-0 [CO2-CO2]:
    ---------------------------------------------------------------------------
        Block[  0] -1.271576e+04
        Block[  1] -1.199682e+04
        Block[  2] -1.296362e+04
        Block[  3] -1.333326e+04
        Block[  4] -1.258249e+04
        -----------------------------------------------------------------------
        Average  -1.271839e+04 +/-  6.136586e+02 [K]


Total energy/kʙ
-------------------------------------------------------------------------------
    Block[  0] -2.431445e+05
    Block[  1] -2.336303e+05
    Block[  2] -2.509941e+05
    Block[  3] -2.584788e+05
    Block[  4] -2.488073e+05
    ---------------------------------------------------------------------------
    Average  -2.470110e+05 +/-  1.152280e+04 [K]

Pressure averages and statistics:
===============================================================================

Average pressure tensor: 
-------------------------------------------------------------------------------
 2.9486e+01 -1.2058e+00  1.1234e+01 +/- 7.3331e+01 1.6218e+01 2.9881e+01 [bar]
-1.2058e+00  3.1803e+01  1.0774e+01 +/- 1.6218e+01 8.2372e+01 1.7376e+01 [bar]
 1.1234e+01  1.0774e+01  2.0603e+00 +/- 2.9881e+01 1.7376e+01 5.2666e+01 [bar]

    Block[  0]  4.398813e+07
    Block[  1]  4.067043e+07
    Block[  2]  4.520249e+07
    Block[  3]  4.729761e+07
    Block[  4]  4.825359e+07
    ---------------------------------------------------------------------------
    Ideal gas pressure   4.508245e+07 +/-  2.231669e-01 [Pa]
                         4.508245e+02 +/-  3.705775e+01 [bar]


    Block[  0] -4.635736e+07
    Block[  1] -4.235540e+07
    Block[  2] -4.356135e+07
    Block[  3] -4.489400e+07
    Block[  4] -3.768588e+07
    ---------------------------------------------------------------------------
    Excess pressure  -4.297080e+07 +/-  4.109291e+06 [Pa]
                     -4.297080e+02 +/-  4.109291e+01 [bar]


    Block[  0] -2.369232e+06
    Block[  1] -1.684967e+06
    Block[  2]  1.641140e+06
    Block[  3]  2.403617e+06
    Block[  4]  1.056771e+07
    ---------------------------------------------------------------------------
    Pressure average   2.111653e+06 +/-  6.399993e+06 [Pa]
                       2.111653e+01 +/-  6.399993e+01 [bar]


Enthalpy of adsorption
===============================================================================

Component 0 [CO2]
-------------------------------------------------------------------------------
    Block[  0] -2.189344e+03
    Block[  1] -2.040051e+03
    Block[  2] -2.213500e+03
    Block[  3] -1.956306e+03
    Block[  4] -2.207831e+03
    ---------------------------------------------------------------------------
    Enthalpy of adsorption: -2.121406e+03 +/-  1.448356e+02 [K]
                            -1.763836e+01 +/-  1.204231e+00 [kJ/mol]
    Warning: need to subtract the ideal-gas energy.


Densities
===============================================================================

Component 0 (CO2)
    Block[  0] 210.82083333333335
    Block[  1] 215.675
    Block[  2] 210.26416666666668
    Block[  3] 206.11166666666668
    Block[  4] 196.22750000000002
    -----------------------------------------------------------------------
    Density average   2.078198e+02 +/-  9.080203e+00 [molecules]
    Density average   1.166181e-02 +/-  9.585998e-04 [molec/A^3]
    Density average   8.520315e+02 +/-  7.003695e+01 [kg.m⁻³]

