Compiler and run-time data
===============================================================================
RASPA 3.0.4

Random seed: 658704572

Compiled as a 64-bits application
Compiler: gcc Clang 18.1.8
Compile Date = Mar 15 2025, Compile Time = 19:38:51

2025-06-03 16:03:07.797841
Simulation started on Tue, Jun 03
The start time was 16:03:00

Hostname:    1NNMVV3
OS type:     Linux on x86_64
OS release:  5.15.167.4-microsoft-standard-WSL2
OS version:  #1 SMP Tue Nov 5 00:21:55 UTC 2024


Mutual consistent basic set of units:
===============================================================================

Unit of temperature: 1 [K]
Unit of length:      1e-10 [m]
Unit of time:        1e-12 [s]
Unit of mass:        1.6605402e-27 [kg]
Unit of charge:      1.60217733e-19 [C/particle]


Boltzmann constant (internal units):          0.8314464919307584 [-]
represents conversion from energy (internal units) to temperature (in Kelvin)

Derived units and their conversion factors:
===============================================================================

Unit of energy:                           1.6605402000000002e-23 [J]
Unit of energy:                           10.000008872307538 [J.mol⁻¹]
Unit of velocity:                         100 [m.s⁻¹]
Unit of force:                            1.6605402000000002e-13 [N]
Unit of diffusion:                        1.0000000000000002e-08 [m².s⁻¹]
Unit of acceleration:                     1.0000000000000002e-08 [m².s⁻¹]
Unit of torque:                           1.6605402000000002e-23 [N.m]
Unit of pressure:                         16605402 [Pa]
Unit of volume:                           1e-30 [m³]
Unit of density:                          1660.5402 [kg.m⁻³]
Unit of dynamic viscosity:                1.6605401999999997e-05 [N.s.m⁻²]
Unit of enthalpy:                         1.6605402000000002e-23 [J]
Unit of polarizability:                   1.5458657349975198e-35 [-]
Unit of Coulomb potential:                167101.08000665612 [K]
Unit of dielectric constant:              1.5458657349975193e-05 [s².C².kg⁻¹.m⁻³]
Unit of dipole moment:                    1.60217733e-29 [C.m]
Unit of Debye:                            4.803206799099162 [C.m]
Unit of electric potential:               0.00010364272224473431 [V]
Unit of electric field:                   1036427.222447343 [V.m⁻¹]
Unit of isothermal compressibility:       6.02213665167516e-08 [Pa⁻¹]
Unit of heat capacity:                    10.000008872307538 [J.mol⁻¹.K⁻¹]
Unit of volumetric expansion coefficient: 1 [K⁻¹]


Internal conversion factors:
===============================================================================

Energy (internal units) to Kelvin:      1.202724284692786 [-]
Kelvin to energy (internal units):      0.8314457542157567 [-]


System definitions
===============================================================================

Temperature:          280 [K]
Beta:                 0.004295440062697377 [-]
Pressure:             0 [Pa]
Helium void fraction: 1 [-]

Box:      30.00000   0.00000   0.00000
           0.00000  30.00000   0.00000
           0.00000   0.00000  30.00000
Lengths:  30.00000  30.00000  30.00000
Angles:   90.00000  90.00000  90.00000
Rectangular boundary conditions



Property measurement settings
===============================================================================




Pseudo-atoms
===============================================================================

  0 - C_co2    framework-atom: false
  1 - O_co2    framework-atom: false

  0 - C_co2    mass: 12.00000, charge:  0.70000
  1 - O_co2    mass: 15.99940, charge: -0.35000

  0 - C_co2    polarizability:  0.00000
  1 - O_co2    polarizability:  0.00000

  0 - J. J. Potoff et al., AIChE J. 2001, 47, 1676–1682.
  1 - J. J. Potoff et al., AIChE J. 2001, 47, 1676–1682.

Force field status
===============================================================================

Cutoff Framework-Molecule VDW:  10.00000 [Å]
Cutoff Molecule-Molecule VDW:   10.00000 [Å]
Cutoff Coulomb:                 10.00000 [Å]

Overlap-criteria VDW:           1.000000e+05 [K]

C_co2    - C_co2    Lennard-Jones p₀/kʙ:  27.00000 [K], p₁:  2.80000 [Å]
                                  shift:   0.00000 [K], tailcorrections: true
C_co2    - O_co2    Lennard-Jones p₀/kʙ:  46.18441 [K], p₁:  2.92500 [Å]
                                  shift:   0.00000 [K], tailcorrections: true
O_co2    - O_co2    Lennard-Jones p₀/kʙ:  79.00000 [K], p₁:  3.05000 [Å]
                                  shift:   0.00000 [K], tailcorrections: true

Ewald precision: 1e-06
Ewald alpha: 0.32079885109097883
Ewald k-vectors: 10 10 10


Component definitions
===============================================================================

Component 0 [CO2]

    Type: Adsorbate

    Critical temperature:  304.1282 [K]
    Critical pressure:     7377300 [Pa]
    Acentric factor:       0.22394 [-]

    Mol-fraction:                 1 [-]
    Swappable:                   true

    Mass:                         43.9988 [-]
    Fugacity coefficient:         -nan [-]
    Bulk fluid density:           0 [-]
    Compressibility:              1 [-]
    Excess molecules:             0 [-]

    Number Of Atoms:    3
    CBMC starting bead: 0
      0: O_co2  position  0.00000 -0.00000  1.16000, charge -0.35000
      1: C_co2  position  0.00000 -0.00000  0.00000, charge  0.70000
      2: O_co2  position  0.00000 -0.00000 -1.16000, charge -0.35000
    Diagonalized inertia-vector:      43.05758528 43.05758528 0.00000000
    Translational degrees of freedom: 3
    Rotational degrees of freedom:    2
    Shape of the molecule is: 'Linear'
    Net-charge:        0.00000000 [e]

    Move probabilities:
    Translation:                   0.199203 [-]
    Random translation:            0.000000 [-]
    Rotation:                      0.199203 [-]
    Random rotation:               0.000000 [-]
    Volume change:                 0.000000 [-]
    Reinsertion (CBMC):            0.199203 [-]
    Identity change (CBMC):        0.000000 [-]
    Swap:                          0.000000 [-]
    Swap (CBMC):                   0.000000 [-]
    Swap (CFCMC):                  0.000000 [-]
    Swap (CB/CFCMC):               0.000000 [-]
    Gibbs volume:                  0.003984 [-]
    Gibbs swap (CBMC):             0.398406 [-]
    Gibbs swap (CFCMC):            0.000000 [-]
    Widom:                         0.000000 [-]
    Widom (CFCMC):                 0.000000 [-]
    Widom (CB/CFCMC):              0.000000 [-]
    Parallel tempering:            0.000000 [-]
    Hybrid MC:                     0.000000 [-]

    number of blocking-pockets: 0

    number of bonds: 0





Number of pseudo-atoms
===============================================================================

Component   0 (CO2)
-------------------------------------------------------------------------------
    index   0 (C_co2): 210 atoms
    index   1 (O_co2): 420 atoms

Total number of pseudo-atoms:
-------------------------------------------------------------------------------
    index   0 (C_co2): 210 atoms
    index   1 (O_co2): 420 atoms




Energy status Recomputed from scratch
===============================================================================

Total potential energy/kʙ       -1.066221e+05 [K]
    external field VDW/kʙ        0.000000e+00 [K]
    external field Real/kʙ       0.000000e+00 [K]
    framework-molecule VDW/kʙ    0.000000e+00 [K]
    framework-molecule Real/kʙ   0.000000e+00 [K]
    molecule-molecule VDW/kʙ    -8.040884e+04 [K]
    molecule-molecule Real/kʙ   -1.697198e+04 [K]
    Van der Waals (Tail)/kʙ     -5.240630e+03 [K]
    Ewald Fourier/kʙ             2.651411e+04 [K]
    Ewald self/kʙ               -4.668139e+06 [K]
    Ewald exclusion/kʙ           4.637624e+06 [K]
    intra VDW/kʙ                 0.000000e+00 [K]
    intra Coulombic/kʙ           0.000000e+00 [K]
    polarization/kʙ              0.000000e+00 [K]
    dU/dlambda VDW/kʙ            0.000000e+00 [K]
    dU/dlambda Real/kʙ           0.000000e+00 [K]
    dU/dlambda Ewald/kʙ          0.000000e+00 [K]





Initialization: Current cycle: 0 out of 2000
===============================================================================

Box:      30.48359   0.00000   0.00000
           0.00000  30.48359   0.00000
           0.00000   0.00000  30.48359
Lengths:  30.48359  30.48359  30.48359
Angles:   90.00000  90.00000  90.00000
Rectangular boundary conditions

net charge:   0.00000000

component   0 (CO2) lambda:  0 occupancy:  0 (0.000000)
    net charge:   0.00000000 [e]

Amount of molecules per component :
-------------------------------------------------------------------------------
Component 0 (CO2)
    molecules:         2.010000e+02 molecules
    number density:    7.095739e-03 molec/A^3
    density:           5.184268e+02 kg/m^3

Total potential energy/kʙ       -1.330614e+05 [K]
-------------------------------------------------------------------------------
    external field VDW/kʙ        0.000000e+00 [K]
    external field Real/kʙ       0.000000e+00 [K]
    framework-molecule VDW/kʙ    0.000000e+00 [K]
    framework-molecule Real/kʙ   0.000000e+00 [K]
    molecule-molecule VDW/kʙ    -1.044960e+05 [K]
    molecule-molecule Real/kʙ   -1.870057e+04 [K]
    Van der Waals (Tail)/kʙ     -4.576172e+03 [K]
    Ewald Fourier/kʙ             2.391833e+04 [K]
    Ewald self/kʙ               -4.468076e+06 [K]
    Ewald exclusion/kʙ           4.438869e+06 [K]
    intra VDW/kʙ                 0.000000e+00 [K]
    intra Coulombic/kʙ           0.000000e+00 [K]
    polarization/kʙ              0.000000e+00 [K]
    dU/dlambda VDW/kʙ            0.000000e+00 [K]
    dU/dlambda Real/kʙ           0.000000e+00 [K]
    dU/dlambda Ewald/kʙ          0.000000e+00 [K]


Initialization: Current cycle: 100 out of 2000
===============================================================================

Box:      30.84324   0.00000   0.00000
           0.00000  30.84324   0.00000
           0.00000   0.00000  30.84324
Lengths:  30.84324  30.84324  30.84324
Angles:   90.00000  90.00000  90.00000
Rectangular boundary conditions

net charge:   0.00000000

component   0 (CO2) lambda:  0 occupancy:  0 (0.000000)
    net charge:   0.00000000 [e]

Amount of molecules per component :
-------------------------------------------------------------------------------
Component 0 (CO2)
    molecules:         2.170000e+02 molecules
    number density:    7.395706e-03 molec/A^3
    density:           5.403430e+02 kg/m^3

Total potential energy/kʙ       -1.845586e+05 [K]
-------------------------------------------------------------------------------
    external field VDW/kʙ        0.000000e+00 [K]
    external field Real/kʙ       0.000000e+00 [K]
    framework-molecule VDW/kʙ    0.000000e+00 [K]
    framework-molecule Real/kʙ   0.000000e+00 [K]
    molecule-molecule VDW/kʙ    -1.328434e+05 [K]
    molecule-molecule Real/kʙ   -3.511835e+04 [K]
    Van der Waals (Tail)/kʙ     -5.149299e+03 [K]
    Ewald Fourier/kʙ             2.008442e+04 [K]
    Ewald self/kʙ               -4.823743e+06 [K]
    Ewald exclusion/kʙ           4.792211e+06 [K]
    intra VDW/kʙ                 0.000000e+00 [K]
    intra Coulombic/kʙ           0.000000e+00 [K]
    polarization/kʙ              0.000000e+00 [K]
    dU/dlambda VDW/kʙ            0.000000e+00 [K]
    dU/dlambda Real/kʙ           0.000000e+00 [K]
    dU/dlambda Ewald/kʙ          0.000000e+00 [K]


Initialization: Current cycle: 200 out of 2000
===============================================================================

Box:      30.68020   0.00000   0.00000
           0.00000  30.68020   0.00000
           0.00000   0.00000  30.68020
Lengths:  30.68020  30.68020  30.68020
Angles:   90.00000  90.00000  90.00000
Rectangular boundary conditions

net charge:   0.00000000

component   0 (CO2) lambda:  0 occupancy:  0 (0.000000)
    net charge:   0.00000000 [e]

Amount of molecules per component :
-------------------------------------------------------------------------------
Component 0 (CO2)
    molecules:         2.240000e+02 molecules
    number density:    7.756636e-03 molec/A^3
    density:           5.667131e+02 kg/m^3

Total potential energy/kʙ       -1.880768e+05 [K]
-------------------------------------------------------------------------------
    external field VDW/kʙ        0.000000e+00 [K]
    external field Real/kʙ       0.000000e+00 [K]
    framework-molecule VDW/kʙ    0.000000e+00 [K]
    framework-molecule Real/kʙ   0.000000e+00 [K]
    molecule-molecule VDW/kʙ    -1.343688e+05 [K]
    molecule-molecule Real/kʙ   -3.867073e+04 [K]
    Van der Waals (Tail)/kʙ     -5.574810e+03 [K]
    Ewald Fourier/kʙ             2.308658e+04 [K]
    Ewald self/kʙ               -4.979348e+06 [K]
    Ewald exclusion/kʙ           4.946799e+06 [K]
    intra VDW/kʙ                 0.000000e+00 [K]
    intra Coulombic/kʙ           0.000000e+00 [K]
    polarization/kʙ              0.000000e+00 [K]
    dU/dlambda VDW/kʙ            0.000000e+00 [K]
    dU/dlambda Real/kʙ           0.000000e+00 [K]
    dU/dlambda Ewald/kʙ          0.000000e+00 [K]


Initialization: Current cycle: 300 out of 2000
===============================================================================

Box:      27.74776   0.00000   0.00000
           0.00000  27.74776   0.00000
           0.00000   0.00000  27.74776
Lengths:  27.74776  27.74776  27.74776
Angles:   90.00000  90.00000  90.00000
Rectangular boundary conditions

net charge:   0.00000000

component   0 (CO2) lambda:  0 occupancy:  0 (0.000000)
    net charge:   0.00000000 [e]

Amount of molecules per component :
-------------------------------------------------------------------------------
Component 0 (CO2)
    molecules:         2.200000e+02 molecules
    number density:    1.029767e-02 molec/A^3
    density:           7.523652e+02 kg/m^3

Total potential energy/kʙ       -2.418749e+05 [K]
-------------------------------------------------------------------------------
    external field VDW/kʙ        0.000000e+00 [K]
    external field Real/kʙ       0.000000e+00 [K]
    framework-molecule VDW/kʙ    0.000000e+00 [K]
    framework-molecule Real/kʙ   0.000000e+00 [K]
    molecule-molecule VDW/kʙ    -1.723215e+05 [K]
    molecule-molecule Real/kʙ   -4.953246e+04 [K]
    Van der Waals (Tail)/kʙ     -7.268926e+03 [K]
    Ewald Fourier/kʙ             1.921584e+04 [K]
    Ewald self/kʙ               -4.890431e+06 [K]
    Ewald exclusion/kʙ           4.858463e+06 [K]
    intra VDW/kʙ                 0.000000e+00 [K]
    intra Coulombic/kʙ           0.000000e+00 [K]
    polarization/kʙ              0.000000e+00 [K]
    dU/dlambda VDW/kʙ            0.000000e+00 [K]
    dU/dlambda Real/kʙ           0.000000e+00 [K]
    dU/dlambda Ewald/kʙ          0.000000e+00 [K]


Initialization: Current cycle: 400 out of 2000
===============================================================================

Box:      27.11382   0.00000   0.00000
           0.00000  27.11382   0.00000
           0.00000   0.00000  27.11382
Lengths:  27.11382  27.11382  27.11382
Angles:   90.00000  90.00000  90.00000
Rectangular boundary conditions

net charge:   0.00000000

component   0 (CO2) lambda:  0 occupancy:  0 (0.000000)
    net charge:   0.00000000 [e]

Amount of molecules per component :
-------------------------------------------------------------------------------
Component 0 (CO2)
    molecules:         2.110000e+02 molecules
    number density:    1.058547e-02 molec/A^3
    density:           7.733928e+02 kg/m^3

Total potential energy/kʙ       -2.325615e+05 [K]
-------------------------------------------------------------------------------
    external field VDW/kʙ        0.000000e+00 [K]
    external field Real/kʙ       0.000000e+00 [K]
    framework-molecule VDW/kʙ    0.000000e+00 [K]
    framework-molecule Real/kʙ   0.000000e+00 [K]
    molecule-molecule VDW/kʙ    -1.721605e+05 [K]
    molecule-molecule Real/kʙ   -4.194887e+04 [K]
    Van der Waals (Tail)/kʙ     -7.166406e+03 [K]
    Ewald Fourier/kʙ             1.937435e+04 [K]
    Ewald self/kʙ               -4.690368e+06 [K]
    Ewald exclusion/kʙ           4.659708e+06 [K]
    intra VDW/kʙ                 0.000000e+00 [K]
    intra Coulombic/kʙ           0.000000e+00 [K]
    polarization/kʙ              0.000000e+00 [K]
    dU/dlambda VDW/kʙ            0.000000e+00 [K]
    dU/dlambda Real/kʙ           0.000000e+00 [K]
    dU/dlambda Ewald/kʙ          0.000000e+00 [K]


Initialization: Current cycle: 500 out of 2000
===============================================================================

Box:      26.48718   0.00000   0.00000
           0.00000  26.48718   0.00000
           0.00000   0.00000  26.48718
Lengths:  26.48718  26.48718  26.48718
Angles:   90.00000  90.00000  90.00000
Rectangular boundary conditions

net charge:   0.00000000

component   0 (CO2) lambda:  0 occupancy:  0 (0.000000)
    net charge:   0.00000000 [e]

Amount of molecules per component :
-------------------------------------------------------------------------------
Component 0 (CO2)
    molecules:         2.190000e+02 molecules
    number density:    1.178520e-02 molec/A^3
    density:           8.610465e+02 kg/m^3

Total potential energy/kʙ       -2.532703e+05 [K]
-------------------------------------------------------------------------------
    external field VDW/kʙ        0.000000e+00 [K]
    external field Real/kʙ       0.000000e+00 [K]
    framework-molecule VDW/kʙ    0.000000e+00 [K]
    framework-molecule Real/kʙ   0.000000e+00 [K]
    molecule-molecule VDW/kʙ    -1.806809e+05 [K]
    molecule-molecule Real/kʙ   -5.001236e+04 [K]
    Van der Waals (Tail)/kʙ     -8.281130e+03 [K]
    Ewald Fourier/kʙ             1.752667e+04 [K]
    Ewald self/kʙ               -4.868202e+06 [K]
    Ewald exclusion/kʙ           4.836379e+06 [K]
    intra VDW/kʙ                 0.000000e+00 [K]
    intra Coulombic/kʙ           0.000000e+00 [K]
    polarization/kʙ              0.000000e+00 [K]
    dU/dlambda VDW/kʙ            0.000000e+00 [K]
    dU/dlambda Real/kʙ           0.000000e+00 [K]
    dU/dlambda Ewald/kʙ          0.000000e+00 [K]


Initialization: Current cycle: 600 out of 2000
===============================================================================

Box:      26.28450   0.00000   0.00000
           0.00000  26.28450   0.00000
           0.00000   0.00000  26.28450
Lengths:  26.28450  26.28450  26.28450
Angles:   90.00000  90.00000  90.00000
Rectangular boundary conditions

net charge:   0.00000000

component   0 (CO2) lambda:  0 occupancy:  0 (0.000000)
    net charge:   0.00000000 [e]

Amount of molecules per component :
-------------------------------------------------------------------------------
Component 0 (CO2)
    molecules:         2.040000e+02 molecules
    number density:    1.123391e-02 molec/A^3
    density:           8.207690e+02 kg/m^3

Total potential energy/kʙ       -2.334102e+05 [K]
-------------------------------------------------------------------------------
    external field VDW/kʙ        0.000000e+00 [K]
    external field Real/kʙ       0.000000e+00 [K]
    framework-molecule VDW/kʙ    0.000000e+00 [K]
    framework-molecule Real/kʙ   0.000000e+00 [K]
    molecule-molecule VDW/kʙ    -1.701974e+05 [K]
    molecule-molecule Real/kʙ   -4.305739e+04 [K]
    Van der Waals (Tail)/kʙ     -7.353091e+03 [K]
    Ewald Fourier/kʙ             1.684068e+04 [K]
    Ewald self/kʙ               -4.534763e+06 [K]
    Ewald exclusion/kʙ           4.505120e+06 [K]
    intra VDW/kʙ                 0.000000e+00 [K]
    intra Coulombic/kʙ           0.000000e+00 [K]
    polarization/kʙ              0.000000e+00 [K]
    dU/dlambda VDW/kʙ            0.000000e+00 [K]
    dU/dlambda Real/kʙ           0.000000e+00 [K]
    dU/dlambda Ewald/kʙ          0.000000e+00 [K]


Initialization: Current cycle: 700 out of 2000
===============================================================================

Box:      26.33920   0.00000   0.00000
           0.00000  26.33920   0.00000
           0.00000   0.00000  26.33920
Lengths:  26.33920  26.33920  26.33920
Angles:   90.00000  90.00000  90.00000
Rectangular boundary conditions

net charge:   0.00000000

component   0 (CO2) lambda:  0 occupancy:  0 (0.000000)
    net charge:   0.00000000 [e]

Amount of molecules per component :
-------------------------------------------------------------------------------
Component 0 (CO2)
    molecules:         2.130000e+02 molecules
    number density:    1.165659e-02 molec/A^3
    density:           8.516507e+02 kg/m^3

Total potential energy/kʙ       -2.530957e+05 [K]
-------------------------------------------------------------------------------
    external field VDW/kʙ        0.000000e+00 [K]
    external field Real/kʙ       0.000000e+00 [K]
    framework-molecule VDW/kʙ    0.000000e+00 [K]
    framework-molecule Real/kʙ   0.000000e+00 [K]
    molecule-molecule VDW/kʙ    -1.845353e+05 [K]
    molecule-molecule Real/kʙ   -4.619739e+04 [K]
    Van der Waals (Tail)/kʙ     -7.966360e+03 [K]
    Ewald Fourier/kʙ             1.655410e+04 [K]
    Ewald self/kʙ               -4.734826e+06 [K]
    Ewald exclusion/kʙ           4.703876e+06 [K]
    intra VDW/kʙ                 0.000000e+00 [K]
    intra Coulombic/kʙ           0.000000e+00 [K]
    polarization/kʙ              0.000000e+00 [K]
    dU/dlambda VDW/kʙ            0.000000e+00 [K]
    dU/dlambda Real/kʙ           0.000000e+00 [K]
    dU/dlambda Ewald/kʙ          0.000000e+00 [K]


Initialization: Current cycle: 800 out of 2000
===============================================================================

Box:      25.17645   0.00000   0.00000
           0.00000  25.17645   0.00000
           0.00000   0.00000  25.17645
Lengths:  25.17645  25.17645  25.17645
Angles:   90.00000  90.00000  90.00000
Rectangular boundary conditions

net charge:   0.00000000

component   0 (CO2) lambda:  0 occupancy:  0 (0.000000)
    net charge:   0.00000000 [e]

Amount of molecules per component :
-------------------------------------------------------------------------------
Component 0 (CO2)
    molecules:         2.090000e+02 molecules
    number density:    1.309672e-02 molec/A^3
    density:           9.568689e+02 kg/m^3

Total potential energy/kʙ       -2.712400e+05 [K]
-------------------------------------------------------------------------------
    external field VDW/kʙ        0.000000e+00 [K]
    external field Real/kʙ       0.000000e+00 [K]
    framework-molecule VDW/kʙ    0.000000e+00 [K]
    framework-molecule Real/kʙ   0.000000e+00 [K]
    molecule-molecule VDW/kʙ    -1.997642e+05 [K]
    molecule-molecule Real/kʙ   -4.965779e+04 [K]
    Van der Waals (Tail)/kʙ     -8.782488e+03 [K]
    Ewald Fourier/kʙ             1.733394e+04 [K]
    Ewald self/kʙ               -4.645910e+06 [K]
    Ewald exclusion/kʙ           4.615540e+06 [K]
    intra VDW/kʙ                 0.000000e+00 [K]
    intra Coulombic/kʙ           0.000000e+00 [K]
    polarization/kʙ              0.000000e+00 [K]
    dU/dlambda VDW/kʙ            0.000000e+00 [K]
    dU/dlambda Real/kʙ           0.000000e+00 [K]
    dU/dlambda Ewald/kʙ          0.000000e+00 [K]


Initialization: Current cycle: 900 out of 2000
===============================================================================

Box:      25.56163   0.00000   0.00000
           0.00000  25.56163   0.00000
           0.00000   0.00000  25.56163
Lengths:  25.56163  25.56163  25.56163
Angles:   90.00000  90.00000  90.00000
Rectangular boundary conditions

net charge:   0.00000000

component   0 (CO2) lambda:  0 occupancy:  0 (0.000000)
    net charge:   0.00000000 [e]

Amount of molecules per component :
-------------------------------------------------------------------------------
Component 0 (CO2)
    molecules:         2.000000e+02 molecules
    number density:    1.197469e-02 molec/A^3
    density:           8.748916e+02 kg/m^3

Total potential energy/kʙ       -2.427966e+05 [K]
-------------------------------------------------------------------------------
    external field VDW/kʙ        0.000000e+00 [K]
    external field Real/kʙ       0.000000e+00 [K]
    framework-molecule VDW/kʙ    0.000000e+00 [K]
    framework-molecule Real/kʙ   0.000000e+00 [K]
    molecule-molecule VDW/kʙ    -1.719613e+05 [K]
    molecule-molecule Real/kʙ   -5.012840e+04 [K]
    Van der Waals (Tail)/kʙ     -7.684278e+03 [K]
    Ewald Fourier/kʙ             1.603915e+04 [K]
    Ewald self/kʙ               -4.445846e+06 [K]
    Ewald exclusion/kʙ           4.416785e+06 [K]
    intra VDW/kʙ                 0.000000e+00 [K]
    intra Coulombic/kʙ           0.000000e+00 [K]
    polarization/kʙ              0.000000e+00 [K]
    dU/dlambda VDW/kʙ            0.000000e+00 [K]
    dU/dlambda Real/kʙ           0.000000e+00 [K]
    dU/dlambda Ewald/kʙ          0.000000e+00 [K]


Initialization: Current cycle: 1000 out of 2000
===============================================================================

Box:      25.40818   0.00000   0.00000
           0.00000  25.40818   0.00000
           0.00000   0.00000  25.40818
Lengths:  25.40818  25.40818  25.40818
Angles:   90.00000  90.00000  90.00000
Rectangular boundary conditions

net charge:   0.00000000

component   0 (CO2) lambda:  0 occupancy:  0 (0.000000)
    net charge:   0.00000000 [e]

Amount of molecules per component :
-------------------------------------------------------------------------------
Component 0 (CO2)
    molecules:         2.000000e+02 molecules
    number density:    1.219296e-02 molec/A^3
    density:           8.908385e+02 kg/m^3

Total potential energy/kʙ       -2.506450e+05 [K]
-------------------------------------------------------------------------------
    external field VDW/kʙ        0.000000e+00 [K]
    external field Real/kʙ       0.000000e+00 [K]
    framework-molecule VDW/kʙ    0.000000e+00 [K]
    framework-molecule Real/kʙ   0.000000e+00 [K]
    molecule-molecule VDW/kʙ    -1.788164e+05 [K]
    molecule-molecule Real/kʙ   -4.979775e+04 [K]
    Van der Waals (Tail)/kʙ     -7.824342e+03 [K]
    Ewald Fourier/kʙ             1.485522e+04 [K]
    Ewald self/kʙ               -4.445846e+06 [K]
    Ewald exclusion/kʙ           4.416785e+06 [K]
    intra VDW/kʙ                 0.000000e+00 [K]
    intra Coulombic/kʙ           0.000000e+00 [K]
    polarization/kʙ              0.000000e+00 [K]
    dU/dlambda VDW/kʙ            0.000000e+00 [K]
    dU/dlambda Real/kʙ           0.000000e+00 [K]
    dU/dlambda Ewald/kʙ          0.000000e+00 [K]


Initialization: Current cycle: 1100 out of 2000
===============================================================================

Box:      26.26238   0.00000   0.00000
           0.00000  26.26238   0.00000
           0.00000   0.00000  26.26238
Lengths:  26.26238  26.26238  26.26238
Angles:   90.00000  90.00000  90.00000
Rectangular boundary conditions

net charge:   0.00000000

component   0 (CO2) lambda:  0 occupancy:  0 (0.000000)
    net charge:   0.00000000 [e]

Amount of molecules per component :
-------------------------------------------------------------------------------
Component 0 (CO2)
    molecules:         2.160000e+02 molecules
    number density:    1.192481e-02 molec/A^3
    density:           8.712474e+02 kg/m^3

Total potential energy/kʙ       -2.615615e+05 [K]
-------------------------------------------------------------------------------
    external field VDW/kʙ        0.000000e+00 [K]
    external field Real/kʙ       0.000000e+00 [K]
    framework-molecule VDW/kʙ    0.000000e+00 [K]
    framework-molecule Real/kʙ   0.000000e+00 [K]
    molecule-molecule VDW/kʙ    -1.934640e+05 [K]
    molecule-molecule Real/kʙ   -4.565752e+04 [K]
    Van der Waals (Tail)/kʙ     -8.264452e+03 [K]
    Ewald Fourier/kʙ             1.721108e+04 [K]
    Ewald self/kʙ               -4.801514e+06 [K]
    Ewald exclusion/kʙ           4.770128e+06 [K]
    intra VDW/kʙ                 0.000000e+00 [K]
    intra Coulombic/kʙ           0.000000e+00 [K]
    polarization/kʙ              0.000000e+00 [K]
    dU/dlambda VDW/kʙ            0.000000e+00 [K]
    dU/dlambda Real/kʙ           0.000000e+00 [K]
    dU/dlambda Ewald/kʙ          0.000000e+00 [K]


Initialization: Current cycle: 1200 out of 2000
===============================================================================

Box:      25.93885   0.00000   0.00000
           0.00000  25.93885   0.00000
           0.00000   0.00000  25.93885
Lengths:  25.93885  25.93885  25.93885
Angles:   90.00000  90.00000  90.00000
Rectangular boundary conditions

net charge:   0.00000000

component   0 (CO2) lambda:  0 occupancy:  0 (0.000000)
    net charge:   0.00000000 [e]

Amount of molecules per component :
-------------------------------------------------------------------------------
Component 0 (CO2)
    molecules:         2.020000e+02 molecules
    number density:    1.157441e-02 molec/A^3
    density:           8.456466e+02 kg/m^3

Total potential energy/kʙ       -2.378018e+05 [K]
-------------------------------------------------------------------------------
    external field VDW/kʙ        0.000000e+00 [K]
    external field Real/kʙ       0.000000e+00 [K]
    framework-molecule VDW/kʙ    0.000000e+00 [K]
    framework-molecule Real/kʙ   0.000000e+00 [K]
    molecule-molecule VDW/kʙ    -1.761733e+05 [K]
    molecule-molecule Real/kʙ   -4.103605e+04 [K]
    Van der Waals (Tail)/kʙ     -7.501690e+03 [K]
    Ewald Fourier/kʙ             1.626157e+04 [K]
    Ewald self/kʙ               -4.490305e+06 [K]
    Ewald exclusion/kʙ           4.460953e+06 [K]
    intra VDW/kʙ                 0.000000e+00 [K]
    intra Coulombic/kʙ           0.000000e+00 [K]
    polarization/kʙ              0.000000e+00 [K]
    dU/dlambda VDW/kʙ            0.000000e+00 [K]
    dU/dlambda Real/kʙ           0.000000e+00 [K]
    dU/dlambda Ewald/kʙ          0.000000e+00 [K]


Initialization: Current cycle: 1300 out of 2000
===============================================================================

Box:      25.81290   0.00000   0.00000
           0.00000  25.81290   0.00000
           0.00000   0.00000  25.81290
Lengths:  25.81290  25.81290  25.81290
Angles:   90.00000  90.00000  90.00000
Rectangular boundary conditions

net charge:   0.00000000

component   0 (CO2) lambda:  0 occupancy:  0 (0.000000)
    net charge:   0.00000000 [e]

Amount of molecules per component :
-------------------------------------------------------------------------------
Component 0 (CO2)
    molecules:         2.080000e+02 molecules
    number density:    1.209352e-02 molec/A^3
    density:           8.835736e+02 kg/m^3

Total potential energy/kʙ       -2.556360e+05 [K]
-------------------------------------------------------------------------------
    external field VDW/kʙ        0.000000e+00 [K]
    external field Real/kʙ       0.000000e+00 [K]
    framework-molecule VDW/kʙ    0.000000e+00 [K]
    framework-molecule Real/kʙ   0.000000e+00 [K]
    molecule-molecule VDW/kʙ    -1.790819e+05 [K]
    molecule-molecule Real/kʙ   -5.383773e+04 [K]
    Van der Waals (Tail)/kʙ     -8.070954e+03 [K]
    Ewald Fourier/kʙ             1.557869e+04 [K]
    Ewald self/kʙ               -4.623680e+06 [K]
    Ewald exclusion/kʙ           4.593456e+06 [K]
    intra VDW/kʙ                 0.000000e+00 [K]
    intra Coulombic/kʙ           0.000000e+00 [K]
    polarization/kʙ              0.000000e+00 [K]
    dU/dlambda VDW/kʙ            0.000000e+00 [K]
    dU/dlambda Real/kʙ           0.000000e+00 [K]
    dU/dlambda Ewald/kʙ          0.000000e+00 [K]


Initialization: Current cycle: 1400 out of 2000
===============================================================================

Box:      26.20152   0.00000   0.00000
           0.00000  26.20152   0.00000
           0.00000   0.00000  26.20152
Lengths:  26.20152  26.20152  26.20152
Angles:   90.00000  90.00000  90.00000
Rectangular boundary conditions

net charge:   0.00000000

component   0 (CO2) lambda:  0 occupancy:  0 (0.000000)
    net charge:   0.00000000 [e]

Amount of molecules per component :
-------------------------------------------------------------------------------
Component 0 (CO2)
    molecules:         2.160000e+02 molecules
    number density:    1.200810e-02 molec/A^3
    density:           8.773320e+02 kg/m^3

Total potential energy/kʙ       -2.529133e+05 [K]
-------------------------------------------------------------------------------
    external field VDW/kʙ        0.000000e+00 [K]
    external field Real/kʙ       0.000000e+00 [K]
    framework-molecule VDW/kʙ    0.000000e+00 [K]
    framework-molecule Real/kʙ   0.000000e+00 [K]
    molecule-molecule VDW/kʙ    -1.875640e+05 [K]
    molecule-molecule Real/kʙ   -4.460246e+04 [K]
    Van der Waals (Tail)/kʙ     -8.322170e+03 [K]
    Ewald Fourier/kʙ             1.896191e+04 [K]
    Ewald self/kʙ               -4.801514e+06 [K]
    Ewald exclusion/kʙ           4.770128e+06 [K]
    intra VDW/kʙ                 0.000000e+00 [K]
    intra Coulombic/kʙ           0.000000e+00 [K]
    polarization/kʙ              0.000000e+00 [K]
    dU/dlambda VDW/kʙ            0.000000e+00 [K]
    dU/dlambda Real/kʙ           0.000000e+00 [K]
    dU/dlambda Ewald/kʙ          0.000000e+00 [K]


Initialization: Current cycle: 1500 out of 2000
===============================================================================

Box:      26.33693   0.00000   0.00000
           0.00000  26.33693   0.00000
           0.00000   0.00000  26.33693
Lengths:  26.33693  26.33693  26.33693
Angles:   90.00000  90.00000  90.00000
Rectangular boundary conditions

net charge:   0.00000000

component   0 (CO2) lambda:  0 occupancy:  0 (0.000000)
    net charge:   0.00000000 [e]

Amount of molecules per component :
-------------------------------------------------------------------------------
Component 0 (CO2)
    molecules:         2.110000e+02 molecules
    number density:    1.155013e-02 molec/A^3
    density:           8.438725e+02 kg/m^3

Total potential energy/kʙ       -2.515931e+05 [K]
-------------------------------------------------------------------------------
    external field VDW/kʙ        0.000000e+00 [K]
    external field Real/kʙ       0.000000e+00 [K]
    framework-molecule VDW/kʙ    0.000000e+00 [K]
    framework-molecule Real/kʙ   0.000000e+00 [K]
    molecule-molecule VDW/kʙ    -1.805118e+05 [K]
    molecule-molecule Real/kʙ   -4.932068e+04 [K]
    Van der Waals (Tail)/kʙ     -7.819484e+03 [K]
    Ewald Fourier/kʙ             1.671898e+04 [K]
    Ewald self/kʙ               -4.690368e+06 [K]
    Ewald exclusion/kʙ           4.659708e+06 [K]
    intra VDW/kʙ                 0.000000e+00 [K]
    intra Coulombic/kʙ           0.000000e+00 [K]
    polarization/kʙ              0.000000e+00 [K]
    dU/dlambda VDW/kʙ            0.000000e+00 [K]
    dU/dlambda Real/kʙ           0.000000e+00 [K]
    dU/dlambda Ewald/kʙ          0.000000e+00 [K]


Initialization: Current cycle: 1600 out of 2000
===============================================================================

Box:      26.72728   0.00000   0.00000
           0.00000  26.72728   0.00000
           0.00000   0.00000  26.72728
Lengths:  26.72728  26.72728  26.72728
Angles:   90.00000  90.00000  90.00000
Rectangular boundary conditions

net charge:   0.00000000

component   0 (CO2) lambda:  0 occupancy:  0 (0.000000)
    net charge:   0.00000000 [e]

Amount of molecules per component :
-------------------------------------------------------------------------------
Component 0 (CO2)
    molecules:         2.150000e+02 molecules
    number density:    1.126093e-02 molec/A^3
    density:           8.227425e+02 kg/m^3

Total potential energy/kʙ       -2.494102e+05 [K]
-------------------------------------------------------------------------------
    external field VDW/kʙ        0.000000e+00 [K]
    external field Real/kʙ       0.000000e+00 [K]
    framework-molecule VDW/kʙ    0.000000e+00 [K]
    framework-molecule Real/kʙ   0.000000e+00 [K]
    molecule-molecule VDW/kʙ    -1.810136e+05 [K]
    molecule-molecule Real/kʙ   -4.721092e+04 [K]
    Van der Waals (Tail)/kʙ     -7.768215e+03 [K]
    Ewald Fourier/kʙ             1.782392e+04 [K]
    Ewald self/kʙ               -4.779285e+06 [K]
    Ewald exclusion/kʙ           4.748044e+06 [K]
    intra VDW/kʙ                 0.000000e+00 [K]
    intra Coulombic/kʙ           0.000000e+00 [K]
    polarization/kʙ              0.000000e+00 [K]
    dU/dlambda VDW/kʙ            0.000000e+00 [K]
    dU/dlambda Real/kʙ           0.000000e+00 [K]
    dU/dlambda Ewald/kʙ          0.000000e+00 [K]


Initialization: Current cycle: 1700 out of 2000
===============================================================================

Box:      25.71027   0.00000   0.00000
           0.00000  25.71027   0.00000
           0.00000   0.00000  25.71027
Lengths:  25.71027  25.71027  25.71027
Angles:   90.00000  90.00000  90.00000
Rectangular boundary conditions

net charge:   0.00000000

component   0 (CO2) lambda:  0 occupancy:  0 (0.000000)
    net charge:   0.00000000 [e]

Amount of molecules per component :
-------------------------------------------------------------------------------
Component 0 (CO2)
    molecules:         1.980000e+02 molecules
    number density:    1.165052e-02 molec/A^3
    density:           8.512072e+02 kg/m^3

Total potential energy/kʙ       -2.249873e+05 [K]
-------------------------------------------------------------------------------
    external field VDW/kʙ        0.000000e+00 [K]
    external field Real/kʙ       0.000000e+00 [K]
    framework-molecule VDW/kʙ    0.000000e+00 [K]
    framework-molecule Real/kʙ   0.000000e+00 [K]
    molecule-molecule VDW/kʙ    -1.664367e+05 [K]
    molecule-molecule Real/kʙ   -3.917341e+04 [K]
    Van der Waals (Tail)/kʙ     -7.401493e+03 [K]
    Ewald Fourier/kʙ             1.679535e+04 [K]
    Ewald self/kʙ               -4.401388e+06 [K]
    Ewald exclusion/kʙ           4.372617e+06 [K]
    intra VDW/kʙ                 0.000000e+00 [K]
    intra Coulombic/kʙ           0.000000e+00 [K]
    polarization/kʙ              0.000000e+00 [K]
    dU/dlambda VDW/kʙ            0.000000e+00 [K]
    dU/dlambda Real/kʙ           0.000000e+00 [K]
    dU/dlambda Ewald/kʙ          0.000000e+00 [K]


Initialization: Current cycle: 1800 out of 2000
===============================================================================

Box:      25.95800   0.00000   0.00000
           0.00000  25.95800   0.00000
           0.00000   0.00000  25.95800
Lengths:  25.95800  25.95800  25.95800
Angles:   90.00000  90.00000  90.00000
Rectangular boundary conditions

net charge:   0.00000000

component   0 (CO2) lambda:  0 occupancy:  0 (0.000000)
    net charge:   0.00000000 [e]

Amount of molecules per component :
-------------------------------------------------------------------------------
Component 0 (CO2)
    molecules:         2.010000e+02 molecules
    number density:    1.149165e-02 molec/A^3
    density:           8.395997e+02 kg/m^3

Total potential energy/kʙ       -2.312690e+05 [K]
-------------------------------------------------------------------------------
    external field VDW/kʙ        0.000000e+00 [K]
    external field Real/kʙ       0.000000e+00 [K]
    framework-molecule VDW/kʙ    0.000000e+00 [K]
    framework-molecule Real/kʙ   0.000000e+00 [K]
    molecule-molecule VDW/kʙ    -1.681988e+05 [K]
    molecule-molecule Real/kʙ   -4.396873e+04 [K]
    Van der Waals (Tail)/kʙ     -7.411177e+03 [K]
    Ewald Fourier/kʙ             1.751666e+04 [K]
    Ewald self/kʙ               -4.468076e+06 [K]
    Ewald exclusion/kʙ           4.438869e+06 [K]
    intra VDW/kʙ                 0.000000e+00 [K]
    intra Coulombic/kʙ           0.000000e+00 [K]
    polarization/kʙ              0.000000e+00 [K]
    dU/dlambda VDW/kʙ            0.000000e+00 [K]
    dU/dlambda Real/kʙ           0.000000e+00 [K]
    dU/dlambda Ewald/kʙ          0.000000e+00 [K]


Initialization: Current cycle: 1900 out of 2000
===============================================================================

Box:      26.07507   0.00000   0.00000
           0.00000  26.07507   0.00000
           0.00000   0.00000  26.07507
Lengths:  26.07507  26.07507  26.07507
Angles:   90.00000  90.00000  90.00000
Rectangular boundary conditions

net charge:   0.00000000

component   0 (CO2) lambda:  0 occupancy:  0 (0.000000)
    net charge:   0.00000000 [e]

Amount of molecules per component :
-------------------------------------------------------------------------------
Component 0 (CO2)
    molecules:         2.050000e+02 molecules
    number density:    1.156319e-02 molec/A^3
    density:           8.448263e+02 kg/m^3

Total potential energy/kʙ       -2.445723e+05 [K]
-------------------------------------------------------------------------------
    external field VDW/kʙ        0.000000e+00 [K]
    external field Real/kʙ       0.000000e+00 [K]
    framework-molecule VDW/kʙ    0.000000e+00 [K]
    framework-molecule Real/kʙ   0.000000e+00 [K]
    molecule-molecule VDW/kʙ    -1.776282e+05 [K]
    molecule-molecule Real/kʙ   -4.646701e+04 [K]
    Van der Waals (Tail)/kʙ     -7.605717e+03 [K]
    Ewald Fourier/kʙ             1.691681e+04 [K]
    Ewald self/kʙ               -4.556993e+06 [K]
    Ewald exclusion/kʙ           4.527204e+06 [K]
    intra VDW/kʙ                 0.000000e+00 [K]
    intra Coulombic/kʙ           0.000000e+00 [K]
    polarization/kʙ              0.000000e+00 [K]
    dU/dlambda VDW/kʙ            0.000000e+00 [K]
    dU/dlambda Real/kʙ           0.000000e+00 [K]
    dU/dlambda Ewald/kʙ          0.000000e+00 [K]


Current cycle: 0 out of 6000
===============================================================================

Box:      25.35946   0.00000   0.00000  Average:  25.35946   0.00000   0.00000
           0.00000  25.35946   0.00000             0.00000  25.35946   0.00000
           0.00000   0.00000  25.35946             0.00000   0.00000  25.35946
Lengths:  25.35946  25.35946  25.35946  Average:  25.35946  25.35946  25.35946
Angles:   90.00000  90.00000  90.00000  Average:  90.00000  90.00000  90.00000
Rectangular boundary conditions

net charge:   0.00000000

component 0 (CO2) lambda:  0 occupancy:  0 (0.000000)
    net charge:   0.00000000 [e]

Amount of molecules per component :
-------------------------------------------------------------------------------
Component 0 (CO2)
    molecules:      2.020000e+02 molecules  (2.020000e+02 +/- 0.000000e+00)
    number density: 1.238601e-02 molec./A^3 (1.238601e-02 +/- 0.000000e+00)
    density:        9.049431e+02 kg/m^3     (9.049431e+02 +/- 0.000000e+00)

Average pressure tensor: 
-------------------------------------------------------------------------------
 4.7882e+02  0.0000e+00  0.0000e+00 +/- 0.0000e+00 0.0000e+00 0.0000e+00 [bar]
 0.0000e+00  4.7882e+02  0.0000e+00 +/- 0.0000e+00 0.0000e+00 0.0000e+00 [bar]
 0.0000e+00  0.0000e+00  4.7882e+02 +/- 0.0000e+00 0.0000e+00 0.0000e+00 [bar]
Ideal-gas pressure:   4.788210e+02 +/ 0.000000e+00 [bar]
Excess pressure:      0.000000e+00 +/ 0.000000e+00 [bar]
Pressure:             4.788210e+02 +/ 0.000000e+00 [bar]

Total potential energy/kʙ  -2.639190e+05 (-2.639190e+05 +/- 0.000000e+00) [K]
-------------------------------------------------------------------------------
ExternalField-molecule
    Van der Waals/kʙ        0.000000e+00 ( 0.000000e+00 +/- 0.000000e+00) [K]
Framework-molecule
    Van der Waals/kʙ        0.000000e+00 ( 0.000000e+00 +/- 0.000000e+00) [K]
    Van der Waals (Tail)/kʙ 0.000000e+00 ( 0.000000e+00 +/- 0.000000e+00) [K]
    Coulombic Real/kʙ       0.000000e+00 ( 0.000000e+00 +/- 0.000000e+00) [K]
    Coulombic Fourier/kʙ    0.000000e+00 ( 0.000000e+00 +/- 0.000000e+00) [K]
Molecule-molecule
    Van der Waals/kʙ       -1.917966e+05 (-1.917966e+05 +/- 0.000000e+00) [K]
    Van der Waals (Tail)/kʙ-8.027707e+03 (-8.027707e+03 +/- 0.000000e+00) [K]
    Coulombic Real/kʙ      -5.013246e+04 (-5.013246e+04 +/- 0.000000e+00) [K]
    Coulombic Fourier/kʙ   -1.396226e+04 (-1.396226e+04 +/- 0.000000e+00) [K]
    Molecule Intra/kʙ       0.000000e+00 ( 0.000000e+00 +/- 0.000000e+00) [K]

Current cycle: 100 out of 6000
===============================================================================

Box:      25.12197   0.00000   0.00000  Average:  25.19015   0.00000   0.00000
           0.00000  25.12197   0.00000             0.00000  25.19015   0.00000
           0.00000   0.00000  25.12197             0.00000   0.00000  25.19015
Lengths:  25.12197  25.12197  25.12197  Average:  25.19015  25.19015  25.19015
Angles:   90.00000  90.00000  90.00000  Average:  90.00000  90.00000  90.00000
Rectangular boundary conditions

net charge:   0.00000000

component 0 (CO2) lambda:  0 occupancy:  0 (0.000000)
    net charge:   0.00000000 [e]

Amount of molecules per component :
-------------------------------------------------------------------------------
Component 0 (CO2)
    molecules:      1.870000e+02 molecules  (1.980594e+02 +/- 0.000000e+00)
    number density: 1.179452e-02 molec./A^3 (1.238777e-02 +/- 0.000000e+00)
    density:        8.617282e+02 kg/m^3     (9.050719e+02 +/- 0.000000e+00)

Average pressure tensor: 
-------------------------------------------------------------------------------
-9.7941e+01 -1.0324e+02  3.0478e+01 +/- 0.0000e+00 0.0000e+00 0.0000e+00 [bar]
-1.0324e+02 -3.3362e+01 -6.5321e+01 +/- 0.0000e+00 0.0000e+00 0.0000e+00 [bar]
 3.0478e+01 -6.5321e+01 -5.4062e+01 +/- 0.0000e+00 0.0000e+00 0.0000e+00 [bar]
Ideal-gas pressure:   4.788891e+02 +/ 0.000000e+00 [bar]
Excess pressure:     -5.406776e+02 +/ 0.000000e+00 [bar]
Pressure:            -6.178845e+01 +/ 0.000000e+00 [bar]

Total potential energy/kʙ  -2.318396e+05 (-2.543785e+05 +/- 0.000000e+00) [K]
-------------------------------------------------------------------------------
ExternalField-molecule
    Van der Waals/kʙ        0.000000e+00 ( 0.000000e+00 +/- 0.000000e+00) [K]
Framework-molecule
    Van der Waals/kʙ        0.000000e+00 ( 0.000000e+00 +/- 0.000000e+00) [K]
    Van der Waals (Tail)/kʙ 0.000000e+00 ( 0.000000e+00 +/- 0.000000e+00) [K]
    Coulombic Real/kʙ       0.000000e+00 ( 0.000000e+00 +/- 0.000000e+00) [K]
    Coulombic Fourier/kʙ    0.000000e+00 ( 0.000000e+00 +/- 0.000000e+00) [K]
Molecule-molecule
    Van der Waals/kʙ       -1.640149e+05 (-1.845758e+05 +/- 0.000000e+00) [K]
    Van der Waals (Tail)/kʙ-7.076699e+03 (-7.961011e+03 +/- 0.000000e+00) [K]
    Coulombic Real/kʙ      -4.833073e+04 (-4.851309e+04 +/- 0.000000e+00) [K]
    Coulombic Fourier/kʙ   -1.241726e+04 (-1.332858e+04 +/- 0.000000e+00) [K]
    Molecule Intra/kʙ       0.000000e+00 ( 0.000000e+00 +/- 0.000000e+00) [K]

Current cycle: 200 out of 6000
===============================================================================

Box:      24.02223   0.00000   0.00000  Average:  24.96926   0.00000   0.00000
           0.00000  24.02223   0.00000             0.00000  24.96926   0.00000
           0.00000   0.00000  24.02223             0.00000   0.00000  24.96926
Lengths:  24.02223  24.02223  24.02223  Average:  24.96926  24.96926  24.96926
Angles:   90.00000  90.00000  90.00000  Average:  90.00000  90.00000  90.00000
Rectangular boundary conditions

net charge:   0.00000000

component 0 (CO2) lambda:  0 occupancy:  0 (0.000000)
    net charge:   0.00000000 [e]

Amount of molecules per component :
-------------------------------------------------------------------------------
Component 0 (CO2)
    molecules:      1.930000e+02 molecules  (1.971841e+02 +/- 0.000000e+00)
    number density: 1.392251e-02 molec./A^3 (1.267313e-02 +/- 0.000000e+00)
    density:        1.017202e+03 kg/m^3     (9.259205e+02 +/- 0.000000e+00)

Average pressure tensor: 
-------------------------------------------------------------------------------
-8.5783e+01 -7.8267e+01  1.1628e+02 +/- 0.0000e+00 0.0000e+00 0.0000e+00 [bar]
-7.8267e+01  2.9217e+01 -1.5077e+01 +/- 0.0000e+00 0.0000e+00 0.0000e+00 [bar]
 1.1628e+02 -1.5077e+01 -1.4701e+02 +/- 0.0000e+00 0.0000e+00 0.0000e+00 [bar]
Ideal-gas pressure:   4.899205e+02 +/ 0.000000e+00 [bar]
Excess pressure:     -5.577802e+02 +/ 0.000000e+00 [bar]
Pressure:            -6.785970e+01 +/ 0.000000e+00 [bar]

Total potential energy/kʙ  -2.729108e+05 (-2.596068e+05 +/- 0.000000e+00) [K]
-------------------------------------------------------------------------------
ExternalField-molecule
    Van der Waals/kʙ        0.000000e+00 ( 0.000000e+00 +/- 0.000000e+00) [K]
Framework-molecule
    Van der Waals/kʙ        0.000000e+00 ( 0.000000e+00 +/- 0.000000e+00) [K]
    Van der Waals (Tail)/kʙ 0.000000e+00 ( 0.000000e+00 +/- 0.000000e+00) [K]
    Coulombic Real/kʙ       0.000000e+00 ( 0.000000e+00 +/- 0.000000e+00) [K]
    Coulombic Fourier/kʙ    0.000000e+00 ( 0.000000e+00 +/- 0.000000e+00) [K]
Molecule-molecule
    Van der Waals/kʙ       -1.951259e+05 (-1.891158e+05 +/- 0.000000e+00) [K]
    Van der Waals (Tail)/kʙ-8.621511e+03 (-8.098408e+03 +/- 0.000000e+00) [K]
    Coulombic Real/kʙ      -5.712446e+04 (-4.932554e+04 +/- 0.000000e+00) [K]
    Coulombic Fourier/kʙ   -1.203898e+04 (-1.306707e+04 +/- 0.000000e+00) [K]
    Molecule Intra/kʙ       0.000000e+00 ( 0.000000e+00 +/- 0.000000e+00) [K]

Current cycle: 300 out of 6000
===============================================================================

Box:      24.92975   0.00000   0.00000  Average:  24.78562   0.00000   0.00000
           0.00000  24.92975   0.00000             0.00000  24.78562   0.00000
           0.00000   0.00000  24.92975             0.00000   0.00000  24.78562
Lengths:  24.92975  24.92975  24.92975  Average:  24.78562  24.78562  24.78562
Angles:   90.00000  90.00000  90.00000  Average:  90.00000  90.00000  90.00000
Rectangular boundary conditions

net charge:   0.00000000

component 0 (CO2) lambda:  0 occupancy:  0 (0.000000)
    net charge:   0.00000000 [e]

Amount of molecules per component :
-------------------------------------------------------------------------------
Component 0 (CO2)
    molecules:      1.890000e+02 molecules  (1.947375e+02 +/- 0.000000e+00)
    number density: 1.219855e-02 molec./A^3 (1.279767e-02 +/- 0.000000e+00)
    density:        8.912470e+02 kg/m^3     (9.350198e+02 +/- 0.000000e+00)

Average pressure tensor: 
-------------------------------------------------------------------------------
-2.6838e+00 -4.1020e+01  1.4124e+02 +/- 0.0000e+00 0.0000e+00 0.0000e+00 [bar]
-4.1020e+01  8.5035e+01 -1.8299e+01 +/- 0.0000e+00 0.0000e+00 0.0000e+00 [bar]
 1.4124e+02 -1.8299e+01 -1.0650e+02 +/- 0.0000e+00 0.0000e+00 0.0000e+00 [bar]
Ideal-gas pressure:   4.947351e+02 +/ 0.000000e+00 [bar]
Excess pressure:     -5.027842e+02 +/ 0.000000e+00 [bar]
Pressure:            -8.049171e+00 +/ 0.000000e+00 [bar]

Total potential energy/kʙ  -2.361072e+05 (-2.580068e+05 +/- 0.000000e+00) [K]
-------------------------------------------------------------------------------
ExternalField-molecule
    Van der Waals/kʙ        0.000000e+00 ( 0.000000e+00 +/- 0.000000e+00) [K]
Framework-molecule
    Van der Waals/kʙ        0.000000e+00 ( 0.000000e+00 +/- 0.000000e+00) [K]
    Van der Waals (Tail)/kʙ 0.000000e+00 ( 0.000000e+00 +/- 0.000000e+00) [K]
    Coulombic Real/kʙ       0.000000e+00 ( 0.000000e+00 +/- 0.000000e+00) [K]
    Coulombic Fourier/kʙ    0.000000e+00 ( 0.000000e+00 +/- 0.000000e+00) [K]
Molecule-molecule
    Van der Waals/kʙ       -1.725752e+05 (-1.875221e+05 +/- 0.000000e+00) [K]
    Van der Waals (Tail)/kʙ-7.397393e+03 (-8.046917e+03 +/- 0.000000e+00) [K]
    Coulombic Real/kʙ      -4.421978e+04 (-4.935162e+04 +/- 0.000000e+00) [K]
    Coulombic Fourier/kʙ   -1.191485e+04 (-1.308613e+04 +/- 0.000000e+00) [K]
    Molecule Intra/kʙ       0.000000e+00 ( 0.000000e+00 +/- 0.000000e+00) [K]

Current cycle: 400 out of 6000
===============================================================================

Box:      25.04722   0.00000   0.00000  Average:  24.85077   0.00000   0.00000
           0.00000  25.04722   0.00000             0.00000  24.85077   0.00000
           0.00000   0.00000  25.04722             0.00000   0.00000  24.85077
Lengths:  25.04722  25.04722  25.04722  Average:  24.85077  24.85077  24.85077
Angles:   90.00000  90.00000  90.00000  Average:  90.00000  90.00000  90.00000
Rectangular boundary conditions

net charge:   0.00000000

component 0 (CO2) lambda:  0 occupancy:  0 (0.000000)
    net charge:   0.00000000 [e]

Amount of molecules per component :
-------------------------------------------------------------------------------
Component 0 (CO2)
    molecules:      1.990000e+02 molecules  (1.940623e+02 +/- 0.000000e+00)
    number density: 1.266411e-02 molec./A^3 (1.265354e-02 +/- 0.000000e+00)
    density:        9.252615e+02 kg/m^3     (9.244895e+02 +/- 0.000000e+00)

Average pressure tensor: 
-------------------------------------------------------------------------------
-3.4927e+01 -5.7213e+01  8.4859e+01 +/- 0.0000e+00 0.0000e+00 0.0000e+00 [bar]
-5.7213e+01  6.5594e+01  1.8593e+01 +/- 0.0000e+00 0.0000e+00 0.0000e+00 [bar]
 8.4859e+01  1.8593e+01 -1.2776e+02 +/- 0.0000e+00 0.0000e+00 0.0000e+00 [bar]
Ideal-gas pressure:   4.891633e+02 +/ 0.000000e+00 [bar]
Excess pressure:     -5.215272e+02 +/ 0.000000e+00 [bar]
Pressure:            -3.236385e+01 +/ 0.000000e+00 [bar]

Total potential energy/kʙ  -2.517654e+05 (-2.538880e+05 +/- 0.000000e+00) [K]
-------------------------------------------------------------------------------
ExternalField-molecule
    Van der Waals/kʙ        0.000000e+00 ( 0.000000e+00 +/- 0.000000e+00) [K]
Framework-molecule
    Van der Waals/kʙ        0.000000e+00 ( 0.000000e+00 +/- 0.000000e+00) [K]
    Van der Waals (Tail)/kʙ 0.000000e+00 ( 0.000000e+00 +/- 0.000000e+00) [K]
    Coulombic Real/kʙ       0.000000e+00 ( 0.000000e+00 +/- 0.000000e+00) [K]
    Coulombic Fourier/kʙ    0.000000e+00 ( 0.000000e+00 +/- 0.000000e+00) [K]
Molecule-molecule
    Van der Waals/kʙ       -1.863191e+05 (-1.843701e+05 +/- 0.000000e+00) [K]
    Van der Waals (Tail)/kʙ-8.086050e+03 (-7.919768e+03 +/- 0.000000e+00) [K]
    Coulombic Real/kʙ      -4.506385e+04 (-4.857456e+04 +/- 0.000000e+00) [K]
    Coulombic Fourier/kʙ   -1.229650e+04 (-1.302360e+04 +/- 0.000000e+00) [K]
    Molecule Intra/kʙ       0.000000e+00 ( 0.000000e+00 +/- 0.000000e+00) [K]

Current cycle: 500 out of 6000
===============================================================================

Box:      24.01008   0.00000   0.00000  Average:  24.78421   0.00000   0.00000
           0.00000  24.01008   0.00000             0.00000  24.78421   0.00000
           0.00000   0.00000  24.01008             0.00000   0.00000  24.78421
Lengths:  24.01008  24.01008  24.01008  Average:  24.78421  24.78421  24.78421
Angles:   90.00000  90.00000  90.00000  Average:  90.00000  90.00000  90.00000
Rectangular boundary conditions

net charge:   0.00000000

component 0 (CO2) lambda:  0 occupancy:  0 (0.000000)
    net charge:   0.00000000 [e]

Amount of molecules per component :
-------------------------------------------------------------------------------
Component 0 (CO2)
    molecules:      1.720000e+02 molecules  (1.923613e+02 +/- 0.000000e+00)
    number density: 1.242647e-02 molec./A^3 (1.264014e-02 +/- 0.000000e+00)
    density:        9.078994e+02 kg/m^3     (9.235100e+02 +/- 0.000000e+00)

Average pressure tensor: 
-------------------------------------------------------------------------------
-2.9286e+01 -8.9241e+01  5.0835e+01 +/- 0.0000e+00 0.0000e+00 0.0000e+00 [bar]
-8.9241e+01  7.8946e+01  2.5357e+01 +/- 0.0000e+00 0.0000e+00 0.0000e+00 [bar]
 5.0835e+01  2.5357e+01 -1.1169e+02 +/- 0.0000e+00 0.0000e+00 0.0000e+00 [bar]
Ideal-gas pressure:   4.886450e+02 +/ 0.000000e+00 [bar]
Excess pressure:     -5.093209e+02 +/ 0.000000e+00 [bar]
Pressure:            -2.067585e+01 +/ 0.000000e+00 [bar]

Total potential energy/kʙ  -2.075456e+05 (-2.497102e+05 +/- 0.000000e+00) [K]
-------------------------------------------------------------------------------
ExternalField-molecule
    Van der Waals/kʙ        0.000000e+00 ( 0.000000e+00 +/- 0.000000e+00) [K]
Framework-molecule
    Van der Waals/kʙ        0.000000e+00 ( 0.000000e+00 +/- 0.000000e+00) [K]
    Van der Waals (Tail)/kʙ 0.000000e+00 ( 0.000000e+00 +/- 0.000000e+00) [K]
    Coulombic Real/kʙ       0.000000e+00 ( 0.000000e+00 +/- 0.000000e+00) [K]
    Coulombic Fourier/kʙ    0.000000e+00 ( 0.000000e+00 +/- 0.000000e+00) [K]
Molecule-molecule
    Van der Waals/kʙ       -1.478645e+05 (-1.816588e+05 +/- 0.000000e+00) [K]
    Van der Waals (Tail)/kʙ-6.857803e+03 (-7.825201e+03 +/- 0.000000e+00) [K]
    Coulombic Real/kʙ      -4.178452e+04 (-4.744975e+04 +/- 0.000000e+00) [K]
    Coulombic Fourier/kʙ   -1.103882e+04 (-1.277644e+04 +/- 0.000000e+00) [K]
    Molecule Intra/kʙ       0.000000e+00 ( 0.000000e+00 +/- 0.000000e+00) [K]

Current cycle: 600 out of 6000
===============================================================================

Box:      23.78242   0.00000   0.00000  Average:  24.64997   0.00000   0.00000
           0.00000  23.78242   0.00000             0.00000  24.64997   0.00000
           0.00000   0.00000  23.78242             0.00000   0.00000  24.64997
Lengths:  23.78242  23.78242  23.78242  Average:  24.64997  24.64997  24.64997
Angles:   90.00000  90.00000  90.00000  Average:  90.00000  90.00000  90.00000
Rectangular boundary conditions

net charge:   0.00000000

component 0 (CO2) lambda:  0 occupancy:  0 (0.000000)
    net charge:   0.00000000 [e]

Amount of molecules per component :
-------------------------------------------------------------------------------
Component 0 (CO2)
    molecules:      1.710000e+02 molecules  (1.892829e+02 +/- 0.000000e+00)
    number density: 1.271241e-02 molec./A^3 (1.263581e-02 +/- 0.000000e+00)
    density:        9.287902e+02 kg/m^3     (9.231937e+02 +/- 0.000000e+00)

Average pressure tensor: 
-------------------------------------------------------------------------------
-1.7526e+01 -9.0266e+01  3.4516e+01 +/- 0.0000e+00 0.0000e+00 0.0000e+00 [bar]
-9.0266e+01  1.2777e+02  1.5108e+01 +/- 0.0000e+00 0.0000e+00 0.0000e+00 [bar]
 3.4516e+01  1.5108e+01 -4.5858e+01 +/- 0.0000e+00 0.0000e+00 0.0000e+00 [bar]
Ideal-gas pressure:   4.884777e+02 +/ 0.000000e+00 [bar]
Excess pressure:     -4.670152e+02 +/ 0.000000e+00 [bar]
Pressure:             2.146251e+01 +/ 0.000000e+00 [bar]

Total potential energy/kʙ  -2.193244e+05 (-2.454911e+05 +/- 0.000000e+00) [K]
-------------------------------------------------------------------------------
ExternalField-molecule
    Van der Waals/kʙ        0.000000e+00 ( 0.000000e+00 +/- 0.000000e+00) [K]
Framework-molecule
    Van der Waals/kʙ        0.000000e+00 ( 0.000000e+00 +/- 0.000000e+00) [K]
    Van der Waals (Tail)/kʙ 0.000000e+00 ( 0.000000e+00 +/- 0.000000e+00) [K]
    Coulombic Real/kʙ       0.000000e+00 ( 0.000000e+00 +/- 0.000000e+00) [K]
    Coulombic Fourier/kʙ    0.000000e+00 ( 0.000000e+00 +/- 0.000000e+00) [K]
Molecule-molecule
    Van der Waals/kʙ       -1.567768e+05 (-1.788393e+05 +/- 0.000000e+00) [K]
    Van der Waals (Tail)/kʙ-6.974814e+03 (-7.721629e+03 +/- 0.000000e+00) [K]
    Coulombic Real/kʙ      -4.370058e+04 (-4.639849e+04 +/- 0.000000e+00) [K]
    Coulombic Fourier/kʙ   -1.187219e+04 (-1.253173e+04 +/- 0.000000e+00) [K]
    Molecule Intra/kʙ       0.000000e+00 ( 0.000000e+00 +/- 0.000000e+00) [K]

Current cycle: 700 out of 6000
===============================================================================

Box:      23.92080   0.00000   0.00000  Average:  24.49896   0.00000   0.00000
           0.00000  23.92080   0.00000             0.00000  24.49896   0.00000
           0.00000   0.00000  23.92080             0.00000   0.00000  24.49896
Lengths:  23.92080  23.92080  23.92080  Average:  24.49896  24.49896  24.49896
Angles:   90.00000  90.00000  90.00000  Average:  90.00000  90.00000  90.00000
Rectangular boundary conditions

net charge:   0.00000000

component 0 (CO2) lambda:  0 occupancy:  0 (0.000000)
    net charge:   0.00000000 [e]

Amount of molecules per component :
-------------------------------------------------------------------------------
Component 0 (CO2)
    molecules:      1.670000e+02 molecules  (1.859087e+02 +/- 0.000000e+00)
    number density: 1.220083e-02 molec./A^3 (1.263368e-02 +/- 0.000000e+00)
    density:        8.914132e+02 kg/m^3     (9.230386e+02 +/- 0.000000e+00)

Average pressure tensor: 
-------------------------------------------------------------------------------
 2.0134e+01 -7.8707e+01  3.9795e+00 +/- 0.0000e+00 0.0000e+00 0.0000e+00 [bar]
-7.8707e+01  1.0659e+02  1.6908e+01 +/- 0.0000e+00 0.0000e+00 0.0000e+00 [bar]
 3.9795e+00  1.6908e+01 -2.8454e+01 +/- 0.0000e+00 0.0000e+00 0.0000e+00 [bar]
Ideal-gas pressure:   4.883956e+02 +/ 0.000000e+00 [bar]
Excess pressure:     -4.556395e+02 +/ 0.000000e+00 [bar]
Pressure:             3.275618e+01 +/ 0.000000e+00 [bar]

Total potential energy/kʙ  -1.998620e+05 (-2.403907e+05 +/- 0.000000e+00) [K]
-------------------------------------------------------------------------------
ExternalField-molecule
    Van der Waals/kʙ        0.000000e+00 ( 0.000000e+00 +/- 0.000000e+00) [K]
Framework-molecule
    Van der Waals/kʙ        0.000000e+00 ( 0.000000e+00 +/- 0.000000e+00) [K]
    Van der Waals (Tail)/kʙ 0.000000e+00 ( 0.000000e+00 +/- 0.000000e+00) [K]
    Coulombic Real/kʙ       0.000000e+00 ( 0.000000e+00 +/- 0.000000e+00) [K]
    Coulombic Fourier/kʙ    0.000000e+00 ( 0.000000e+00 +/- 0.000000e+00) [K]
Molecule-molecule
    Van der Waals/kʙ       -1.493067e+05 (-1.754581e+05 +/- 0.000000e+00) [K]
    Van der Waals (Tail)/kʙ-6.537540e+03 (-7.579136e+03 +/- 0.000000e+00) [K]
    Coulombic Real/kʙ      -3.349173e+04 (-4.511749e+04 +/- 0.000000e+00) [K]
    Coulombic Fourier/kʙ   -1.052600e+04 (-1.223603e+04 +/- 0.000000e+00) [K]
    Molecule Intra/kʙ       0.000000e+00 ( 0.000000e+00 +/- 0.000000e+00) [K]

Current cycle: 800 out of 6000
===============================================================================

Box:      23.26160   0.00000   0.00000  Average:  24.37027   0.00000   0.00000
           0.00000  23.26160   0.00000             0.00000  24.37027   0.00000
           0.00000   0.00000  23.26160             0.00000   0.00000  24.37027
Lengths:  23.26160  23.26160  23.26160  Average:  24.37027  24.37027  24.37027
Angles:   90.00000  90.00000  90.00000  Average:  90.00000  90.00000  90.00000
Rectangular boundary conditions

net charge:   0.00000000

component 0 (CO2) lambda:  0 occupancy:  0 (0.000000)
    net charge:   0.00000000 [e]

Amount of molecules per component :
-------------------------------------------------------------------------------
Component 0 (CO2)
    molecules:      1.730000e+02 molecules  (1.837341e+02 +/- 0.000000e+00)
    number density: 1.374445e-02 molec./A^3 (1.268478e-02 +/- 0.000000e+00)
    density:        1.004193e+03 kg/m^3     (9.267719e+02 +/- 0.000000e+00)

Average pressure tensor: 
-------------------------------------------------------------------------------
 3.6145e+01 -6.7409e+01 -2.7961e+01 +/- 0.0000e+00 0.0000e+00 0.0000e+00 [bar]
-6.7409e+01  8.8720e+01  1.7172e+01 +/- 0.0000e+00 0.0000e+00 0.0000e+00 [bar]
-2.7961e+01  1.7172e+01 -2.9131e+01 +/- 0.0000e+00 0.0000e+00 0.0000e+00 [bar]
Ideal-gas pressure:   4.903710e+02 +/ 0.000000e+00 [bar]
Excess pressure:     -4.584597e+02 +/ 0.000000e+00 [bar]
Pressure:             3.191128e+01 +/ 0.000000e+00 [bar]

Total potential energy/kʙ  -2.458953e+05 (-2.383312e+05 +/- 0.000000e+00) [K]
-------------------------------------------------------------------------------
ExternalField-molecule
    Van der Waals/kʙ        0.000000e+00 ( 0.000000e+00 +/- 0.000000e+00) [K]
Framework-molecule
    Van der Waals/kʙ        0.000000e+00 ( 0.000000e+00 +/- 0.000000e+00) [K]
    Van der Waals (Tail)/kʙ 0.000000e+00 ( 0.000000e+00 +/- 0.000000e+00) [K]
    Coulombic Real/kʙ       0.000000e+00 ( 0.000000e+00 +/- 0.000000e+00) [K]
    Coulombic Fourier/kʙ    0.000000e+00 ( 0.000000e+00 +/- 0.000000e+00) [K]
Molecule-molecule
    Van der Waals/kʙ       -1.765064e+05 (-1.740214e+05 +/- 0.000000e+00) [K]
    Van der Waals (Tail)/kʙ-7.629255e+03 (-7.522310e+03 +/- 0.000000e+00) [K]
    Coulombic Real/kʙ      -4.965030e+04 (-4.462082e+04 +/- 0.000000e+00) [K]
    Coulombic Fourier/kʙ   -1.210939e+04 (-1.216668e+04 +/- 0.000000e+00) [K]
    Molecule Intra/kʙ       0.000000e+00 ( 0.000000e+00 +/- 0.000000e+00) [K]

Current cycle: 900 out of 6000
===============================================================================

Box:      24.08363   0.00000   0.00000  Average:  24.28612   0.00000   0.00000
           0.00000  24.08363   0.00000             0.00000  24.28612   0.00000
           0.00000   0.00000  24.08363             0.00000   0.00000  24.28612
Lengths:  24.08363  24.08363  24.08363  Average:  24.28612  24.28612  24.28612
Angles:   90.00000  90.00000  90.00000  Average:  90.00000  90.00000  90.00000
Rectangular boundary conditions

net charge:   0.00000000

component 0 (CO2) lambda:  0 occupancy:  0 (0.000000)
    net charge:   0.00000000 [e]

Amount of molecules per component :
-------------------------------------------------------------------------------
Component 0 (CO2)
    molecules:      1.670000e+02 molecules  (1.823851e+02 +/- 0.000000e+00)
    number density: 1.195503e-02 molec./A^3 (1.272362e-02 +/- 0.000000e+00)
    density:        8.734551e+02 kg/m^3     (9.296096e+02 +/- 0.000000e+00)

Average pressure tensor: 
-------------------------------------------------------------------------------
 1.3518e+01 -6.2943e+01 -7.0550e+00 +/- 0.0000e+00 0.0000e+00 0.0000e+00 [bar]
-6.2943e+01  6.7370e+01  7.0240e+00 +/- 0.0000e+00 0.0000e+00 0.0000e+00 [bar]
-7.0550e+00  7.0240e+00 -2.6776e+01 +/- 0.0000e+00 0.0000e+00 0.0000e+00 [bar]
Ideal-gas pressure:   4.918724e+02 +/ 0.000000e+00 [bar]
Excess pressure:     -4.738352e+02 +/ 0.000000e+00 [bar]
Pressure:             1.803727e+01 +/ 0.000000e+00 [bar]

Total potential energy/kʙ  -2.057573e+05 (-2.373502e+05 +/- 0.000000e+00) [K]
-------------------------------------------------------------------------------
ExternalField-molecule
    Van der Waals/kʙ        0.000000e+00 ( 0.000000e+00 +/- 0.000000e+00) [K]
Framework-molecule
    Van der Waals/kʙ        0.000000e+00 ( 0.000000e+00 +/- 0.000000e+00) [K]
    Van der Waals (Tail)/kʙ 0.000000e+00 ( 0.000000e+00 +/- 0.000000e+00) [K]
    Coulombic Real/kʙ       0.000000e+00 ( 0.000000e+00 +/- 0.000000e+00) [K]
    Coulombic Fourier/kʙ    0.000000e+00 ( 0.000000e+00 +/- 0.000000e+00) [K]
Molecule-molecule
    Van der Waals/kʙ       -1.509470e+05 (-1.731913e+05 +/- 0.000000e+00) [K]
    Van der Waals (Tail)/kʙ-6.405837e+03 (-7.483712e+03 +/- 0.000000e+00) [K]
    Coulombic Real/kʙ      -3.644039e+04 (-4.445699e+04 +/- 0.000000e+00) [K]
    Coulombic Fourier/kʙ   -1.196405e+04 (-1.221821e+04 +/- 0.000000e+00) [K]
    Molecule Intra/kʙ       0.000000e+00 ( 0.000000e+00 +/- 0.000000e+00) [K]

Current cycle: 1000 out of 6000
===============================================================================

Box:      23.82521   0.00000   0.00000  Average:  24.24200   0.00000   0.00000
           0.00000  23.82521   0.00000             0.00000  24.24200   0.00000
           0.00000   0.00000  23.82521             0.00000   0.00000  24.24200
Lengths:  23.82521  23.82521  23.82521  Average:  24.24200  24.24200  24.24200
Angles:   90.00000  90.00000  90.00000  Average:  90.00000  90.00000  90.00000
Rectangular boundary conditions

net charge:   0.00000000

component 0 (CO2) lambda:  0 occupancy:  0 (0.000000)
    net charge:   0.00000000 [e]

Amount of molecules per component :
-------------------------------------------------------------------------------
Component 0 (CO2)
    molecules:      1.810000e+02 molecules  (1.824136e+02 +/- 0.000000e+00)
    number density: 1.338346e-02 molec./A^3 (1.279879e-02 +/- 0.000000e+00)
    density:        9.778188e+02 kg/m^3     (9.351016e+02 +/- 0.000000e+00)

Average pressure tensor: 
-------------------------------------------------------------------------------
 6.8048e+00 -5.3147e+01 -8.9497e+00 +/- 0.0000e+00 0.0000e+00 0.0000e+00 [bar]
-5.3147e+01  7.1229e+01  1.6575e+01 +/- 0.0000e+00 0.0000e+00 0.0000e+00 [bar]
-8.9497e+00  1.6575e+01 -5.6856e+00 +/- 0.0000e+00 0.0000e+00 0.0000e+00 [bar]
Ideal-gas pressure:   4.947784e+02 +/ 0.000000e+00 [bar]
Excess pressure:     -4.706625e+02 +/ 0.000000e+00 [bar]
Pressure:             2.411589e+01 +/ 0.000000e+00 [bar]

Total potential energy/kʙ  -2.568517e+05 (-2.390459e+05 +/- 0.000000e+00) [K]
-------------------------------------------------------------------------------
ExternalField-molecule
    Van der Waals/kʙ        0.000000e+00 ( 0.000000e+00 +/- 0.000000e+00) [K]
Framework-molecule
    Van der Waals/kʙ        0.000000e+00 ( 0.000000e+00 +/- 0.000000e+00) [K]
    Van der Waals (Tail)/kʙ 0.000000e+00 ( 0.000000e+00 +/- 0.000000e+00) [K]
    Coulombic Real/kʙ       0.000000e+00 ( 0.000000e+00 +/- 0.000000e+00) [K]
    Coulombic Fourier/kʙ    0.000000e+00 ( 0.000000e+00 +/- 0.000000e+00) [K]
Molecule-molecule
    Van der Waals/kʙ       -1.814991e+05 (-1.741225e+05 +/- 0.000000e+00) [K]
    Van der Waals (Tail)/kʙ-7.772412e+03 (-7.524765e+03 +/- 0.000000e+00) [K]
    Coulombic Real/kʙ      -5.445184e+04 (-4.506809e+04 +/- 0.000000e+00) [K]
    Coulombic Fourier/kʙ   -1.312833e+04 (-1.233050e+04 +/- 0.000000e+00) [K]
    Molecule Intra/kʙ       0.000000e+00 ( 0.000000e+00 +/- 0.000000e+00) [K]

Current cycle: 1100 out of 6000
===============================================================================

Box:      23.99765   0.00000   0.00000  Average:  24.20195   0.00000   0.00000
           0.00000  23.99765   0.00000             0.00000  24.20195   0.00000
           0.00000   0.00000  23.99765             0.00000   0.00000  24.20195
Lengths:  23.99765  23.99765  23.99765  Average:  24.20195  24.20195  24.20195
Angles:   90.00000  90.00000  90.00000  Average:  90.00000  90.00000  90.00000
Rectangular boundary conditions

net charge:   0.00000000

component 0 (CO2) lambda:  0 occupancy:  0 (0.000000)
    net charge:   0.00000000 [e]

Amount of molecules per component :
-------------------------------------------------------------------------------
Component 0 (CO2)
    molecules:      1.820000e+02 molecules  (1.825123e+02 +/- 0.000000e+00)
    number density: 1.316937e-02 molec./A^3 (1.287228e-02 +/- 0.000000e+00)
    density:        9.621767e+02 kg/m^3     (9.404705e+02 +/- 0.000000e+00)

Average pressure tensor: 
-------------------------------------------------------------------------------
 1.5265e+00 -5.1333e+01 -9.5059e+00 +/- 0.0000e+00 0.0000e+00 0.0000e+00 [bar]
-5.1333e+01  6.1455e+01  1.1935e+01 +/- 0.0000e+00 0.0000e+00 0.0000e+00 [bar]
-9.5059e+00  1.1935e+01 -1.9031e+01 +/- 0.0000e+00 0.0000e+00 0.0000e+00 [bar]
Ideal-gas pressure:   4.976191e+02 +/ 0.000000e+00 [bar]
Excess pressure:     -4.829687e+02 +/ 0.000000e+00 [bar]
Pressure:             1.465038e+01 +/ 0.000000e+00 [bar]

Total potential energy/kʙ  -2.429193e+05 (-2.406343e+05 +/- 0.000000e+00) [K]
-------------------------------------------------------------------------------
ExternalField-molecule
    Van der Waals/kʙ        0.000000e+00 ( 0.000000e+00 +/- 0.000000e+00) [K]
Framework-molecule
    Van der Waals/kʙ        0.000000e+00 ( 0.000000e+00 +/- 0.000000e+00) [K]
    Van der Waals (Tail)/kʙ 0.000000e+00 ( 0.000000e+00 +/- 0.000000e+00) [K]
    Coulombic Real/kʙ       0.000000e+00 ( 0.000000e+00 +/- 0.000000e+00) [K]
    Coulombic Fourier/kʙ    0.000000e+00 ( 0.000000e+00 +/- 0.000000e+00) [K]
Molecule-molecule
    Van der Waals/kʙ       -1.783150e+05 (-1.752956e+05 +/- 0.000000e+00) [K]
    Van der Waals (Tail)/kʙ-7.690331e+03 (-7.560811e+03 +/- 0.000000e+00) [K]
    Coulombic Real/kʙ      -4.558421e+04 (-4.536915e+04 +/- 0.000000e+00) [K]
    Coulombic Fourier/kʙ   -1.132968e+04 (-1.240878e+04 +/- 0.000000e+00) [K]
    Molecule Intra/kʙ       0.000000e+00 ( 0.000000e+00 +/- 0.000000e+00) [K]

Current cycle: 1200 out of 6000
===============================================================================

Box:      24.55907   0.00000   0.00000  Average:  24.21860   0.00000   0.00000
           0.00000  24.55907   0.00000             0.00000  24.21860   0.00000
           0.00000   0.00000  24.55907             0.00000   0.00000  24.21860
Lengths:  24.55907  24.55907  24.55907  Average:  24.21860  24.21860  24.21860
Angles:   90.00000  90.00000  90.00000  Average:  90.00000  90.00000  90.00000
Rectangular boundary conditions

net charge:   0.00000000

component 0 (CO2) lambda:  0 occupancy:  0 (0.000000)
    net charge:   0.00000000 [e]

Amount of molecules per component :
-------------------------------------------------------------------------------
Component 0 (CO2)
    molecules:      1.850000e+02 molecules  (1.825029e+02 +/- 0.000000e+00)
    number density: 1.248924e-02 molec./A^3 (1.284620e-02 +/- 0.000000e+00)
    density:        9.124855e+02 kg/m^3     (9.385657e+02 +/- 0.000000e+00)

Average pressure tensor: 
-------------------------------------------------------------------------------
 1.0309e+01 -4.8925e+01 -1.0235e+01 +/- 0.0000e+00 0.0000e+00 0.0000e+00 [bar]
-4.8925e+01  5.6902e+01  7.7086e+00 +/- 0.0000e+00 0.0000e+00 0.0000e+00 [bar]
-1.0235e+01  7.7086e+00 -2.2265e+01 +/- 0.0000e+00 0.0000e+00 0.0000e+00 [bar]
Ideal-gas pressure:   4.966112e+02 +/ 0.000000e+00 [bar]
Excess pressure:     -4.816294e+02 +/ 0.000000e+00 [bar]
Pressure:             1.498185e+01 +/ 0.000000e+00 [bar]

Total potential energy/kʙ  -2.371793e+05 (-2.402770e+05 +/- 0.000000e+00) [K]
-------------------------------------------------------------------------------
ExternalField-molecule
    Van der Waals/kʙ        0.000000e+00 ( 0.000000e+00 +/- 0.000000e+00) [K]
Framework-molecule
    Van der Waals/kʙ        0.000000e+00 ( 0.000000e+00 +/- 0.000000e+00) [K]
    Van der Waals (Tail)/kʙ 0.000000e+00 ( 0.000000e+00 +/- 0.000000e+00) [K]
    Coulombic Real/kʙ       0.000000e+00 ( 0.000000e+00 +/- 0.000000e+00) [K]
    Coulombic Fourier/kʙ    0.000000e+00 ( 0.000000e+00 +/- 0.000000e+00) [K]
Molecule-molecule
    Van der Waals/kʙ       -1.767147e+05 (-1.751407e+05 +/- 0.000000e+00) [K]
    Van der Waals (Tail)/kʙ-7.413385e+03 (-7.554140e+03 +/- 0.000000e+00) [K]
    Coulombic Real/kʙ      -4.169163e+04 (-4.520830e+04 +/- 0.000000e+00) [K]
    Coulombic Fourier/kʙ   -1.135964e+04 (-1.237387e+04 +/- 0.000000e+00) [K]
    Molecule Intra/kʙ       0.000000e+00 ( 0.000000e+00 +/- 0.000000e+00) [K]

Current cycle: 1300 out of 6000
===============================================================================

Box:      24.31036   0.00000   0.00000  Average:  24.22985   0.00000   0.00000
           0.00000  24.31036   0.00000             0.00000  24.22985   0.00000
           0.00000   0.00000  24.31036             0.00000   0.00000  24.22985
Lengths:  24.31036  24.31036  24.31036  Average:  24.22985  24.22985  24.22985
Angles:   90.00000  90.00000  90.00000  Average:  90.00000  90.00000  90.00000
Rectangular boundary conditions

net charge:   0.00000000

component 0 (CO2) lambda:  0 occupancy:  0 (0.000000)
    net charge:   0.00000000 [e]

Amount of molecules per component :
-------------------------------------------------------------------------------
Component 0 (CO2)
    molecules:      1.830000e+02 molecules  (1.828086e+02 +/- 0.000000e+00)
    number density: 1.273728e-02 molec./A^3 (1.284983e-02 +/- 0.000000e+00)
    density:        9.306076e+02 kg/m^3     (9.388307e+02 +/- 0.000000e+00)

Average pressure tensor: 
-------------------------------------------------------------------------------
 3.0412e+01 -4.1876e+01 -5.8111e+00 +/- 0.0000e+00 0.0000e+00 0.0000e+00 [bar]
-4.1876e+01  6.5496e+01  4.7988e+00 +/- 0.0000e+00 0.0000e+00 0.0000e+00 [bar]
-5.8111e+00  4.7988e+00 -1.6893e+01 +/- 0.0000e+00 0.0000e+00 0.0000e+00 [bar]
Ideal-gas pressure:   4.967515e+02 +/ 0.000000e+00 [bar]
Excess pressure:     -4.704131e+02 +/ 0.000000e+00 [bar]
Pressure:             2.633841e+01 +/ 0.000000e+00 [bar]

Total potential energy/kʙ  -2.363176e+05 (-2.406506e+05 +/- 0.000000e+00) [K]
-------------------------------------------------------------------------------
ExternalField-molecule
    Van der Waals/kʙ        0.000000e+00 ( 0.000000e+00 +/- 0.000000e+00) [K]
Framework-molecule
    Van der Waals/kʙ        0.000000e+00 ( 0.000000e+00 +/- 0.000000e+00) [K]
    Van der Waals (Tail)/kʙ 0.000000e+00 ( 0.000000e+00 +/- 0.000000e+00) [K]
    Coulombic Real/kʙ       0.000000e+00 ( 0.000000e+00 +/- 0.000000e+00) [K]
    Coulombic Fourier/kʙ    0.000000e+00 ( 0.000000e+00 +/- 0.000000e+00) [K]
Molecule-molecule
    Van der Waals/kʙ       -1.686931e+05 (-1.753329e+05 +/- 0.000000e+00) [K]
    Van der Waals (Tail)/kʙ-7.478880e+03 (-7.569093e+03 +/- 0.000000e+00) [K]
    Coulombic Real/kʙ      -4.816827e+04 (-4.535698e+04 +/- 0.000000e+00) [K]
    Coulombic Fourier/kʙ   -1.197740e+04 (-1.239162e+04 +/- 0.000000e+00) [K]
    Molecule Intra/kʙ       0.000000e+00 ( 0.000000e+00 +/- 0.000000e+00) [K]

Current cycle: 1400 out of 6000
===============================================================================

Box:      24.72781   0.00000   0.00000  Average:  24.25139   0.00000   0.00000
           0.00000  24.72781   0.00000             0.00000  24.25139   0.00000
           0.00000   0.00000  24.72781             0.00000   0.00000  24.25139
Lengths:  24.72781  24.72781  24.72781  Average:  24.25139  24.25139  24.25139
Angles:   90.00000  90.00000  90.00000  Average:  90.00000  90.00000  90.00000
Rectangular boundary conditions

net charge:   0.00000000

component 0 (CO2) lambda:  0 occupancy:  0 (0.000000)
    net charge:   0.00000000 [e]

Amount of molecules per component :
-------------------------------------------------------------------------------
Component 0 (CO2)
    molecules:      1.940000e+02 molecules  (1.833148e+02 +/- 0.000000e+00)
    number density: 1.283053e-02 molec./A^3 (1.285091e-02 +/- 0.000000e+00)
    density:        9.374207e+02 kg/m^3     (9.389095e+02 +/- 0.000000e+00)

Average pressure tensor: 
-------------------------------------------------------------------------------
 1.9276e+01 -4.0457e+01  2.9690e+00 +/- 0.0000e+00 0.0000e+00 0.0000e+00 [bar]
-4.0457e+01  5.0111e+01 -1.4907e+00 +/- 0.0000e+00 0.0000e+00 0.0000e+00 [bar]
 2.9690e+00 -1.4907e+00 -1.3870e+01 +/- 0.0000e+00 0.0000e+00 0.0000e+00 [bar]
Ideal-gas pressure:   4.967932e+02 +/ 0.000000e+00 [bar]
Excess pressure:     -4.782877e+02 +/ 0.000000e+00 [bar]
Pressure:             1.850548e+01 +/ 0.000000e+00 [bar]

Total potential energy/kʙ  -2.540600e+05 (-2.413705e+05 +/- 0.000000e+00) [K]
-------------------------------------------------------------------------------
ExternalField-molecule
    Van der Waals/kʙ        0.000000e+00 ( 0.000000e+00 +/- 0.000000e+00) [K]
Framework-molecule
    Van der Waals/kʙ        0.000000e+00 ( 0.000000e+00 +/- 0.000000e+00) [K]
    Van der Waals (Tail)/kʙ 0.000000e+00 ( 0.000000e+00 +/- 0.000000e+00) [K]
    Coulombic Real/kʙ       0.000000e+00 ( 0.000000e+00 +/- 0.000000e+00) [K]
    Coulombic Fourier/kʙ    0.000000e+00 ( 0.000000e+00 +/- 0.000000e+00) [K]
Molecule-molecule
    Van der Waals/kʙ       -1.835541e+05 (-1.758441e+05 +/- 0.000000e+00) [K]
    Van der Waals (Tail)/kʙ-7.986475e+03 (-7.590003e+03 +/- 0.000000e+00) [K]
    Coulombic Real/kʙ      -5.016172e+04 (-4.549251e+04 +/- 0.000000e+00) [K]
    Coulombic Fourier/kʙ   -1.235771e+04 (-1.244394e+04 +/- 0.000000e+00) [K]
    Molecule Intra/kʙ       0.000000e+00 ( 0.000000e+00 +/- 0.000000e+00) [K]

Current cycle: 1500 out of 6000
===============================================================================

Box:      24.41419   0.00000   0.00000  Average:  24.27359   0.00000   0.00000
           0.00000  24.41419   0.00000             0.00000  24.27359   0.00000
           0.00000   0.00000  24.41419             0.00000   0.00000  24.27359
Lengths:  24.41419  24.41419  24.41419  Average:  24.27359  24.27359  24.27359
[...]
    number density: 1.254355e-02 molec./A^3 (1.234013e-02 +/- 1.081644e-03)
    density:        9.164533e+02 kg/m^3     (9.015907e+02 +/- 7.902676e+01)

Average pressure tensor: 
-------------------------------------------------------------------------------
 5.0266e+01 -8.4816e-01  4.2432e+00 +/- 4.5424e+01 3.9806e+01 4.1465e+01 [bar]
-8.4816e-01  3.6556e+01 -2.6380e+00 +/- 3.9806e+01 3.4630e+01 3.1038e+01 [bar]
 4.2432e+00 -2.6380e+00  1.9741e+01 +/- 4.1465e+01 3.1038e+01 4.5327e+01 [bar]
Ideal-gas pressure:   4.770471e+02 +/ 4.181442e+01 [bar]
Excess pressure:     -4.415262e+02 +/ 3.873806e+01 [bar]
Pressure:             3.552098e+01 +/ 3.175211e+01 [bar]

Total potential energy/kʙ  -2.531376e+05 (-2.463902e+05 +/- 1.119787e+04) [K]
-------------------------------------------------------------------------------
ExternalField-molecule
    Van der Waals/kʙ        0.000000e+00 ( 0.000000e+00 +/- 0.000000e+00) [K]
Framework-molecule
    Van der Waals/kʙ        0.000000e+00 ( 0.000000e+00 +/- 0.000000e+00) [K]
    Van der Waals (Tail)/kʙ 0.000000e+00 ( 0.000000e+00 +/- 0.000000e+00) [K]
    Coulombic Real/kʙ       0.000000e+00 ( 0.000000e+00 +/- 0.000000e+00) [K]
    Coulombic Fourier/kʙ    0.000000e+00 ( 0.000000e+00 +/- 0.000000e+00) [K]
Molecule-molecule
    Van der Waals/kʙ       -1.844842e+05 (-1.795564e+05 +/- 7.661216e+03) [K]
    Van der Waals (Tail)/kʙ-8.129813e+03 (-7.740496e+03 +/- 3.662907e+02) [K]
    Coulombic Real/kʙ      -4.683561e+04 (-4.635265e+04 +/- 2.647660e+03) [K]
    Coulombic Fourier/kʙ   -1.368800e+04 (-1.274060e+04 +/- 5.558147e+02) [K]
    Molecule Intra/kʙ       0.000000e+00 ( 0.000000e+00 +/- 0.000000e+00) [K]

Current cycle: 5800 out of 6000
===============================================================================

Box:      25.29128   0.00000   0.00000  Average:  25.17485   0.00000   0.00000
           0.00000  25.29128   0.00000             0.00000  25.17485   0.00000
           0.00000   0.00000  25.29128             0.00000   0.00000  25.17485
Lengths:  25.29128  25.29128  25.29128  Average:  25.17485  25.17485  25.17485
Angles:   90.00000  90.00000  90.00000  Average:  90.00000  90.00000  90.00000
Rectangular boundary conditions

net charge:   0.00000000

component 0 (CO2) lambda:  0 occupancy:  0 (0.000000)
    net charge:   0.00000000 [e]

Amount of molecules per component :
-------------------------------------------------------------------------------
Component 0 (CO2)
    molecules:      2.030000e+02 molecules  (1.961695e+02 +/- 1.282018e+01)
    number density: 1.254826e-02 molec./A^3 (1.233929e-02 +/- 9.971867e-04)
    density:        9.167976e+02 kg/m^3     (9.015293e+02 +/- 7.285617e+01)

Average pressure tensor: 
-------------------------------------------------------------------------------
 5.1471e+01 -1.8534e+00  2.8195e+00 +/- 4.2446e+01 4.0171e+01 4.2965e+01 [bar]
-1.8534e+00  3.5963e+01 -1.9562e+00 +/- 4.0171e+01 3.4238e+01 2.9191e+01 [bar]
 2.8195e+00 -1.9562e+00  2.3962e+01 +/- 4.2965e+01 2.9191e+01 4.4699e+01 [bar]
Ideal-gas pressure:   4.770147e+02 +/ 3.854945e+01 [bar]
Excess pressure:     -4.398827e+02 +/ 4.068300e+01 [bar]
Pressure:             3.713197e+01 +/ 2.776160e+01 [bar]

Total potential energy/kʙ  -2.548109e+05 (-2.464412e+05 +/- 1.060638e+04) [K]
-------------------------------------------------------------------------------
ExternalField-molecule
    Van der Waals/kʙ        0.000000e+00 ( 0.000000e+00 +/- 0.000000e+00) [K]
Framework-molecule
    Van der Waals/kʙ        0.000000e+00 ( 0.000000e+00 +/- 0.000000e+00) [K]
    Van der Waals (Tail)/kʙ 0.000000e+00 ( 0.000000e+00 +/- 0.000000e+00) [K]
    Coulombic Real/kʙ       0.000000e+00 ( 0.000000e+00 +/- 0.000000e+00) [K]
    Coulombic Fourier/kʙ    0.000000e+00 ( 0.000000e+00 +/- 0.000000e+00) [K]
Molecule-molecule
    Van der Waals/kʙ       -1.835589e+05 (-1.795856e+05 +/- 7.300294e+03) [K]
    Van der Waals (Tail)/kʙ-8.173129e+03 (-7.744085e+03 +/- 3.400789e+02) [K]
    Coulombic Real/kʙ      -4.989956e+04 (-4.637132e+04 +/- 2.458829e+03) [K]
    Coulombic Fourier/kʙ   -1.317930e+04 (-1.274027e+04 +/- 5.361090e+02) [K]
    Molecule Intra/kʙ       0.000000e+00 ( 0.000000e+00 +/- 0.000000e+00) [K]

Current cycle: 5900 out of 6000
===============================================================================

Box:      24.92763   0.00000   0.00000  Average:  25.17362   0.00000   0.00000
           0.00000  24.92763   0.00000             0.00000  25.17362   0.00000
           0.00000   0.00000  24.92763             0.00000   0.00000  25.17362
Lengths:  24.92763  24.92763  24.92763  Average:  25.17362  25.17362  25.17362
Angles:   90.00000  90.00000  90.00000  Average:  90.00000  90.00000  90.00000
Rectangular boundary conditions

net charge:   0.00000000

component 0 (CO2) lambda:  0 occupancy:  0 (0.000000)
    net charge:   0.00000000 [e]

Amount of molecules per component :
-------------------------------------------------------------------------------
Component 0 (CO2)
    molecules:      1.970000e+02 molecules  (1.961308e+02 +/- 1.218395e+01)
    number density: 1.271814e-02 molec./A^3 (1.233800e-02 +/- 9.309322e-04)
    density:        9.292088e+02 kg/m^3     (9.014351e+02 +/- 6.801550e+01)

Average pressure tensor: 
-------------------------------------------------------------------------------
 5.3468e+01 -7.0339e-01  2.1037e+00 +/- 3.9759e+01 3.9731e+01 4.2988e+01 [bar]
-7.0339e-01  3.5849e+01 -3.1194e+00 +/- 3.9731e+01 3.2870e+01 3.0382e+01 [bar]
 2.1037e+00 -3.1194e+00  2.8012e+01 +/- 4.2988e+01 3.0382e+01 4.7498e+01 [bar]
Ideal-gas pressure:   4.769648e+02 +/ 3.598817e+01 [bar]
Excess pressure:     -4.378550e+02 +/ 4.325937e+01 [bar]
Pressure:             3.910978e+01 +/ 2.512563e+01 [bar]

Total potential energy/kʙ  -2.576306e+05 (-2.463756e+05 +/- 1.037436e+04) [K]
-------------------------------------------------------------------------------
ExternalField-molecule
    Van der Waals/kʙ        0.000000e+00 ( 0.000000e+00 +/- 0.000000e+00) [K]
Framework-molecule
    Van der Waals/kʙ        0.000000e+00 ( 0.000000e+00 +/- 0.000000e+00) [K]
    Van der Waals (Tail)/kʙ 0.000000e+00 ( 0.000000e+00 +/- 0.000000e+00) [K]
    Coulombic Real/kʙ       0.000000e+00 ( 0.000000e+00 +/- 0.000000e+00) [K]
    Coulombic Fourier/kʙ    0.000000e+00 ( 0.000000e+00 +/- 0.000000e+00) [K]
Molecule-molecule
    Van der Waals/kʙ       -1.856992e+05 (-1.795454e+05 +/- 7.149603e+03) [K]
    Van der Waals (Tail)/kʙ-8.038933e+03 (-7.743961e+03 +/- 3.273560e+02) [K]
    Coulombic Real/kʙ      -4.966393e+04 (-4.634953e+04 +/- 2.399939e+03) [K]
    Coulombic Fourier/kʙ   -1.422854e+04 (-1.273667e+04 +/- 5.268400e+02) [K]
    Molecule Intra/kʙ       0.000000e+00 ( 0.000000e+00 +/- 0.000000e+00) [K]


Energy statistics             |  Energy [K]   | Recomputed [K]|  Drift [K]    |
===============================================================================
Total potential energy/kʙ     | -2.398786e+05 | -2.398786e+05 | -7.952445e-10 |
    external field VDW/kʙ     |  0.000000e+00 |  0.000000e+00 |  0.000000e+00 |
    external field Real/kʙ    |  0.000000e+00 |  0.000000e+00 |  0.000000e+00 |
    framework-molecule VDW/kʙ |  0.000000e+00 |  0.000000e+00 |  0.000000e+00 |
    framework-molecule Real/kʙ|  0.000000e+00 |  0.000000e+00 |  0.000000e+00 |
    molecule-molecule VDW/kʙ  | -1.804379e+05 | -1.804379e+05 | -8.050893e-10 |
    molecule-molecule Real/kʙ | -3.986357e+04 | -3.986357e+04 | -8.750971e-12 |
    Van der Waals (Tail)/kʙ   | -7.804305e+03 | -7.804305e+03 | -2.953453e-11 |
    Ewald Fourier/kʙ          |  1.612642e+04 |  1.612642e+04 |  4.813034e-11 |
    Ewald self/kʙ             | -4.268013e+06 | -4.268013e+06 |  0.000000e+00 |
    Ewald exclusion/kʙ        |  4.240113e+06 |  4.240113e+06 |  0.000000e+00 |
    intra VDW/kʙ              |  0.000000e+00 |  0.000000e+00 |  0.000000e+00 |
    intra Coulombic/kʙ        |  0.000000e+00 |  0.000000e+00 |  0.000000e+00 |
    polarization/kʙ           |  0.000000e+00 |  0.000000e+00 |  0.000000e+00 |
    dU/dlambda VDW/kʙ         |  0.000000e+00 |  0.000000e+00 |  0.000000e+00 |
    dU/dlambda Real/kʙ        |  0.000000e+00 |  0.000000e+00 |  0.000000e+00 |
    dU/dlambda Ewald/kʙ       |  0.000000e+00 |  0.000000e+00 |  0.000000e+00 |
-------------------------------------------------------------------------------


Monte-Carlo moves statistics
===============================================================================

    Gibbs volume         all:                3026
    Gibbs volume         total:              6138
    Gibbs volume         constructed:        6138
    Gibbs volume         accepted:           3322
    Gibbs volume         fraction:       0.541219
    Gibbs volume         max-change:     0.070832

Component 0 [CO2]
    Reinsertion (CBMC)   all:              149413
    Reinsertion (CBMC)   total:            149413
    Reinsertion (CBMC)   constructed:      145827
    Reinsertion (CBMC)   accepted:          13137
    Reinsertion (CBMC)   fraction:       0.087924
    Reinsertion (CBMC)   max-change:     0.000000

    Gibbs swap (CBMC)    all:              297748
    Gibbs swap (CBMC)    total:            597066
    Gibbs swap (CBMC)    constructed:      589237
    Gibbs swap (CBMC)    accepted:         102833
    Gibbs swap (CBMC)    fraction:       0.172231
    Gibbs swap (CBMC)    max-change:     0.000000

    Translation          all:              149521
    Translation          total:             49826      49895      49800
    Translation          constructed:       49826      49895      49686
    Translation          accepted:          27118      28324      20366
    Translation          fraction:       0.544254   0.567672   0.408956
    Translation          max-change:     0.786305   0.756525   0.917592

    Rotation             all:              148976
    Rotation             total:             49511      49837      49628
    Rotation             constructed:       49511      49831      49627
    Rotation             accepted:          27496      23720      28026
    Rotation             fraction:       0.555351   0.475952   0.564722
    Rotation             max-change:     0.787254   0.893618   0.774908



Production run counting of the MC moves summed over systems and components
===============================================================================

Reinsertion (CBMC)                   298813 (19.9209 [%])
Gibbs volume                           6138 (0.4092 [%])
Gibbs swap (CBMC)                    597066 (39.8044 [%])
Translation                          299298 (19.9532 [%])
Rotation                             298685 (19.9123 [%])

Production count MC-steps:          1500000 [-]
               All summed:          1500000 [-]
               difference:                0 [-]


Production run CPU timings of the MC moves
===============================================================================

Component 0 CO2

Rotation                             14.268058 [s]
    Ewald                             6.897494 [s]
    ExternalField-Molecule            0.006440 [s]
    Framework-Molecule                0.008092 [s]
    Molecule-Molecule                 6.692038 [s]
    Overhead                          0.663994 [s]

Reinsertion (CBMC)                   60.597514 [s]
    Ewald                             6.861699 [s]
    NonEwald                         53.502551 [s]
    Overhead                          0.233264 [s]

Translation                          14.314529 [s]
    Ewald                             6.922208 [s]
    ExternalField-Molecule            0.006241 [s]
    Framework-Molecule                0.010634 [s]
    Molecule-Molecule                 6.749643 [s]
    Overhead                          0.625803 [s]



Gibbs swap (CBMC)                    92.298906 [s]
    Ewald                            15.721518 [s]
    NonEwald                         74.698715 [s]
    Tail                              0.889435 [s]

Gibbs volume                         14.625908 [s]
    Ewald                             6.480667 [s]
    NonEwald                          7.542579 [s]
    Tail                              0.434871 [s]

Property sampling                     0.788683 [s]
Energy/pressure sampling:             5.861371 [s]


Production run CPU timings of the MC moves summed over systems and components
===============================================================================


Translation                          20.110195 [s]
    Ewald                            10.602375 [s]
    ExternalField-Molecule            0.012474 [s]
    Framework-Molecule                0.021275 [s]
    Molecule-Molecule                 8.345694 [s]
    Overhead                          1.128377 [s]

Rotation                             20.067714 [s]
    Ewald                            10.576344 [s]
    ExternalField-Molecule            0.012498 [s]
    Framework-Molecule                0.015928 [s]
    Molecule-Molecule                 8.279631 [s]
    Overhead                          1.183313 [s]

Reinsertion (CBMC)                   80.220054 [s]
    Ewald                            10.580365 [s]
    NonEwald                         69.018335 [s]
    Overhead                          0.621354 [s]

Gibbs volume                         29.651260 [s]
    Ewald                            13.164656 [s]
    NonEwald                         15.287652 [s]
    Tail                              0.864565 [s]
    Overhead                          0.334387 [s]

Gibbs swap (CBMC)                   224.855800 [s]
    Ewald                            31.998667 [s]
    NonEwald                        188.955263 [s]
    Tail                              1.841598 [s]
    Overhead                          2.060272 [s]

Property sampling:                    1.495310 [s]
Energy/pressure sampling:             6.523706 [s]

Production simulation time:         384.905386 [s]
                All summed:         382.924039 [s]
                  Overhead:           1.981347 [s]


Initalization simulation time:      117.796507 [s]
Equilibration simulation time:        0.000000 [s]
Production simulation time:         384.905386 [s]
Total simulation time:              502.701893 [s]


Energy averages and statistics:
===============================================================================

Framework-molecule energy:
-------------------------------------------------------------------------------



Framework-molecule energy contributions per energy type:
-------------------------------------------------------------------------------



Inter-molecular energy:
-------------------------------------------------------------------------------

    Inter-molecular energy/kʙ 0-0 [CO2-CO2]:
    ---------------------------------------------------------------------------
        Block[  0] -2.403028e+05
        Block[  1] -2.530849e+05
        Block[  2] -2.450913e+05
        Block[  3] -2.562206e+05
        Block[  4] -2.360778e+05
        -----------------------------------------------------------------------
        Average  -2.461555e+05 +/-  1.050249e+04 [K]



Inter-molecular energy contributions per energy type:
-------------------------------------------------------------------------------

    Van der Waals energy/kʙ 0-0 [CO2-CO2]:
    ---------------------------------------------------------------------------
        Block[  0] -1.751276e+05
        Block[  1] -1.842315e+05
        Block[  2] -1.784162e+05
        Block[  3] -1.864340e+05
        Block[  4] -1.726907e+05
        -----------------------------------------------------------------------
        Average  -1.793800e+05 +/-  7.266938e+03 [K]

    VDW Tail-Correction energy/kʙ 0-0 [CO2-CO2]:
    ---------------------------------------------------------------------------
        Block[  0] -7.555313e+03
        Block[  1] -7.949465e+03
        Block[  2] -7.729077e+03
        Block[  3] -8.046631e+03
        Block[  4] -7.416897e+03
        -----------------------------------------------------------------------
        Average  -7.739477e+03 +/-  3.264140e+02 [K]

    Coulomb Real energy/kʙ 0-0 [CO2-CO2]:
    ---------------------------------------------------------------------------
        Block[  0] -4.523761e+04
        Block[  1] -4.781011e+04
        Block[  2] -4.626870e+04
        Block[  3] -4.851128e+04
        Block[  4] -4.370812e+04
        -----------------------------------------------------------------------
        Average  -4.630716e+04 +/-  2.405484e+03 [K]

    Coulomb Fourier energy/kʙ 0-0 [CO2-CO2]:
    ---------------------------------------------------------------------------
        Block[  0] -1.238232e+04
        Block[  1] -1.309386e+04
        Block[  2] -1.267731e+04
        Block[  3] -1.322866e+04
        Block[  4] -1.226204e+04
        -----------------------------------------------------------------------
        Average  -1.272884e+04 +/-  5.280565e+02 [K]


Total energy/kʙ
-------------------------------------------------------------------------------
    Block[  0] -2.403028e+05
    Block[  1] -2.530849e+05
    Block[  2] -2.450913e+05
    Block[  3] -2.562206e+05
    Block[  4] -2.360778e+05
    ---------------------------------------------------------------------------
    Average  -2.461555e+05 +/-  1.050249e+04 [K]

Pressure averages and statistics:
===============================================================================

Average pressure tensor: 
-------------------------------------------------------------------------------
 5.0230e+01 -2.5662e+00  2.4723e+00 +/- 4.2826e+01 4.0359e+01 4.1223e+01 [bar]
-2.5662e+00  3.6756e+01 -1.9984e+00 +/- 4.0359e+01 2.9715e+01 2.8443e+01 [bar]
 2.4723e+00 -1.9984e+00  3.3762e+01 +/- 4.1223e+01 2.8443e+01 5.4557e+01 [bar]

    Block[  0]  4.966227e+07
    Block[  1]  4.972958e+07
    Block[  2]  4.757819e+07
    Block[  3]  4.841163e+07
    Block[  4]  4.304064e+07
    ---------------------------------------------------------------------------
    Ideal gas pressure   4.768446e+07 +/-  2.054254e-01 [Pa]
                         4.768446e+02 +/-  3.411171e+01 [bar]


    Block[  0] -4.819843e+07
    Block[  1] -4.520872e+07
    Block[  2] -4.066509e+07
    Block[  3] -4.477906e+07
    Block[  4] -3.944636e+07
    ---------------------------------------------------------------------------
    Excess pressure  -4.365953e+07 +/-  4.431722e+06 [Pa]
                     -4.365953e+02 +/-  4.431722e+01 [bar]


    Block[  0]  1.463839e+06
    Block[  1]  4.520856e+06
    Block[  2]  6.913105e+06
    Block[  3]  3.632567e+06
    Block[  4]  3.594282e+06
    ---------------------------------------------------------------------------
    Pressure average   4.024930e+06 +/-  2.442730e+06 [Pa]
                       4.024930e+01 +/-  2.442730e+01 [bar]


Enthalpy of adsorption
===============================================================================

Component 0 [CO2]
-------------------------------------------------------------------------------
    Block[  0] -1.814406e+03
    Block[  1] -1.379640e+03
    Block[  2] -1.666769e+03
    Block[  3] -1.783249e+03
    Block[  4] -8.956176e+02
    ---------------------------------------------------------------------------
    Enthalpy of adsorption: -1.507936e+03 +/-  4.753136e+02 [K]
                            -1.253768e+01 +/-  3.951978e+00 [kJ/mol]
    Warning: need to subtract the ideal-gas energy.


Densities
===============================================================================

Component 0 (CO2)
    Block[  0] 182.50083333333333
    Block[  1] 192.87
    Block[  2] 196.51500000000001
    Block[  3] 200.77583333333334
    Block[  4] 207.37
    -----------------------------------------------------------------------
    Density average   1.960063e+02 +/-  1.151914e+01 [molecules]
    Density average   1.233489e-02 +/-  8.823923e-04 [molec/A^3]
    Density average   9.012079e+02 +/-  6.446909e+01 [kg.m⁻³]

