Compiler and run-time data
===============================================================================
RASPA 3.0.4

Random seed: 2895168290

Compiled as a 64-bits application
Compiler: gcc Ubuntu Clang 18.1.3 (1ubuntu1)
Compile Date = Mar 15 2025, Compile Time = 19:39:45

2025-06-03 11:00:36.157493
Simulation started on Tue, Jun 03
The start time was 11:00:00

Hostname:    c060
OS type:     Linux on x86_64
OS release:  6.8.0-58-generic
OS version:  #60-Ubuntu SMP PREEMPT_DYNAMIC Fri Mar 14 18:29:48 UTC 2025


Mutual consistent basic set of units:
===============================================================================

Unit of temperature: 1 [K]
Unit of length:      1e-10 [m]
Unit of time:        1e-12 [s]
Unit of mass:        1.6605402e-27 [kg]
Unit of charge:      1.60217733e-19 [C/particle]


Boltzmann constant (internal units):          0.8314464919307584 [-]
represents conversion from energy (internal units) to temperature (in Kelvin)

Derived units and their conversion factors:
===============================================================================

Unit of energy:                           1.6605402000000002e-23 [J]
Unit of energy:                           10.000008872307538 [J.mol⁻¹]
Unit of velocity:                         100 [m.s⁻¹]
Unit of force:                            1.6605402000000002e-13 [N]
Unit of diffusion:                        1.0000000000000002e-08 [m².s⁻¹]
Unit of acceleration:                     1.0000000000000002e-08 [m².s⁻¹]
Unit of torque:                           1.6605402000000002e-23 [N.m]
Unit of pressure:                         16605402 [Pa]
Unit of volume:                           1e-30 [m³]
Unit of density:                          1660.5402 [kg.m⁻³]
Unit of dynamic viscosity:                1.6605401999999997e-05 [N.s.m⁻²]
Unit of enthalpy:                         1.6605402000000002e-23 [J]
Unit of polarizability:                   1.5458657349975198e-35 [-]
Unit of Coulomb potential:                167101.08000665612 [K]
Unit of dielectric constant:              1.5458657349975193e-05 [s².C².kg⁻¹.m⁻³]
Unit of dipole moment:                    1.60217733e-29 [C.m]
Unit of Debye:                            4.803206799099162 [C.m]
Unit of electric potential:               0.00010364272224473431 [V]
Unit of electric field:                   1036427.222447343 [V.m⁻¹]
Unit of isothermal compressibility:       6.02213665167516e-08 [Pa⁻¹]
Unit of heat capacity:                    10.000008872307538 [J.mol⁻¹.K⁻¹]
Unit of volumetric expansion coefficient: 1 [K⁻¹]


Internal conversion factors:
===============================================================================

Energy (internal units) to Kelvin:      1.202724284692786 [-]
Kelvin to energy (internal units):      0.8314457542157567 [-]


System definitions
===============================================================================

Temperature:          230 [K]
Beta:                 0.005229231380675068 [-]
Pressure:             0 [Pa]
Helium void fraction: 1 [-]

Box:      30.00000   0.00000   0.00000
           0.00000  30.00000   0.00000
           0.00000   0.00000  30.00000
Lengths:  30.00000  30.00000  30.00000
Angles:   90.00000  90.00000  90.00000
Rectangular boundary conditions



Property measurement settings
===============================================================================




Pseudo-atoms
===============================================================================

  0 - C_co2    framework-atom: false
  1 - O_co2    framework-atom: false

  0 - C_co2    mass: 12.00000, charge:  0.70000
  1 - O_co2    mass: 15.99940, charge: -0.35000

  0 - C_co2    polarizability:  0.00000
  1 - O_co2    polarizability:  0.00000

  0 - J. J. Potoff et al., AIChE J. 2001, 47, 1676–1682.
  1 - J. J. Potoff et al., AIChE J. 2001, 47, 1676–1682.

Force field status
===============================================================================

Cutoff Framework-Molecule VDW:  10.00000 [Å]
Cutoff Molecule-Molecule VDW:   10.00000 [Å]
Cutoff Coulomb:                 10.00000 [Å]

Overlap-criteria VDW:           1.000000e+05 [K]

C_co2    - C_co2    Lennard-Jones p₀/kʙ:  27.00000 [K], p₁:  2.80000 [Å]
                                  shift:   0.00000 [K], tailcorrections: true
C_co2    - O_co2    Lennard-Jones p₀/kʙ:  46.18441 [K], p₁:  2.92500 [Å]
                                  shift:   0.00000 [K], tailcorrections: true
O_co2    - O_co2    Lennard-Jones p₀/kʙ:  79.00000 [K], p₁:  3.05000 [Å]
                                  shift:   0.00000 [K], tailcorrections: true

Ewald precision: 1e-06
Ewald alpha: 0.32079885109097883
Ewald k-vectors: 10 10 10


Component definitions
===============================================================================

Component 0 [CO2]

    Type: Adsorbate

    Critical temperature:  304.1282 [K]
    Critical pressure:     7377300 [Pa]
    Acentric factor:       0.22394 [-]

    Mol-fraction:                 1 [-]
    Swappable:                   true

    Mass:                         43.9988 [-]
    Fugacity coefficient:         -nan [-]
    Bulk fluid density:           0 [-]
    Compressibility:              1 [-]
    Excess molecules:             0 [-]

    Number Of Atoms:    3
    CBMC starting bead: 0
      0: O_co2  position  0.00000 -0.00000  1.16000, charge -0.35000
      1: C_co2  position  0.00000 -0.00000  0.00000, charge  0.70000
      2: O_co2  position  0.00000 -0.00000 -1.16000, charge -0.35000
    Diagonalized inertia-vector:      43.05758528 43.05758528 0.00000000
    Translational degrees of freedom: 3
    Rotational degrees of freedom:    2
    Shape of the molecule is: 'Linear'
    Net-charge:        0.00000000 [e]

    Move probabilities:
    Translation:                   0.199203 [-]
    Random translation:            0.000000 [-]
    Rotation:                      0.199203 [-]
    Random rotation:               0.000000 [-]
    Volume change:                 0.000000 [-]
    Reinsertion (CBMC):            0.199203 [-]
    Identity change (CBMC):        0.000000 [-]
    Swap:                          0.000000 [-]
    Swap (CBMC):                   0.000000 [-]
    Swap (CFCMC):                  0.000000 [-]
    Swap (CB/CFCMC):               0.000000 [-]
    Gibbs volume:                  0.003984 [-]
    Gibbs swap (CBMC):             0.398406 [-]
    Gibbs swap (CFCMC):            0.000000 [-]
    Widom:                         0.000000 [-]
    Widom (CFCMC):                 0.000000 [-]
    Widom (CB/CFCMC):              0.000000 [-]
    Parallel tempering:            0.000000 [-]
    Hybrid MC:                     0.000000 [-]

    number of blocking-pockets: 0

    number of bonds: 0





Number of pseudo-atoms
===============================================================================

Component   0 (CO2)
-------------------------------------------------------------------------------
    index   0 (C_co2): 210 atoms
    index   1 (O_co2): 420 atoms

Total number of pseudo-atoms:
-------------------------------------------------------------------------------
    index   0 (C_co2): 210 atoms
    index   1 (O_co2): 420 atoms




Energy status Recomputed from scratch
===============================================================================

Total potential energy/kʙ       -9.090901e+04 [K]
    external field VDW/kʙ        0.000000e+00 [K]
    external field Real/kʙ       0.000000e+00 [K]
    framework-molecule VDW/kʙ    0.000000e+00 [K]
    framework-molecule Real/kʙ   0.000000e+00 [K]
    molecule-molecule VDW/kʙ    -6.404358e+04 [K]
    molecule-molecule Real/kʙ   -1.774911e+04 [K]
    Van der Waals (Tail)/kʙ     -5.240630e+03 [K]
    Ewald Fourier/kʙ             2.663911e+04 [K]
    Ewald self/kʙ               -4.668139e+06 [K]
    Ewald exclusion/kʙ           4.637624e+06 [K]
    intra VDW/kʙ                 0.000000e+00 [K]
    intra Coulombic/kʙ           0.000000e+00 [K]
    polarization/kʙ              0.000000e+00 [K]
    dU/dlambda VDW/kʙ            0.000000e+00 [K]
    dU/dlambda Real/kʙ           0.000000e+00 [K]
    dU/dlambda Ewald/kʙ          0.000000e+00 [K]





Initialization: Current cycle: 0 out of 2000
===============================================================================

Box:      30.00000   0.00000   0.00000
           0.00000  30.00000   0.00000
           0.00000   0.00000  30.00000
Lengths:  30.00000  30.00000  30.00000
Angles:   90.00000  90.00000  90.00000
Rectangular boundary conditions

net charge:   0.00000000

component   0 (CO2) lambda:  0 occupancy:  0 (0.000000)
    net charge:   0.00000000 [e]

Amount of molecules per component :
-------------------------------------------------------------------------------
Component 0 (CO2)
    molecules:         2.190000e+02 molecules
    number density:    8.111111e-03 molec/A^3
    density:           5.926117e+02 kg/m^3

Total potential energy/kʙ       -1.532506e+05 [K]
-------------------------------------------------------------------------------
    external field VDW/kʙ        0.000000e+00 [K]
    external field Real/kʙ       0.000000e+00 [K]
    framework-molecule VDW/kʙ    0.000000e+00 [K]
    framework-molecule Real/kʙ   0.000000e+00 [K]
    molecule-molecule VDW/kʙ    -1.217182e+05 [K]
    molecule-molecule Real/kʙ   -2.067114e+04 [K]
    Van der Waals (Tail)/kʙ     -5.699453e+03 [K]
    Ewald Fourier/kʙ             2.666074e+04 [K]
    Ewald self/kʙ               -4.868202e+06 [K]
    Ewald exclusion/kʙ           4.836379e+06 [K]
    intra VDW/kʙ                 0.000000e+00 [K]
    intra Coulombic/kʙ           0.000000e+00 [K]
    polarization/kʙ              0.000000e+00 [K]
    dU/dlambda VDW/kʙ            0.000000e+00 [K]
    dU/dlambda Real/kʙ           0.000000e+00 [K]
    dU/dlambda Ewald/kʙ          0.000000e+00 [K]


Initialization: Current cycle: 100 out of 2000
===============================================================================

Box:      28.72888   0.00000   0.00000
           0.00000  28.72888   0.00000
           0.00000   0.00000  28.72888
Lengths:  28.72888  28.72888  28.72888
Angles:   90.00000  90.00000  90.00000
Rectangular boundary conditions

net charge:   0.00000000

component   0 (CO2) lambda:  0 occupancy:  0 (0.000000)
    net charge:   0.00000000 [e]

Amount of molecules per component :
-------------------------------------------------------------------------------
Component 0 (CO2)
    molecules:         2.470000e+02 molecules
    number density:    1.041695e-02 molec/A^3
    density:           7.610805e+02 kg/m^3

Total potential energy/kʙ       -3.078150e+05 [K]
-------------------------------------------------------------------------------
    external field VDW/kʙ        0.000000e+00 [K]
    external field Real/kʙ       0.000000e+00 [K]
    framework-molecule VDW/kʙ    0.000000e+00 [K]
    framework-molecule Real/kʙ   0.000000e+00 [K]
    molecule-molecule VDW/kʙ    -2.183427e+05 [K]
    molecule-molecule Real/kʙ   -6.597843e+04 [K]
    Van der Waals (Tail)/kʙ     -8.255557e+03 [K]
    Ewald Fourier/kʙ             2.065289e+04 [K]
    Ewald self/kʙ               -5.490620e+06 [K]
    Ewald exclusion/kʙ           5.454729e+06 [K]
    intra VDW/kʙ                 0.000000e+00 [K]
    intra Coulombic/kʙ           0.000000e+00 [K]
    polarization/kʙ              0.000000e+00 [K]
    dU/dlambda VDW/kʙ            0.000000e+00 [K]
    dU/dlambda Real/kʙ           0.000000e+00 [K]
    dU/dlambda Ewald/kʙ          0.000000e+00 [K]


Initialization: Current cycle: 200 out of 2000
===============================================================================

Box:      28.33498   0.00000   0.00000
           0.00000  28.33498   0.00000
           0.00000   0.00000  28.33498
Lengths:  28.33498  28.33498  28.33498
Angles:   90.00000  90.00000  90.00000
Rectangular boundary conditions

net charge:   0.00000000

component   0 (CO2) lambda:  0 occupancy:  0 (0.000000)
    net charge:   0.00000000 [e]

Amount of molecules per component :
-------------------------------------------------------------------------------
Component 0 (CO2)
    molecules:         2.470000e+02 molecules
    number density:    1.085746e-02 molec/A^3
    density:           7.932646e+02 kg/m^3

Total potential energy/kʙ       -3.062924e+05 [K]
-------------------------------------------------------------------------------
    external field VDW/kʙ        0.000000e+00 [K]
    external field Real/kʙ       0.000000e+00 [K]
    framework-molecule VDW/kʙ    0.000000e+00 [K]
    framework-molecule Real/kʙ   0.000000e+00 [K]
    molecule-molecule VDW/kʙ    -2.157413e+05 [K]
    molecule-molecule Real/kʙ   -6.605325e+04 [K]
    Van der Waals (Tail)/kʙ     -8.604663e+03 [K]
    Ewald Fourier/kʙ             1.999797e+04 [K]
    Ewald self/kʙ               -5.490620e+06 [K]
    Ewald exclusion/kʙ           5.454729e+06 [K]
    intra VDW/kʙ                 0.000000e+00 [K]
    intra Coulombic/kʙ           0.000000e+00 [K]
    polarization/kʙ              0.000000e+00 [K]
    dU/dlambda VDW/kʙ            0.000000e+00 [K]
    dU/dlambda Real/kʙ           0.000000e+00 [K]
    dU/dlambda Ewald/kʙ          0.000000e+00 [K]


Initialization: Current cycle: 300 out of 2000
===============================================================================

Box:      27.62011   0.00000   0.00000
           0.00000  27.62011   0.00000
           0.00000   0.00000  27.62011
Lengths:  27.62011  27.62011  27.62011
Angles:   90.00000  90.00000  90.00000
Rectangular boundary conditions

net charge:   0.00000000

component   0 (CO2) lambda:  0 occupancy:  0 (0.000000)
    net charge:   0.00000000 [e]

Amount of molecules per component :
-------------------------------------------------------------------------------
Component 0 (CO2)
    molecules:         2.480000e+02 molecules
    number density:    1.176997e-02 molec/A^3
    density:           8.599341e+02 kg/m^3

Total potential energy/kʙ       -3.275269e+05 [K]
-------------------------------------------------------------------------------
    external field VDW/kʙ        0.000000e+00 [K]
    external field Real/kʙ       0.000000e+00 [K]
    framework-molecule VDW/kʙ    0.000000e+00 [K]
    framework-molecule Real/kʙ   0.000000e+00 [K]
    molecule-molecule VDW/kʙ    -2.302595e+05 [K]
    molecule-molecule Real/kʙ   -7.062713e+04 [K]
    Van der Waals (Tail)/kʙ     -9.365602e+03 [K]
    Ewald Fourier/kʙ             1.876189e+04 [K]
    Ewald self/kʙ               -5.512850e+06 [K]
    Ewald exclusion/kʙ           5.476813e+06 [K]
    intra VDW/kʙ                 0.000000e+00 [K]
    intra Coulombic/kʙ           0.000000e+00 [K]
    polarization/kʙ              0.000000e+00 [K]
    dU/dlambda VDW/kʙ            0.000000e+00 [K]
    dU/dlambda Real/kʙ           0.000000e+00 [K]
    dU/dlambda Ewald/kʙ          0.000000e+00 [K]


Initialization: Current cycle: 400 out of 2000
===============================================================================

Box:      26.74604   0.00000   0.00000
           0.00000  26.74604   0.00000
           0.00000   0.00000  26.74604
Lengths:  26.74604  26.74604  26.74604
Angles:   90.00000  90.00000  90.00000
Rectangular boundary conditions

net charge:   0.00000000

component   0 (CO2) lambda:  0 occupancy:  0 (0.000000)
    net charge:   0.00000000 [e]

Amount of molecules per component :
-------------------------------------------------------------------------------
Component 0 (CO2)
    molecules:         2.450000e+02 molecules
    number density:    1.280524e-02 molec/A^3
    density:           9.355724e+02 kg/m^3

Total potential energy/kʙ       -3.455399e+05 [K]
-------------------------------------------------------------------------------
    external field VDW/kʙ        0.000000e+00 [K]
    external field Real/kʙ       0.000000e+00 [K]
    framework-molecule VDW/kʙ    0.000000e+00 [K]
    framework-molecule Real/kʙ   0.000000e+00 [K]
    molecule-molecule VDW/kʙ    -2.437792e+05 [K]
    molecule-molecule Real/kʙ   -7.444938e+04 [K]
    Van der Waals (Tail)/kʙ     -1.006613e+04 [K]
    Ewald Fourier/kʙ             1.835534e+04 [K]
    Ewald self/kʙ               -5.446162e+06 [K]
    Ewald exclusion/kʙ           5.410561e+06 [K]
    intra VDW/kʙ                 0.000000e+00 [K]
    intra Coulombic/kʙ           0.000000e+00 [K]
    polarization/kʙ              0.000000e+00 [K]
    dU/dlambda VDW/kʙ            0.000000e+00 [K]
    dU/dlambda Real/kʙ           0.000000e+00 [K]
    dU/dlambda Ewald/kʙ          0.000000e+00 [K]


Initialization: Current cycle: 500 out of 2000
===============================================================================

Box:      26.08314   0.00000   0.00000
           0.00000  26.08314   0.00000
           0.00000   0.00000  26.08314
Lengths:  26.08314  26.08314  26.08314
Angles:   90.00000  90.00000  90.00000
Rectangular boundary conditions

net charge:   0.00000000

component   0 (CO2) lambda:  0 occupancy:  0 (0.000000)
    net charge:   0.00000000 [e]

Amount of molecules per component :
-------------------------------------------------------------------------------
Component 0 (CO2)
    molecules:         2.470000e+02 molecules
    number density:    1.391930e-02 molec/A^3
    density:           1.016968e+03 kg/m^3

Total potential energy/kʙ       -3.613510e+05 [K]
-------------------------------------------------------------------------------
    external field VDW/kʙ        0.000000e+00 [K]
    external field Real/kʙ       0.000000e+00 [K]
    framework-molecule VDW/kʙ    0.000000e+00 [K]
    framework-molecule Real/kʙ   0.000000e+00 [K]
    molecule-molecule VDW/kʙ    -2.561817e+05 [K]
    molecule-molecule Real/kʙ   -7.594096e+04 [K]
    Van der Waals (Tail)/kʙ     -1.103121e+04 [K]
    Ewald Fourier/kʙ             1.769411e+04 [K]
    Ewald self/kʙ               -5.490620e+06 [K]
    Ewald exclusion/kʙ           5.454729e+06 [K]
    intra VDW/kʙ                 0.000000e+00 [K]
    intra Coulombic/kʙ           0.000000e+00 [K]
    polarization/kʙ              0.000000e+00 [K]
    dU/dlambda VDW/kʙ            0.000000e+00 [K]
    dU/dlambda Real/kʙ           0.000000e+00 [K]
    dU/dlambda Ewald/kʙ          0.000000e+00 [K]


Initialization: Current cycle: 600 out of 2000
===============================================================================

Box:      25.64439   0.00000   0.00000
           0.00000  25.64439   0.00000
           0.00000   0.00000  25.64439
Lengths:  25.64439  25.64439  25.64439
Angles:   90.00000  90.00000  90.00000
Rectangular boundary conditions

net charge:   0.00000000

component   0 (CO2) lambda:  0 occupancy:  0 (0.000000)
    net charge:   0.00000000 [e]

Amount of molecules per component :
-------------------------------------------------------------------------------
Component 0 (CO2)
    molecules:         2.410000e+02 molecules
    number density:    1.429024e-02 molec/A^3
    density:           1.044070e+03 kg/m^3

Total potential energy/kʙ       -3.641267e+05 [K]
-------------------------------------------------------------------------------
    external field VDW/kʙ        0.000000e+00 [K]
    external field Real/kʙ       0.000000e+00 [K]
    framework-molecule VDW/kʙ    0.000000e+00 [K]
    framework-molecule Real/kʙ   0.000000e+00 [K]
    molecule-molecule VDW/kʙ    -2.498843e+05 [K]
    molecule-molecule Real/kʙ   -8.404357e+04 [K]
    Van der Waals (Tail)/kʙ     -1.105008e+04 [K]
    Ewald Fourier/kʙ             1.587062e+04 [K]
    Ewald self/kʙ               -5.357245e+06 [K]
    Ewald exclusion/kʙ           5.322226e+06 [K]
    intra VDW/kʙ                 0.000000e+00 [K]
    intra Coulombic/kʙ           0.000000e+00 [K]
    polarization/kʙ              0.000000e+00 [K]
    dU/dlambda VDW/kʙ            0.000000e+00 [K]
    dU/dlambda Real/kʙ           0.000000e+00 [K]
    dU/dlambda Ewald/kʙ          0.000000e+00 [K]


Initialization: Current cycle: 700 out of 2000
===============================================================================

Box:      25.78252   0.00000   0.00000
           0.00000  25.78252   0.00000
           0.00000   0.00000  25.78252
Lengths:  25.78252  25.78252  25.78252
Angles:   90.00000  90.00000  90.00000
Rectangular boundary conditions

net charge:   0.00000000

component   0 (CO2) lambda:  0 occupancy:  0 (0.000000)
    net charge:   0.00000000 [e]

Amount of molecules per component :
-------------------------------------------------------------------------------
Component 0 (CO2)
    molecules:         2.460000e+02 molecules
    number density:    1.435354e-02 molec/A^3
    density:           1.048694e+03 kg/m^3

Total potential energy/kʙ       -3.747322e+05 [K]
-------------------------------------------------------------------------------
    external field VDW/kʙ        0.000000e+00 [K]
    external field Real/kʙ       0.000000e+00 [K]
    framework-molecule VDW/kʙ    0.000000e+00 [K]
    framework-molecule Real/kʙ   0.000000e+00 [K]
    molecule-molecule VDW/kʙ    -2.600024e+05 [K]
    molecule-molecule Real/kʙ   -8.401429e+04 [K]
    Van der Waals (Tail)/kʙ     -1.132929e+04 [K]
    Ewald Fourier/kʙ             1.635975e+04 [K]
    Ewald self/kʙ               -5.468391e+06 [K]
    Ewald exclusion/kʙ           5.432645e+06 [K]
    intra VDW/kʙ                 0.000000e+00 [K]
    intra Coulombic/kʙ           0.000000e+00 [K]
    polarization/kʙ              0.000000e+00 [K]
    dU/dlambda VDW/kʙ            0.000000e+00 [K]
    dU/dlambda Real/kʙ           0.000000e+00 [K]
    dU/dlambda Ewald/kʙ          0.000000e+00 [K]


Initialization: Current cycle: 800 out of 2000
===============================================================================

Box:      25.70766   0.00000   0.00000
           0.00000  25.70766   0.00000
           0.00000   0.00000  25.70766
Lengths:  25.70766  25.70766  25.70766
Angles:   90.00000  90.00000  90.00000
Rectangular boundary conditions

net charge:   0.00000000

component   0 (CO2) lambda:  0 occupancy:  0 (0.000000)
    net charge:   0.00000000 [e]

Amount of molecules per component :
-------------------------------------------------------------------------------
Component 0 (CO2)
    molecules:         2.370000e+02 molecules
    number density:    1.394956e-02 molec/A^3
    density:           1.019179e+03 kg/m^3

Total potential energy/kʙ       -3.500187e+05 [K]
-------------------------------------------------------------------------------
    external field VDW/kʙ        0.000000e+00 [K]
    external field Real/kʙ       0.000000e+00 [K]
    framework-molecule VDW/kʙ    0.000000e+00 [K]
    framework-molecule Real/kʙ   0.000000e+00 [K]
    molecule-molecule VDW/kʙ    -2.458667e+05 [K]
    molecule-molecule Real/kʙ   -7.518597e+04 [K]
    Van der Waals (Tail)/kʙ     -1.060761e+04 [K]
    Ewald Fourier/kʙ             1.607965e+04 [K]
    Ewald self/kʙ               -5.268328e+06 [K]
    Ewald exclusion/kʙ           5.233890e+06 [K]
    intra VDW/kʙ                 0.000000e+00 [K]
    intra Coulombic/kʙ           0.000000e+00 [K]
    polarization/kʙ              0.000000e+00 [K]
    dU/dlambda VDW/kʙ            0.000000e+00 [K]
    dU/dlambda Real/kʙ           0.000000e+00 [K]
    dU/dlambda Ewald/kʙ          0.000000e+00 [K]


Initialization: Current cycle: 900 out of 2000
===============================================================================

Box:      25.26215   0.00000   0.00000
           0.00000  25.26215   0.00000
           0.00000   0.00000  25.26215
Lengths:  25.26215  25.26215  25.26215
Angles:   90.00000  90.00000  90.00000
Rectangular boundary conditions

net charge:   0.00000000

component   0 (CO2) lambda:  0 occupancy:  0 (0.000000)
    net charge:   0.00000000 [e]

Amount of molecules per component :
-------------------------------------------------------------------------------
Component 0 (CO2)
    molecules:         2.430000e+02 molecules
    number density:    1.507286e-02 molec/A^3
    density:           1.101249e+03 kg/m^3

Total potential energy/kʙ       -3.850243e+05 [K]
-------------------------------------------------------------------------------
    external field VDW/kʙ        0.000000e+00 [K]
    external field Real/kʙ       0.000000e+00 [K]
    framework-molecule VDW/kʙ    0.000000e+00 [K]
    framework-molecule Real/kʙ   0.000000e+00 [K]
    molecule-molecule VDW/kʙ    -2.714606e+05 [K]
    molecule-molecule Real/kʙ   -8.333108e+04 [K]
    Van der Waals (Tail)/kʙ     -1.175197e+04 [K]
    Ewald Fourier/kʙ             1.682925e+04 [K]
    Ewald self/kʙ               -5.401703e+06 [K]
    Ewald exclusion/kʙ           5.366393e+06 [K]
    intra VDW/kʙ                 0.000000e+00 [K]
    intra Coulombic/kʙ           0.000000e+00 [K]
    polarization/kʙ              0.000000e+00 [K]
    dU/dlambda VDW/kʙ            0.000000e+00 [K]
    dU/dlambda Real/kʙ           0.000000e+00 [K]
    dU/dlambda Ewald/kʙ          0.000000e+00 [K]


Initialization: Current cycle: 1000 out of 2000
===============================================================================

Box:      25.43170   0.00000   0.00000
           0.00000  25.43170   0.00000
           0.00000   0.00000  25.43170
Lengths:  25.43170  25.43170  25.43170
Angles:   90.00000  90.00000  90.00000
Rectangular boundary conditions

net charge:   0.00000000

component   0 (CO2) lambda:  0 occupancy:  0 (0.000000)
    net charge:   0.00000000 [e]

Amount of molecules per component :
-------------------------------------------------------------------------------
Component 0 (CO2)
    molecules:         2.410000e+02 molecules
    number density:    1.465179e-02 molec/A^3
    density:           1.070485e+03 kg/m^3

Total potential energy/kʙ       -3.850826e+05 [K]
-------------------------------------------------------------------------------
    external field VDW/kʙ        0.000000e+00 [K]
    external field Real/kʙ       0.000000e+00 [K]
    framework-molecule VDW/kʙ    0.000000e+00 [K]
    framework-molecule Real/kʙ   0.000000e+00 [K]
    molecule-molecule VDW/kʙ    -2.718169e+05 [K]
    molecule-molecule Real/kʙ   -8.243472e+04 [K]
    Van der Waals (Tail)/kʙ     -1.132965e+04 [K]
    Ewald Fourier/kʙ             1.551806e+04 [K]
    Ewald self/kʙ               -5.357245e+06 [K]
    Ewald exclusion/kʙ           5.322226e+06 [K]
    intra VDW/kʙ                 0.000000e+00 [K]
    intra Coulombic/kʙ           0.000000e+00 [K]
    polarization/kʙ              0.000000e+00 [K]
    dU/dlambda VDW/kʙ            0.000000e+00 [K]
    dU/dlambda Real/kʙ           0.000000e+00 [K]
    dU/dlambda Ewald/kʙ          0.000000e+00 [K]


Initialization: Current cycle: 1100 out of 2000
===============================================================================

Box:      25.39357   0.00000   0.00000
           0.00000  25.39357   0.00000
           0.00000   0.00000  25.39357
Lengths:  25.39357  25.39357  25.39357
Angles:   90.00000  90.00000  90.00000
Rectangular boundary conditions

net charge:   0.00000000

component   0 (CO2) lambda:  0 occupancy:  0 (0.000000)
    net charge:   0.00000000 [e]

Amount of molecules per component :
-------------------------------------------------------------------------------
Component 0 (CO2)
    molecules:         2.430000e+02 molecules
    number density:    1.484003e-02 molec/A^3
    density:           1.084238e+03 kg/m^3

Total potential energy/kʙ       -3.829025e+05 [K]
-------------------------------------------------------------------------------
    external field VDW/kʙ        0.000000e+00 [K]
    external field Real/kʙ       0.000000e+00 [K]
    framework-molecule VDW/kʙ    0.000000e+00 [K]
    framework-molecule Real/kʙ   0.000000e+00 [K]
    molecule-molecule VDW/kʙ    -2.717393e+05 [K]
    molecule-molecule Real/kʙ   -8.007974e+04 [K]
    Van der Waals (Tail)/kʙ     -1.157044e+04 [K]
    Ewald Fourier/kʙ             1.579693e+04 [K]
    Ewald self/kʙ               -5.401703e+06 [K]
    Ewald exclusion/kʙ           5.366393e+06 [K]
    intra VDW/kʙ                 0.000000e+00 [K]
    intra Coulombic/kʙ           0.000000e+00 [K]
    polarization/kʙ              0.000000e+00 [K]
    dU/dlambda VDW/kʙ            0.000000e+00 [K]
    dU/dlambda Real/kʙ           0.000000e+00 [K]
    dU/dlambda Ewald/kʙ          0.000000e+00 [K]


Initialization: Current cycle: 1200 out of 2000
===============================================================================

Box:      25.11919   0.00000   0.00000
           0.00000  25.11919   0.00000
           0.00000   0.00000  25.11919
Lengths:  25.11919  25.11919  25.11919
Angles:   90.00000  90.00000  90.00000
Rectangular boundary conditions

net charge:   0.00000000

component   0 (CO2) lambda:  0 occupancy:  0 (0.000000)
    net charge:   0.00000000 [e]

Amount of molecules per component :
-------------------------------------------------------------------------------
Component 0 (CO2)
    molecules:         2.460000e+02 molecules
    number density:    1.552094e-02 molec/A^3
    density:           1.133987e+03 kg/m^3

Total potential energy/kʙ       -4.044152e+05 [K]
-------------------------------------------------------------------------------
    external field VDW/kʙ        0.000000e+00 [K]
    external field Real/kʙ       0.000000e+00 [K]
    framework-molecule VDW/kʙ    0.000000e+00 [K]
    framework-molecule Real/kʙ   0.000000e+00 [K]
    molecule-molecule VDW/kʙ    -2.826062e+05 [K]
    molecule-molecule Real/kʙ   -8.829567e+04 [K]
    Van der Waals (Tail)/kʙ     -1.225073e+04 [K]
    Ewald Fourier/kʙ             1.448334e+04 [K]
    Ewald self/kʙ               -5.468391e+06 [K]
    Ewald exclusion/kʙ           5.432645e+06 [K]
    intra VDW/kʙ                 0.000000e+00 [K]
    intra Coulombic/kʙ           0.000000e+00 [K]
    polarization/kʙ              0.000000e+00 [K]
    dU/dlambda VDW/kʙ            0.000000e+00 [K]
    dU/dlambda Real/kʙ           0.000000e+00 [K]
    dU/dlambda Ewald/kʙ          0.000000e+00 [K]


Initialization: Current cycle: 1300 out of 2000
===============================================================================

Box:      25.29720   0.00000   0.00000
           0.00000  25.29720   0.00000
           0.00000   0.00000  25.29720
Lengths:  25.29720  25.29720  25.29720
Angles:   90.00000  90.00000  90.00000
Rectangular boundary conditions

net charge:   0.00000000

component   0 (CO2) lambda:  0 occupancy:  0 (0.000000)
    net charge:   0.00000000 [e]

Amount of molecules per component :
-------------------------------------------------------------------------------
Component 0 (CO2)
    molecules:         2.380000e+02 molecules
    number density:    1.470142e-02 molec/A^3
    density:           1.074111e+03 kg/m^3

Total potential energy/kʙ       -3.823427e+05 [K]
-------------------------------------------------------------------------------
    external field VDW/kʙ        0.000000e+00 [K]
    external field Real/kʙ       0.000000e+00 [K]
    framework-molecule VDW/kʙ    0.000000e+00 [K]
    framework-molecule Real/kʙ   0.000000e+00 [K]
    molecule-molecule VDW/kʙ    -2.705747e+05 [K]
    molecule-molecule Real/kʙ   -8.136980e+04 [K]
    Van der Waals (Tail)/kʙ     -1.122652e+04 [K]
    Ewald Fourier/kʙ             1.541177e+04 [K]
    Ewald self/kʙ               -5.290557e+06 [K]
    Ewald exclusion/kʙ           5.255974e+06 [K]
    intra VDW/kʙ                 0.000000e+00 [K]
    intra Coulombic/kʙ           0.000000e+00 [K]
    polarization/kʙ              0.000000e+00 [K]
    dU/dlambda VDW/kʙ            0.000000e+00 [K]
    dU/dlambda Real/kʙ           0.000000e+00 [K]
    dU/dlambda Ewald/kʙ          0.000000e+00 [K]


Initialization: Current cycle: 1400 out of 2000
===============================================================================

Box:      25.45892   0.00000   0.00000
           0.00000  25.45892   0.00000
           0.00000   0.00000  25.45892
Lengths:  25.45892  25.45892  25.45892
Angles:   90.00000  90.00000  90.00000
Rectangular boundary conditions

net charge:   0.00000000

component   0 (CO2) lambda:  0 occupancy:  0 (0.000000)
    net charge:   0.00000000 [e]

Amount of molecules per component :
-------------------------------------------------------------------------------
Component 0 (CO2)
    molecules:         2.400000e+02 molecules
    number density:    1.454424e-02 molec/A^3
    density:           1.062627e+03 kg/m^3

Total potential energy/kʙ       -3.729751e+05 [K]
-------------------------------------------------------------------------------
    external field VDW/kʙ        0.000000e+00 [K]
    external field Real/kʙ       0.000000e+00 [K]
    framework-molecule VDW/kʙ    0.000000e+00 [K]
    framework-molecule Real/kʙ   0.000000e+00 [K]
    molecule-molecule VDW/kʙ    -2.647234e+05 [K]
    molecule-molecule Real/kʙ   -7.863647e+04 [K]
    Van der Waals (Tail)/kʙ     -1.119982e+04 [K]
    Ewald Fourier/kʙ             1.645862e+04 [K]
    Ewald self/kʙ               -5.335016e+06 [K]
    Ewald exclusion/kʙ           5.300142e+06 [K]
    intra VDW/kʙ                 0.000000e+00 [K]
    intra Coulombic/kʙ           0.000000e+00 [K]
    polarization/kʙ              0.000000e+00 [K]
    dU/dlambda VDW/kʙ            0.000000e+00 [K]
    dU/dlambda Real/kʙ           0.000000e+00 [K]
    dU/dlambda Ewald/kʙ          0.000000e+00 [K]


Initialization: Current cycle: 1500 out of 2000
===============================================================================

Box:      25.12421   0.00000   0.00000
           0.00000  25.12421   0.00000
           0.00000   0.00000  25.12421
Lengths:  25.12421  25.12421  25.12421
Angles:   90.00000  90.00000  90.00000
Rectangular boundary conditions

net charge:   0.00000000

component   0 (CO2) lambda:  0 occupancy:  0 (0.000000)
    net charge:   0.00000000 [e]

Amount of molecules per component :
-------------------------------------------------------------------------------
Component 0 (CO2)
    molecules:         2.430000e+02 molecules
    number density:    1.532248e-02 molec/A^3
    density:           1.119486e+03 kg/m^3

Total potential energy/kʙ       -3.939358e+05 [K]
-------------------------------------------------------------------------------
    external field VDW/kʙ        0.000000e+00 [K]
    external field Real/kʙ       0.000000e+00 [K]
    framework-molecule VDW/kʙ    0.000000e+00 [K]
    framework-molecule Real/kʙ   0.000000e+00 [K]
    molecule-molecule VDW/kʙ    -2.733704e+05 [K]
    molecule-molecule Real/kʙ   -8.888238e+04 [K]
    Van der Waals (Tail)/kʙ     -1.194659e+04 [K]
    Ewald Fourier/kʙ             1.557353e+04 [K]
    Ewald self/kʙ               -5.401703e+06 [K]
    Ewald exclusion/kʙ           5.366393e+06 [K]
    intra VDW/kʙ                 0.000000e+00 [K]
    intra Coulombic/kʙ           0.000000e+00 [K]
    polarization/kʙ              0.000000e+00 [K]
    dU/dlambda VDW/kʙ            0.000000e+00 [K]
    dU/dlambda Real/kʙ           0.000000e+00 [K]
    dU/dlambda Ewald/kʙ          0.000000e+00 [K]


Initialization: Current cycle: 1600 out of 2000
===============================================================================

Box:      25.36466   0.00000   0.00000
           0.00000  25.36466   0.00000
           0.00000   0.00000  25.36466
Lengths:  25.36466  25.36466  25.36466
Angles:   90.00000  90.00000  90.00000
Rectangular boundary conditions

net charge:   0.00000000

component   0 (CO2) lambda:  0 occupancy:  0 (0.000000)
    net charge:   0.00000000 [e]

Amount of molecules per component :
-------------------------------------------------------------------------------
Component 0 (CO2)
    molecules:         2.440000e+02 molecules
    number density:    1.495212e-02 molec/A^3
    density:           1.092427e+03 kg/m^3

Total potential energy/kʙ       -3.919963e+05 [K]
-------------------------------------------------------------------------------
    external field VDW/kʙ        0.000000e+00 [K]
    external field Real/kʙ       0.000000e+00 [K]
    framework-molecule VDW/kʙ    0.000000e+00 [K]
    framework-molecule Real/kʙ   0.000000e+00 [K]
    molecule-molecule VDW/kʙ    -2.732235e+05 [K]
    molecule-molecule Real/kʙ   -8.733718e+04 [K]
    Van der Waals (Tail)/kʙ     -1.170580e+04 [K]
    Ewald Fourier/kʙ             1.572545e+04 [K]
    Ewald self/kʙ               -5.423933e+06 [K]
    Ewald exclusion/kʙ           5.388477e+06 [K]
    intra VDW/kʙ                 0.000000e+00 [K]
    intra Coulombic/kʙ           0.000000e+00 [K]
    polarization/kʙ              0.000000e+00 [K]
    dU/dlambda VDW/kʙ            0.000000e+00 [K]
    dU/dlambda Real/kʙ           0.000000e+00 [K]
    dU/dlambda Ewald/kʙ          0.000000e+00 [K]


Initialization: Current cycle: 1700 out of 2000
===============================================================================

Box:      25.10919   0.00000   0.00000
           0.00000  25.10919   0.00000
           0.00000   0.00000  25.10919
Lengths:  25.10919  25.10919  25.10919
Angles:   90.00000  90.00000  90.00000
Rectangular boundary conditions

net charge:   0.00000000

component   0 (CO2) lambda:  0 occupancy:  0 (0.000000)
    net charge:   0.00000000 [e]

Amount of molecules per component :
-------------------------------------------------------------------------------
Component 0 (CO2)
    molecules:         2.410000e+02 molecules
    number density:    1.522365e-02 molec/A^3
    density:           1.112266e+03 kg/m^3

Total potential energy/kʙ       -3.927742e+05 [K]
-------------------------------------------------------------------------------
    external field VDW/kʙ        0.000000e+00 [K]
    external field Real/kʙ       0.000000e+00 [K]
    framework-molecule VDW/kʙ    0.000000e+00 [K]
    framework-molecule Real/kʙ   0.000000e+00 [K]
    molecule-molecule VDW/kʙ    -2.795966e+05 [K]
    molecule-molecule Real/kʙ   -8.273998e+04 [K]
    Van der Waals (Tail)/kʙ     -1.177184e+04 [K]
    Ewald Fourier/kʙ             1.635362e+04 [K]
    Ewald self/kʙ               -5.357245e+06 [K]
    Ewald exclusion/kʙ           5.322226e+06 [K]
    intra VDW/kʙ                 0.000000e+00 [K]
    intra Coulombic/kʙ           0.000000e+00 [K]
    polarization/kʙ              0.000000e+00 [K]
    dU/dlambda VDW/kʙ            0.000000e+00 [K]
    dU/dlambda Real/kʙ           0.000000e+00 [K]
    dU/dlambda Ewald/kʙ          0.000000e+00 [K]


Initialization: Current cycle: 1800 out of 2000
===============================================================================

Box:      25.04776   0.00000   0.00000
           0.00000  25.04776   0.00000
           0.00000   0.00000  25.04776
Lengths:  25.04776  25.04776  25.04776
Angles:   90.00000  90.00000  90.00000
Rectangular boundary conditions

net charge:   0.00000000

component   0 (CO2) lambda:  0 occupancy:  0 (0.000000)
    net charge:   0.00000000 [e]

Amount of molecules per component :
-------------------------------------------------------------------------------
Component 0 (CO2)
    molecules:         2.410000e+02 molecules
    number density:    1.533593e-02 molec/A^3
    density:           1.120470e+03 kg/m^3

Total potential energy/kʙ       -3.935103e+05 [K]
-------------------------------------------------------------------------------
    external field VDW/kʙ        0.000000e+00 [K]
    external field Real/kʙ       0.000000e+00 [K]
    framework-molecule VDW/kʙ    0.000000e+00 [K]
    framework-molecule Real/kʙ   0.000000e+00 [K]
    molecule-molecule VDW/kʙ    -2.843409e+05 [K]
    molecule-molecule Real/kʙ   -7.908088e+04 [K]
    Van der Waals (Tail)/kʙ     -1.185867e+04 [K]
    Ewald Fourier/kʙ             1.678954e+04 [K]
    Ewald self/kʙ               -5.357245e+06 [K]
    Ewald exclusion/kʙ           5.322226e+06 [K]
    intra VDW/kʙ                 0.000000e+00 [K]
    intra Coulombic/kʙ           0.000000e+00 [K]
    polarization/kʙ              0.000000e+00 [K]
    dU/dlambda VDW/kʙ            0.000000e+00 [K]
    dU/dlambda Real/kʙ           0.000000e+00 [K]
    dU/dlambda Ewald/kʙ          0.000000e+00 [K]


Initialization: Current cycle: 1900 out of 2000
===============================================================================

Box:      24.78591   0.00000   0.00000
           0.00000  24.78591   0.00000
           0.00000   0.00000  24.78591
Lengths:  24.78591  24.78591  24.78591
Angles:   90.00000  90.00000  90.00000
Rectangular boundary conditions

net charge:   0.00000000

component   0 (CO2) lambda:  0 occupancy:  0 (0.000000)
    net charge:   0.00000000 [e]

Amount of molecules per component :
-------------------------------------------------------------------------------
Component 0 (CO2)
    molecules:         2.410000e+02 molecules
    number density:    1.582713e-02 molec/A^3
    density:           1.156357e+03 kg/m^3

Total potential energy/kʙ       -4.107584e+05 [K]
-------------------------------------------------------------------------------
    external field VDW/kʙ        0.000000e+00 [K]
    external field Real/kʙ       0.000000e+00 [K]
    framework-molecule VDW/kʙ    0.000000e+00 [K]
    framework-molecule Real/kʙ   0.000000e+00 [K]
    molecule-molecule VDW/kʙ    -2.893662e+05 [K]
    molecule-molecule Real/kʙ   -9.043703e+04 [K]
    Van der Waals (Tail)/kʙ     -1.223849e+04 [K]
    Ewald Fourier/kʙ             1.630273e+04 [K]
    Ewald self/kʙ               -5.357245e+06 [K]
    Ewald exclusion/kʙ           5.322226e+06 [K]
    intra VDW/kʙ                 0.000000e+00 [K]
    intra Coulombic/kʙ           0.000000e+00 [K]
    polarization/kʙ              0.000000e+00 [K]
    dU/dlambda VDW/kʙ            0.000000e+00 [K]
    dU/dlambda Real/kʙ           0.000000e+00 [K]
    dU/dlambda Ewald/kʙ          0.000000e+00 [K]


Current cycle: 0 out of 6000
===============================================================================

Box:      24.98987   0.00000   0.00000  Average:  24.98987   0.00000   0.00000
           0.00000  24.98987   0.00000             0.00000  24.98987   0.00000
           0.00000   0.00000  24.98987             0.00000   0.00000  24.98987
Lengths:  24.98987  24.98987  24.98987  Average:  24.98987  24.98987  24.98987
Angles:   90.00000  90.00000  90.00000  Average:  90.00000  90.00000  90.00000
Rectangular boundary conditions

net charge:   0.00000000

component 0 (CO2) lambda:  0 occupancy:  0 (0.000000)
    net charge:   0.00000000 [e]

Amount of molecules per component :
-------------------------------------------------------------------------------
Component 0 (CO2)
    molecules:      2.370000e+02 molecules  (2.370000e+02 +/- 0.000000e+00)
    number density: 1.518645e-02 molec./A^3 (1.518645e-02 +/- 0.000000e+00)
    density:        1.109548e+03 kg/m^3     (1.109548e+03 +/- 0.000000e+00)

Average pressure tensor: 
-------------------------------------------------------------------------------
 4.8225e+02  0.0000e+00  0.0000e+00 +/- 0.0000e+00 0.0000e+00 0.0000e+00 [bar]
 0.0000e+00  4.8225e+02  0.0000e+00 +/- 0.0000e+00 0.0000e+00 0.0000e+00 [bar]
 0.0000e+00  0.0000e+00  4.8225e+02 +/- 0.0000e+00 0.0000e+00 0.0000e+00 [bar]
Ideal-gas pressure:   4.822452e+02 +/ 0.000000e+00 [bar]
Excess pressure:      0.000000e+00 +/ 0.000000e+00 [bar]
Pressure:             4.822452e+02 +/ 0.000000e+00 [bar]

Total potential energy/kʙ  -3.958340e+05 (-3.958340e+05 +/- 0.000000e+00) [K]
-------------------------------------------------------------------------------
ExternalField-molecule
    Van der Waals/kʙ        0.000000e+00 ( 0.000000e+00 +/- 0.000000e+00) [K]
Framework-molecule
    Van der Waals/kʙ        0.000000e+00 ( 0.000000e+00 +/- 0.000000e+00) [K]
    Van der Waals (Tail)/kʙ 0.000000e+00 ( 0.000000e+00 +/- 0.000000e+00) [K]
    Coulombic Real/kʙ       0.000000e+00 ( 0.000000e+00 +/- 0.000000e+00) [K]
    Coulombic Fourier/kʙ    0.000000e+00 ( 0.000000e+00 +/- 0.000000e+00) [K]
Molecule-molecule
    Van der Waals/kʙ       -2.777380e+05 (-2.777380e+05 +/- 0.000000e+00) [K]
    Van der Waals (Tail)/kʙ-1.154818e+04 (-1.154818e+04 +/- 0.000000e+00) [K]
    Coulombic Real/kʙ      -8.718877e+04 (-8.718877e+04 +/- 0.000000e+00) [K]
    Coulombic Fourier/kʙ   -1.935898e+04 (-1.935898e+04 +/- 0.000000e+00) [K]
    Molecule Intra/kʙ       0.000000e+00 ( 0.000000e+00 +/- 0.000000e+00) [K]

Current cycle: 100 out of 6000
===============================================================================

Box:      24.95627   0.00000   0.00000  Average:  24.94539   0.00000   0.00000
           0.00000  24.95627   0.00000             0.00000  24.94539   0.00000
           0.00000   0.00000  24.95627             0.00000   0.00000  24.94539
Lengths:  24.95627  24.95627  24.95627  Average:  24.94539  24.94539  24.94539
Angles:   90.00000  90.00000  90.00000  Average:  90.00000  90.00000  90.00000
Rectangular boundary conditions

net charge:   0.00000000

component 0 (CO2) lambda:  0 occupancy:  0 (0.000000)
    net charge:   0.00000000 [e]

Amount of molecules per component :
-------------------------------------------------------------------------------
Component 0 (CO2)
    molecules:      2.400000e+02 molecules  (2.383960e+02 +/- 0.000000e+00)
    number density: 1.544088e-02 molec./A^3 (1.535831e-02 +/- 0.000000e+00)
    density:        1.128137e+03 kg/m^3     (1.122105e+03 +/- 0.000000e+00)

Average pressure tensor: 
-------------------------------------------------------------------------------
-2.9151e+02 -2.2404e+01  8.0401e+01 +/- 0.0000e+00 0.0000e+00 0.0000e+00 [bar]
-2.2404e+01 -2.0969e+02 -8.3717e+01 +/- 0.0000e+00 0.0000e+00 0.0000e+00 [bar]
 8.0401e+01 -8.3717e+01 -1.8879e+01 +/- 0.0000e+00 0.0000e+00 0.0000e+00 [bar]
Ideal-gas pressure:   4.877026e+02 +/ 0.000000e+00 [bar]
Excess pressure:     -6.610617e+02 +/ 0.000000e+00 [bar]
Pressure:            -1.733591e+02 +/ 0.000000e+00 [bar]

Total potential energy/kʙ  -3.934692e+05 (-3.930630e+05 +/- 0.000000e+00) [K]
-------------------------------------------------------------------------------
ExternalField-molecule
    Van der Waals/kʙ        0.000000e+00 ( 0.000000e+00 +/- 0.000000e+00) [K]
Framework-molecule
    Van der Waals/kʙ        0.000000e+00 ( 0.000000e+00 +/- 0.000000e+00) [K]
    Van der Waals (Tail)/kʙ 0.000000e+00 ( 0.000000e+00 +/- 0.000000e+00) [K]
    Coulombic Real/kʙ       0.000000e+00 ( 0.000000e+00 +/- 0.000000e+00) [K]
    Coulombic Fourier/kʙ    0.000000e+00 ( 0.000000e+00 +/- 0.000000e+00) [K]
Molecule-molecule
    Van der Waals/kʙ       -2.802764e+05 (-2.786102e+05 +/- 0.000000e+00) [K]
    Van der Waals (Tail)/kʙ-1.189028e+04 (-1.170093e+04 +/- 0.000000e+00) [K]
    Coulombic Real/kʙ      -8.042971e+04 (-8.272416e+04 +/- 0.000000e+00) [K]
    Coulombic Fourier/kʙ   -2.087285e+04 (-2.002777e+04 +/- 0.000000e+00) [K]
    Molecule Intra/kʙ       0.000000e+00 ( 0.000000e+00 +/- 0.000000e+00) [K]

Current cycle: 200 out of 6000
===============================================================================

Box:      25.26809   0.00000   0.00000  Average:  24.97244   0.00000   0.00000
           0.00000  25.26809   0.00000             0.00000  24.97244   0.00000
           0.00000   0.00000  25.26809             0.00000   0.00000  24.97244
Lengths:  25.26809  25.26809  25.26809  Average:  24.97244  24.97244  24.97244
Angles:   90.00000  90.00000  90.00000  Average:  90.00000  90.00000  90.00000
Rectangular boundary conditions

net charge:   0.00000000

component 0 (CO2) lambda:  0 occupancy:  0 (0.000000)
    net charge:   0.00000000 [e]

Amount of molecules per component :
-------------------------------------------------------------------------------
Component 0 (CO2)
    molecules:      2.420000e+02 molecules  (2.396965e+02 +/- 0.000000e+00)
    number density: 1.500025e-02 molec./A^3 (1.539272e-02 +/- 0.000000e+00)
    density:        1.095944e+03 kg/m^3     (1.124619e+03 +/- 0.000000e+00)

Average pressure tensor: 
-------------------------------------------------------------------------------
-1.5120e+02  1.1237e+02  1.5357e+02 +/- 0.0000e+00 0.0000e+00 0.0000e+00 [bar]
 1.1237e+02 -1.6692e+02 -7.7412e+01 +/- 0.0000e+00 0.0000e+00 0.0000e+00 [bar]
 1.5357e+02 -7.7412e+01  3.7599e+01 +/- 0.0000e+00 0.0000e+00 0.0000e+00 [bar]
Ideal-gas pressure:   4.887953e+02 +/ 0.000000e+00 [bar]
Excess pressure:     -5.823014e+02 +/ 0.000000e+00 [bar]
Pressure:            -9.350610e+01 +/ 0.000000e+00 [bar]

Total potential energy/kʙ  -3.972714e+05 (-3.981521e+05 +/- 0.000000e+00) [K]
-------------------------------------------------------------------------------
ExternalField-molecule
    Van der Waals/kʙ        0.000000e+00 ( 0.000000e+00 +/- 0.000000e+00) [K]
Framework-molecule
    Van der Waals/kʙ        0.000000e+00 ( 0.000000e+00 +/- 0.000000e+00) [K]
    Van der Waals (Tail)/kʙ 0.000000e+00 ( 0.000000e+00 +/- 0.000000e+00) [K]
    Coulombic Real/kʙ       0.000000e+00 ( 0.000000e+00 +/- 0.000000e+00) [K]
    Coulombic Fourier/kʙ    0.000000e+00 ( 0.000000e+00 +/- 0.000000e+00) [K]
Molecule-molecule
    Van der Waals/kʙ       -2.791661e+05 (-2.810227e+05 +/- 0.000000e+00) [K]
    Van der Waals (Tail)/kʙ-1.164722e+04 (-1.181532e+04 +/- 0.000000e+00) [K]
    Coulombic Real/kʙ      -8.508361e+04 (-8.467030e+04 +/- 0.000000e+00) [K]
    Coulombic Fourier/kʙ   -2.137443e+04 (-2.064381e+04 +/- 0.000000e+00) [K]
    Molecule Intra/kʙ       0.000000e+00 ( 0.000000e+00 +/- 0.000000e+00) [K]

Current cycle: 300 out of 6000
===============================================================================

Box:      24.89118   0.00000   0.00000  Average:  24.97977   0.00000   0.00000
           0.00000  24.89118   0.00000             0.00000  24.97977   0.00000
           0.00000   0.00000  24.89118             0.00000   0.00000  24.97977
Lengths:  24.89118  24.89118  24.89118  Average:  24.97977  24.97977  24.97977
Angles:   90.00000  90.00000  90.00000  Average:  90.00000  90.00000  90.00000
Rectangular boundary conditions

net charge:   0.00000000

component 0 (CO2) lambda:  0 occupancy:  0 (0.000000)
    net charge:   0.00000000 [e]

Amount of molecules per component :
-------------------------------------------------------------------------------
Component 0 (CO2)
    molecules:      2.400000e+02 molecules  (2.395449e+02 +/- 0.000000e+00)
    number density: 1.556234e-02 molec./A^3 (1.536911e-02 +/- 0.000000e+00)
    density:        1.137011e+03 kg/m^3     (1.122894e+03 +/- 0.000000e+00)

Average pressure tensor: 
-------------------------------------------------------------------------------
-2.5130e+02  5.6140e+01  1.4010e+02 +/- 0.0000e+00 0.0000e+00 0.0000e+00 [bar]
 5.6140e+01 -1.6704e+02 -3.9591e+01 +/- 0.0000e+00 0.0000e+00 0.0000e+00 [bar]
 1.4010e+02 -3.9591e+01  1.9073e+01 +/- 0.0000e+00 0.0000e+00 0.0000e+00 [bar]
Ideal-gas pressure:   4.880456e+02 +/ 0.000000e+00 [bar]
Excess pressure:     -6.211333e+02 +/ 0.000000e+00 [bar]
Pressure:            -1.330877e+02 +/ 0.000000e+00 [bar]

Total potential energy/kʙ  -4.025286e+05 (-3.974274e+05 +/- 0.000000e+00) [K]
-------------------------------------------------------------------------------
ExternalField-molecule
    Van der Waals/kʙ        0.000000e+00 ( 0.000000e+00 +/- 0.000000e+00) [K]
Framework-molecule
    Van der Waals/kʙ        0.000000e+00 ( 0.000000e+00 +/- 0.000000e+00) [K]
    Van der Waals (Tail)/kʙ 0.000000e+00 ( 0.000000e+00 +/- 0.000000e+00) [K]
    Coulombic Real/kʙ       0.000000e+00 ( 0.000000e+00 +/- 0.000000e+00) [K]
    Coulombic Fourier/kʙ    0.000000e+00 ( 0.000000e+00 +/- 0.000000e+00) [K]
Molecule-molecule
    Van der Waals/kʙ       -2.837862e+05 (-2.803273e+05 +/- 0.000000e+00) [K]
    Van der Waals (Tail)/kʙ-1.198381e+04 (-1.176974e+04 +/- 0.000000e+00) [K]
    Coulombic Real/kʙ      -8.710047e+04 (-8.475949e+04 +/- 0.000000e+00) [K]
    Coulombic Fourier/kʙ   -1.965808e+04 (-2.057085e+04 +/- 0.000000e+00) [K]
    Molecule Intra/kʙ       0.000000e+00 ( 0.000000e+00 +/- 0.000000e+00) [K]

Current cycle: 400 out of 6000
===============================================================================

Box:      25.09577   0.00000   0.00000  Average:  24.99062   0.00000   0.00000
           0.00000  25.09577   0.00000             0.00000  24.99062   0.00000
           0.00000   0.00000  25.09577             0.00000   0.00000  24.99062
Lengths:  25.09577  25.09577  25.09577  Average:  24.99062  24.99062  24.99062
Angles:   90.00000  90.00000  90.00000  Average:  90.00000  90.00000  90.00000
Rectangular boundary conditions

net charge:   0.00000000

component 0 (CO2) lambda:  0 occupancy:  0 (0.000000)
    net charge:   0.00000000 [e]

Amount of molecules per component :
-------------------------------------------------------------------------------
Component 0 (CO2)
    molecules:      2.460000e+02 molecules  (2.399501e+02 +/- 0.000000e+00)
    number density: 1.556443e-02 molec./A^3 (1.537500e-02 +/- 0.000000e+00)
    density:        1.137164e+03 kg/m^3     (1.123324e+03 +/- 0.000000e+00)

Average pressure tensor: 
-------------------------------------------------------------------------------
-2.4161e+02 -2.7666e+01  1.1880e+02 +/- 0.0000e+00 0.0000e+00 0.0000e+00 [bar]
-2.7666e+01 -4.1733e+01 -2.3579e+01 +/- 0.0000e+00 0.0000e+00 0.0000e+00 [bar]
 1.1880e+02 -2.3579e+01  2.1576e+01 +/- 0.0000e+00 0.0000e+00 0.0000e+00 [bar]
Ideal-gas pressure:   4.882325e+02 +/ 0.000000e+00 [bar]
Excess pressure:     -5.754894e+02 +/ 0.000000e+00 [bar]
Pressure:            -8.725683e+01 +/ 0.000000e+00 [bar]

Total potential energy/kʙ  -4.129737e+05 (-3.992048e+05 +/- 0.000000e+00) [K]
-------------------------------------------------------------------------------
ExternalField-molecule
    Van der Waals/kʙ        0.000000e+00 ( 0.000000e+00 +/- 0.000000e+00) [K]
Framework-molecule
    Van der Waals/kʙ        0.000000e+00 ( 0.000000e+00 +/- 0.000000e+00) [K]
    Van der Waals (Tail)/kʙ 0.000000e+00 ( 0.000000e+00 +/- 0.000000e+00) [K]
    Coulombic Real/kʙ       0.000000e+00 ( 0.000000e+00 +/- 0.000000e+00) [K]
    Coulombic Fourier/kʙ    0.000000e+00 ( 0.000000e+00 +/- 0.000000e+00) [K]
Molecule-molecule
    Van der Waals/kʙ       -2.887718e+05 (-2.810939e+05 +/- 0.000000e+00) [K]
    Van der Waals (Tail)/kʙ-1.228506e+04 (-1.182327e+04 +/- 0.000000e+00) [K]
    Coulombic Real/kʙ      -9.057770e+04 (-8.577423e+04 +/- 0.000000e+00) [K]
    Coulombic Fourier/kʙ   -2.133913e+04 (-2.051339e+04 +/- 0.000000e+00) [K]
    Molecule Intra/kʙ       0.000000e+00 ( 0.000000e+00 +/- 0.000000e+00) [K]

Current cycle: 500 out of 6000
===============================================================================

Box:      25.03137   0.00000   0.00000  Average:  25.02434   0.00000   0.00000
           0.00000  25.03137   0.00000             0.00000  25.02434   0.00000
           0.00000   0.00000  25.03137             0.00000   0.00000  25.02434
Lengths:  25.03137  25.03137  25.03137  Average:  25.02434  25.02434  25.02434
Angles:   90.00000  90.00000  90.00000  Average:  90.00000  90.00000  90.00000
Rectangular boundary conditions

net charge:   0.00000000

component 0 (CO2) lambda:  0 occupancy:  0 (0.000000)
    net charge:   0.00000000 [e]

Amount of molecules per component :
-------------------------------------------------------------------------------
Component 0 (CO2)
    molecules:      2.410000e+02 molecules  (2.408363e+02 +/- 0.000000e+00)
    number density: 1.536609e-02 molec./A^3 (1.536925e-02 +/- 0.000000e+00)
    density:        1.122673e+03 kg/m^3     (1.122903e+03 +/- 0.000000e+00)

Average pressure tensor: 
-------------------------------------------------------------------------------
-2.0084e+02 -6.7395e+01  5.7590e+01 +/- 0.0000e+00 0.0000e+00 0.0000e+00 [bar]
-6.7395e+01 -6.6729e+01  1.7877e+01 +/- 0.0000e+00 0.0000e+00 0.0000e+00 [bar]
 5.7590e+01  1.7877e+01  5.2493e+00 +/- 0.0000e+00 0.0000e+00 0.0000e+00 [bar]
Ideal-gas pressure:   4.880497e+02 +/ 0.000000e+00 [bar]
Excess pressure:     -5.754903e+02 +/ 0.000000e+00 [bar]
Pressure:            -8.744058e+01 +/ 0.000000e+00 [bar]

Total potential energy/kʙ  -4.046721e+05 (-4.011116e+05 +/- 0.000000e+00) [K]
-------------------------------------------------------------------------------
ExternalField-molecule
    Van der Waals/kʙ        0.000000e+00 ( 0.000000e+00 +/- 0.000000e+00) [K]
Framework-molecule
    Van der Waals/kʙ        0.000000e+00 ( 0.000000e+00 +/- 0.000000e+00) [K]
    Van der Waals (Tail)/kʙ 0.000000e+00 ( 0.000000e+00 +/- 0.000000e+00) [K]
    Coulombic Real/kʙ       0.000000e+00 ( 0.000000e+00 +/- 0.000000e+00) [K]
    Coulombic Fourier/kʙ    0.000000e+00 ( 0.000000e+00 +/- 0.000000e+00) [K]
Molecule-molecule
    Van der Waals/kʙ       -2.805318e+05 (-2.817794e+05 +/- 0.000000e+00) [K]
    Van der Waals (Tail)/kʙ-1.188199e+04 (-1.187056e+04 +/- 0.000000e+00) [K]
    Coulombic Real/kʙ      -9.150966e+04 (-8.671496e+04 +/- 0.000000e+00) [K]
    Coulombic Fourier/kʙ   -2.074864e+04 (-2.074666e+04 +/- 0.000000e+00) [K]
    Molecule Intra/kʙ       0.000000e+00 ( 0.000000e+00 +/- 0.000000e+00) [K]

Current cycle: 600 out of 6000
===============================================================================

Box:      25.01847   0.00000   0.00000  Average:  25.02440   0.00000   0.00000
           0.00000  25.01847   0.00000             0.00000  25.02440   0.00000
           0.00000   0.00000  25.01847             0.00000   0.00000  25.02440
Lengths:  25.01847  25.01847  25.01847  Average:  25.02440  25.02440  25.02440
Angles:   90.00000  90.00000  90.00000  Average:  90.00000  90.00000  90.00000
Rectangular boundary conditions

net charge:   0.00000000

component 0 (CO2) lambda:  0 occupancy:  0 (0.000000)
    net charge:   0.00000000 [e]

Amount of molecules per component :
-------------------------------------------------------------------------------
Component 0 (CO2)
    molecules:      2.400000e+02 molecules  (2.410932e+02 +/- 0.000000e+00)
    number density: 1.532601e-02 molec./A^3 (1.538552e-02 +/- 0.000000e+00)
    density:        1.119745e+03 kg/m^3     (1.124092e+03 +/- 0.000000e+00)

Average pressure tensor: 
-------------------------------------------------------------------------------
-1.6258e+02 -6.6417e+01  6.6728e+01 +/- 0.0000e+00 0.0000e+00 0.0000e+00 [bar]
-6.6417e+01 -9.4673e+01  1.6144e+01 +/- 0.0000e+00 0.0000e+00 0.0000e+00 [bar]
 6.6728e+01  1.6144e+01  4.1495e+01 +/- 0.0000e+00 0.0000e+00 0.0000e+00 [bar]
Ideal-gas pressure:   4.885665e+02 +/ 0.000000e+00 [bar]
Excess pressure:     -5.604858e+02 +/ 0.000000e+00 [bar]
Pressure:            -7.191928e+01 +/ 0.000000e+00 [bar]

Total potential energy/kʙ  -4.021029e+05 (-4.020118e+05 +/- 0.000000e+00) [K]
-------------------------------------------------------------------------------
ExternalField-molecule
    Van der Waals/kʙ        0.000000e+00 ( 0.000000e+00 +/- 0.000000e+00) [K]
Framework-molecule
    Van der Waals/kʙ        0.000000e+00 ( 0.000000e+00 +/- 0.000000e+00) [K]
    Van der Waals (Tail)/kʙ 0.000000e+00 ( 0.000000e+00 +/- 0.000000e+00) [K]
    Coulombic Real/kʙ       0.000000e+00 ( 0.000000e+00 +/- 0.000000e+00) [K]
    Coulombic Fourier/kʙ    0.000000e+00 ( 0.000000e+00 +/- 0.000000e+00) [K]
Molecule-molecule
    Van der Waals/kʙ       -2.853018e+05 (-2.826123e+05 +/- 0.000000e+00) [K]
    Van der Waals (Tail)/kʙ-1.180182e+04 (-1.190638e+04 +/- 0.000000e+00) [K]
    Coulombic Real/kʙ      -8.543034e+04 (-8.681044e+04 +/- 0.000000e+00) [K]
    Coulombic Fourier/kʙ   -1.956892e+04 (-2.068267e+04 +/- 0.000000e+00) [K]
    Molecule Intra/kʙ       0.000000e+00 ( 0.000000e+00 +/- 0.000000e+00) [K]

Current cycle: 700 out of 6000
===============================================================================

Box:      24.96119   0.00000   0.00000  Average:  25.01140   0.00000   0.00000
           0.00000  24.96119   0.00000             0.00000  25.01140   0.00000
           0.00000   0.00000  24.96119             0.00000   0.00000  25.01140
Lengths:  24.96119  24.96119  24.96119  Average:  25.01140  25.01140  25.01140
Angles:   90.00000  90.00000  90.00000  Average:  90.00000  90.00000  90.00000
Rectangular boundary conditions

net charge:   0.00000000

component 0 (CO2) lambda:  0 occupancy:  0 (0.000000)
    net charge:   0.00000000 [e]

Amount of molecules per component :
-------------------------------------------------------------------------------
Component 0 (CO2)
    molecules:      2.410000e+02 molecules  (2.410285e+02 +/- 0.000000e+00)
    number density: 1.549606e-02 molec./A^3 (1.540544e-02 +/- 0.000000e+00)
    density:        1.132169e+03 kg/m^3     (1.125548e+03 +/- 0.000000e+00)

Average pressure tensor: 
-------------------------------------------------------------------------------
-1.5802e+02 -4.5561e+01  5.8961e+01 +/- 0.0000e+00 0.0000e+00 0.0000e+00 [bar]
-4.5561e+01 -1.3972e+02  7.1180e+00 +/- 0.0000e+00 0.0000e+00 0.0000e+00 [bar]
 5.8961e+01  7.1180e+00  6.3340e+01 +/- 0.0000e+00 0.0000e+00 0.0000e+00 [bar]
Ideal-gas pressure:   4.891992e+02 +/ 0.000000e+00 [bar]
Excess pressure:     -5.673322e+02 +/ 0.000000e+00 [bar]
Pressure:            -7.813296e+01 +/ 0.000000e+00 [bar]

Total potential energy/kʙ  -3.966352e+05 (-4.021169e+05 +/- 0.000000e+00) [K]
-------------------------------------------------------------------------------
ExternalField-molecule
    Van der Waals/kʙ        0.000000e+00 ( 0.000000e+00 +/- 0.000000e+00) [K]
Framework-molecule
    Van der Waals/kʙ        0.000000e+00 ( 0.000000e+00 +/- 0.000000e+00) [K]
    Van der Waals (Tail)/kʙ 0.000000e+00 ( 0.000000e+00 +/- 0.000000e+00) [K]
    Coulombic Real/kʙ       0.000000e+00 ( 0.000000e+00 +/- 0.000000e+00) [K]
    Coulombic Fourier/kʙ    0.000000e+00 ( 0.000000e+00 +/- 0.000000e+00) [K]
Molecule-molecule
    Van der Waals/kʙ       -2.785864e+05 (-2.826198e+05 +/- 0.000000e+00) [K]
    Van der Waals (Tail)/kʙ-1.198249e+04 (-1.191156e+04 +/- 0.000000e+00) [K]
    Coulombic Real/kʙ      -8.640101e+04 (-8.699804e+04 +/- 0.000000e+00) [K]
    Coulombic Fourier/kʙ   -1.966530e+04 (-2.058751e+04 +/- 0.000000e+00) [K]
    Molecule Intra/kʙ       0.000000e+00 ( 0.000000e+00 +/- 0.000000e+00) [K]

Current cycle: 800 out of 6000
===============================================================================

Box:      24.94038   0.00000   0.00000  Average:  24.99584   0.00000   0.00000
           0.00000  24.94038   0.00000             0.00000  24.99584   0.00000
           0.00000   0.00000  24.94038             0.00000   0.00000  24.99584
Lengths:  24.94038  24.94038  24.94038  Average:  24.99584  24.99584  24.99584
Angles:   90.00000  90.00000  90.00000  Average:  90.00000  90.00000  90.00000
Rectangular boundary conditions

net charge:   0.00000000

component 0 (CO2) lambda:  0 occupancy:  0 (0.000000)
    net charge:   0.00000000 [e]

Amount of molecules per component :
-------------------------------------------------------------------------------
Component 0 (CO2)
    molecules:      2.370000e+02 molecules  (2.405281e+02 +/- 0.000000e+00)
    number density: 1.527704e-02 molec./A^3 (1.540207e-02 +/- 0.000000e+00)
    density:        1.116167e+03 kg/m^3     (1.125301e+03 +/- 0.000000e+00)

Average pressure tensor: 
-------------------------------------------------------------------------------
-1.3464e+02 -5.0957e+01  2.8046e+01 +/- 0.0000e+00 0.0000e+00 0.0000e+00 [bar]
-5.0957e+01 -1.3397e+02  3.1966e+00 +/- 0.0000e+00 0.0000e+00 0.0000e+00 [bar]
 2.8046e+01  3.1966e+00  7.6383e+01 +/- 0.0000e+00 0.0000e+00 0.0000e+00 [bar]
Ideal-gas pressure:   4.890920e+02 +/ 0.000000e+00 [bar]
Excess pressure:     -5.531672e+02 +/ 0.000000e+00 [bar]
Pressure:            -6.407524e+01 +/ 0.000000e+00 [bar]

Total potential energy/kʙ  -3.796460e+05 (-4.004928e+05 +/- 0.000000e+00) [K]
-------------------------------------------------------------------------------
ExternalField-molecule
    Van der Waals/kʙ        0.000000e+00 ( 0.000000e+00 +/- 0.000000e+00) [K]
Framework-molecule
    Van der Waals/kʙ        0.000000e+00 ( 0.000000e+00 +/- 0.000000e+00) [K]
    Van der Waals (Tail)/kʙ 0.000000e+00 ( 0.000000e+00 +/- 0.000000e+00) [K]
    Coulombic Real/kʙ       0.000000e+00 ( 0.000000e+00 +/- 0.000000e+00) [K]
    Coulombic Fourier/kʙ    0.000000e+00 ( 0.000000e+00 +/- 0.000000e+00) [K]
Molecule-molecule
    Van der Waals/kʙ       -2.699783e+05 (-2.820293e+05 +/- 0.000000e+00) [K]
    Van der Waals (Tail)/kʙ-1.161706e+04 (-1.188872e+04 +/- 0.000000e+00) [K]
    Coulombic Real/kʙ      -8.010880e+04 (-8.623764e+04 +/- 0.000000e+00) [K]
    Coulombic Fourier/kʙ   -1.794182e+04 (-2.033713e+04 +/- 0.000000e+00) [K]
    Molecule Intra/kʙ       0.000000e+00 ( 0.000000e+00 +/- 0.000000e+00) [K]

Current cycle: 900 out of 6000
===============================================================================

Box:      24.87696   0.00000   0.00000  Average:  24.98168   0.00000   0.00000
           0.00000  24.87696   0.00000             0.00000  24.98168   0.00000
           0.00000   0.00000  24.87696             0.00000   0.00000  24.98168
Lengths:  24.87696  24.87696  24.87696  Average:  24.98168  24.98168  24.98168
Angles:   90.00000  90.00000  90.00000  Average:  90.00000  90.00000  90.00000
Rectangular boundary conditions

net charge:   0.00000000

component 0 (CO2) lambda:  0 occupancy:  0 (0.000000)
    net charge:   0.00000000 [e]

Amount of molecules per component :
-------------------------------------------------------------------------------
Component 0 (CO2)
    molecules:      2.420000e+02 molecules  (2.400710e+02 +/- 0.000000e+00)
    number density: 1.571894e-02 molec./A^3 (1.539882e-02 +/- 0.000000e+00)
    density:        1.148453e+03 kg/m^3     (1.125064e+03 +/- 0.000000e+00)

Average pressure tensor: 
-------------------------------------------------------------------------------
-9.8804e+01 -7.0208e+01  1.6015e+01 +/- 0.0000e+00 0.0000e+00 0.0000e+00 [bar]
-7.0208e+01 -1.1293e+02  4.3623e+00 +/- 0.0000e+00 0.0000e+00 0.0000e+00 [bar]
 1.6015e+01  4.3623e+00  5.3443e+01 +/- 0.0000e+00 0.0000e+00 0.0000e+00 [bar]
Ideal-gas pressure:   4.889890e+02 +/ 0.000000e+00 [bar]
Excess pressure:     -5.417510e+02 +/ 0.000000e+00 [bar]
Pressure:            -5.276200e+01 +/ 0.000000e+00 [bar]

Total potential energy/kʙ  -4.102179e+05 (-3.993977e+05 +/- 0.000000e+00) [K]
-------------------------------------------------------------------------------
ExternalField-molecule
    Van der Waals/kʙ        0.000000e+00 ( 0.000000e+00 +/- 0.000000e+00) [K]
Framework-molecule
    Van der Waals/kʙ        0.000000e+00 ( 0.000000e+00 +/- 0.000000e+00) [K]
    Van der Waals (Tail)/kʙ 0.000000e+00 ( 0.000000e+00 +/- 0.000000e+00) [K]
    Coulombic Real/kʙ       0.000000e+00 ( 0.000000e+00 +/- 0.000000e+00) [K]
    Coulombic Fourier/kʙ    0.000000e+00 ( 0.000000e+00 +/- 0.000000e+00) [K]
Molecule-molecule
    Van der Waals/kʙ       -2.899182e+05 (-2.814771e+05 +/- 0.000000e+00) [K]
    Van der Waals (Tail)/kʙ-1.220527e+04 (-1.187310e+04 +/- 0.000000e+00) [K]
    Coulombic Real/kʙ      -8.734257e+04 (-8.582802e+04 +/- 0.000000e+00) [K]
    Coulombic Fourier/kʙ   -2.075190e+04 (-2.021942e+04 +/- 0.000000e+00) [K]
    Molecule Intra/kʙ       0.000000e+00 ( 0.000000e+00 +/- 0.000000e+00) [K]

Current cycle: 1000 out of 6000
===============================================================================

Box:      25.00224   0.00000   0.00000  Average:  24.98486   0.00000   0.00000
           0.00000  25.00224   0.00000             0.00000  24.98486   0.00000
           0.00000   0.00000  25.00224             0.00000   0.00000  24.98486
Lengths:  25.00224  25.00224  25.00224  Average:  24.98486  24.98486  24.98486
Angles:   90.00000  90.00000  90.00000  Average:  90.00000  90.00000  90.00000
Rectangular boundary conditions

net charge:   0.00000000

component 0 (CO2) lambda:  0 occupancy:  0 (0.000000)
    net charge:   0.00000000 [e]

Amount of molecules per component :
-------------------------------------------------------------------------------
Component 0 (CO2)
    molecules:      2.360000e+02 molecules  (2.400250e+02 +/- 0.000000e+00)
    number density: 1.509994e-02 molec./A^3 (1.539011e-02 +/- 0.000000e+00)
    density:        1.103227e+03 kg/m^3     (1.124428e+03 +/- 0.000000e+00)

Average pressure tensor: 
-------------------------------------------------------------------------------
-9.5323e+01 -8.8693e+01  7.2767e+00 +/- 0.0000e+00 0.0000e+00 0.0000e+00 [bar]
-8.8693e+01 -9.9941e+01  1.1559e+01 +/- 0.0000e+00 0.0000e+00 0.0000e+00 [bar]
 7.2767e+00  1.1559e+01  6.6914e+01 +/- 0.0000e+00 0.0000e+00 0.0000e+00 [bar]
Ideal-gas pressure:   4.887123e+02 +/ 0.000000e+00 [bar]
Excess pressure:     -5.314956e+02 +/ 0.000000e+00 [bar]
Pressure:            -4.278326e+01 +/ 0.000000e+00 [bar]

Total potential energy/kʙ  -3.796434e+05 (-3.987388e+05 +/- 0.000000e+00) [K]
-------------------------------------------------------------------------------
ExternalField-molecule
    Van der Waals/kʙ        0.000000e+00 ( 0.000000e+00 +/- 0.000000e+00) [K]
Framework-molecule
    Van der Waals/kʙ        0.000000e+00 ( 0.000000e+00 +/- 0.000000e+00) [K]
    Van der Waals (Tail)/kʙ 0.000000e+00 ( 0.000000e+00 +/- 0.000000e+00) [K]
    Coulombic Real/kʙ       0.000000e+00 ( 0.000000e+00 +/- 0.000000e+00) [K]
    Coulombic Fourier/kʙ    0.000000e+00 ( 0.000000e+00 +/- 0.000000e+00) [K]
Molecule-molecule
    Van der Waals/kʙ       -2.627087e+05 (-2.809030e+05 +/- 0.000000e+00) [K]
    Van der Waals (Tail)/kʙ-1.143394e+04 (-1.186131e+04 +/- 0.000000e+00) [K]
    Coulombic Real/kʙ      -8.574574e+04 (-8.579109e+04 +/- 0.000000e+00) [K]
    Coulombic Fourier/kʙ   -1.975499e+04 (-2.018336e+04 +/- 0.000000e+00) [K]
    Molecule Intra/kʙ       0.000000e+00 ( 0.000000e+00 +/- 0.000000e+00) [K]

Current cycle: 1100 out of 6000
===============================================================================

Box:      25.21260   0.00000   0.00000  Average:  24.99483   0.00000   0.00000
           0.00000  25.21260   0.00000             0.00000  24.99483   0.00000
           0.00000   0.00000  25.21260             0.00000   0.00000  24.99483
Lengths:  25.21260  25.21260  25.21260  Average:  24.99483  24.99483  24.99483
Angles:   90.00000  90.00000  90.00000  Average:  90.00000  90.00000  90.00000
Rectangular boundary conditions

net charge:   0.00000000

component 0 (CO2) lambda:  0 occupancy:  0 (0.000000)
    net charge:   0.00000000 [e]

Amount of molecules per component :
-------------------------------------------------------------------------------
Component 0 (CO2)
    molecules:      2.400000e+02 molecules  (2.399718e+02 +/- 0.000000e+00)
    number density: 1.497471e-02 molec./A^3 (1.536845e-02 +/- 0.000000e+00)
    density:        1.094078e+03 kg/m^3     (1.122846e+03 +/- 0.000000e+00)

Average pressure tensor: 
-------------------------------------------------------------------------------
-8.0169e+01 -9.1812e+01 -7.4202e+00 +/- 0.0000e+00 0.0000e+00 0.0000e+00 [bar]
-9.1812e+01 -6.2673e+01  2.0518e+01 +/- 0.0000e+00 0.0000e+00 0.0000e+00 [bar]
-7.4202e+00  2.0518e+01  6.6095e+01 +/- 0.0000e+00 0.0000e+00 0.0000e+00 [bar]
Ideal-gas pressure:   4.880246e+02 +/ 0.000000e+00 [bar]
Excess pressure:     -5.136069e+02 +/ 0.000000e+00 [bar]
Pressure:            -2.558235e+01 +/ 0.000000e+00 [bar]

Total potential energy/kʙ  -3.898739e+05 (-3.976793e+05 +/- 0.000000e+00) [K]
-------------------------------------------------------------------------------
ExternalField-molecule
    Van der Waals/kʙ        0.000000e+00 ( 0.000000e+00 +/- 0.000000e+00) [K]
Framework-molecule
    Van der Waals/kʙ        0.000000e+00 ( 0.000000e+00 +/- 0.000000e+00) [K]
    Van der Waals (Tail)/kʙ 0.000000e+00 ( 0.000000e+00 +/- 0.000000e+00) [K]
    Coulombic Real/kʙ       0.000000e+00 ( 0.000000e+00 +/- 0.000000e+00) [K]
    Coulombic Fourier/kʙ    0.000000e+00 ( 0.000000e+00 +/- 0.000000e+00) [K]
Molecule-molecule
    Van der Waals/kʙ       -2.758507e+05 (-2.802378e+05 +/- 0.000000e+00) [K]
    Van der Waals (Tail)/kʙ-1.153130e+04 (-1.184203e+04 +/- 0.000000e+00) [K]
    Coulombic Real/kʙ      -8.276137e+04 (-8.543186e+04 +/- 0.000000e+00) [K]
    Coulombic Fourier/kʙ   -1.973057e+04 (-2.016764e+04 +/- 0.000000e+00) [K]
    Molecule Intra/kʙ       0.000000e+00 ( 0.000000e+00 +/- 0.000000e+00) [K]

Current cycle: 1200 out of 6000
===============================================================================

Box:      25.20828   0.00000   0.00000  Average:  25.00673   0.00000   0.00000
           0.00000  25.20828   0.00000             0.00000  25.00673   0.00000
           0.00000   0.00000  25.20828             0.00000   0.00000  25.00673
Lengths:  25.20828  25.20828  25.20828  Average:  25.00673  25.00673  25.00673
Angles:   90.00000  90.00000  90.00000  Average:  90.00000  90.00000  90.00000
Rectangular boundary conditions

net charge:   0.00000000

component 0 (CO2) lambda:  0 occupancy:  0 (0.000000)
    net charge:   0.00000000 [e]

Amount of molecules per component :
-------------------------------------------------------------------------------
Component 0 (CO2)
    molecules:      2.400000e+02 molecules  (2.400175e+02 +/- 0.000000e+00)
    number density: 1.498241e-02 molec./A^3 (1.534965e-02 +/- 0.000000e+00)
    density:        1.094641e+03 kg/m^3     (1.121472e+03 +/- 0.000000e+00)

Average pressure tensor: 
-------------------------------------------------------------------------------
-7.9028e+01 -4.9331e+01 -1.3426e+01 +/- 0.0000e+00 0.0000e+00 0.0000e+00 [bar]
-4.9331e+01 -5.6624e+01  2.6384e+01 +/- 0.0000e+00 0.0000e+00 0.0000e+00 [bar]
-1.3426e+01  2.6384e+01  6.5858e+01 +/- 0.0000e+00 0.0000e+00 0.0000e+00 [bar]
Ideal-gas pressure:   4.874276e+02 +/ 0.000000e+00 [bar]
Excess pressure:     -5.106923e+02 +/ 0.000000e+00 [bar]
Pressure:            -2.326471e+01 +/ 0.000000e+00 [bar]

Total potential energy/kʙ  -3.864419e+05 (-3.970579e+05 +/- 0.000000e+00) [K]
-------------------------------------------------------------------------------
ExternalField-molecule
    Van der Waals/kʙ        0.000000e+00 ( 0.000000e+00 +/- 0.000000e+00) [K]
Framework-molecule
    Van der Waals/kʙ        0.000000e+00 ( 0.000000e+00 +/- 0.000000e+00) [K]
    Van der Waals (Tail)/kʙ 0.000000e+00 ( 0.000000e+00 +/- 0.000000e+00) [K]
    Coulombic Real/kʙ       0.000000e+00 ( 0.000000e+00 +/- 0.000000e+00) [K]
    Coulombic Fourier/kʙ    0.000000e+00 ( 0.000000e+00 +/- 0.000000e+00) [K]
Molecule-molecule
    Van der Waals/kʙ       -2.806585e+05 (-2.798609e+05 +/- 0.000000e+00) [K]
    Van der Waals (Tail)/kʙ-1.153723e+04 (-1.183007e+04 +/- 0.000000e+00) [K]
    Coulombic Real/kʙ      -7.511084e+04 (-8.525035e+04 +/- 0.000000e+00) [K]
    Coulombic Fourier/kʙ   -1.913526e+04 (-2.011660e+04 +/- 0.000000e+00) [K]
    Molecule Intra/kʙ       0.000000e+00 ( 0.000000e+00 +/- 0.000000e+00) [K]

Current cycle: 1300 out of 6000
===============================================================================

Box:      24.97487   0.00000   0.00000  Average:  25.01258   0.00000   0.00000
           0.00000  24.97487   0.00000             0.00000  25.01258   0.00000
           0.00000   0.00000  24.97487             0.00000   0.00000  25.01258
Lengths:  24.97487  24.97487  24.97487  Average:  25.01258  25.01258  25.01258
Angles:   90.00000  90.00000  90.00000  Average:  90.00000  90.00000  90.00000
Rectangular boundary conditions

net charge:   0.00000000

component 0 (CO2) lambda:  0 occupancy:  0 (0.000000)
    net charge:   0.00000000 [e]

Amount of molecules per component :
-------------------------------------------------------------------------------
Component 0 (CO2)
    molecules:      2.360000e+02 molecules  (2.399500e+02 +/- 0.000000e+00)
    number density: 1.514964e-02 molec./A^3 (1.533465e-02 +/- 0.000000e+00)
    density:        1.106859e+03 kg/m^3     (1.120375e+03 +/- 0.000000e+00)

Average pressure tensor: 
-------------------------------------------------------------------------------
-6.8674e+01 -3.3020e+01 -2.3249e+01 +/- 0.0000e+00 0.0000e+00 0.0000e+00 [bar]
-3.3020e+01 -4.8421e+01  2.0218e+01 +/- 0.0000e+00 0.0000e+00 0.0000e+00 [bar]
-2.3249e+01  2.0218e+01  4.1696e+01 +/- 0.0000e+00 0.0000e+00 0.0000e+00 [bar]
Ideal-gas pressure:   4.869510e+02 +/ 0.000000e+00 [bar]
Excess pressure:     -5.120838e+02 +/ 0.000000e+00 [bar]
Pressure:            -2.513279e+01 +/ 0.000000e+00 [bar]

Total potential energy/kʙ  -3.715187e+05 (-3.957346e+05 +/- 0.000000e+00) [K]
-------------------------------------------------------------------------------
ExternalField-molecule
    Van der Waals/kʙ        0.000000e+00 ( 0.000000e+00 +/- 0.000000e+00) [K]
Framework-molecule
    Van der Waals/kʙ        0.000000e+00 ( 0.000000e+00 +/- 0.000000e+00) [K]
    Van der Waals (Tail)/kʙ 0.000000e+00 ( 0.000000e+00 +/- 0.000000e+00) [K]
    Coulombic Real/kʙ       0.000000e+00 ( 0.000000e+00 +/- 0.000000e+00) [K]
    Coulombic Fourier/kʙ    0.000000e+00 ( 0.000000e+00 +/- 0.000000e+00) [K]
Molecule-molecule
    Van der Waals/kʙ       -2.646238e+05 (-2.792530e+05 +/- 0.000000e+00) [K]
    Van der Waals (Tail)/kʙ-1.147157e+04 (-1.180958e+04 +/- 0.000000e+00) [K]
    Coulombic Real/kʙ      -7.664207e+04 (-8.465358e+04 +/- 0.000000e+00) [K]
    Coulombic Fourier/kʙ   -1.878129e+04 (-2.001848e+04 +/- 0.000000e+00) [K]
    Molecule Intra/kʙ       0.000000e+00 ( 0.000000e+00 +/- 0.000000e+00) [K]

Current cycle: 1400 out of 6000
===============================================================================

Box:      25.18631   0.00000   0.00000  Average:  25.00884   0.00000   0.00000
           0.00000  25.18631   0.00000             0.00000  25.00884   0.00000
           0.00000   0.00000  25.18631             0.00000   0.00000  25.00884
Lengths:  25.18631  25.18631  25.18631  Average:  25.00884  25.00884  25.00884
Angles:   90.00000  90.00000  90.00000  Average:  90.00000  90.00000  90.00000
Rectangular boundary conditions

net charge:   0.00000000

component 0 (CO2) lambda:  0 occupancy:  0 (0.000000)
    net charge:   0.00000000 [e]

Amount of molecules per component :
-------------------------------------------------------------------------------
Component 0 (CO2)
    molecules:      2.380000e+02 molecules  (2.396702e+02 +/- 0.000000e+00)
    number density: 1.489647e-02 molec./A^3 (1.532355e-02 +/- 0.000000e+00)
    density:        1.088361e+03 kg/m^3     (1.119565e+03 +/- 0.000000e+00)

Average pressure tensor: 
-------------------------------------------------------------------------------
-4.4178e+01 -1.7157e+01 -1.2092e+01 +/- 0.0000e+00 0.0000e+00 0.0000e+00 [bar]
-1.7157e+01 -4.0334e+01  1.5130e+01 +/- 0.0000e+00 0.0000e+00 0.0000e+00 [bar]
-1.2092e+01  1.5130e+01  3.9736e+01 +/- 0.0000e+00 0.0000e+00 0.0000e+00 [bar]
Ideal-gas pressure:   4.865986e+02 +/ 0.000000e+00 [bar]
Excess pressure:     -5.015242e+02 +/ 0.000000e+00 [bar]
Pressure:            -1.492551e+01 +/ 0.000000e+00 [bar]

Total potential energy/kʙ  -3.801361e+05 (-3.945812e+05 +/- 0.000000e+00) [K]
-------------------------------------------------------------------------------
ExternalField-molecule
    Van der Waals/kʙ        0.000000e+00 ( 0.000000e+00 +/- 0.000000e+00) [K]
Framework-molecule
    Van der Waals/kʙ        0.000000e+00 ( 0.000000e+00 +/- 0.000000e+00) [K]
    Van der Waals (Tail)/kʙ 0.000000e+00 ( 0.000000e+00 +/- 0.000000e+00) [K]
    Coulombic Real/kʙ       0.000000e+00 ( 0.000000e+00 +/- 0.000000e+00) [K]
    Coulombic Fourier/kʙ    0.000000e+00 ( 0.000000e+00 +/- 0.000000e+00) [K]
Molecule-molecule
    Van der Waals/kʙ       -2.711603e+05 (-2.784937e+05 +/- 0.000000e+00) [K]
    Van der Waals (Tail)/kʙ-1.137546e+04 (-1.178753e+04 +/- 0.000000e+00) [K]
    Coulombic Real/kʙ      -7.874944e+04 (-8.434889e+04 +/- 0.000000e+00) [K]
    Coulombic Fourier/kʙ   -1.885095e+04 (-1.995109e+04 +/- 0.000000e+00) [K]
    Molecule Intra/kʙ       0.000000e+00 ( 0.000000e+00 +/- 0.000000e+00) [K]

Current cycle: 1500 out of 6000
===============================================================================

Box:      25.13028   0.00000   0.00000  Average:  25.00713   0.00000   0.00000
           0.00000  25.13028   0.00000             0.00000  25.00713   0.00000
           0.00000   0.00000  25.13028             0.00000   0.00000  25.00713
[...]
    number density: 1.537019e-02 molec./A^3 (1.546835e-02 +/- 2.930519e-04)
    density:        1.122972e+03 kg/m^3     (1.130144e+03 +/- 2.141088e+01)

Average pressure tensor: 
-------------------------------------------------------------------------------
 3.2863e+01  3.8080e+00 -1.4541e+01 +/- 1.1036e+02 5.7254e+01 5.8994e+01 [bar]
 3.8080e+00 -3.5317e+01  3.1339e-01 +/- 5.7254e+01 4.3778e+01 4.0186e+01 [bar]
-1.4541e+01  3.1339e-01 -1.2067e+00 +/- 5.8994e+01 4.0186e+01 6.8589e+01 [bar]
Ideal-gas pressure:   4.911967e+02 +/ 9.305852e+00 [bar]
Excess pressure:     -4.924169e+02 +/ 2.035686e+01 [bar]
Pressure:            -1.220249e+00 +/ 2.225670e+01 [bar]

Total potential energy/kʙ  -4.043299e+05 (-4.003187e+05 +/- 9.932823e+03) [K]
-------------------------------------------------------------------------------
ExternalField-molecule
    Van der Waals/kʙ        0.000000e+00 ( 0.000000e+00 +/- 0.000000e+00) [K]
Framework-molecule
    Van der Waals/kʙ        0.000000e+00 ( 0.000000e+00 +/- 0.000000e+00) [K]
    Van der Waals (Tail)/kʙ 0.000000e+00 ( 0.000000e+00 +/- 0.000000e+00) [K]
    Coulombic Real/kʙ       0.000000e+00 ( 0.000000e+00 +/- 0.000000e+00) [K]
    Coulombic Fourier/kʙ    0.000000e+00 ( 0.000000e+00 +/- 0.000000e+00) [K]
Molecule-molecule
    Van der Waals/kʙ       -2.866937e+05 (-2.809843e+05 +/- 5.562861e+03) [K]
    Van der Waals (Tail)/kʙ-1.193447e+04 (-1.187804e+04 +/- 1.971948e+02) [K]
    Coulombic Real/kʙ      -8.601704e+04 (-8.721727e+04 +/- 3.878943e+03) [K]
    Coulombic Fourier/kʙ   -1.968471e+04 (-2.023912e+04 +/- 5.017304e+02) [K]
    Molecule Intra/kʙ       0.000000e+00 ( 0.000000e+00 +/- 0.000000e+00) [K]

Current cycle: 5800 out of 6000
===============================================================================

Box:      24.78934   0.00000   0.00000  Average:  24.91766   0.00000   0.00000
           0.00000  24.78934   0.00000             0.00000  24.91766   0.00000
           0.00000   0.00000  24.78934             0.00000   0.00000  24.91766
Lengths:  24.78934  24.78934  24.78934  Average:  24.91766  24.91766  24.91766
Angles:   90.00000  90.00000  90.00000  Average:  90.00000  90.00000  90.00000
Rectangular boundary conditions

net charge:   0.00000000

component 0 (CO2) lambda:  0 occupancy:  0 (0.000000)
    net charge:   0.00000000 [e]

Amount of molecules per component :
-------------------------------------------------------------------------------
Component 0 (CO2)
    molecules:      2.400000e+02 molecules  (2.392891e+02 +/- 9.562183e-01)
    number density: 1.575492e-02 molec./A^3 (1.547066e-02 +/- 2.933907e-04)
    density:        1.151082e+03 kg/m^3     (1.130313e+03 +/- 2.143562e+01)

Average pressure tensor: 
-------------------------------------------------------------------------------
 3.2541e+01  5.9356e+00 -1.4736e+01 +/- 1.0535e+02 5.9653e+01 5.5852e+01 [bar]
 5.9356e+00 -3.5590e+01  2.6598e+00 +/- 5.9653e+01 4.2123e+01 4.3604e+01 [bar]
-1.4736e+01  2.6598e+00 -1.8126e+00 +/- 5.5852e+01 4.3604e+01 6.7326e+01 [bar]
Ideal-gas pressure:   4.912700e+02 +/ 9.316608e+00 [bar]
Excess pressure:     -4.928905e+02 +/ 1.811370e+01 [bar]
Pressure:            -1.620451e+00 +/ 1.993791e+01 [bar]

Total potential energy/kʙ  -4.116518e+05 (-4.003860e+05 +/- 9.944952e+03) [K]
-------------------------------------------------------------------------------
ExternalField-molecule
    Van der Waals/kʙ        0.000000e+00 ( 0.000000e+00 +/- 0.000000e+00) [K]
Framework-molecule
    Van der Waals/kʙ        0.000000e+00 ( 0.000000e+00 +/- 0.000000e+00) [K]
    Van der Waals (Tail)/kʙ 0.000000e+00 ( 0.000000e+00 +/- 0.000000e+00) [K]
    Coulombic Real/kʙ       0.000000e+00 ( 0.000000e+00 +/- 0.000000e+00) [K]
    Coulombic Fourier/kʙ    0.000000e+00 ( 0.000000e+00 +/- 0.000000e+00) [K]
Molecule-molecule
    Van der Waals/kʙ       -2.877420e+05 (-2.810560e+05 +/- 5.591087e+03) [K]
    Van der Waals (Tail)/kʙ-1.213211e+04 (-1.187890e+04 +/- 1.972007e+02) [K]
    Coulombic Real/kʙ      -9.170654e+04 (-8.723099e+04 +/- 3.872178e+03) [K]
    Coulombic Fourier/kʙ   -2.007115e+04 (-2.022015e+04 +/- 5.101490e+02) [K]
    Molecule Intra/kʙ       0.000000e+00 ( 0.000000e+00 +/- 0.000000e+00) [K]

Current cycle: 5900 out of 6000
===============================================================================

Box:      24.77382   0.00000   0.00000  Average:  24.91519   0.00000   0.00000
           0.00000  24.77382   0.00000             0.00000  24.91519   0.00000
           0.00000   0.00000  24.77382             0.00000   0.00000  24.91519
Lengths:  24.77382  24.77382  24.77382  Average:  24.91519  24.91519  24.91519
Angles:   90.00000  90.00000  90.00000  Average:  90.00000  90.00000  90.00000
Rectangular boundary conditions

net charge:   0.00000000

component 0 (CO2) lambda:  0 occupancy:  0 (0.000000)
    net charge:   0.00000000 [e]

Amount of molecules per component :
-------------------------------------------------------------------------------
Component 0 (CO2)
    molecules:      2.410000e+02 molecules  (2.393152e+02 +/- 8.828927e-01)
    number density: 1.585031e-02 molec./A^3 (1.547698e-02 +/- 2.969104e-04)
    density:        1.158051e+03 kg/m^3     (1.130775e+03 +/- 2.169278e+01)

Average pressure tensor: 
-------------------------------------------------------------------------------
 3.3272e+01  3.6756e+00 -7.8637e+00 +/- 1.0343e+02 5.2430e+01 6.9166e+01 [bar]
 3.6756e+00 -3.4864e+01  1.2442e+00 +/- 5.2430e+01 4.2377e+01 3.9722e+01 [bar]
-7.8637e+00  1.2442e+00 -6.5829e-01 +/- 6.9166e+01 3.9722e+01 6.3240e+01 [bar]
Ideal-gas pressure:   4.914710e+02 +/ 9.428377e+00 [bar]
Excess pressure:     -4.922211e+02 +/ 1.883908e+01 [bar]
Pressure:            -7.500939e-01 +/ 2.104540e+01 [bar]

Total potential energy/kʙ  -4.117341e+05 (-4.006481e+05 +/- 1.003080e+04) [K]
-------------------------------------------------------------------------------
ExternalField-molecule
    Van der Waals/kʙ        0.000000e+00 ( 0.000000e+00 +/- 0.000000e+00) [K]
Framework-molecule
    Van der Waals/kʙ        0.000000e+00 ( 0.000000e+00 +/- 0.000000e+00) [K]
    Van der Waals (Tail)/kʙ 0.000000e+00 ( 0.000000e+00 +/- 0.000000e+00) [K]
    Coulombic Real/kʙ       0.000000e+00 ( 0.000000e+00 +/- 0.000000e+00) [K]
    Coulombic Fourier/kʙ    0.000000e+00 ( 0.000000e+00 +/- 0.000000e+00) [K]
Molecule-molecule
    Van der Waals/kʙ       -2.848106e+05 (-2.812171e+05 +/- 5.687540e+03) [K]
    Van der Waals (Tail)/kʙ-1.225642e+04 (-1.188440e+04 +/- 1.999030e+02) [K]
    Coulombic Real/kʙ      -9.416968e+04 (-8.732599e+04 +/- 3.860240e+03) [K]
    Coulombic Fourier/kʙ   -2.049741e+04 (-2.022056e+04 +/- 5.083854e+02) [K]
    Molecule Intra/kʙ       0.000000e+00 ( 0.000000e+00 +/- 0.000000e+00) [K]


Energy statistics             |  Energy [K]   | Recomputed [K]|  Drift [K]    |
===============================================================================
Total potential energy/kʙ     | -4.251425e+05 | -4.251425e+05 | -3.675408e-10 |
    external field VDW/kʙ     |  0.000000e+00 |  0.000000e+00 |  0.000000e+00 |
    external field Real/kʙ    |  0.000000e+00 |  0.000000e+00 |  0.000000e+00 |
    framework-molecule VDW/kʙ |  0.000000e+00 |  0.000000e+00 |  0.000000e+00 |
    framework-molecule Real/kʙ|  0.000000e+00 |  0.000000e+00 |  0.000000e+00 |
    molecule-molecule VDW/kʙ  | -2.921376e+05 | -2.921376e+05 | -1.750194e-10 |
    molecule-molecule Real/kʙ | -9.963025e+04 | -9.963025e+04 | -2.100233e-10 |
    Van der Waals (Tail)/kʙ   | -1.218289e+04 | -1.218289e+04 |  0.000000e+00 |
    Ewald Fourier/kʙ          |  1.382754e+04 |  1.382754e+04 |  1.750194e-11 |
    Ewald self/kʙ             | -5.357245e+06 | -5.357245e+06 |  0.000000e+00 |
    Ewald exclusion/kʙ        |  5.322226e+06 |  5.322226e+06 |  0.000000e+00 |
    intra VDW/kʙ              |  0.000000e+00 |  0.000000e+00 |  0.000000e+00 |
    intra Coulombic/kʙ        |  0.000000e+00 |  0.000000e+00 |  0.000000e+00 |
    polarization/kʙ           |  0.000000e+00 |  0.000000e+00 |  0.000000e+00 |
    dU/dlambda VDW/kʙ         |  0.000000e+00 |  0.000000e+00 |  0.000000e+00 |
    dU/dlambda Real/kʙ        |  0.000000e+00 |  0.000000e+00 |  0.000000e+00 |
    dU/dlambda Ewald/kʙ       |  0.000000e+00 |  0.000000e+00 |  0.000000e+00 |
-------------------------------------------------------------------------------


Monte-Carlo moves statistics
===============================================================================

    Gibbs volume         all:                2889
    Gibbs volume         total:              5783
    Gibbs volume         constructed:        5783
    Gibbs volume         accepted:           3716
    Gibbs volume         fraction:       0.642573
    Gibbs volume         max-change:     0.033043

Component 0 [CO2]
    Reinsertion (CBMC)   all:              149514
    Reinsertion (CBMC)   total:            149514
    Reinsertion (CBMC)   constructed:      119042
    Reinsertion (CBMC)   accepted:            614
    Reinsertion (CBMC)   fraction:       0.004107
    Reinsertion (CBMC)   max-change:     0.000000

    Gibbs swap (CBMC)    all:              297525
    Gibbs swap (CBMC)    total:            596557
    Gibbs swap (CBMC)    constructed:      532795
    Gibbs swap (CBMC)    accepted:          12823
    Gibbs swap (CBMC)    fraction:       0.021495
    Gibbs swap (CBMC)    max-change:     0.000000

    Translation          all:              149748
    Translation          total:             49793      50096      49859
    Translation          constructed:       49773      50091      49859
    Translation          accepted:          17260      18075      27576
    Translation          fraction:       0.346635   0.360807   0.553080
    Translation          max-change:     0.668905   0.669168   0.558739

    Rotation             all:              149597
    Rotation             total:             49692      49881      50024
    Rotation             constructed:       49579      49881      50024
    Rotation             accepted:          15895      26820      26219
    Rotation             fraction:       0.319870   0.537680   0.524128
    Rotation             max-change:     0.748651   0.592916   0.584843



Production run counting of the MC moves summed over systems and components
===============================================================================

Reinsertion (CBMC)                   298918 (19.9279 [%])
Gibbs volume                           5783 (0.3855 [%])
Gibbs swap (CBMC)                    596569 (39.7713 [%])
Translation                          298986 (19.9324 [%])
Rotation                             299744 (19.9829 [%])

Production count MC-steps:          1500000 [-]
               All summed:          1500000 [-]
               difference:                0 [-]


Production run CPU timings of the MC moves
===============================================================================

Component 0 CO2

Rotation                             23.096383 [s]
    Ewald                            11.269545 [s]
    ExternalField-Molecule            0.006023 [s]
    Framework-Molecule                0.005214 [s]
    Molecule-Molecule                10.902980 [s]
    Overhead                          0.912621 [s]

Reinsertion (CBMC)                   77.690671 [s]
    Ewald                             9.007639 [s]
    NonEwald                         68.521383 [s]
    Overhead                          0.161649 [s]

Translation                          23.067902 [s]
    Ewald                            11.293963 [s]
    ExternalField-Molecule            0.005204 [s]
    Framework-Molecule                0.012570 [s]
    Molecule-Molecule                10.907905 [s]
    Overhead                          0.848260 [s]



Gibbs swap (CBMC)                   108.824770 [s]
    Ewald                            21.940579 [s]
    NonEwald                         85.199448 [s]
    Tail                              1.127555 [s]

Gibbs volume                         23.182217 [s]
    Ewald                             9.851117 [s]
    NonEwald                         12.398608 [s]
    Tail                              0.783727 [s]

Property sampling                     0.333558 [s]
Energy/pressure sampling:            11.118917 [s]


Production run CPU timings of the MC moves summed over systems and components
===============================================================================


Translation                          30.423302 [s]
    Ewald                            17.308555 [s]
    ExternalField-Molecule            0.010442 [s]
    Framework-Molecule                0.024881 [s]
    Molecule-Molecule                11.328316 [s]
    Overhead                          1.751108 [s]

Rotation                             30.482254 [s]
    Ewald                            17.321253 [s]
    ExternalField-Molecule            0.011910 [s]
    Framework-Molecule                0.010511 [s]
    Molecule-Molecule                11.322413 [s]
    Overhead                          1.816167 [s]

Reinsertion (CBMC)                   90.890887 [s]
    Ewald                            15.058984 [s]
    NonEwald                         74.869654 [s]
    Overhead                          0.962249 [s]

Gibbs volume                         46.403389 [s]
    Ewald                            19.719056 [s]
    NonEwald                         24.820659 [s]
    Tail                              1.568003 [s]
    Overhead                          0.295671 [s]

Gibbs swap (CBMC)                   286.924850 [s]
    Ewald                            49.987149 [s]
    NonEwald                        233.033974 [s]
    Tail                              2.687657 [s]
    Overhead                          1.216070 [s]

Property sampling:                    0.563483 [s]
Energy/pressure sampling:            11.337591 [s]

Production simulation time:         498.357555 [s]
                All summed:         497.025756 [s]
                  Overhead:           1.331799 [s]


Initalization simulation time:      161.790617 [s]
Equilibration simulation time:        0.000000 [s]
Production simulation time:         498.357555 [s]
Total simulation time:              660.148172 [s]


Energy averages and statistics:
===============================================================================

Framework-molecule energy:
-------------------------------------------------------------------------------



Framework-molecule energy contributions per energy type:
-------------------------------------------------------------------------------



Inter-molecular energy:
-------------------------------------------------------------------------------

    Inter-molecular energy/kʙ 0-0 [CO2-CO2]:
    ---------------------------------------------------------------------------
        Block[  0] -3.971463e+05
        Block[  1] -3.901107e+05
        Block[  2] -4.121564e+05
        Block[  3] -4.010657e+05
        Block[  4] -4.037932e+05
        -----------------------------------------------------------------------
        Average  -4.008545e+05 +/-  1.011610e+04 [K]



Inter-molecular energy contributions per energy type:
-------------------------------------------------------------------------------

    Van der Waals energy/kʙ 0-0 [CO2-CO2]:
    ---------------------------------------------------------------------------
        Block[  0] -2.798542e+05
        Block[  1] -2.749230e+05
        Block[  2] -2.872674e+05
        Block[  3] -2.806453e+05
        Block[  4] -2.839104e+05
        -----------------------------------------------------------------------
        Average  -2.813201e+05 +/-  5.743285e+03 [K]

    VDW Tail-Correction energy/kʙ 0-0 [CO2-CO2]:
    ---------------------------------------------------------------------------
        Block[  0] -1.183251e+04
        Block[  1] -1.166410e+04
        Block[  2] -1.210335e+04
        Block[  3] -1.187577e+04
        Block[  4] -1.196194e+04
        -----------------------------------------------------------------------
        Average  -1.188753e+04 +/-  2.013343e+02 [K]

    Coulomb Real energy/kʙ 0-0 [CO2-CO2]:
    ---------------------------------------------------------------------------
        Block[  0] -8.533485e+04
        Block[  1] -8.384401e+04
        Block[  2] -9.201295e+04
        Block[  3] -8.811187e+04
        Block[  4] -8.781129e+04
        -----------------------------------------------------------------------
        Average  -8.742299e+04 +/-  3.869634e+03 [K]

    Coulomb Fourier energy/kʙ 0-0 [CO2-CO2]:
    ---------------------------------------------------------------------------
        Block[  0] -2.012478e+04
        Block[  1] -1.967959e+04
        Block[  2] -2.077269e+04
        Block[  3] -2.043284e+04
        Block[  4] -2.010956e+04
        -----------------------------------------------------------------------
        Average  -2.022389e+04 +/-  5.058095e+02 [K]


Total energy/kʙ
-------------------------------------------------------------------------------
    Block[  0] -3.971463e+05
    Block[  1] -3.901107e+05
    Block[  2] -4.121564e+05
    Block[  3] -4.010657e+05
    Block[  4] -4.037932e+05
    ---------------------------------------------------------------------------
    Average  -4.008545e+05 +/-  1.011610e+04 [K]

Pressure averages and statistics:
===============================================================================

Average pressure tensor: 
-------------------------------------------------------------------------------
 3.1155e+01  2.7829e+00 -6.8898e+00 +/- 9.7366e+01 4.9371e+01 6.8266e+01 [bar]
 2.7829e+00 -3.4060e+01 -3.0827e+00 +/- 4.9371e+01 4.2762e+01 3.4121e+01 [bar]
-6.8898e+00 -3.0827e+00  1.0442e-01 +/- 6.8266e+01 3.4121e+01 6.0739e+01 [bar]

    Block[  0]  4.874373e+07
    Block[  1]  4.832294e+07
    Block[  2]  5.026487e+07
    Block[  3]  4.889748e+07
    Block[  4]  4.956722e+07
    ---------------------------------------------------------------------------
    Ideal gas pressure   4.915925e+07 +/-  5.705334e-02 [Pa]
                         4.915925e+02 +/-  9.473936e+00 [bar]


    Block[  0] -5.106365e+07
    Block[  1] -4.886283e+07
    Block[  2] -5.023161e+07
    Block[  3] -4.864018e+07
    Block[  4] -4.746473e+07
    ---------------------------------------------------------------------------
    Excess pressure  -4.925260e+07 +/-  1.751502e+06 [Pa]
                     -4.925260e+02 +/-  1.751502e+01 [bar]


    Block[  0] -2.319919e+06
    Block[  1] -5.398915e+05
    Block[  2]  3.326281e+04
    Block[  3]  2.572908e+05
    Block[  4]  2.102490e+06
    ---------------------------------------------------------------------------
    Pressure average  -9.335340e+04 +/-  1.974446e+06 [Pa]
                      -9.335340e-01 +/-  1.974446e+01 [bar]


Enthalpy of adsorption
===============================================================================

Component 0 [CO2]
-------------------------------------------------------------------------------
    Block[  0] -2.933204e+03
    Block[  1] -2.971982e+03
    Block[  2] -2.594903e+03
    Block[  3] -2.698275e+03
    Block[  4] -3.154222e+03
    ---------------------------------------------------------------------------
    Enthalpy of adsorption: -2.870517e+03 +/-  2.778383e+02 [K]
                            -2.386681e+01 +/-  2.310077e+00 [kJ/mol]
    Warning: need to subtract the ideal-gas energy.


Densities
===============================================================================

Component 0 (CO2)
    Block[  0] 240.0175
    Block[  1] 239.29166666666669
    Block[  2] 238.58
    Block[  3] 240.0175
    Block[  4] 238.76000000000002
    -----------------------------------------------------------------------
    Density average   2.393333e+02 +/-  8.406575e-01 [molecules]
    Density average   1.548081e-02 +/-  2.983451e-04 [molec/A^3]
    Density average   1.131054e+03 +/-  2.179760e+01 [kg.m⁻³]

