Compiler and run-time data
===============================================================================
RASPA 3.0.4

Random seed: 816768108

Compiled as a 64-bits application
Compiler: gcc Ubuntu Clang 18.1.3 (1ubuntu1)
Compile Date = Mar 15 2025, Compile Time = 19:39:45

2025-06-03 10:59:44.571767
Simulation started on Tue, Jun 03
The start time was 10:59:00

Hostname:    c109
OS type:     Linux on x86_64
OS release:  6.8.0-58-generic
OS version:  #60-Ubuntu SMP PREEMPT_DYNAMIC Fri Mar 14 18:29:48 UTC 2025


Mutual consistent basic set of units:
===============================================================================

Unit of temperature: 1 [K]
Unit of length:      1e-10 [m]
Unit of time:        1e-12 [s]
Unit of mass:        1.6605402e-27 [kg]
Unit of charge:      1.60217733e-19 [C/particle]


Boltzmann constant (internal units):          0.8314464919307584 [-]
represents conversion from energy (internal units) to temperature (in Kelvin)

Derived units and their conversion factors:
===============================================================================

Unit of energy:                           1.6605402000000002e-23 [J]
Unit of energy:                           10.000008872307538 [J.mol⁻¹]
Unit of velocity:                         100 [m.s⁻¹]
Unit of force:                            1.6605402000000002e-13 [N]
Unit of diffusion:                        1.0000000000000002e-08 [m².s⁻¹]
Unit of acceleration:                     1.0000000000000002e-08 [m².s⁻¹]
Unit of torque:                           1.6605402000000002e-23 [N.m]
Unit of pressure:                         16605402 [Pa]
Unit of volume:                           1e-30 [m³]
Unit of density:                          1660.5402 [kg.m⁻³]
Unit of dynamic viscosity:                1.6605401999999997e-05 [N.s.m⁻²]
Unit of enthalpy:                         1.6605402000000002e-23 [J]
Unit of polarizability:                   1.5458657349975198e-35 [-]
Unit of Coulomb potential:                167101.08000665612 [K]
Unit of dielectric constant:              1.5458657349975193e-05 [s².C².kg⁻¹.m⁻³]
Unit of dipole moment:                    1.60217733e-29 [C.m]
Unit of Debye:                            4.803206799099162 [C.m]
Unit of electric potential:               0.00010364272224473431 [V]
Unit of electric field:                   1036427.222447343 [V.m⁻¹]
Unit of isothermal compressibility:       6.02213665167516e-08 [Pa⁻¹]
Unit of heat capacity:                    10.000008872307538 [J.mol⁻¹.K⁻¹]
Unit of volumetric expansion coefficient: 1 [K⁻¹]


Internal conversion factors:
===============================================================================

Energy (internal units) to Kelvin:      1.202724284692786 [-]
Kelvin to energy (internal units):      0.8314457542157567 [-]


System definitions
===============================================================================

Temperature:          220 [K]
Beta:                 0.005466923716160299 [-]
Pressure:             0 [Pa]
Helium void fraction: 1 [-]

Box:      30.00000   0.00000   0.00000
           0.00000  30.00000   0.00000
           0.00000   0.00000  30.00000
Lengths:  30.00000  30.00000  30.00000
Angles:   90.00000  90.00000  90.00000
Rectangular boundary conditions



Property measurement settings
===============================================================================




Pseudo-atoms
===============================================================================

  0 - C_co2    framework-atom: false
  1 - O_co2    framework-atom: false

  0 - C_co2    mass: 12.00000, charge:  0.70000
  1 - O_co2    mass: 15.99940, charge: -0.35000

  0 - C_co2    polarizability:  0.00000
  1 - O_co2    polarizability:  0.00000

  0 - J. J. Potoff et al., AIChE J. 2001, 47, 1676–1682.
  1 - J. J. Potoff et al., AIChE J. 2001, 47, 1676–1682.

Force field status
===============================================================================

Cutoff Framework-Molecule VDW:  12.00000 [Å]
Cutoff Molecule-Molecule VDW:   12.00000 [Å]
Cutoff Coulomb:                 12.00000 [Å]

Overlap-criteria VDW:           1.000000e+05 [K]

C_co2    - C_co2    Lennard-Jones p₀/kʙ:  27.00000 [K], p₁:  2.80000 [Å]
                                  shift:   0.00000 [K], tailcorrections: true
C_co2    - O_co2    Lennard-Jones p₀/kʙ:  46.18441 [K], p₁:  2.92500 [Å]
                                  shift:   0.00000 [K], tailcorrections: true
O_co2    - O_co2    Lennard-Jones p₀/kʙ:  79.00000 [K], p₁:  3.05000 [Å]
                                  shift:   0.00000 [K], tailcorrections: true

Ewald precision: 1e-06
Ewald alpha: 0.26505830360350674
Ewald k-vectors: 8 8 8


Component definitions
===============================================================================

Component 0 [CO2]

    Type: Adsorbate

    Critical temperature:  304.1282 [K]
    Critical pressure:     7377300 [Pa]
    Acentric factor:       0.22394 [-]

    Mol-fraction:                 1 [-]
    Swappable:                   true

    Mass:                         43.9988 [-]
    Fugacity coefficient:         -nan [-]
    Bulk fluid density:           0 [-]
    Compressibility:              1 [-]
    Excess molecules:             0 [-]

    Number Of Atoms:    3
    CBMC starting bead: 0
      0: O_co2  position  0.00000 -0.00000  1.16000, charge -0.35000
      1: C_co2  position  0.00000 -0.00000  0.00000, charge  0.70000
      2: O_co2  position  0.00000 -0.00000 -1.16000, charge -0.35000
    Diagonalized inertia-vector:      43.05758528 43.05758528 0.00000000
    Translational degrees of freedom: 3
    Rotational degrees of freedom:    2
    Shape of the molecule is: 'Linear'
    Net-charge:        0.00000000 [e]

    Move probabilities:
    Translation:                   0.199203 [-]
    Random translation:            0.000000 [-]
    Rotation:                      0.199203 [-]
    Random rotation:               0.000000 [-]
    Volume change:                 0.000000 [-]
    Reinsertion (CBMC):            0.199203 [-]
    Identity change (CBMC):        0.000000 [-]
    Swap:                          0.000000 [-]
    Swap (CBMC):                   0.000000 [-]
    Swap (CFCMC):                  0.000000 [-]
    Swap (CB/CFCMC):               0.000000 [-]
    Gibbs volume:                  0.003984 [-]
    Gibbs swap (CBMC):             0.398406 [-]
    Gibbs swap (CFCMC):            0.000000 [-]
    Widom:                         0.000000 [-]
    Widom (CFCMC):                 0.000000 [-]
    Widom (CB/CFCMC):              0.000000 [-]
    Parallel tempering:            0.000000 [-]
    Hybrid MC:                     0.000000 [-]

    number of blocking-pockets: 0

    number of bonds: 0





Number of pseudo-atoms
===============================================================================

Component   0 (CO2)
-------------------------------------------------------------------------------
    index   0 (C_co2): 40 atoms
    index   1 (O_co2): 80 atoms

Total number of pseudo-atoms:
-------------------------------------------------------------------------------
    index   0 (C_co2): 40 atoms
    index   1 (O_co2): 80 atoms




Energy status Recomputed from scratch
===============================================================================

Total potential energy/kʙ       -5.881918e+03 [K]
    external field VDW/kʙ        0.000000e+00 [K]
    external field Real/kʙ       0.000000e+00 [K]
    framework-molecule VDW/kʙ    0.000000e+00 [K]
    framework-molecule Real/kʙ   0.000000e+00 [K]
    molecule-molecule VDW/kʙ    -4.635624e+03 [K]
    molecule-molecule Real/kʙ   -1.123125e+03 [K]
    Van der Waals (Tail)/kʙ     -1.100506e+02 [K]
    Ewald Fourier/kʙ             2.339107e+03 [K]
    Ewald self/kʙ               -7.346713e+05 [K]
    Ewald exclusion/kʙ           7.323191e+05 [K]
    intra VDW/kʙ                 0.000000e+00 [K]
    intra Coulombic/kʙ           0.000000e+00 [K]
    polarization/kʙ              0.000000e+00 [K]
    dU/dlambda VDW/kʙ            0.000000e+00 [K]
    dU/dlambda Real/kʙ           0.000000e+00 [K]
    dU/dlambda Ewald/kʙ          0.000000e+00 [K]





Initialization: Current cycle: 0 out of 2000
===============================================================================

Box:      30.00000   0.00000   0.00000
           0.00000  30.00000   0.00000
           0.00000   0.00000  30.00000
Lengths:  30.00000  30.00000  30.00000
Angles:   90.00000  90.00000  90.00000
Rectangular boundary conditions

net charge:   0.00000000

component   0 (CO2) lambda:  0 occupancy:  1 (1.000000)
    net charge:   0.00000000 [e]

Amount of molecules per component :
-------------------------------------------------------------------------------
Component 0 (CO2)
    molecules:         3.100000e+01 molecules
    number density:    1.148148e-03 molec/A^3
    density:           8.388567e+01 kg/m^3

Total potential energy/kʙ       -4.524908e+03 [K]
-------------------------------------------------------------------------------
    external field VDW/kʙ        0.000000e+00 [K]
    external field Real/kʙ       0.000000e+00 [K]
    framework-molecule VDW/kʙ    0.000000e+00 [K]
    framework-molecule Real/kʙ   0.000000e+00 [K]
    molecule-molecule VDW/kʙ    -4.257207e+03 [K]
    molecule-molecule Real/kʙ   -1.233054e+02 [K]
    Van der Waals (Tail)/kʙ     -6.609914e+01 [K]
    Ewald Fourier/kʙ             1.744678e+03 [K]
    Ewald self/kʙ               -5.693702e+05 [K]
    Ewald exclusion/kʙ           5.675473e+05 [K]
    intra VDW/kʙ                 0.000000e+00 [K]
    intra Coulombic/kʙ           0.000000e+00 [K]
    polarization/kʙ              0.000000e+00 [K]
    dU/dlambda VDW/kʙ            0.000000e+00 [K]
    dU/dlambda Real/kʙ           0.000000e+00 [K]
    dU/dlambda Ewald/kʙ          0.000000e+00 [K]


Initialization: Current cycle: 100 out of 2000
===============================================================================

Box:      31.57450   0.00000   0.00000
           0.00000  31.57450   0.00000
           0.00000   0.00000  31.57450
Lengths:  31.57450  31.57450  31.57450
Angles:   90.00000  90.00000  90.00000
Rectangular boundary conditions

net charge:   0.00000000

component   0 (CO2) lambda:  0 occupancy:  1 (1.000000)
    net charge:   0.00000000 [e]

Amount of molecules per component :
-------------------------------------------------------------------------------
Component 0 (CO2)
    molecules:         6.000000e+00 molecules
    number density:    1.906083e-04 molec/A^3
    density:           1.392616e+01 kg/m^3

Total potential energy/kʙ       -6.334956e+01 [K]
-------------------------------------------------------------------------------
    external field VDW/kʙ        0.000000e+00 [K]
    external field Real/kʙ       0.000000e+00 [K]
    framework-molecule VDW/kʙ    0.000000e+00 [K]
    framework-molecule Real/kʙ   0.000000e+00 [K]
    molecule-molecule VDW/kʙ    -2.056832e-01 [K]
    molecule-molecule Real/kʙ   -6.210936e+01 [K]
    Van der Waals (Tail)/kʙ     -2.123876e+00 [K]
    Ewald Fourier/kʙ             3.539232e+02 [K]
    Ewald self/kʙ               -1.102007e+05 [K]
    Ewald exclusion/kʙ           1.098479e+05 [K]
    intra VDW/kʙ                 0.000000e+00 [K]
    intra Coulombic/kʙ           0.000000e+00 [K]
    polarization/kʙ              0.000000e+00 [K]
    dU/dlambda VDW/kʙ            0.000000e+00 [K]
    dU/dlambda Real/kʙ           0.000000e+00 [K]
    dU/dlambda Ewald/kʙ          0.000000e+00 [K]


Initialization: Current cycle: 200 out of 2000
===============================================================================

Box:      32.55624   0.00000   0.00000
           0.00000  32.55624   0.00000
           0.00000   0.00000  32.55624
Lengths:  32.55624  32.55624  32.55624
Angles:   90.00000  90.00000  90.00000
Rectangular boundary conditions

net charge:   0.00000000

component   0 (CO2) lambda:  0 occupancy:  1 (1.000000)
    net charge:   0.00000000 [e]

Amount of molecules per component :
-------------------------------------------------------------------------------
Component 0 (CO2)
    molecules:         0.000000e+00 molecules
    number density:    0.000000e+00 molec/A^3
    density:           0.000000e+00 kg/m^3

Total potential energy/kʙ        0.000000e+00 [K]
-------------------------------------------------------------------------------
    external field VDW/kʙ        0.000000e+00 [K]
    external field Real/kʙ       0.000000e+00 [K]
    framework-molecule VDW/kʙ    0.000000e+00 [K]
    framework-molecule Real/kʙ   0.000000e+00 [K]
    molecule-molecule VDW/kʙ     0.000000e+00 [K]
    molecule-molecule Real/kʙ    0.000000e+00 [K]
    Van der Waals (Tail)/kʙ      0.000000e+00 [K]
    Ewald Fourier/kʙ             0.000000e+00 [K]
    Ewald self/kʙ                0.000000e+00 [K]
    Ewald exclusion/kʙ           0.000000e+00 [K]
    intra VDW/kʙ                 0.000000e+00 [K]
    intra Coulombic/kʙ           0.000000e+00 [K]
    polarization/kʙ              0.000000e+00 [K]
    dU/dlambda VDW/kʙ            0.000000e+00 [K]
    dU/dlambda Real/kʙ           0.000000e+00 [K]
    dU/dlambda Ewald/kʙ          0.000000e+00 [K]


Initialization: Current cycle: 300 out of 2000
===============================================================================

Box:      33.17588   0.00000   0.00000
           0.00000  33.17588   0.00000
           0.00000   0.00000  33.17588
Lengths:  33.17588  33.17588  33.17588
Angles:   90.00000  90.00000  90.00000
Rectangular boundary conditions

net charge:   0.00000000

component   0 (CO2) lambda:  0 occupancy:  1 (1.000000)
    net charge:   0.00000000 [e]

Amount of molecules per component :
-------------------------------------------------------------------------------
Component 0 (CO2)
    molecules:         2.000000e+00 molecules
    number density:    5.477250e-05 molec/A^3
    density:           4.001772e+00 kg/m^3

Total potential energy/kʙ       -1.486080e+00 [K]
-------------------------------------------------------------------------------
    external field VDW/kʙ        0.000000e+00 [K]
    external field Real/kʙ       0.000000e+00 [K]
    framework-molecule VDW/kʙ    0.000000e+00 [K]
    framework-molecule Real/kʙ   0.000000e+00 [K]
    molecule-molecule VDW/kʙ    -1.009310e+00 [K]
    molecule-molecule Real/kʙ    1.133522e-01 [K]
    Van der Waals (Tail)/kʙ     -2.034364e-01 [K]
    Ewald Fourier/kʙ             1.172246e+02 [K]
    Ewald self/kʙ               -3.673356e+04 [K]
    Ewald exclusion/kʙ           3.661595e+04 [K]
    intra VDW/kʙ                 0.000000e+00 [K]
    intra Coulombic/kʙ           0.000000e+00 [K]
    polarization/kʙ              0.000000e+00 [K]
    dU/dlambda VDW/kʙ            0.000000e+00 [K]
    dU/dlambda Real/kʙ           0.000000e+00 [K]
    dU/dlambda Ewald/kʙ          0.000000e+00 [K]


Initialization: Current cycle: 400 out of 2000
===============================================================================

Box:      33.38642   0.00000   0.00000
           0.00000  33.38642   0.00000
           0.00000   0.00000  33.38642
Lengths:  33.38642  33.38642  33.38642
Angles:   90.00000  90.00000  90.00000
Rectangular boundary conditions

net charge:   0.00000000

component   0 (CO2) lambda:  0 occupancy:  1 (1.000000)
    net charge:   0.00000000 [e]

Amount of molecules per component :
-------------------------------------------------------------------------------
Component 0 (CO2)
    molecules:         6.000000e+00 molecules
    number density:    1.612285e-04 molec/A^3
    density:           1.177963e+01 kg/m^3

Total potential energy/kʙ       -4.704602e+01 [K]
-------------------------------------------------------------------------------
    external field VDW/kʙ        0.000000e+00 [K]
    external field Real/kʙ       0.000000e+00 [K]
    framework-molecule VDW/kʙ    0.000000e+00 [K]
    framework-molecule Real/kʙ   0.000000e+00 [K]
    molecule-molecule VDW/kʙ    -2.520605e+01 [K]
    molecule-molecule Real/kʙ    2.725007e+00 [K]
    Van der Waals (Tail)/kʙ     -1.796509e+00 [K]
    Ewald Fourier/kʙ             3.300654e+02 [K]
    Ewald self/kʙ               -1.102007e+05 [K]
    Ewald exclusion/kʙ           1.098479e+05 [K]
    intra VDW/kʙ                 0.000000e+00 [K]
    intra Coulombic/kʙ           0.000000e+00 [K]
    polarization/kʙ              0.000000e+00 [K]
    dU/dlambda VDW/kʙ            0.000000e+00 [K]
    dU/dlambda Real/kʙ           0.000000e+00 [K]
    dU/dlambda Ewald/kʙ          0.000000e+00 [K]


Initialization: Current cycle: 500 out of 2000
===============================================================================

Box:      33.32269   0.00000   0.00000
           0.00000  33.32269   0.00000
           0.00000   0.00000  33.32269
Lengths:  33.32269  33.32269  33.32269
Angles:   90.00000  90.00000  90.00000
Rectangular boundary conditions

net charge:   0.00000000

component   0 (CO2) lambda:  0 occupancy:  1 (1.000000)
    net charge:   0.00000000 [e]

Amount of molecules per component :
-------------------------------------------------------------------------------
Component 0 (CO2)
    molecules:         2.000000e+00 molecules
    number density:    5.405176e-05 molec/A^3
    density:           3.949114e+00 kg/m^3

Total potential energy/kʙ       -1.257866e+00 [K]
-------------------------------------------------------------------------------
    external field VDW/kʙ        0.000000e+00 [K]
    external field Real/kʙ       0.000000e+00 [K]
    framework-molecule VDW/kʙ    0.000000e+00 [K]
    framework-molecule Real/kʙ   0.000000e+00 [K]
    molecule-molecule VDW/kʙ     0.000000e+00 [K]
    molecule-molecule Real/kʙ    5.768462e-14 [K]
    Van der Waals (Tail)/kʙ     -2.007595e-01 [K]
    Ewald Fourier/kʙ             1.165542e+02 [K]
    Ewald self/kʙ               -3.673356e+04 [K]
    Ewald exclusion/kʙ           3.661595e+04 [K]
    intra VDW/kʙ                 0.000000e+00 [K]
    intra Coulombic/kʙ           0.000000e+00 [K]
    polarization/kʙ              0.000000e+00 [K]
    dU/dlambda VDW/kʙ            0.000000e+00 [K]
    dU/dlambda Real/kʙ           0.000000e+00 [K]
    dU/dlambda Ewald/kʙ          0.000000e+00 [K]


Initialization: Current cycle: 600 out of 2000
===============================================================================

Box:      33.28675   0.00000   0.00000
           0.00000  33.28675   0.00000
           0.00000   0.00000  33.28675
Lengths:  33.28675  33.28675  33.28675
Angles:   90.00000  90.00000  90.00000
Rectangular boundary conditions

net charge:   0.00000000

component   0 (CO2) lambda:  0 occupancy:  1 (1.000000)
    net charge:   0.00000000 [e]

Amount of molecules per component :
-------------------------------------------------------------------------------
Component 0 (CO2)
    molecules:         3.000000e+00 molecules
    number density:    8.134056e-05 molec/A^3
    density:           5.942881e+00 kg/m^3

Total potential energy/kʙ       -1.090112e+00 [K]
-------------------------------------------------------------------------------
    external field VDW/kʙ        0.000000e+00 [K]
    external field Real/kʙ       0.000000e+00 [K]
    framework-molecule VDW/kʙ    0.000000e+00 [K]
    framework-molecule Real/kʙ   0.000000e+00 [K]
    molecule-molecule VDW/kʙ    -3.952465e-14 [K]
    molecule-molecule Real/kʙ   -2.422621e-12 [K]
    Van der Waals (Tail)/kʙ     -4.531736e-01 [K]
    Ewald Fourier/kʙ             1.757800e+02 [K]
    Ewald self/kʙ               -5.510035e+04 [K]
    Ewald exclusion/kʙ           5.492393e+04 [K]
    intra VDW/kʙ                 0.000000e+00 [K]
    intra Coulombic/kʙ           0.000000e+00 [K]
    polarization/kʙ              0.000000e+00 [K]
    dU/dlambda VDW/kʙ            0.000000e+00 [K]
    dU/dlambda Real/kʙ           0.000000e+00 [K]
    dU/dlambda Ewald/kʙ          0.000000e+00 [K]


Initialization: Current cycle: 700 out of 2000
===============================================================================

Box:      33.51960   0.00000   0.00000
           0.00000  33.51960   0.00000
           0.00000   0.00000  33.51960
Lengths:  33.51960  33.51960  33.51960
Angles:   90.00000  90.00000  90.00000
Rectangular boundary conditions

net charge:   0.00000000

component   0 (CO2) lambda:  0 occupancy:  1 (1.000000)
    net charge:   0.00000000 [e]

Amount of molecules per component :
-------------------------------------------------------------------------------
Component 0 (CO2)
    molecules:         4.000000e+00 molecules
    number density:    1.062095e-04 molec/A^3
    density:           7.759847e+00 kg/m^3

Total potential energy/kʙ       -1.438974e+00 [K]
-------------------------------------------------------------------------------
    external field VDW/kʙ        0.000000e+00 [K]
    external field Real/kʙ       0.000000e+00 [K]
    framework-molecule VDW/kʙ    0.000000e+00 [K]
    framework-molecule Real/kʙ   0.000000e+00 [K]
    molecule-molecule VDW/kʙ    -3.905730e-15 [K]
    molecule-molecule Real/kʙ    8.252106e-14 [K]
    Van der Waals (Tail)/kʙ     -7.889683e-01 [K]
    Ewald Fourier/kʙ             2.345726e+02 [K]
    Ewald self/kʙ               -7.346713e+04 [K]
    Ewald exclusion/kʙ           7.323191e+04 [K]
    intra VDW/kʙ                 0.000000e+00 [K]
    intra Coulombic/kʙ           0.000000e+00 [K]
    polarization/kʙ              0.000000e+00 [K]
    dU/dlambda VDW/kʙ            0.000000e+00 [K]
    dU/dlambda Real/kʙ           0.000000e+00 [K]
    dU/dlambda Ewald/kʙ          0.000000e+00 [K]


Initialization: Current cycle: 800 out of 2000
===============================================================================

Box:      33.58698   0.00000   0.00000
           0.00000  33.58698   0.00000
           0.00000   0.00000  33.58698
Lengths:  33.58698  33.58698  33.58698
Angles:   90.00000  90.00000  90.00000
Rectangular boundary conditions

net charge:   0.00000000

component   0 (CO2) lambda:  0 occupancy:  1 (1.000000)
    net charge:   0.00000000 [e]

Amount of molecules per component :
-------------------------------------------------------------------------------
Component 0 (CO2)
    molecules:         3.000000e+00 molecules
    number density:    7.917870e-05 molec/A^3
    density:           5.784931e+00 kg/m^3

Total potential energy/kʙ       -2.689926e+00 [K]
-------------------------------------------------------------------------------
    external field VDW/kʙ        0.000000e+00 [K]
    external field Real/kʙ       0.000000e+00 [K]
    framework-molecule VDW/kʙ    0.000000e+00 [K]
    framework-molecule Real/kʙ   0.000000e+00 [K]
    molecule-molecule VDW/kʙ    -1.092928e+00 [K]
    molecule-molecule Real/kʙ   -2.129547e-03 [K]
    Van der Waals (Tail)/kʙ     -4.411292e-01 [K]
    Ewald Fourier/kʙ             1.752632e+02 [K]
    Ewald self/kʙ               -5.510035e+04 [K]
    Ewald exclusion/kʙ           5.492393e+04 [K]
    intra VDW/kʙ                 0.000000e+00 [K]
    intra Coulombic/kʙ           0.000000e+00 [K]
    polarization/kʙ              0.000000e+00 [K]
    dU/dlambda VDW/kʙ            0.000000e+00 [K]
    dU/dlambda Real/kʙ           0.000000e+00 [K]
    dU/dlambda Ewald/kʙ          0.000000e+00 [K]


Initialization: Current cycle: 900 out of 2000
===============================================================================

Box:      33.59269   0.00000   0.00000
           0.00000  33.59269   0.00000
           0.00000   0.00000  33.59269
Lengths:  33.59269  33.59269  33.59269
Angles:   90.00000  90.00000  90.00000
Rectangular boundary conditions

net charge:   0.00000000

component   0 (CO2) lambda:  0 occupancy:  1 (1.000000)
    net charge:   0.00000000 [e]

Amount of molecules per component :
-------------------------------------------------------------------------------
Component 0 (CO2)
    molecules:         7.000000e+00 molecules
    number density:    1.846562e-04 molec/A^3
    density:           1.349130e+01 kg/m^3

Total potential energy/kʙ       -4.858339e+00 [K]
-------------------------------------------------------------------------------
    external field VDW/kʙ        0.000000e+00 [K]
    external field Real/kʙ       0.000000e+00 [K]
    framework-molecule VDW/kʙ    0.000000e+00 [K]
    framework-molecule Real/kʙ   0.000000e+00 [K]
    molecule-molecule VDW/kʙ    -1.138755e+01 [K]
    molecule-molecule Real/kʙ    1.304791e+00 [K]
    Van der Waals (Tail)/kʙ     -2.400480e+00 [K]
    Ewald Fourier/kʙ             4.192644e+02 [K]
    Ewald self/kʙ               -1.285675e+05 [K]
    Ewald exclusion/kʙ           1.281558e+05 [K]
    intra VDW/kʙ                 0.000000e+00 [K]
    intra Coulombic/kʙ           0.000000e+00 [K]
    polarization/kʙ              0.000000e+00 [K]
    dU/dlambda VDW/kʙ            0.000000e+00 [K]
    dU/dlambda Real/kʙ           0.000000e+00 [K]
    dU/dlambda Ewald/kʙ          0.000000e+00 [K]


Initialization: Current cycle: 1000 out of 2000
===============================================================================

Box:      33.75400   0.00000   0.00000
           0.00000  33.75400   0.00000
           0.00000   0.00000  33.75400
Lengths:  33.75400  33.75400  33.75400
Angles:   90.00000  90.00000  90.00000
Rectangular boundary conditions

net charge:   0.00000000

component   0 (CO2) lambda:  0 occupancy:  1 (1.000000)
    net charge:   0.00000000 [e]

Amount of molecules per component :
-------------------------------------------------------------------------------
Component 0 (CO2)
    molecules:         8.000000e+00 molecules
    number density:    2.080244e-04 molec/A^3
    density:           1.519862e+01 kg/m^3

Total potential energy/kʙ       -2.976358e+01 [K]
-------------------------------------------------------------------------------
    external field VDW/kʙ        0.000000e+00 [K]
    external field Real/kʙ       0.000000e+00 [K]
    framework-molecule VDW/kʙ    0.000000e+00 [K]
    framework-molecule Real/kʙ   0.000000e+00 [K]
    molecule-molecule VDW/kʙ    -2.293991e+01 [K]
    molecule-molecule Real/kʙ   -4.860530e+00 [K]
    Van der Waals (Tail)/kʙ     -3.090583e+00 [K]
    Ewald Fourier/kʙ             4.715726e+02 [K]
    Ewald self/kʙ               -1.469343e+05 [K]
    Ewald exclusion/kʙ           1.464638e+05 [K]
    intra VDW/kʙ                 0.000000e+00 [K]
    intra Coulombic/kʙ           0.000000e+00 [K]
    polarization/kʙ              0.000000e+00 [K]
    dU/dlambda VDW/kʙ            0.000000e+00 [K]
    dU/dlambda Real/kʙ           0.000000e+00 [K]
    dU/dlambda Ewald/kʙ          0.000000e+00 [K]


Initialization: Current cycle: 1100 out of 2000
===============================================================================

Box:      33.82665   0.00000   0.00000
           0.00000  33.82665   0.00000
           0.00000   0.00000  33.82665
Lengths:  33.82665  33.82665  33.82665
Angles:   90.00000  90.00000  90.00000
Rectangular boundary conditions

net charge:   0.00000000

component   0 (CO2) lambda:  0 occupancy:  1 (1.000000)
    net charge:   0.00000000 [e]

Amount of molecules per component :
-------------------------------------------------------------------------------
Component 0 (CO2)
    molecules:         1.100000e+01 molecules
    number density:    2.841946e-04 molec/A^3
    density:           2.076374e+01 kg/m^3

Total potential energy/kʙ       -1.209753e+03 [K]
-------------------------------------------------------------------------------
    external field VDW/kʙ        0.000000e+00 [K]
    external field Real/kʙ       0.000000e+00 [K]
    framework-molecule VDW/kʙ    0.000000e+00 [K]
    framework-molecule Real/kʙ   0.000000e+00 [K]
    molecule-molecule VDW/kʙ    -4.574036e+02 [K]
    molecule-molecule Real/kʙ   -7.100387e+02 [K]
    Van der Waals (Tail)/kʙ     -5.805567e+00 [K]
    Ewald Fourier/kʙ             6.103570e+02 [K]
    Ewald self/kʙ               -2.020346e+05 [K]
    Ewald exclusion/kʙ           2.013877e+05 [K]
    intra VDW/kʙ                 0.000000e+00 [K]
    intra Coulombic/kʙ           0.000000e+00 [K]
    polarization/kʙ              0.000000e+00 [K]
    dU/dlambda VDW/kʙ            0.000000e+00 [K]
    dU/dlambda Real/kʙ           0.000000e+00 [K]
    dU/dlambda Ewald/kʙ          0.000000e+00 [K]


Initialization: Current cycle: 1200 out of 2000
===============================================================================

Box:      33.85876   0.00000   0.00000
           0.00000  33.85876   0.00000
           0.00000   0.00000  33.85876
Lengths:  33.85876  33.85876  33.85876
Angles:   90.00000  90.00000  90.00000
Rectangular boundary conditions

net charge:   0.00000000

component   0 (CO2) lambda:  0 occupancy:  1 (1.000000)
    net charge:   0.00000000 [e]

Amount of molecules per component :
-------------------------------------------------------------------------------
Component 0 (CO2)
    molecules:         7.000000e+00 molecules
    number density:    1.803370e-04 molec/A^3
    density:           1.317573e+01 kg/m^3

Total potential energy/kʙ       -1.994689e+01 [K]
-------------------------------------------------------------------------------
    external field VDW/kʙ        0.000000e+00 [K]
    external field Real/kʙ       0.000000e+00 [K]
    framework-molecule VDW/kʙ    0.000000e+00 [K]
    framework-molecule Real/kʙ   0.000000e+00 [K]
    molecule-molecule VDW/kʙ    -1.764186e+01 [K]
    molecule-molecule Real/kʙ    1.091097e+00 [K]
    Van der Waals (Tail)/kʙ     -2.344332e+00 [K]
    Ewald Fourier/kʙ             4.105877e+02 [K]
    Ewald self/kʙ               -1.285675e+05 [K]
    Ewald exclusion/kʙ           1.281558e+05 [K]
    intra VDW/kʙ                 0.000000e+00 [K]
    intra Coulombic/kʙ           0.000000e+00 [K]
    polarization/kʙ              0.000000e+00 [K]
    dU/dlambda VDW/kʙ            0.000000e+00 [K]
    dU/dlambda Real/kʙ           0.000000e+00 [K]
    dU/dlambda Ewald/kʙ          0.000000e+00 [K]


Initialization: Current cycle: 1300 out of 2000
===============================================================================

Box:      33.83400   0.00000   0.00000
           0.00000  33.83400   0.00000
           0.00000   0.00000  33.83400
Lengths:  33.83400  33.83400  33.83400
Angles:   90.00000  90.00000  90.00000
Rectangular boundary conditions

net charge:   0.00000000

component   0 (CO2) lambda:  0 occupancy:  1 (1.000000)
    net charge:   0.00000000 [e]

Amount of molecules per component :
-------------------------------------------------------------------------------
Component 0 (CO2)
    molecules:         1.100000e+01 molecules
    number density:    2.840092e-04 molec/A^3
    density:           2.075020e+01 kg/m^3

Total potential energy/kʙ       -1.040909e+02 [K]
-------------------------------------------------------------------------------
    external field VDW/kʙ        0.000000e+00 [K]
    external field Real/kʙ       0.000000e+00 [K]
    framework-molecule VDW/kʙ    0.000000e+00 [K]
    framework-molecule Real/kʙ   0.000000e+00 [K]
    molecule-molecule VDW/kʙ    -4.416185e+01 [K]
    molecule-molecule Real/kʙ   -2.444677e+01 [K]
    Van der Waals (Tail)/kʙ     -5.801781e+00 [K]
    Ewald Fourier/kʙ             6.171816e+02 [K]
    Ewald self/kʙ               -2.020346e+05 [K]
    Ewald exclusion/kʙ           2.013877e+05 [K]
    intra VDW/kʙ                 0.000000e+00 [K]
    intra Coulombic/kʙ           0.000000e+00 [K]
    polarization/kʙ              0.000000e+00 [K]
    dU/dlambda VDW/kʙ            0.000000e+00 [K]
    dU/dlambda Real/kʙ           0.000000e+00 [K]
    dU/dlambda Ewald/kʙ          0.000000e+00 [K]


Initialization: Current cycle: 1400 out of 2000
===============================================================================

Box:      33.86076   0.00000   0.00000
           0.00000  33.86076   0.00000
           0.00000   0.00000  33.86076
Lengths:  33.86076  33.86076  33.86076
Angles:   90.00000  90.00000  90.00000
Rectangular boundary conditions

net charge:   0.00000000

component   0 (CO2) lambda:  0 occupancy:  1 (1.000000)
    net charge:   0.00000000 [e]

Amount of molecules per component :
-------------------------------------------------------------------------------
Component 0 (CO2)
    molecules:         6.000000e+00 molecules
    number density:    1.545472e-04 molec/A^3
    density:           1.129148e+01 kg/m^3

Total potential energy/kʙ       -4.514569e+01 [K]
-------------------------------------------------------------------------------
    external field VDW/kʙ        0.000000e+00 [K]
    external field Real/kʙ       0.000000e+00 [K]
    framework-molecule VDW/kʙ    0.000000e+00 [K]
    framework-molecule Real/kʙ   0.000000e+00 [K]
    molecule-molecule VDW/kʙ    -1.907204e+01 [K]
    molecule-molecule Real/kʙ   -1.039877e+01 [K]
    Van der Waals (Tail)/kʙ     -1.722061e+00 [K]
    Ewald Fourier/kʙ             3.388810e+02 [K]
    Ewald self/kʙ               -1.102007e+05 [K]
    Ewald exclusion/kʙ           1.098479e+05 [K]
    intra VDW/kʙ                 0.000000e+00 [K]
    intra Coulombic/kʙ           0.000000e+00 [K]
    polarization/kʙ              0.000000e+00 [K]
    dU/dlambda VDW/kʙ            0.000000e+00 [K]
    dU/dlambda Real/kʙ           0.000000e+00 [K]
    dU/dlambda Ewald/kʙ          0.000000e+00 [K]


Initialization: Current cycle: 1500 out of 2000
===============================================================================

Box:      33.77315   0.00000   0.00000
           0.00000  33.77315   0.00000
           0.00000   0.00000  33.77315
Lengths:  33.77315  33.77315  33.77315
Angles:   90.00000  90.00000  90.00000
Rectangular boundary conditions

net charge:   0.00000000

component   0 (CO2) lambda:  0 occupancy:  1 (1.000000)
    net charge:   0.00000000 [e]

Amount of molecules per component :
-------------------------------------------------------------------------------
Component 0 (CO2)
    molecules:         3.000000e+00 molecules
    number density:    7.787649e-05 molec/A^3
    density:           5.689790e+00 kg/m^3

Total potential energy/kʙ       -1.334806e+00 [K]
-------------------------------------------------------------------------------
    external field VDW/kʙ        0.000000e+00 [K]
    external field Real/kʙ       0.000000e+00 [K]
    framework-molecule VDW/kʙ    0.000000e+00 [K]
    framework-molecule Real/kʙ   0.000000e+00 [K]
    molecule-molecule VDW/kʙ     3.338230e-17 [K]
    molecule-molecule Real/kʙ    2.626561e-14 [K]
    Van der Waals (Tail)/kʙ     -4.338742e-01 [K]
    Ewald Fourier/kʙ             1.755160e+02 [K]
    Ewald self/kʙ               -5.510035e+04 [K]
    Ewald exclusion/kʙ           5.492393e+04 [K]
    intra VDW/kʙ                 0.000000e+00 [K]
    intra Coulombic/kʙ           0.000000e+00 [K]
    polarization/kʙ              0.000000e+00 [K]
    dU/dlambda VDW/kʙ            0.000000e+00 [K]
    dU/dlambda Real/kʙ           0.000000e+00 [K]
    dU/dlambda Ewald/kʙ          0.000000e+00 [K]


Initialization: Current cycle: 1600 out of 2000
===============================================================================

Box:      33.82323   0.00000   0.00000
           0.00000  33.82323   0.00000
           0.00000   0.00000  33.82323
Lengths:  33.82323  33.82323  33.82323
Angles:   90.00000  90.00000  90.00000
Rectangular boundary conditions

net charge:   0.00000000

component   0 (CO2) lambda:  0 occupancy:  1 (1.000000)
    net charge:   0.00000000 [e]

Amount of molecules per component :
-------------------------------------------------------------------------------
Component 0 (CO2)
    molecules:         6.000000e+00 molecules
    number density:    1.550622e-04 molec/A^3
    density:           1.132911e+01 kg/m^3

Total potential energy/kʙ       -6.717083e+00 [K]
-------------------------------------------------------------------------------
    external field VDW/kʙ        0.000000e+00 [K]
    external field Real/kʙ       0.000000e+00 [K]
    framework-molecule VDW/kʙ    0.000000e+00 [K]
    framework-molecule Real/kʙ   0.000000e+00 [K]
    molecule-molecule VDW/kʙ    -1.427606e+00 [K]
    molecule-molecule Real/kʙ   -6.107396e-02 [K]
    Van der Waals (Tail)/kʙ     -1.727799e+00 [K]
    Ewald Fourier/kʙ             3.493332e+02 [K]
    Ewald self/kʙ               -1.102007e+05 [K]
    Ewald exclusion/kʙ           1.098479e+05 [K]
    intra VDW/kʙ                 0.000000e+00 [K]
    intra Coulombic/kʙ           0.000000e+00 [K]
    polarization/kʙ              0.000000e+00 [K]
    dU/dlambda VDW/kʙ            0.000000e+00 [K]
    dU/dlambda Real/kʙ           0.000000e+00 [K]
    dU/dlambda Ewald/kʙ          0.000000e+00 [K]


Initialization: Current cycle: 1700 out of 2000
===============================================================================

Box:      33.85306   0.00000   0.00000
           0.00000  33.85306   0.00000
           0.00000   0.00000  33.85306
Lengths:  33.85306  33.85306  33.85306
Angles:   90.00000  90.00000  90.00000
Rectangular boundary conditions

net charge:   0.00000000

component   0 (CO2) lambda:  0 occupancy:  1 (1.000000)
    net charge:   0.00000000 [e]

Amount of molecules per component :
-------------------------------------------------------------------------------
Component 0 (CO2)
    molecules:         7.000000e+00 molecules
    number density:    1.804282e-04 molec/A^3
    density:           1.318239e+01 kg/m^3

Total potential energy/kʙ       -1.157323e+02 [K]
-------------------------------------------------------------------------------
    external field VDW/kʙ        0.000000e+00 [K]
    external field Real/kʙ       0.000000e+00 [K]
    framework-molecule VDW/kʙ    0.000000e+00 [K]
    framework-molecule Real/kʙ   0.000000e+00 [K]
    molecule-molecule VDW/kʙ    -1.257547e+02 [K]
    molecule-molecule Real/kʙ    8.507613e+00 [K]
    Van der Waals (Tail)/kʙ     -2.345517e+00 [K]
    Ewald Fourier/kʙ             4.154997e+02 [K]
    Ewald self/kʙ               -1.285675e+05 [K]
    Ewald exclusion/kʙ           1.281558e+05 [K]
    intra VDW/kʙ                 0.000000e+00 [K]
    intra Coulombic/kʙ           0.000000e+00 [K]
    polarization/kʙ              0.000000e+00 [K]
    dU/dlambda VDW/kʙ            0.000000e+00 [K]
    dU/dlambda Real/kʙ           0.000000e+00 [K]
    dU/dlambda Ewald/kʙ          0.000000e+00 [K]


Initialization: Current cycle: 1800 out of 2000
===============================================================================

Box:      33.89040   0.00000   0.00000
           0.00000  33.89040   0.00000
           0.00000   0.00000  33.89040
Lengths:  33.89040  33.89040  33.89040
Angles:   90.00000  90.00000  90.00000
Rectangular boundary conditions

net charge:   0.00000000

component   0 (CO2) lambda:  0 occupancy:  1 (1.000000)
    net charge:   0.00000000 [e]

Amount of molecules per component :
-------------------------------------------------------------------------------
Component 0 (CO2)
    molecules:         1.100000e+01 molecules
    number density:    2.825938e-04 molec/A^3
    density:           2.064678e+01 kg/m^3

Total potential energy/kʙ       -2.612381e+02 [K]
-------------------------------------------------------------------------------
    external field VDW/kʙ        0.000000e+00 [K]
    external field Real/kʙ       0.000000e+00 [K]
    framework-molecule VDW/kʙ    0.000000e+00 [K]
    framework-molecule Real/kʙ   0.000000e+00 [K]
    molecule-molecule VDW/kʙ    -1.697001e+02 [K]
    molecule-molecule Real/kʙ   -8.722054e+01 [K]
    Van der Waals (Tail)/kʙ     -5.772866e+00 [K]
    Ewald Fourier/kʙ             6.483175e+02 [K]
    Ewald self/kʙ               -2.020346e+05 [K]
    Ewald exclusion/kʙ           2.013877e+05 [K]
    intra VDW/kʙ                 0.000000e+00 [K]
    intra Coulombic/kʙ           0.000000e+00 [K]
    polarization/kʙ              0.000000e+00 [K]
    dU/dlambda VDW/kʙ            0.000000e+00 [K]
    dU/dlambda Real/kʙ           0.000000e+00 [K]
    dU/dlambda Ewald/kʙ          0.000000e+00 [K]


Initialization: Current cycle: 1900 out of 2000
===============================================================================

Box:      33.83708   0.00000   0.00000
           0.00000  33.83708   0.00000
           0.00000   0.00000  33.83708
Lengths:  33.83708  33.83708  33.83708
Angles:   90.00000  90.00000  90.00000
Rectangular boundary conditions

net charge:   0.00000000

component   0 (CO2) lambda:  0 occupancy:  1 (1.000000)
    net charge:   0.00000000 [e]

Amount of molecules per component :
-------------------------------------------------------------------------------
Component 0 (CO2)
    molecules:         1.100000e+01 molecules
    number density:    2.839318e-04 molec/A^3
    density:           2.074454e+01 kg/m^3

Total potential energy/kʙ       -1.496704e+03 [K]
-------------------------------------------------------------------------------
    external field VDW/kʙ        0.000000e+00 [K]
    external field Real/kʙ       0.000000e+00 [K]
    framework-molecule VDW/kʙ    0.000000e+00 [K]
    framework-molecule Real/kʙ   0.000000e+00 [K]
    molecule-molecule VDW/kʙ    -9.504372e+02 [K]
    molecule-molecule Real/kʙ   -5.064216e+02 [K]
    Van der Waals (Tail)/kʙ     -5.800200e+00 [K]
    Ewald Fourier/kʙ             6.128171e+02 [K]
    Ewald self/kʙ               -2.020346e+05 [K]
    Ewald exclusion/kʙ           2.013877e+05 [K]
    intra VDW/kʙ                 0.000000e+00 [K]
    intra Coulombic/kʙ           0.000000e+00 [K]
    polarization/kʙ              0.000000e+00 [K]
    dU/dlambda VDW/kʙ            0.000000e+00 [K]
    dU/dlambda Real/kʙ           0.000000e+00 [K]
    dU/dlambda Ewald/kʙ          0.000000e+00 [K]


Current cycle: 0 out of 6000
===============================================================================

Box:      33.84823   0.00000   0.00000  Average:  33.84823   0.00000   0.00000
           0.00000  33.84823   0.00000             0.00000  33.84823   0.00000
           0.00000   0.00000  33.84823             0.00000   0.00000  33.84823
Lengths:  33.84823  33.84823  33.84823  Average:  33.84823  33.84823  33.84823
Angles:   90.00000  90.00000  90.00000  Average:  90.00000  90.00000  90.00000
Rectangular boundary conditions

net charge:   0.00000000

component 0 (CO2) lambda:  0 occupancy:  1 (1.000000)
    net charge:   0.00000000 [e]

Amount of molecules per component :
-------------------------------------------------------------------------------
Component 0 (CO2)
    molecules:      1.000000e+01 molecules  (1.000000e+01 +/- 0.000000e+00)
    number density: 2.578647e-04 molec./A^3 (2.578647e-04 +/- 0.000000e+00)
    density:        1.884004e+01 kg/m^3     (1.884004e+01 +/- 0.000000e+00)

Average pressure tensor: 
-------------------------------------------------------------------------------
 7.8325e+00  0.0000e+00  0.0000e+00 +/- 0.0000e+00 0.0000e+00 0.0000e+00 [bar]
 0.0000e+00  7.8325e+00  0.0000e+00 +/- 0.0000e+00 0.0000e+00 0.0000e+00 [bar]
 0.0000e+00  0.0000e+00  7.8325e+00 +/- 0.0000e+00 0.0000e+00 0.0000e+00 [bar]
Ideal-gas pressure:   7.832463e+00 +/ 0.000000e+00 [bar]
Excess pressure:      0.000000e+00 +/ 0.000000e+00 [bar]
Pressure:             7.832463e+00 +/ 0.000000e+00 [bar]

Total potential energy/kʙ  -1.663905e+01 (-1.663905e+01 +/- 0.000000e+00) [K]
-------------------------------------------------------------------------------
ExternalField-molecule
    Van der Waals/kʙ        0.000000e+00 ( 0.000000e+00 +/- 0.000000e+00) [K]
Framework-molecule
    Van der Waals/kʙ        0.000000e+00 ( 0.000000e+00 +/- 0.000000e+00) [K]
    Van der Waals (Tail)/kʙ 0.000000e+00 ( 0.000000e+00 +/- 0.000000e+00) [K]
    Coulombic Real/kʙ       0.000000e+00 ( 0.000000e+00 +/- 0.000000e+00) [K]
    Coulombic Fourier/kʙ    0.000000e+00 ( 0.000000e+00 +/- 0.000000e+00) [K]
Molecule-molecule
    Van der Waals/kʙ       -1.165382e+01 (-1.165382e+01 +/- 0.000000e+00) [K]
    Van der Waals (Tail)/kʙ-4.788816e+00 (-4.788816e+00 +/- 0.000000e+00) [K]
    Coulombic Real/kʙ       2.657066e+00 ( 2.657066e+00 +/- 0.000000e+00) [K]
    Coulombic Fourier/kʙ   -2.853477e+00 (-2.853477e+00 +/- 0.000000e+00) [K]
    Molecule Intra/kʙ       0.000000e+00 ( 0.000000e+00 +/- 0.000000e+00) [K]

Current cycle: 100 out of 6000
===============================================================================

Box:      33.81696   0.00000   0.00000  Average:  33.82225   0.00000   0.00000
           0.00000  33.81696   0.00000             0.00000  33.82225   0.00000
           0.00000   0.00000  33.81696             0.00000   0.00000  33.82225
Lengths:  33.81696  33.81696  33.81696  Average:  33.82225  33.82225  33.82225
Angles:   90.00000  90.00000  90.00000  Average:  90.00000  90.00000  90.00000
Rectangular boundary conditions

net charge:   0.00000000

component 0 (CO2) lambda:  0 occupancy:  1 (1.000000)
    net charge:   0.00000000 [e]

Amount of molecules per component :
-------------------------------------------------------------------------------
Component 0 (CO2)
    molecules:      5.000000e+00 molecules  (7.148515e+00 +/- 0.000000e+00)
    number density: 1.292904e-04 molec./A^3 (1.847538e-04 +/- 0.000000e+00)
    density:        9.446179e+00 kg/m^3     (1.349843e+01 +/- 0.000000e+00)

Average pressure tensor: 
-------------------------------------------------------------------------------
 4.7374e+00  2.3985e-01  5.5921e-02 +/- 0.0000e+00 0.0000e+00 0.0000e+00 [bar]
 2.3985e-01  4.8460e+00  1.0072e-01 +/- 0.0000e+00 0.0000e+00 0.0000e+00 [bar]
 5.5921e-02  1.0072e-01  5.1407e+00 +/- 0.0000e+00 0.0000e+00 0.0000e+00 [bar]
Ideal-gas pressure:   5.611770e+00 +/ 0.000000e+00 [bar]
Excess pressure:     -7.037415e-01 +/ 0.000000e+00 [bar]
Pressure:             4.908028e+00 +/ 0.000000e+00 [bar]

Total potential energy/kʙ  -6.580509e+01 (-1.166523e+02 +/- 0.000000e+00) [K]
-------------------------------------------------------------------------------
ExternalField-molecule
    Van der Waals/kʙ        0.000000e+00 ( 0.000000e+00 +/- 0.000000e+00) [K]
Framework-molecule
    Van der Waals/kʙ        0.000000e+00 ( 0.000000e+00 +/- 0.000000e+00) [K]
    Van der Waals (Tail)/kʙ 0.000000e+00 ( 0.000000e+00 +/- 0.000000e+00) [K]
    Coulombic Real/kʙ       0.000000e+00 ( 0.000000e+00 +/- 0.000000e+00) [K]
    Coulombic Fourier/kʙ    0.000000e+00 ( 0.000000e+00 +/- 0.000000e+00) [K]
Molecule-molecule
    Van der Waals/kʙ       -6.039166e+01 (-8.042945e+01 +/- 0.000000e+00) [K]
    Van der Waals (Tail)/kʙ-1.200529e+00 (-2.529316e+00 +/- 0.000000e+00) [K]
    Coulombic Real/kʙ      -1.500235e+01 (-1.935073e+01 +/- 0.000000e+00) [K]
    Coulombic Fourier/kʙ    1.078945e+01 (-1.434278e+01 +/- 0.000000e+00) [K]
    Molecule Intra/kʙ       0.000000e+00 ( 0.000000e+00 +/- 0.000000e+00) [K]

Current cycle: 200 out of 6000
===============================================================================

Box:      33.93893   0.00000   0.00000  Average:  33.85044   0.00000   0.00000
           0.00000  33.93893   0.00000             0.00000  33.85044   0.00000
           0.00000   0.00000  33.93893             0.00000   0.00000  33.85044
Lengths:  33.93893  33.93893  33.93893  Average:  33.85044  33.85044  33.85044
Angles:   90.00000  90.00000  90.00000  Average:  90.00000  90.00000  90.00000
Rectangular boundary conditions

net charge:   0.00000000

component 0 (CO2) lambda:  0 occupancy:  1 (1.000000)
    net charge:   0.00000000 [e]

Amount of molecules per component :
-------------------------------------------------------------------------------
Component 0 (CO2)
    molecules:      9.000000e+00 molecules  (7.542289e+00 +/- 0.000000e+00)
    number density: 2.302226e-04 molec./A^3 (1.943507e-04 +/- 0.000000e+00)
    density:        1.682046e+01 kg/m^3     (1.419960e+01 +/- 0.000000e+00)

Average pressure tensor: 
-------------------------------------------------------------------------------
 5.5819e+00  1.2706e-01  3.5112e-01 +/- 0.0000e+00 0.0000e+00 0.0000e+00 [bar]
 1.2706e-01  4.9635e+00  9.1781e-02 +/- 0.0000e+00 0.0000e+00 0.0000e+00 [bar]
 3.5112e-01  9.1781e-02  4.9537e+00 +/- 0.0000e+00 0.0000e+00 0.0000e+00 [bar]
Ideal-gas pressure:   5.903269e+00 +/ 0.000000e+00 [bar]
Excess pressure:     -7.368828e-01 +/ 0.000000e+00 [bar]
Pressure:             5.166386e+00 +/ 0.000000e+00 [bar]

Total potential energy/kʙ  -4.107480e+02 (-2.585458e+02 +/- 0.000000e+00) [K]
-------------------------------------------------------------------------------
ExternalField-molecule
    Van der Waals/kʙ        0.000000e+00 ( 0.000000e+00 +/- 0.000000e+00) [K]
Framework-molecule
    Van der Waals/kʙ        0.000000e+00 ( 0.000000e+00 +/- 0.000000e+00) [K]
    Van der Waals (Tail)/kʙ 0.000000e+00 ( 0.000000e+00 +/- 0.000000e+00) [K]
    Coulombic Real/kʙ       0.000000e+00 ( 0.000000e+00 +/- 0.000000e+00) [K]
    Coulombic Fourier/kʙ    0.000000e+00 ( 0.000000e+00 +/- 0.000000e+00) [K]
Molecule-molecule
    Van der Waals/kʙ       -2.965115e+02 (-1.930832e+02 +/- 0.000000e+00) [K]
    Van der Waals (Tail)/kʙ-3.847925e+00 (-3.045750e+00 +/- 0.000000e+00) [K]
    Coulombic Real/kʙ      -1.036336e+02 (-5.237724e+01 +/- 0.000000e+00) [K]
    Coulombic Fourier/kʙ   -6.755006e+00 (-1.003961e+01 +/- 0.000000e+00) [K]
    Molecule Intra/kʙ       0.000000e+00 ( 0.000000e+00 +/- 0.000000e+00) [K]

Current cycle: 300 out of 6000
===============================================================================

Box:      33.84292   0.00000   0.00000  Average:  33.86881   0.00000   0.00000
           0.00000  33.84292   0.00000             0.00000  33.86881   0.00000
           0.00000   0.00000  33.84292             0.00000   0.00000  33.86881
Lengths:  33.84292  33.84292  33.84292  Average:  33.86881  33.86881  33.86881
Angles:   90.00000  90.00000  90.00000  Average:  90.00000  90.00000  90.00000
Rectangular boundary conditions

net charge:   0.00000000

component 0 (CO2) lambda:  0 occupancy:  1 (1.000000)
    net charge:   0.00000000 [e]

Amount of molecules per component :
-------------------------------------------------------------------------------
Component 0 (CO2)
    molecules:      1.200000e+01 molecules  (9.514950e+00 +/- 0.000000e+00)
    number density: 3.095834e-04 molec./A^3 (2.446911e-04 +/- 0.000000e+00)
    density:        2.261869e+01 kg/m^3     (1.787755e+01 +/- 0.000000e+00)

Average pressure tensor: 
-------------------------------------------------------------------------------
 5.9443e+00 -6.2298e-02  2.6774e-01 +/- 0.0000e+00 0.0000e+00 0.0000e+00 [bar]
-6.2298e-02  5.6287e+00  5.1217e-01 +/- 0.0000e+00 0.0000e+00 0.0000e+00 [bar]
 2.6774e-01  5.1217e-01  5.9899e+00 +/- 0.0000e+00 0.0000e+00 0.0000e+00 [bar]
Ideal-gas pressure:   7.432321e+00 +/ 0.000000e+00 [bar]
Excess pressure:     -1.578009e+00 +/ 0.000000e+00 [bar]
Pressure:             5.854312e+00 +/ 0.000000e+00 [bar]

Total potential energy/kʙ  -8.698420e+02 (-5.209359e+02 +/- 0.000000e+00) [K]
-------------------------------------------------------------------------------
ExternalField-molecule
    Van der Waals/kʙ        0.000000e+00 ( 0.000000e+00 +/- 0.000000e+00) [K]
Framework-molecule
    Van der Waals/kʙ        0.000000e+00 ( 0.000000e+00 +/- 0.000000e+00) [K]
    Van der Waals (Tail)/kʙ 0.000000e+00 ( 0.000000e+00 +/- 0.000000e+00) [K]
    Coulombic Real/kʙ       0.000000e+00 ( 0.000000e+00 +/- 0.000000e+00) [K]
    Coulombic Fourier/kʙ    0.000000e+00 ( 0.000000e+00 +/- 0.000000e+00) [K]
Molecule-molecule
    Van der Waals/kʙ       -6.524017e+02 (-3.700337e+02 +/- 0.000000e+00) [K]
    Van der Waals (Tail)/kʙ-6.899142e+00 (-4.708109e+00 +/- 0.000000e+00) [K]
    Coulombic Real/kʙ      -2.258666e+02 (-1.280735e+02 +/- 0.000000e+00) [K]
    Coulombic Fourier/kʙ    1.532550e+01 (-1.812063e+01 +/- 0.000000e+00) [K]
    Molecule Intra/kʙ       0.000000e+00 ( 0.000000e+00 +/- 0.000000e+00) [K]

Current cycle: 400 out of 6000
===============================================================================

Box:      33.90874   0.00000   0.00000  Average:  33.87298   0.00000   0.00000
           0.00000  33.90874   0.00000             0.00000  33.87298   0.00000
           0.00000   0.00000  33.90874             0.00000   0.00000  33.87298
Lengths:  33.90874  33.90874  33.90874  Average:  33.87298  33.87298  33.87298
Angles:   90.00000  90.00000  90.00000  Average:  90.00000  90.00000  90.00000
Rectangular boundary conditions

net charge:   0.00000000

component 0 (CO2) lambda:  0 occupancy:  1 (1.000000)
    net charge:   0.00000000 [e]

Amount of molecules per component :
-------------------------------------------------------------------------------
Component 0 (CO2)
    molecules:      1.300000e+01 molecules  (9.967581e+00 +/- 0.000000e+00)
    number density: 3.334328e-04 molec./A^3 (2.562859e-04 +/- 0.000000e+00)
    density:        2.436117e+01 kg/m^3     (1.872469e+01 +/- 0.000000e+00)

Average pressure tensor: 
-------------------------------------------------------------------------------
 6.2224e+00 -5.9079e-02  1.2614e-01 +/- 0.0000e+00 0.0000e+00 0.0000e+00 [bar]
-5.9079e-02  6.2066e+00  1.0036e-01 +/- 0.0000e+00 0.0000e+00 0.0000e+00 [bar]
 1.2614e-01  1.0036e-01  6.3806e+00 +/- 0.0000e+00 0.0000e+00 0.0000e+00 [bar]
Ideal-gas pressure:   7.784507e+00 +/ 0.000000e+00 [bar]
Excess pressure:     -1.514651e+00 +/ 0.000000e+00 [bar]
Pressure:             6.269856e+00 +/ 0.000000e+00 [bar]

Total potential energy/kʙ  -1.499495e+03 (-5.166187e+02 +/- 0.000000e+00) [K]
-------------------------------------------------------------------------------
ExternalField-molecule
    Van der Waals/kʙ        0.000000e+00 ( 0.000000e+00 +/- 0.000000e+00) [K]
Framework-molecule
    Van der Waals/kʙ        0.000000e+00 ( 0.000000e+00 +/- 0.000000e+00) [K]
    Van der Waals (Tail)/kʙ 0.000000e+00 ( 0.000000e+00 +/- 0.000000e+00) [K]
    Coulombic Real/kʙ       0.000000e+00 ( 0.000000e+00 +/- 0.000000e+00) [K]
    Coulombic Fourier/kʙ    0.000000e+00 ( 0.000000e+00 +/- 0.000000e+00) [K]
Molecule-molecule
    Van der Waals/kʙ       -5.450322e+02 (-3.538089e+02 +/- 0.000000e+00) [K]
    Van der Waals (Tail)/kʙ-8.049851e+00 (-5.032201e+00 +/- 0.000000e+00) [K]
    Coulombic Real/kʙ      -9.667538e+02 (-1.412346e+02 +/- 0.000000e+00) [K]
    Coulombic Fourier/kʙ    2.034043e+01 (-1.654306e+01 +/- 0.000000e+00) [K]
    Molecule Intra/kʙ       0.000000e+00 ( 0.000000e+00 +/- 0.000000e+00) [K]

Current cycle: 500 out of 6000
===============================================================================

Box:      33.89940   0.00000   0.00000  Average:  33.88445   0.00000   0.00000
           0.00000  33.89940   0.00000             0.00000  33.88445   0.00000
           0.00000   0.00000  33.89940             0.00000   0.00000  33.88445
Lengths:  33.89940  33.89940  33.89940  Average:  33.88445  33.88445  33.88445
Angles:   90.00000  90.00000  90.00000  Average:  90.00000  90.00000  90.00000
Rectangular boundary conditions

net charge:   0.00000000

component 0 (CO2) lambda:  0 occupancy:  1 (1.000000)
    net charge:   0.00000000 [e]

Amount of molecules per component :
-------------------------------------------------------------------------------
Component 0 (CO2)
    molecules:      1.000000e+01 molecules  (1.044112e+01 +/- 0.000000e+00)
    number density: 2.566990e-04 molec./A^3 (2.681758e-04 +/- 0.000000e+00)
    density:        1.875487e+01 kg/m^3     (1.959339e+01 +/- 0.000000e+00)

Average pressure tensor: 
-------------------------------------------------------------------------------
 6.2744e+00 -3.0787e-02 -2.0788e-01 +/- 0.0000e+00 0.0000e+00 0.0000e+00 [bar]
-3.0787e-02  6.5513e+00  6.6398e-02 +/- 0.0000e+00 0.0000e+00 0.0000e+00 [bar]
-2.0788e-01  6.6398e-02  6.9361e+00 +/- 0.0000e+00 0.0000e+00 0.0000e+00 [bar]
Ideal-gas pressure:   8.145655e+00 +/ 0.000000e+00 [bar]
Excess pressure:     -1.558370e+00 +/ 0.000000e+00 [bar]
Pressure:             6.587286e+00 +/ 0.000000e+00 [bar]

Total potential energy/kʙ  -1.378139e+01 (-5.320836e+02 +/- 0.000000e+00) [K]
-------------------------------------------------------------------------------
ExternalField-molecule
    Van der Waals/kʙ        0.000000e+00 ( 0.000000e+00 +/- 0.000000e+00) [K]
Framework-molecule
    Van der Waals/kʙ        0.000000e+00 ( 0.000000e+00 +/- 0.000000e+00) [K]
    Van der Waals (Tail)/kʙ 0.000000e+00 ( 0.000000e+00 +/- 0.000000e+00) [K]
    Coulombic Real/kʙ       0.000000e+00 ( 0.000000e+00 +/- 0.000000e+00) [K]
    Coulombic Fourier/kʙ    0.000000e+00 ( 0.000000e+00 +/- 0.000000e+00) [K]
Molecule-molecule
    Van der Waals/kʙ       -1.103664e+01 (-3.777453e+02 +/- 0.000000e+00) [K]
    Van der Waals (Tail)/kʙ-4.767167e+00 (-5.466264e+00 +/- 0.000000e+00) [K]
    Coulombic Real/kʙ       3.693256e-01 (-1.299345e+02 +/- 0.000000e+00) [K]
    Coulombic Fourier/kʙ    1.653099e+00 (-1.893749e+01 +/- 0.000000e+00) [K]
    Molecule Intra/kʙ       0.000000e+00 ( 0.000000e+00 +/- 0.000000e+00) [K]

Current cycle: 600 out of 6000
===============================================================================

Box:      33.79304   0.00000   0.00000  Average:  33.87429   0.00000   0.00000
           0.00000  33.79304   0.00000             0.00000  33.87429   0.00000
           0.00000   0.00000  33.79304             0.00000   0.00000  33.87429
Lengths:  33.79304  33.79304  33.79304  Average:  33.87429  33.87429  33.87429
Angles:   90.00000  90.00000  90.00000  Average:  90.00000  90.00000  90.00000
Rectangular boundary conditions

net charge:   0.00000000

component 0 (CO2) lambda:  0 occupancy:  1 (1.000000)
    net charge:   0.00000000 [e]

Amount of molecules per component :
-------------------------------------------------------------------------------
Component 0 (CO2)
    molecules:      1.200000e+01 molecules  (1.020466e+01 +/- 0.000000e+00)
    number density: 3.109562e-04 molec./A^3 (2.623361e-04 +/- 0.000000e+00)
    density:        2.271900e+01 kg/m^3     (1.916672e+01 +/- 0.000000e+00)

Average pressure tensor: 
-------------------------------------------------------------------------------
 6.2222e+00  1.6540e-02 -8.2267e-02 +/- 0.0000e+00 0.0000e+00 0.0000e+00 [bar]
 1.6540e-02  6.3908e+00  1.4252e-01 +/- 0.0000e+00 0.0000e+00 0.0000e+00 [bar]
-8.2267e-02  1.4252e-01  6.7505e+00 +/- 0.0000e+00 0.0000e+00 0.0000e+00 [bar]
Ideal-gas pressure:   7.968277e+00 +/ 0.000000e+00 [bar]
Excess pressure:     -1.513784e+00 +/ 0.000000e+00 [bar]
Pressure:             6.454492e+00 +/ 0.000000e+00 [bar]

Total potential energy/kʙ  -5.627388e+02 (-5.088057e+02 +/- 0.000000e+00) [K]
-------------------------------------------------------------------------------
ExternalField-molecule
    Van der Waals/kʙ        0.000000e+00 ( 0.000000e+00 +/- 0.000000e+00) [K]
Framework-molecule
    Van der Waals/kʙ        0.000000e+00 ( 0.000000e+00 +/- 0.000000e+00) [K]
    Van der Waals (Tail)/kʙ 0.000000e+00 ( 0.000000e+00 +/- 0.000000e+00) [K]
    Coulombic Real/kʙ       0.000000e+00 ( 0.000000e+00 +/- 0.000000e+00) [K]
    Coulombic Fourier/kʙ    0.000000e+00 ( 0.000000e+00 +/- 0.000000e+00) [K]
Molecule-molecule
    Van der Waals/kʙ       -4.518318e+02 (-3.571744e+02 +/- 0.000000e+00) [K]
    Van der Waals (Tail)/kʙ-6.929737e+00 (-5.236577e+00 +/- 0.000000e+00) [K]
    Coulombic Real/kʙ      -9.303764e+01 (-1.280674e+02 +/- 0.000000e+00) [K]
    Coulombic Fourier/kʙ   -1.093962e+01 (-1.832736e+01 +/- 0.000000e+00) [K]
    Molecule Intra/kʙ       0.000000e+00 ( 0.000000e+00 +/- 0.000000e+00) [K]

Current cycle: 700 out of 6000
===============================================================================

Box:      33.85881   0.00000   0.00000  Average:  33.86671   0.00000   0.00000
           0.00000  33.85881   0.00000             0.00000  33.86671   0.00000
           0.00000   0.00000  33.85881             0.00000   0.00000  33.86671
Lengths:  33.85881  33.85881  33.85881  Average:  33.86671  33.86671  33.86671
Angles:   90.00000  90.00000  90.00000  Average:  90.00000  90.00000  90.00000
Rectangular boundary conditions

net charge:   0.00000000

component 0 (CO2) lambda:  0 occupancy:  1 (1.000000)
    net charge:   0.00000000 [e]

Amount of molecules per component :
-------------------------------------------------------------------------------
Component 0 (CO2)
    molecules:      1.200000e+01 molecules  (1.030528e+01 +/- 0.000000e+00)
    number density: 3.091478e-04 molec./A^3 (2.651506e-04 +/- 0.000000e+00)
    density:        2.258687e+01 kg/m^3     (1.937236e+01 +/- 0.000000e+00)

Average pressure tensor: 
-------------------------------------------------------------------------------
 6.5558e+00  5.6923e-02 -4.3276e-02 +/- 0.0000e+00 0.0000e+00 0.0000e+00 [bar]
 5.6923e-02  6.5182e+00  3.0110e-02 +/- 0.0000e+00 0.0000e+00 0.0000e+00 [bar]
-4.3276e-02  3.0110e-02  6.8921e+00 +/- 0.0000e+00 0.0000e+00 0.0000e+00 [bar]
Ideal-gas pressure:   8.053767e+00 +/ 0.000000e+00 [bar]
Excess pressure:     -1.398429e+00 +/ 0.000000e+00 [bar]
Pressure:             6.655338e+00 +/ 0.000000e+00 [bar]

Total potential energy/kʙ  -9.407380e+02 (-5.099759e+02 +/- 0.000000e+00) [K]
-------------------------------------------------------------------------------
ExternalField-molecule
    Van der Waals/kʙ        0.000000e+00 ( 0.000000e+00 +/- 0.000000e+00) [K]
Framework-molecule
    Van der Waals/kʙ        0.000000e+00 ( 0.000000e+00 +/- 0.000000e+00) [K]
    Van der Waals (Tail)/kʙ 0.000000e+00 ( 0.000000e+00 +/- 0.000000e+00) [K]
    Coulombic Real/kʙ       0.000000e+00 ( 0.000000e+00 +/- 0.000000e+00) [K]
    Coulombic Fourier/kʙ    0.000000e+00 ( 0.000000e+00 +/- 0.000000e+00) [K]
Molecule-molecule
    Van der Waals/kʙ       -1.113176e+03 (-3.651270e+02 +/- 0.000000e+00) [K]
    Van der Waals (Tail)/kʙ-6.889436e+00 (-5.330754e+00 +/- 0.000000e+00) [K]
    Coulombic Real/kʙ       1.233856e+02 (-1.230193e+02 +/- 0.000000e+00) [K]
    Coulombic Fourier/kʙ    5.594191e+01 (-1.649886e+01 +/- 0.000000e+00) [K]
    Molecule Intra/kʙ       0.000000e+00 ( 0.000000e+00 +/- 0.000000e+00) [K]

Current cycle: 800 out of 6000
===============================================================================

Box:      33.86202   0.00000   0.00000  Average:  33.86362   0.00000   0.00000
           0.00000  33.86202   0.00000             0.00000  33.86362   0.00000
           0.00000   0.00000  33.86202             0.00000   0.00000  33.86362
Lengths:  33.86202  33.86202  33.86202  Average:  33.86362  33.86362  33.86362
Angles:   90.00000  90.00000  90.00000  Average:  90.00000  90.00000  90.00000
Rectangular boundary conditions

net charge:   0.00000000

component 0 (CO2) lambda:  0 occupancy:  1 (1.000000)
    net charge:   0.00000000 [e]

Amount of molecules per component :
-------------------------------------------------------------------------------
Component 0 (CO2)
    molecules:      8.000000e+00 molecules  (1.004744e+01 +/- 0.000000e+00)
    number density: 2.060399e-04 molec./A^3 (2.585852e-04 +/- 0.000000e+00)
    density:        1.505363e+01 kg/m^3     (1.889267e+01 +/- 0.000000e+00)

Average pressure tensor: 
-------------------------------------------------------------------------------
 6.5592e+00  1.6083e-01 -5.9703e-02 +/- 0.0000e+00 0.0000e+00 0.0000e+00 [bar]
 1.6083e-01  6.5758e+00  9.4005e-02 +/- 0.0000e+00 0.0000e+00 0.0000e+00 [bar]
-5.9703e-02  9.4005e-02  6.7444e+00 +/- 0.0000e+00 0.0000e+00 0.0000e+00 [bar]
Ideal-gas pressure:   7.854345e+00 +/ 0.000000e+00 [bar]
Excess pressure:     -1.227875e+00 +/ 0.000000e+00 [bar]
Pressure:             6.626470e+00 +/ 0.000000e+00 [bar]

Total potential energy/kʙ  -3.549376e+02 (-4.695601e+02 +/- 0.000000e+00) [K]
-------------------------------------------------------------------------------
ExternalField-molecule
    Van der Waals/kʙ        0.000000e+00 ( 0.000000e+00 +/- 0.000000e+00) [K]
Framework-molecule
    Van der Waals/kʙ        0.000000e+00 ( 0.000000e+00 +/- 0.000000e+00) [K]
    Van der Waals (Tail)/kʙ 0.000000e+00 ( 0.000000e+00 +/- 0.000000e+00) [K]
    Coulombic Real/kʙ       0.000000e+00 ( 0.000000e+00 +/- 0.000000e+00) [K]
    Coulombic Fourier/kʙ    0.000000e+00 ( 0.000000e+00 +/- 0.000000e+00) [K]
Molecule-molecule
    Van der Waals/kʙ       -3.571272e+02 (-3.402452e+02 +/- 0.000000e+00) [K]
    Van der Waals (Tail)/kʙ-3.061100e+00 (-5.036489e+00 +/- 0.000000e+00) [K]
    Coulombic Real/kʙ       4.982032e+01 (-1.090877e+02 +/- 0.000000e+00) [K]
    Coulombic Fourier/kʙ   -4.456967e+01 (-1.519074e+01 +/- 0.000000e+00) [K]
    Molecule Intra/kʙ       0.000000e+00 ( 0.000000e+00 +/- 0.000000e+00) [K]

Current cycle: 900 out of 6000
===============================================================================

Box:      33.84669   0.00000   0.00000  Average:  33.85820   0.00000   0.00000
           0.00000  33.84669   0.00000             0.00000  33.85820   0.00000
           0.00000   0.00000  33.84669             0.00000   0.00000  33.85820
Lengths:  33.84669  33.84669  33.84669  Average:  33.85820  33.85820  33.85820
Angles:   90.00000  90.00000  90.00000  Average:  90.00000  90.00000  90.00000
Rectangular boundary conditions

net charge:   0.00000000

component 0 (CO2) lambda:  0 occupancy:  1 (1.000000)
    net charge:   0.00000000 [e]

Amount of molecules per component :
-------------------------------------------------------------------------------
Component 0 (CO2)
    molecules:      1.200000e+01 molecules  (9.785794e+00 +/- 0.000000e+00)
    number density: 3.094800e-04 molec./A^3 (2.519503e-04 +/- 0.000000e+00)
    density:        2.261114e+01 kg/m^3     (1.840792e+01 +/- 0.000000e+00)

Average pressure tensor: 
-------------------------------------------------------------------------------
 6.3100e+00  1.0044e-01 -8.6252e-02 +/- 0.0000e+00 0.0000e+00 0.0000e+00 [bar]
 1.0044e-01  6.3472e+00  9.8866e-02 +/- 0.0000e+00 0.0000e+00 0.0000e+00 [bar]
-8.6252e-02  9.8866e-02  6.5616e+00 +/- 0.0000e+00 0.0000e+00 0.0000e+00 [bar]
Ideal-gas pressure:   7.652816e+00 +/ 0.000000e+00 [bar]
Excess pressure:     -1.246550e+00 +/ 0.000000e+00 [bar]
Pressure:             6.406266e+00 +/ 0.000000e+00 [bar]

Total potential energy/kʙ  -1.081939e+03 (-4.591582e+02 +/- 0.000000e+00) [K]
-------------------------------------------------------------------------------
ExternalField-molecule
    Van der Waals/kʙ        0.000000e+00 ( 0.000000e+00 +/- 0.000000e+00) [K]
Framework-molecule
    Van der Waals/kʙ        0.000000e+00 ( 0.000000e+00 +/- 0.000000e+00) [K]
    Van der Waals (Tail)/kʙ 0.000000e+00 ( 0.000000e+00 +/- 0.000000e+00) [K]
    Coulombic Real/kʙ       0.000000e+00 ( 0.000000e+00 +/- 0.000000e+00) [K]
    Coulombic Fourier/kʙ    0.000000e+00 ( 0.000000e+00 +/- 0.000000e+00) [K]
Molecule-molecule
    Van der Waals/kʙ       -3.707121e+02 (-3.305540e+02 +/- 0.000000e+00) [K]
    Van der Waals (Tail)/kʙ-6.896839e+00 (-4.839531e+00 +/- 0.000000e+00) [K]
    Coulombic Real/kʙ      -7.216197e+02 (-1.097354e+02 +/- 0.000000e+00) [K]
    Coulombic Fourier/kʙ    1.728987e+01 (-1.402929e+01 +/- 0.000000e+00) [K]
    Molecule Intra/kʙ       0.000000e+00 ( 0.000000e+00 +/- 0.000000e+00) [K]

Current cycle: 1000 out of 6000
===============================================================================

Box:      33.90369   0.00000   0.00000  Average:  33.85971   0.00000   0.00000
           0.00000  33.90369   0.00000             0.00000  33.85971   0.00000
           0.00000   0.00000  33.90369             0.00000   0.00000  33.85971
Lengths:  33.90369  33.90369  33.90369  Average:  33.85971  33.85971  33.85971
Angles:   90.00000  90.00000  90.00000  Average:  90.00000  90.00000  90.00000
Rectangular boundary conditions

net charge:   0.00000000

component 0 (CO2) lambda:  0 occupancy:  1 (1.000000)
    net charge:   0.00000000 [e]

Amount of molecules per component :
-------------------------------------------------------------------------------
Component 0 (CO2)
    molecules:      8.000000e+00 molecules  (9.662338e+00 +/- 0.000000e+00)
    number density: 2.052812e-04 molec./A^3 (2.487545e-04 +/- 0.000000e+00)
    density:        1.499819e+01 kg/m^3     (1.817443e+01 +/- 0.000000e+00)

Average pressure tensor: 
-------------------------------------------------------------------------------
 6.6645e+00  1.4686e-01  2.8199e-02 +/- 0.0000e+00 0.0000e+00 0.0000e+00 [bar]
 1.4686e-01  6.3243e+00 -6.5251e-02 +/- 0.0000e+00 0.0000e+00 0.0000e+00 [bar]
 2.8199e-02 -6.5251e-02  6.5165e+00 +/- 0.0000e+00 0.0000e+00 0.0000e+00 [bar]
Ideal-gas pressure:   7.555747e+00 +/ 0.000000e+00 [bar]
Excess pressure:     -1.053983e+00 +/ 0.000000e+00 [bar]
Pressure:             6.501763e+00 +/ 0.000000e+00 [bar]

Total potential energy/kʙ  -6.933104e+01 (-4.405186e+02 +/- 0.000000e+00) [K]
-------------------------------------------------------------------------------
ExternalField-molecule
    Van der Waals/kʙ        0.000000e+00 ( 0.000000e+00 +/- 0.000000e+00) [K]
Framework-molecule
    Van der Waals/kʙ        0.000000e+00 ( 0.000000e+00 +/- 0.000000e+00) [K]
    Van der Waals (Tail)/kʙ 0.000000e+00 ( 0.000000e+00 +/- 0.000000e+00) [K]
    Coulombic Real/kʙ       0.000000e+00 ( 0.000000e+00 +/- 0.000000e+00) [K]
    Coulombic Fourier/kʙ    0.000000e+00 ( 0.000000e+00 +/- 0.000000e+00) [K]
Molecule-molecule
    Van der Waals/kʙ       -5.844386e+01 (-3.207238e+02 +/- 0.000000e+00) [K]
    Van der Waals (Tail)/kʙ-3.049827e+00 (-4.753355e+00 +/- 0.000000e+00) [K]
    Coulombic Real/kʙ       4.298660e+00 (-1.029881e+02 +/- 0.000000e+00) [K]
    Coulombic Fourier/kʙ   -1.213602e+01 (-1.205338e+01 +/- 0.000000e+00) [K]
    Molecule Intra/kʙ       0.000000e+00 ( 0.000000e+00 +/- 0.000000e+00) [K]

Current cycle: 1100 out of 6000
===============================================================================

Box:      33.87384   0.00000   0.00000  Average:  33.85861   0.00000   0.00000
           0.00000  33.87384   0.00000             0.00000  33.85861   0.00000
           0.00000   0.00000  33.87384             0.00000   0.00000  33.85861
Lengths:  33.87384  33.87384  33.87384  Average:  33.85861  33.85861  33.85861
Angles:   90.00000  90.00000  90.00000  Average:  90.00000  90.00000  90.00000
Rectangular boundary conditions

net charge:   0.00000000

component 0 (CO2) lambda:  0 occupancy:  1 (1.000000)
    net charge:   0.00000000 [e]

Amount of molecules per component :
-------------------------------------------------------------------------------
Component 0 (CO2)
    molecules:      4.000000e+00 molecules  (9.360581e+00 +/- 0.000000e+00)
    number density: 1.029121e-04 molec./A^3 (2.410099e-04 +/- 0.000000e+00)
    density:        7.518935e+00 kg/m^3     (1.760860e+01 +/- 0.000000e+00)

Average pressure tensor: 
-------------------------------------------------------------------------------
 6.4791e+00  1.5958e-01  2.1706e-02 +/- 0.0000e+00 0.0000e+00 0.0000e+00 [bar]
 1.5958e-01  6.1107e+00 -9.4102e-02 +/- 0.0000e+00 0.0000e+00 0.0000e+00 [bar]
 2.1706e-02 -9.4102e-02  6.2996e+00 +/- 0.0000e+00 0.0000e+00 0.0000e+00 [bar]
Ideal-gas pressure:   7.320509e+00 +/ 0.000000e+00 [bar]
Excess pressure:     -1.024045e+00 +/ 0.000000e+00 [bar]
Pressure:             6.296464e+00 +/ 0.000000e+00 [bar]

Total potential energy/kʙ  -3.979904e+00 (-4.120919e+02 +/- 0.000000e+00) [K]
-------------------------------------------------------------------------------
ExternalField-molecule
    Van der Waals/kʙ        0.000000e+00 ( 0.000000e+00 +/- 0.000000e+00) [K]
Framework-molecule
    Van der Waals/kʙ        0.000000e+00 ( 0.000000e+00 +/- 0.000000e+00) [K]
    Van der Waals (Tail)/kʙ 0.000000e+00 ( 0.000000e+00 +/- 0.000000e+00) [K]
    Coulombic Real/kʙ       0.000000e+00 ( 0.000000e+00 +/- 0.000000e+00) [K]
    Coulombic Fourier/kʙ    0.000000e+00 ( 0.000000e+00 +/- 0.000000e+00) [K]
Molecule-molecule
    Van der Waals/kʙ       -6.064678e+00 (-2.994313e+02 +/- 0.000000e+00) [K]
    Van der Waals (Tail)/kʙ-7.644740e-01 (-4.510180e+00 +/- 0.000000e+00) [K]
    Coulombic Real/kʙ       1.389010e+00 (-9.697981e+01 +/- 0.000000e+00) [K]
    Coulombic Fourier/kʙ    1.460238e+00 (-1.117058e+01 +/- 0.000000e+00) [K]
    Molecule Intra/kʙ       0.000000e+00 ( 0.000000e+00 +/- 0.000000e+00) [K]

Current cycle: 1200 out of 6000
===============================================================================

Box:      33.81912   0.00000   0.00000  Average:  33.85825   0.00000   0.00000
           0.00000  33.81912   0.00000             0.00000  33.85825   0.00000
           0.00000   0.00000  33.81912             0.00000   0.00000  33.85825
Lengths:  33.81912  33.81912  33.81912  Average:  33.85825  33.85825  33.85825
Angles:   90.00000  90.00000  90.00000  Average:  90.00000  90.00000  90.00000
Rectangular boundary conditions

net charge:   0.00000000

component 0 (CO2) lambda:  0 occupancy:  1 (1.000000)
    net charge:   0.00000000 [e]

Amount of molecules per component :
-------------------------------------------------------------------------------
Component 0 (CO2)
    molecules:      7.000000e+00 molecules  (9.176520e+00 +/- 0.000000e+00)
    number density: 1.809719e-04 molec./A^3 (2.362841e-04 +/- 0.000000e+00)
    density:        1.322212e+01 kg/m^3     (1.726332e+01 +/- 0.000000e+00)

Average pressure tensor: 
-------------------------------------------------------------------------------
 6.3658e+00  1.5506e-01  1.7625e-02 +/- 0.0000e+00 0.0000e+00 0.0000e+00 [bar]
 1.5506e-01  6.0334e+00 -7.8230e-02 +/- 0.0000e+00 0.0000e+00 0.0000e+00 [bar]
 1.7625e-02 -7.8230e-02  6.1966e+00 +/- 0.0000e+00 0.0000e+00 0.0000e+00 [bar]
Ideal-gas pressure:   7.176967e+00 +/ 0.000000e+00 [bar]
Excess pressure:     -9.784041e-01 +/ 0.000000e+00 [bar]
Pressure:             6.198563e+00 +/ 0.000000e+00 [bar]

Total potential energy/kʙ  -3.500232e+01 (-3.853311e+02 +/- 0.000000e+00) [K]
-------------------------------------------------------------------------------
ExternalField-molecule
    Van der Waals/kʙ        0.000000e+00 ( 0.000000e+00 +/- 0.000000e+00) [K]
Framework-molecule
    Van der Waals/kʙ        0.000000e+00 ( 0.000000e+00 +/- 0.000000e+00) [K]
    Van der Waals (Tail)/kʙ 0.000000e+00 ( 0.000000e+00 +/- 0.000000e+00) [K]
    Coulombic Real/kʙ       0.000000e+00 ( 0.000000e+00 +/- 0.000000e+00) [K]
    Coulombic Fourier/kʙ    0.000000e+00 ( 0.000000e+00 +/- 0.000000e+00) [K]
Molecule-molecule
    Van der Waals/kʙ       -1.810375e+01 (-2.798891e+02 +/- 0.000000e+00) [K]
    Van der Waals (Tail)/kʙ-2.352585e+00 (-4.388299e+00 +/- 0.000000e+00) [K]
    Coulombic Real/kʙ      -4.387064e+00 (-8.993594e+01 +/- 0.000000e+00) [K]
    Coulombic Fourier/kʙ   -1.015892e+01 (-1.111779e+01 +/- 0.000000e+00) [K]
    Molecule Intra/kʙ       0.000000e+00 ( 0.000000e+00 +/- 0.000000e+00) [K]

Current cycle: 1300 out of 6000
===============================================================================

Box:      33.74563   0.00000   0.00000  Average:  33.85191   0.00000   0.00000
           0.00000  33.74563   0.00000             0.00000  33.85191   0.00000
           0.00000   0.00000  33.74563             0.00000   0.00000  33.85191
Lengths:  33.74563  33.74563  33.74563  Average:  33.85191  33.85191  33.85191
Angles:   90.00000  90.00000  90.00000  Average:  90.00000  90.00000  90.00000
Rectangular boundary conditions

net charge:   0.00000000

component 0 (CO2) lambda:  0 occupancy:  1 (1.000000)
    net charge:   0.00000000 [e]

Amount of molecules per component :
-------------------------------------------------------------------------------
Component 0 (CO2)
    molecules:      8.000000e+00 molecules  (8.926211e+00 +/- 0.000000e+00)
    number density: 2.081792e-04 molec./A^3 (2.299305e-04 +/- 0.000000e+00)
    density:        1.520993e+01 kg/m^3     (1.679911e+01 +/- 0.000000e+00)

Average pressure tensor: 
-------------------------------------------------------------------------------
 6.1259e+00  1.3078e-01 -1.3157e-02 +/- 0.0000e+00 0.0000e+00 0.0000e+00 [bar]
 1.3078e-01  5.8756e+00 -7.3609e-02 +/- 0.0000e+00 0.0000e+00 0.0000e+00 [bar]
-1.3157e-02 -7.3609e-02  6.0405e+00 +/- 0.0000e+00 0.0000e+00 0.0000e+00 [bar]
Ideal-gas pressure:   6.983979e+00 +/ 0.000000e+00 [bar]
Excess pressure:     -9.699680e-01 +/ 0.000000e+00 [bar]
Pressure:             6.014011e+00 +/ 0.000000e+00 [bar]

Total potential energy/kʙ  -2.664914e+02 (-3.696610e+02 +/- 0.000000e+00) [K]
-------------------------------------------------------------------------------
ExternalField-molecule
    Van der Waals/kʙ        0.000000e+00 ( 0.000000e+00 +/- 0.000000e+00) [K]
Framework-molecule
    Van der Waals/kʙ        0.000000e+00 ( 0.000000e+00 +/- 0.000000e+00) [K]
    Van der Waals (Tail)/kʙ 0.000000e+00 ( 0.000000e+00 +/- 0.000000e+00) [K]
    Coulombic Real/kʙ       0.000000e+00 ( 0.000000e+00 +/- 0.000000e+00) [K]
    Coulombic Fourier/kʙ    0.000000e+00 ( 0.000000e+00 +/- 0.000000e+00) [K]
Molecule-molecule
    Van der Waals/kʙ       -1.991315e+02 (-2.690972e+02 +/- 0.000000e+00) [K]
    Van der Waals (Tail)/kʙ-3.092883e+00 (-4.199085e+00 +/- 0.000000e+00) [K]
    Coulombic Real/kʙ      -3.586731e+01 (-8.523329e+01 +/- 0.000000e+00) [K]
    Coulombic Fourier/kʙ   -2.839967e+01 (-1.113150e+01 +/- 0.000000e+00) [K]
    Molecule Intra/kʙ       0.000000e+00 ( 0.000000e+00 +/- 0.000000e+00) [K]

Current cycle: 1400 out of 6000
===============================================================================

Box:      33.76331   0.00000   0.00000  Average:  33.84594   0.00000   0.00000
           0.00000  33.76331   0.00000             0.00000  33.84594   0.00000
           0.00000   0.00000  33.76331             0.00000   0.00000  33.84594
Lengths:  33.76331  33.76331  33.76331  Average:  33.84594  33.84594  33.84594
Angles:   90.00000  90.00000  90.00000  Average:  90.00000  90.00000  90.00000
Rectangular boundary conditions

net charge:   0.00000000

component 0 (CO2) lambda:  0 occupancy:  1 (1.000000)
    net charge:   0.00000000 [e]

Amount of molecules per component :
-------------------------------------------------------------------------------
Component 0 (CO2)
    molecules:      1.100000e+01 molecules  (8.927909e+00 +/- 0.000000e+00)
    number density: 2.857971e-04 molec./A^3 (2.301092e-04 +/- 0.000000e+00)
    density:        2.088082e+01 kg/m^3     (1.681217e+01 +/- 0.000000e+00)

Average pressure tensor: 
-------------------------------------------------------------------------------
 6.1728e+00  4.4201e-02  7.7133e-03 +/- 0.0000e+00 0.0000e+00 0.0000e+00 [bar]
 4.4201e-02  6.0883e+00 -5.7840e-02 +/- 0.0000e+00 0.0000e+00 0.0000e+00 [bar]
 7.7133e-03 -5.7840e-02  6.0147e+00 +/- 0.0000e+00 0.0000e+00 0.0000e+00 [bar]
Ideal-gas pressure:   6.989406e+00 +/ 0.000000e+00 [bar]
Excess pressure:     -8.974661e-01 +/ 0.000000e+00 [bar]
Pressure:             6.091940e+00 +/ 0.000000e+00 [bar]

Total potential energy/kʙ  -9.681394e+02 (-3.653282e+02 +/- 0.000000e+00) [K]
-------------------------------------------------------------------------------
ExternalField-molecule
    Van der Waals/kʙ        0.000000e+00 ( 0.000000e+00 +/- 0.000000e+00) [K]
Framework-molecule
    Van der Waals/kʙ        0.000000e+00 ( 0.000000e+00 +/- 0.000000e+00) [K]
    Van der Waals (Tail)/kʙ 0.000000e+00 ( 0.000000e+00 +/- 0.000000e+00) [K]
    Coulombic Real/kʙ       0.000000e+00 ( 0.000000e+00 +/- 0.000000e+00) [K]
    Coulombic Fourier/kʙ    0.000000e+00 ( 0.000000e+00 +/- 0.000000e+00) [K]
Molecule-molecule
    Van der Waals/kʙ       -7.004721e+02 (-2.623870e+02 +/- 0.000000e+00) [K]
    Van der Waals (Tail)/kʙ-5.838304e+00 (-4.193598e+00 +/- 0.000000e+00) [K]
    Coulombic Real/kʙ      -2.604924e+02 (-8.697174e+01 +/- 0.000000e+00) [K]
    Coulombic Fourier/kʙ   -1.336592e+00 (-1.177585e+01 +/- 0.000000e+00) [K]
    Molecule Intra/kʙ       0.000000e+00 ( 0.000000e+00 +/- 0.000000e+00) [K]

Current cycle: 1500 out of 6000
===============================================================================

Box:      33.81605   0.00000   0.00000  Average:  33.84202   0.00000   0.00000
           0.00000  33.81605   0.00000             0.00000  33.84202   0.00000
           0.00000   0.00000  33.81605             0.00000   0.00000  33.84202
[...]
    number density: 1.542584e-04 molec./A^3 (2.187138e-04 +/- 2.455642e-05)
    density:        1.127038e+01 kg/m^3     (1.597960e+01 +/- 1.794134e+00)

Average pressure tensor: 
-------------------------------------------------------------------------------
 5.8709e+00  4.1024e-02 -1.6393e-02 +/- 6.6185e-01 2.9950e-01 1.4412e-01 [bar]
 4.1024e-02  6.1117e+00 -1.6944e-02 +/- 2.9950e-01 7.8153e-01 1.4827e-01 [bar]
-1.6393e-02 -1.6944e-02  5.9970e+00 +/- 1.4412e-01 1.4827e-01 5.7068e-01 [bar]
Ideal-gas pressure:   6.643279e+00 +/ 7.458841e-01 [bar]
Excess pressure:     -6.500556e-01 +/ 2.499507e-01 [bar]
Pressure:             5.993223e+00 +/ 6.432767e-01 [bar]

Total potential energy/kʙ  -3.472767e+00 (-3.339098e+02 +/- 7.590769e+01) [K]
-------------------------------------------------------------------------------
ExternalField-molecule
    Van der Waals/kʙ        0.000000e+00 ( 0.000000e+00 +/- 0.000000e+00) [K]
Framework-molecule
    Van der Waals/kʙ        0.000000e+00 ( 0.000000e+00 +/- 0.000000e+00) [K]
    Van der Waals (Tail)/kʙ 0.000000e+00 ( 0.000000e+00 +/- 0.000000e+00) [K]
    Coulombic Real/kʙ       0.000000e+00 ( 0.000000e+00 +/- 0.000000e+00) [K]
    Coulombic Fourier/kʙ    0.000000e+00 ( 0.000000e+00 +/- 0.000000e+00) [K]
Molecule-molecule
    Van der Waals/kʙ       -2.717191e+00 (-2.434265e+02 +/- 5.344144e+01) [K]
    Van der Waals (Tail)/kʙ-1.718843e+00 (-3.746472e+00 +/- 7.689077e-01) [K]
    Coulombic Real/kʙ       1.782946e-02 (-7.881604e+01 +/- 2.057503e+01) [K]
    Coulombic Fourier/kʙ    9.454379e-01 (-7.920829e+00 +/- 2.585861e+00) [K]
    Molecule Intra/kʙ       0.000000e+00 ( 0.000000e+00 +/- 0.000000e+00) [K]

Current cycle: 5800 out of 6000
===============================================================================

Box:      33.85702   0.00000   0.00000  Average:  33.86193   0.00000   0.00000
           0.00000  33.85702   0.00000             0.00000  33.86193   0.00000
           0.00000   0.00000  33.85702             0.00000   0.00000  33.86193
Lengths:  33.85702  33.85702  33.85702  Average:  33.86193  33.86193  33.86193
Angles:   90.00000  90.00000  90.00000  Average:  90.00000  90.00000  90.00000
Rectangular boundary conditions

net charge:   0.00000000

component 0 (CO2) lambda:  0 occupancy:  1 (1.000000)
    net charge:   0.00000000 [e]

Amount of molecules per component :
-------------------------------------------------------------------------------
Component 0 (CO2)
    molecules:      5.000000e+00 molecules  (8.439062e+00 +/- 1.023879e+00)
    number density: 1.288320e-04 molec./A^3 (2.172170e-04 +/- 2.574806e-05)
    density:        9.412689e+00 kg/m^3     (1.587025e+01 +/- 1.881197e+00)

Average pressure tensor: 
-------------------------------------------------------------------------------
 5.8333e+00  4.1121e-02 -1.5834e-02 +/- 6.9198e-01 2.9889e-01 1.4412e-01 [bar]
 4.1121e-02  6.0736e+00 -1.8381e-02 +/- 2.9889e-01 8.0786e-01 1.4556e-01 [bar]
-1.5834e-02 -1.8381e-02  5.9687e+00 +/- 1.4412e-01 1.4556e-01 5.8650e-01 [bar]
Ideal-gas pressure:   6.597817e+00 +/ 7.820794e-01 [bar]
Excess pressure:     -6.392810e-01 +/ 2.557430e-01 [bar]
Pressure:             5.958536e+00 +/ 6.682551e-01 [bar]

Total potential energy/kʙ  -8.091333e+00 (-3.297293e+02 +/- 8.022561e+01) [K]
-------------------------------------------------------------------------------
ExternalField-molecule
    Van der Waals/kʙ        0.000000e+00 ( 0.000000e+00 +/- 0.000000e+00) [K]
Framework-molecule
    Van der Waals/kʙ        0.000000e+00 ( 0.000000e+00 +/- 0.000000e+00) [K]
    Van der Waals (Tail)/kʙ 0.000000e+00 ( 0.000000e+00 +/- 0.000000e+00) [K]
    Coulombic Real/kʙ       0.000000e+00 ( 0.000000e+00 +/- 0.000000e+00) [K]
    Coulombic Fourier/kʙ    0.000000e+00 ( 0.000000e+00 +/- 0.000000e+00) [K]
Molecule-molecule
    Van der Waals/kʙ       -4.275999e+00 (-2.405186e+02 +/- 5.646659e+01) [K]
    Van der Waals (Tail)/kʙ-1.196272e+00 (-3.709670e+00 +/- 7.958277e-01) [K]
    Coulombic Real/kʙ      -3.262303e-01 (-7.763102e+01 +/- 2.164539e+01) [K]
    Coulombic Fourier/kʙ   -2.292832e+00 (-7.870050e+00 +/- 2.600909e+00) [K]
    Molecule Intra/kʙ       0.000000e+00 ( 0.000000e+00 +/- 0.000000e+00) [K]

Current cycle: 5900 out of 6000
===============================================================================

Box:      33.89380   0.00000   0.00000  Average:  33.86266   0.00000   0.00000
           0.00000  33.89380   0.00000             0.00000  33.86266   0.00000
           0.00000   0.00000  33.89380             0.00000   0.00000  33.86266
Lengths:  33.89380  33.89380  33.89380  Average:  33.86266  33.86266  33.86266
Angles:   90.00000  90.00000  90.00000  Average:  90.00000  90.00000  90.00000
Rectangular boundary conditions

net charge:   0.00000000

component 0 (CO2) lambda:  0 occupancy:  1 (1.000000)
    net charge:   0.00000000 [e]

Amount of molecules per component :
-------------------------------------------------------------------------------
Component 0 (CO2)
    molecules:      1.300000e+01 molecules  (8.444162e+00 +/- 1.011613e+00)
    number density: 3.338739e-04 molec./A^3 (2.173339e-04 +/- 2.540484e-05)
    density:        2.439340e+01 kg/m^3     (1.587879e+01 +/- 1.856121e+00)

Average pressure tensor: 
-------------------------------------------------------------------------------
 5.8400e+00  3.1047e-02 -8.3801e-03 +/- 6.7959e-01 2.9575e-01 1.4847e-01 [bar]
 3.1047e-02  6.0891e+00 -3.9245e-02 +/- 2.9575e-01 7.9074e-01 1.4212e-01 [bar]
-8.3801e-03 -3.9245e-02  5.9917e+00 +/- 1.4847e-01 1.4212e-01 5.7137e-01 [bar]
Ideal-gas pressure:   6.601366e+00 +/ 7.716544e-01 [bar]
Excess pressure:     -6.277815e-01 +/ 2.644050e-01 [bar]
Pressure:             5.973585e+00 +/ 6.515512e-01 [bar]

Total potential energy/kʙ  -1.437798e+02 (-3.286220e+02 +/- 8.048355e+01) [K]
-------------------------------------------------------------------------------
ExternalField-molecule
    Van der Waals/kʙ        0.000000e+00 ( 0.000000e+00 +/- 0.000000e+00) [K]
Framework-molecule
    Van der Waals/kʙ        0.000000e+00 ( 0.000000e+00 +/- 0.000000e+00) [K]
    Van der Waals (Tail)/kʙ 0.000000e+00 ( 0.000000e+00 +/- 0.000000e+00) [K]
    Coulombic Real/kʙ       0.000000e+00 ( 0.000000e+00 +/- 0.000000e+00) [K]
    Coulombic Fourier/kʙ    0.000000e+00 ( 0.000000e+00 +/- 0.000000e+00) [K]
Molecule-molecule
    Van der Waals/kʙ       -1.471451e+02 (-2.396729e+02 +/- 5.673123e+01) [K]
    Van der Waals (Tail)/kʙ-8.060501e+00 (-3.713108e+00 +/- 7.869786e-01) [K]
    Coulombic Real/kʙ       4.358191e+01 (-7.731626e+01 +/- 2.176055e+01) [K]
    Coulombic Fourier/kʙ   -3.215607e+01 (-7.919776e+00 +/- 2.439564e+00) [K]
    Molecule Intra/kʙ       0.000000e+00 ( 0.000000e+00 +/- 0.000000e+00) [K]


Energy statistics             |  Energy [K]   | Recomputed [K]|  Drift [K]    |
===============================================================================
Total potential energy/kʙ     | -2.808917e+01 | -2.808917e+01 |  1.699106e-11 |
    external field VDW/kʙ     |  0.000000e+00 |  0.000000e+00 |  0.000000e+00 |
    external field Real/kʙ    |  0.000000e+00 |  0.000000e+00 |  0.000000e+00 |
    framework-molecule VDW/kʙ |  0.000000e+00 |  0.000000e+00 |  0.000000e+00 |
    framework-molecule Real/kʙ|  0.000000e+00 |  0.000000e+00 |  0.000000e+00 |
    molecule-molecule VDW/kʙ  | -2.795723e+01 | -2.795723e+01 | -3.418348e-14 |
    molecule-molecule Real/kʙ | -1.000186e+00 | -1.000186e+00 | -5.450663e-13 |
    Van der Waals (Tail)/kʙ   | -3.041339e+00 | -3.041339e+00 |  0.000000e+00 |
    Ewald Fourier/kʙ          |  4.743547e+02 |  4.743547e+02 |  6.836696e-14 |
    Ewald self/kʙ             | -1.469343e+05 | -1.469343e+05 |  0.000000e+00 |
    Ewald exclusion/kʙ        |  1.464638e+05 |  1.464638e+05 |  1.750194e-11 |
    intra VDW/kʙ              |  0.000000e+00 |  0.000000e+00 |  0.000000e+00 |
    intra Coulombic/kʙ        |  0.000000e+00 |  0.000000e+00 |  0.000000e+00 |
    polarization/kʙ           |  0.000000e+00 |  0.000000e+00 |  0.000000e+00 |
    dU/dlambda VDW/kʙ         |  0.000000e+00 |  0.000000e+00 |  0.000000e+00 |
    dU/dlambda Real/kʙ        |  0.000000e+00 |  0.000000e+00 |  0.000000e+00 |
    dU/dlambda Ewald/kʙ       |  0.000000e+00 |  0.000000e+00 |  0.000000e+00 |
-------------------------------------------------------------------------------


Monte-Carlo moves statistics
===============================================================================

    Gibbs volume         all:                2938
    Gibbs volume         total:              5950
    Gibbs volume         constructed:        5950
    Gibbs volume         accepted:           2083
    Gibbs volume         fraction:       0.350084
    Gibbs volume         max-change:     0.032344

Component 0 [CO2]
    Reinsertion (CBMC)   all:              149644
    Reinsertion (CBMC)   total:            149644
    Reinsertion (CBMC)   constructed:      149644
    Reinsertion (CBMC)   accepted:         127861
    Reinsertion (CBMC)   fraction:       0.854435
    Reinsertion (CBMC)   max-change:     0.000000

    Gibbs swap (CBMC)    all:              298287
    Gibbs swap (CBMC)    total:            597631
    Gibbs swap (CBMC)    constructed:      514976
    Gibbs swap (CBMC)    accepted:           8077
    Gibbs swap (CBMC)    fraction:       0.013515
    Gibbs swap (CBMC)    max-change:     0.000000

    Translation          all:              149282
    Translation          total:             49448      49795      50039
    Translation          constructed:       49430      49765      50019
    Translation          accepted:          46406      46747      47003
    Translation          fraction:       0.938481   0.938789   0.939327
    Translation          max-change:     1.500000   1.500000   1.500000

    Rotation             all:              149085
    Rotation             total:             49611      49659      49815
    Rotation             constructed:       49603      49651      49808
    Rotation             accepted:          46331      46440      46495
    Rotation             fraction:       0.933886   0.935178   0.933353
    Rotation             max-change:     1.500000   1.500000   1.500000



Production run counting of the MC moves summed over systems and components
===============================================================================

Reinsertion (CBMC)                   298749 (19.9166 [%])
Gibbs volume                           5950 (0.3967 [%])
Gibbs swap (CBMC)                    597631 (39.8421 [%])
Translation                          298771 (19.9181 [%])
Rotation                             298899 (19.9266 [%])

Production count MC-steps:          1500000 [-]
               All summed:          1500000 [-]
               difference:                0 [-]


Production run CPU timings of the MC moves
===============================================================================

Component 0 CO2

Rotation                              6.175657 [s]
    Ewald                             5.210592 [s]
    ExternalField-Molecule            0.008063 [s]
    Framework-Molecule                0.009016 [s]
    Molecule-Molecule                 0.336671 [s]
    Overhead                          0.611315 [s]

Reinsertion (CBMC)                   11.071815 [s]
    Ewald                             5.257116 [s]
    NonEwald                          5.300729 [s]
    Overhead                          0.513970 [s]

Translation                           6.197842 [s]
    Ewald                             5.223970 [s]
    ExternalField-Molecule            0.008407 [s]
    Framework-Molecule                0.013567 [s]
    Molecule-Molecule                 0.340707 [s]
    Overhead                          0.611191 [s]



Gibbs swap (CBMC)                   184.136042 [s]
    Ewald                            16.826206 [s]
    NonEwald                        165.241520 [s]
    Tail                              1.639298 [s]

Gibbs volume                         30.975730 [s]
    Ewald                             6.271501 [s]
    NonEwald                         23.371108 [s]
    Tail                              1.194488 [s]

Property sampling                     0.316942 [s]
Energy/pressure sampling:             0.183574 [s]


Production run CPU timings of the MC moves summed over systems and components
===============================================================================


Translation                          30.316962 [s]
    Ewald                            10.430344 [s]
    ExternalField-Molecule            0.016819 [s]
    Framework-Molecule                0.027240 [s]
    Molecule-Molecule                18.787569 [s]
    Overhead                          1.054990 [s]

Rotation                             30.293704 [s]
    Ewald                            10.438470 [s]
    ExternalField-Molecule            0.015957 [s]
    Framework-Molecule                0.018018 [s]
    Molecule-Molecule                18.698161 [s]
    Overhead                          1.123098 [s]

Reinsertion (CBMC)                  122.012684 [s]
    Ewald                             9.202990 [s]
    NonEwald                        112.177798 [s]
    Overhead                          0.631896 [s]

Gibbs volume                         62.787350 [s]
    Ewald                            12.695573 [s]
    NonEwald                         47.398280 [s]
    Tail                              2.410559 [s]
    Overhead                          0.282938 [s]

Gibbs swap (CBMC)                   331.463754 [s]
    Ewald                            29.067037 [s]
    NonEwald                        299.060366 [s]
    Tail                              2.548214 [s]
    Overhead                          0.788137 [s]

Property sampling:                    0.648526 [s]
Energy/pressure sampling:            11.469637 [s]

Production simulation time:         590.001232 [s]
                All summed:         588.992617 [s]
                  Overhead:           1.008615 [s]


Initalization simulation time:      191.171793 [s]
Equilibration simulation time:        0.000000 [s]
Production simulation time:         590.001232 [s]
Total simulation time:              781.173025 [s]


Energy averages and statistics:
===============================================================================

Framework-molecule energy:
-------------------------------------------------------------------------------



Framework-molecule energy contributions per energy type:
-------------------------------------------------------------------------------



Inter-molecular energy:
-------------------------------------------------------------------------------

    Inter-molecular energy/kʙ 0-0 [CO2-CO2]:
    ---------------------------------------------------------------------------
        Block[  0] -3.882505e+02
        Block[  1] -2.572751e+02
        Block[  2] -3.166939e+02
        Block[  3] -4.010355e+02
        Block[  4] -2.960551e+02
        -----------------------------------------------------------------------
        Average  -3.318620e+02 +/-  7.612531e+01 [K]



Inter-molecular energy contributions per energy type:
-------------------------------------------------------------------------------

    Van der Waals energy/kʙ 0-0 [CO2-CO2]:
    ---------------------------------------------------------------------------
        Block[  0] -2.820707e+02
        Block[  1] -1.870627e+02
        Block[  2] -2.362058e+02
        Block[  3] -2.882072e+02
        Block[  4] -2.125201e+02
        -----------------------------------------------------------------------
        Average  -2.412133e+02 +/-  5.432175e+01 [K]

    VDW Tail-Correction energy/kʙ 0-0 [CO2-CO2]:
    ---------------------------------------------------------------------------
        Block[  0] -4.405263e+00
        Block[  1] -3.029220e+00
        Block[  2] -3.354991e+00
        Block[  3] -4.365378e+00
        Block[  4] -3.515747e+00
        -----------------------------------------------------------------------
        Average  -3.734120e+00 +/-  7.696154e-01 [K]

    Coulomb Real energy/kʙ 0-0 [CO2-CO2]:
    ---------------------------------------------------------------------------
        Block[  0] -9.064885e+01
        Block[  1] -5.986508e+01
        Block[  2] -7.011410e+01
        Block[  3] -1.004026e+02
        Block[  4] -7.351189e+01
        -----------------------------------------------------------------------
        Average  -7.890850e+01 +/-  2.029472e+01 [K]

    Coulomb Fourier energy/kʙ 0-0 [CO2-CO2]:
    ---------------------------------------------------------------------------
        Block[  0] -1.112578e+01
        Block[  1] -7.318088e+00
        Block[  2] -7.019023e+00
        Block[  3] -8.060285e+00
        Block[  4] -6.507383e+00
        -----------------------------------------------------------------------
        Average  -8.006112e+00 +/-  2.274726e+00 [K]


Total energy/kʙ
-------------------------------------------------------------------------------
    Block[  0] -3.882505e+02
    Block[  1] -2.572751e+02
    Block[  2] -3.166939e+02
    Block[  3] -4.010355e+02
    Block[  4] -2.960551e+02
    ---------------------------------------------------------------------------
    Average  -3.318620e+02 +/-  7.612531e+01 [K]

Pressure averages and statistics:
===============================================================================

Average pressure tensor: 
-------------------------------------------------------------------------------
 5.8388e+00  3.1785e-02  6.9808e-03 +/- 6.7657e-01 2.9580e-01 1.6407e-01 [bar]
 3.1785e-02  6.1285e+00 -6.7268e-02 +/- 2.9580e-01 7.7244e-01 1.7262e-01 [bar]
 6.9808e-03 -6.7268e-02  6.0511e+00 +/- 1.6407e-01 1.7262e-01 5.7574e-01 [bar]

    Block[  0]  7.178367e+05
    Block[  1]  5.883474e+05
    Block[  2]  6.352066e+05
    Block[  3]  7.315631e+05
    Block[  4]  6.405211e+05
    ---------------------------------------------------------------------------
    Ideal gas pressure   6.626950e+05 +/-  4.510351e-03 [Pa]
                         6.626950e+00 +/-  7.489619e-01 [bar]


    Block[  0] -9.792198e+04
    Block[  1] -4.478305e+04
    Block[  2] -6.604533e+04
    Block[  3] -5.460104e+04
    Block[  4] -4.706194e+04
    ---------------------------------------------------------------------------
    Excess pressure  -6.208267e+04 +/-  2.692171e+04 [Pa]
                     -6.208267e-01 +/-  2.692171e-01 [bar]


    Block[  0]  6.199147e+05
    Block[  1]  5.435643e+05
    Block[  2]  5.691613e+05
    Block[  3]  6.769621e+05
    Block[  4]  5.934591e+05
    ---------------------------------------------------------------------------
    Pressure average   6.006123e+05 +/-  6.359611e+04 [Pa]
                       6.006123e+00 +/-  6.359611e-01 [bar]


Enthalpy of adsorption
===============================================================================

Component 0 [CO2]
-------------------------------------------------------------------------------
    Block[  0] -3.132509e+02
    Block[  1] -2.902306e+02
    Block[  2] -2.911288e+02
    Block[  3] -2.944590e+02
    Block[  4] -2.912946e+02
    ---------------------------------------------------------------------------
    Enthalpy of adsorption: -2.960728e+02 +/-  1.208594e+01 [K]
                            -2.461687e+00 +/-  1.004881e-01 [kJ/mol]
    Warning: need to subtract the ideal-gas energy.


Densities
===============================================================================

Component 0 (CO2)
    Block[  0] 9.178333333333335
    Block[  1] 7.485
    Block[  2] 8.105833333333333
    Block[  3] 9.395000000000001
    Block[  4] 8.226666666666667
    -----------------------------------------------------------------------
    Density average   8.478167e+00 +/-  9.852026e-01 [molecules]
    Density average   2.181762e-04 +/-  2.465774e-05 [molec/A^3]
    Density average   1.594032e+01 +/-  1.801537e+00 [kg.m⁻³]

