Compiler and run-time data
===============================================================================
RASPA 3.0.4

Random seed: 816768108

Compiled as a 64-bits application
Compiler: gcc Ubuntu Clang 18.1.3 (1ubuntu1)
Compile Date = Mar 15 2025, Compile Time = 19:39:45

2025-06-03 10:59:44.572603
Simulation started on Tue, Jun 03
The start time was 10:59:00

Hostname:    c109
OS type:     Linux on x86_64
OS release:  6.8.0-58-generic
OS version:  #60-Ubuntu SMP PREEMPT_DYNAMIC Fri Mar 14 18:29:48 UTC 2025


Mutual consistent basic set of units:
===============================================================================

Unit of temperature: 1 [K]
Unit of length:      1e-10 [m]
Unit of time:        1e-12 [s]
Unit of mass:        1.6605402e-27 [kg]
Unit of charge:      1.60217733e-19 [C/particle]


Boltzmann constant (internal units):          0.8314464919307584 [-]
represents conversion from energy (internal units) to temperature (in Kelvin)

Derived units and their conversion factors:
===============================================================================

Unit of energy:                           1.6605402000000002e-23 [J]
Unit of energy:                           10.000008872307538 [J.mol⁻¹]
Unit of velocity:                         100 [m.s⁻¹]
Unit of force:                            1.6605402000000002e-13 [N]
Unit of diffusion:                        1.0000000000000002e-08 [m².s⁻¹]
Unit of acceleration:                     1.0000000000000002e-08 [m².s⁻¹]
Unit of torque:                           1.6605402000000002e-23 [N.m]
Unit of pressure:                         16605402 [Pa]
Unit of volume:                           1e-30 [m³]
Unit of density:                          1660.5402 [kg.m⁻³]
Unit of dynamic viscosity:                1.6605401999999997e-05 [N.s.m⁻²]
Unit of enthalpy:                         1.6605402000000002e-23 [J]
Unit of polarizability:                   1.5458657349975198e-35 [-]
Unit of Coulomb potential:                167101.08000665612 [K]
Unit of dielectric constant:              1.5458657349975193e-05 [s².C².kg⁻¹.m⁻³]
Unit of dipole moment:                    1.60217733e-29 [C.m]
Unit of Debye:                            4.803206799099162 [C.m]
Unit of electric potential:               0.00010364272224473431 [V]
Unit of electric field:                   1036427.222447343 [V.m⁻¹]
Unit of isothermal compressibility:       6.02213665167516e-08 [Pa⁻¹]
Unit of heat capacity:                    10.000008872307538 [J.mol⁻¹.K⁻¹]
Unit of volumetric expansion coefficient: 1 [K⁻¹]


Internal conversion factors:
===============================================================================

Energy (internal units) to Kelvin:      1.202724284692786 [-]
Kelvin to energy (internal units):      0.8314457542157567 [-]


System definitions
===============================================================================

Temperature:          220 [K]
Beta:                 0.005466923716160299 [-]
Pressure:             0 [Pa]
Helium void fraction: 1 [-]

Box:      30.00000   0.00000   0.00000
           0.00000  30.00000   0.00000
           0.00000   0.00000  30.00000
Lengths:  30.00000  30.00000  30.00000
Angles:   90.00000  90.00000  90.00000
Rectangular boundary conditions



Property measurement settings
===============================================================================




Pseudo-atoms
===============================================================================

  0 - C_co2    framework-atom: false
  1 - O_co2    framework-atom: false

  0 - C_co2    mass: 12.00000, charge:  0.70000
  1 - O_co2    mass: 15.99940, charge: -0.35000

  0 - C_co2    polarizability:  0.00000
  1 - O_co2    polarizability:  0.00000

  0 - J. J. Potoff et al., AIChE J. 2001, 47, 1676–1682.
  1 - J. J. Potoff et al., AIChE J. 2001, 47, 1676–1682.

Force field status
===============================================================================

Cutoff Framework-Molecule VDW:  12.00000 [Å]
Cutoff Molecule-Molecule VDW:   12.00000 [Å]
Cutoff Coulomb:                 12.00000 [Å]

Overlap-criteria VDW:           1.000000e+05 [K]

C_co2    - C_co2    Lennard-Jones p₀/kʙ:  27.00000 [K], p₁:  2.80000 [Å]
                                  shift:   0.00000 [K], tailcorrections: true
C_co2    - O_co2    Lennard-Jones p₀/kʙ:  46.18441 [K], p₁:  2.92500 [Å]
                                  shift:   0.00000 [K], tailcorrections: true
O_co2    - O_co2    Lennard-Jones p₀/kʙ:  79.00000 [K], p₁:  3.05000 [Å]
                                  shift:   0.00000 [K], tailcorrections: true

Ewald precision: 1e-06
Ewald alpha: 0.26505830360350674
Ewald k-vectors: 8 8 8


Component definitions
===============================================================================

Component 0 [CO2]

    Type: Adsorbate

    Critical temperature:  304.1282 [K]
    Critical pressure:     7377300 [Pa]
    Acentric factor:       0.22394 [-]

    Mol-fraction:                 1 [-]
    Swappable:                   true

    Mass:                         43.9988 [-]
    Fugacity coefficient:         -nan [-]
    Bulk fluid density:           0 [-]
    Compressibility:              1 [-]
    Excess molecules:             0 [-]

    Number Of Atoms:    3
    CBMC starting bead: 0
      0: O_co2  position  0.00000 -0.00000  1.16000, charge -0.35000
      1: C_co2  position  0.00000 -0.00000  0.00000, charge  0.70000
      2: O_co2  position  0.00000 -0.00000 -1.16000, charge -0.35000
    Diagonalized inertia-vector:      43.05758528 43.05758528 0.00000000
    Translational degrees of freedom: 3
    Rotational degrees of freedom:    2
    Shape of the molecule is: 'Linear'
    Net-charge:        0.00000000 [e]

    Move probabilities:
    Translation:                   0.199203 [-]
    Random translation:            0.000000 [-]
    Rotation:                      0.199203 [-]
    Random rotation:               0.000000 [-]
    Volume change:                 0.000000 [-]
    Reinsertion (CBMC):            0.199203 [-]
    Identity change (CBMC):        0.000000 [-]
    Swap:                          0.000000 [-]
    Swap (CBMC):                   0.000000 [-]
    Swap (CFCMC):                  0.000000 [-]
    Swap (CB/CFCMC):               0.000000 [-]
    Gibbs volume:                  0.003984 [-]
    Gibbs swap (CBMC):             0.398406 [-]
    Gibbs swap (CFCMC):            0.000000 [-]
    Widom:                         0.000000 [-]
    Widom (CFCMC):                 0.000000 [-]
    Widom (CB/CFCMC):              0.000000 [-]
    Parallel tempering:            0.000000 [-]
    Hybrid MC:                     0.000000 [-]

    number of blocking-pockets: 0

    number of bonds: 0





Number of pseudo-atoms
===============================================================================

Component   0 (CO2)
-------------------------------------------------------------------------------
    index   0 (C_co2): 210 atoms
    index   1 (O_co2): 420 atoms

Total number of pseudo-atoms:
-------------------------------------------------------------------------------
    index   0 (C_co2): 210 atoms
    index   1 (O_co2): 420 atoms




Energy status Recomputed from scratch
===============================================================================

Total potential energy/kʙ       -1.017343e+05 [K]
    external field VDW/kʙ        0.000000e+00 [K]
    external field Real/kʙ       0.000000e+00 [K]
    framework-molecule VDW/kʙ    0.000000e+00 [K]
    framework-molecule Real/kʙ   0.000000e+00 [K]
    molecule-molecule VDW/kʙ    -7.548368e+04 [K]
    molecule-molecule Real/kʙ   -2.113775e+04 [K]
    Van der Waals (Tail)/kʙ     -3.033270e+03 [K]
    Ewald Fourier/kʙ             1.026954e+04 [K]
    Ewald self/kʙ               -3.857024e+06 [K]
    Ewald exclusion/kʙ           3.844675e+06 [K]
    intra VDW/kʙ                 0.000000e+00 [K]
    intra Coulombic/kʙ           0.000000e+00 [K]
    polarization/kʙ              0.000000e+00 [K]
    dU/dlambda VDW/kʙ            0.000000e+00 [K]
    dU/dlambda Real/kʙ           0.000000e+00 [K]
    dU/dlambda Ewald/kʙ          0.000000e+00 [K]





Initialization: Current cycle: 0 out of 2000
===============================================================================

Box:      30.00000   0.00000   0.00000
           0.00000  30.00000   0.00000
           0.00000   0.00000  30.00000
Lengths:  30.00000  30.00000  30.00000
Angles:   90.00000  90.00000  90.00000
Rectangular boundary conditions

net charge:   0.00000000

component   0 (CO2) lambda:  0 occupancy:  0 (0.000000)
    net charge:   0.00000000 [e]

Amount of molecules per component :
-------------------------------------------------------------------------------
Component 0 (CO2)
    molecules:         2.190000e+02 molecules
    number density:    8.111111e-03 molec/A^3
    density:           5.926117e+02 kg/m^3

Total potential energy/kʙ       -1.225412e+05 [K]
-------------------------------------------------------------------------------
    external field VDW/kʙ        0.000000e+00 [K]
    external field Real/kʙ       0.000000e+00 [K]
    framework-molecule VDW/kʙ    0.000000e+00 [K]
    framework-molecule Real/kʙ   0.000000e+00 [K]
    molecule-molecule VDW/kʙ    -8.998290e+04 [K]
    molecule-molecule Real/kʙ   -2.566961e+04 [K]
    Van der Waals (Tail)/kʙ     -3.298836e+03 [K]
    Ewald Fourier/kʙ             9.288531e+03 [K]
    Ewald self/kʙ               -4.022325e+06 [K]
    Ewald exclusion/kʙ           4.009447e+06 [K]
    intra VDW/kʙ                 0.000000e+00 [K]
    intra Coulombic/kʙ           0.000000e+00 [K]
    polarization/kʙ              0.000000e+00 [K]
    dU/dlambda VDW/kʙ            0.000000e+00 [K]
    dU/dlambda Real/kʙ           0.000000e+00 [K]
    dU/dlambda Ewald/kʙ          0.000000e+00 [K]


Initialization: Current cycle: 100 out of 2000
===============================================================================

Box:      28.24021   0.00000   0.00000
           0.00000  28.24021   0.00000
           0.00000   0.00000  28.24021
Lengths:  28.24021  28.24021  28.24021
Angles:   90.00000  90.00000  90.00000
Rectangular boundary conditions

net charge:   0.00000000

component   0 (CO2) lambda:  0 occupancy:  0 (0.000000)
    net charge:   0.00000000 [e]

Amount of molecules per component :
-------------------------------------------------------------------------------
Component 0 (CO2)
    molecules:         2.440000e+02 molecules
    number density:    1.083394e-02 molec/A^3
    density:           7.915459e+02 kg/m^3

Total potential energy/kʙ       -3.101166e+05 [K]
-------------------------------------------------------------------------------
    external field VDW/kʙ        0.000000e+00 [K]
    external field Real/kʙ       0.000000e+00 [K]
    framework-molecule VDW/kʙ    0.000000e+00 [K]
    framework-molecule Real/kʙ   0.000000e+00 [K]
    molecule-molecule VDW/kʙ    -2.225328e+05 [K]
    molecule-molecule Real/kʙ   -7.596107e+04 [K]
    Van der Waals (Tail)/kʙ     -4.909218e+03 [K]
    Ewald Fourier/kʙ             7.635114e+03 [K]
    Ewald self/kʙ               -4.481495e+06 [K]
    Ewald exclusion/kʙ           4.467146e+06 [K]
    intra VDW/kʙ                 0.000000e+00 [K]
    intra Coulombic/kʙ           0.000000e+00 [K]
    polarization/kʙ              0.000000e+00 [K]
    dU/dlambda VDW/kʙ            0.000000e+00 [K]
    dU/dlambda Real/kʙ           0.000000e+00 [K]
    dU/dlambda Ewald/kʙ          0.000000e+00 [K]


Initialization: Current cycle: 200 out of 2000
===============================================================================

Box:      26.91300   0.00000   0.00000
           0.00000  26.91300   0.00000
           0.00000   0.00000  26.91300
Lengths:  26.91300  26.91300  26.91300
Angles:   90.00000  90.00000  90.00000
Rectangular boundary conditions

net charge:   0.00000000

component   0 (CO2) lambda:  0 occupancy:  0 (0.000000)
    net charge:   0.00000000 [e]

Amount of molecules per component :
-------------------------------------------------------------------------------
Component 0 (CO2)
    molecules:         2.500000e+02 molecules
    number density:    1.282489e-02 molec/A^3
    density:           9.370081e+02 kg/m^3

Total potential energy/kʙ       -3.558300e+05 [K]
-------------------------------------------------------------------------------
    external field VDW/kʙ        0.000000e+00 [K]
    external field Real/kʙ       0.000000e+00 [K]
    framework-molecule VDW/kʙ    0.000000e+00 [K]
    framework-molecule Real/kʙ   0.000000e+00 [K]
    molecule-molecule VDW/kʙ    -2.578304e+05 [K]
    molecule-molecule Real/kʙ   -8.396286e+04 [K]
    Van der Waals (Tail)/kʙ     -5.954286e+03 [K]
    Ewald Fourier/kʙ             6.618996e+03 [K]
    Ewald self/kʙ               -4.591696e+06 [K]
    Ewald exclusion/kʙ           4.576994e+06 [K]
    intra VDW/kʙ                 0.000000e+00 [K]
    intra Coulombic/kʙ           0.000000e+00 [K]
    polarization/kʙ              0.000000e+00 [K]
    dU/dlambda VDW/kʙ            0.000000e+00 [K]
    dU/dlambda Real/kʙ           0.000000e+00 [K]
    dU/dlambda Ewald/kʙ          0.000000e+00 [K]


Initialization: Current cycle: 300 out of 2000
===============================================================================

Box:      25.95521   0.00000   0.00000
           0.00000  25.95521   0.00000
           0.00000   0.00000  25.95521
Lengths:  25.95521  25.95521  25.95521
Angles:   90.00000  90.00000  90.00000
Rectangular boundary conditions

net charge:   0.00000000

component   0 (CO2) lambda:  0 occupancy:  0 (0.000000)
    net charge:   0.00000000 [e]

Amount of molecules per component :
-------------------------------------------------------------------------------
Component 0 (CO2)
    molecules:         2.480000e+02 molecules
    number density:    1.418332e-02 molec/A^3
    density:           1.036258e+03 kg/m^3

Total potential energy/kʙ       -3.781686e+05 [K]
-------------------------------------------------------------------------------
    external field VDW/kʙ        0.000000e+00 [K]
    external field Real/kʙ       0.000000e+00 [K]
    framework-molecule VDW/kʙ    0.000000e+00 [K]
    framework-molecule Real/kʙ   0.000000e+00 [K]
    molecule-molecule VDW/kʙ    -2.665554e+05 [K]
    molecule-molecule Real/kʙ   -9.717901e+04 [K]
    Van der Waals (Tail)/kʙ     -6.532297e+03 [K]
    Ewald Fourier/kʙ             6.681972e+03 [K]
    Ewald self/kʙ               -4.554962e+06 [K]
    Ewald exclusion/kʙ           4.540378e+06 [K]
    intra VDW/kʙ                 0.000000e+00 [K]
    intra Coulombic/kʙ           0.000000e+00 [K]
    polarization/kʙ              0.000000e+00 [K]
    dU/dlambda VDW/kʙ            0.000000e+00 [K]
    dU/dlambda Real/kʙ           0.000000e+00 [K]
    dU/dlambda Ewald/kʙ          0.000000e+00 [K]


Initialization: Current cycle: 400 out of 2000
===============================================================================

Box:      25.60433   0.00000   0.00000
           0.00000  25.60433   0.00000
           0.00000   0.00000  25.60433
Lengths:  25.60433  25.60433  25.60433
Angles:   90.00000  90.00000  90.00000
Rectangular boundary conditions

net charge:   0.00000000

component   0 (CO2) lambda:  0 occupancy:  0 (0.000000)
    net charge:   0.00000000 [e]

Amount of molecules per component :
-------------------------------------------------------------------------------
Component 0 (CO2)
    molecules:         2.440000e+02 molecules
    number density:    1.453615e-02 molec/A^3
    density:           1.062036e+03 kg/m^3

Total potential energy/kʙ       -3.742019e+05 [K]
-------------------------------------------------------------------------------
    external field VDW/kʙ        0.000000e+00 [K]
    external field Real/kʙ       0.000000e+00 [K]
    framework-molecule VDW/kʙ    0.000000e+00 [K]
    framework-molecule Real/kʙ   0.000000e+00 [K]
    molecule-molecule VDW/kʙ    -2.725031e+05 [K]
    molecule-molecule Real/kʙ   -8.723432e+04 [K]
    Van der Waals (Tail)/kʙ     -6.586815e+03 [K]
    Ewald Fourier/kʙ             6.470905e+03 [K]
    Ewald self/kʙ               -4.481495e+06 [K]
    Ewald exclusion/kʙ           4.467146e+06 [K]
    intra VDW/kʙ                 0.000000e+00 [K]
    intra Coulombic/kʙ           0.000000e+00 [K]
    polarization/kʙ              0.000000e+00 [K]
    dU/dlambda VDW/kʙ            0.000000e+00 [K]
    dU/dlambda Real/kʙ           0.000000e+00 [K]
    dU/dlambda Ewald/kʙ          0.000000e+00 [K]


Initialization: Current cycle: 500 out of 2000
===============================================================================

Box:      25.71202   0.00000   0.00000
           0.00000  25.71202   0.00000
           0.00000   0.00000  25.71202
Lengths:  25.71202  25.71202  25.71202
Angles:   90.00000  90.00000  90.00000
Rectangular boundary conditions

net charge:   0.00000000

component   0 (CO2) lambda:  0 occupancy:  0 (0.000000)
    net charge:   0.00000000 [e]

Amount of molecules per component :
-------------------------------------------------------------------------------
Component 0 (CO2)
    molecules:         2.480000e+02 molecules
    number density:    1.458958e-02 molec/A^3
    density:           1.065940e+03 kg/m^3

Total potential energy/kʙ       -3.881463e+05 [K]
-------------------------------------------------------------------------------
    external field VDW/kʙ        0.000000e+00 [K]
    external field Real/kʙ       0.000000e+00 [K]
    framework-molecule VDW/kʙ    0.000000e+00 [K]
    framework-molecule Real/kʙ   0.000000e+00 [K]
    molecule-molecule VDW/kʙ    -2.769351e+05 [K]
    molecule-molecule Real/kʙ   -9.573543e+04 [K]
    Van der Waals (Tail)/kʙ     -6.719405e+03 [K]
    Ewald Fourier/kʙ             5.827464e+03 [K]
    Ewald self/kʙ               -4.554962e+06 [K]
    Ewald exclusion/kʙ           4.540378e+06 [K]
    intra VDW/kʙ                 0.000000e+00 [K]
    intra Coulombic/kʙ           0.000000e+00 [K]
    polarization/kʙ              0.000000e+00 [K]
    dU/dlambda VDW/kʙ            0.000000e+00 [K]
    dU/dlambda Real/kʙ           0.000000e+00 [K]
    dU/dlambda Ewald/kʙ          0.000000e+00 [K]


Initialization: Current cycle: 600 out of 2000
===============================================================================

Box:      25.77219   0.00000   0.00000
           0.00000  25.77219   0.00000
           0.00000   0.00000  25.77219
Lengths:  25.77219  25.77219  25.77219
Angles:   90.00000  90.00000  90.00000
Rectangular boundary conditions

net charge:   0.00000000

component   0 (CO2) lambda:  0 occupancy:  0 (0.000000)
    net charge:   0.00000000 [e]

Amount of molecules per component :
-------------------------------------------------------------------------------
Component 0 (CO2)
    molecules:         2.470000e+02 molecules
    number density:    1.442923e-02 molec/A^3
    density:           1.054224e+03 kg/m^3

Total potential energy/kʙ       -3.882401e+05 [K]
-------------------------------------------------------------------------------
    external field VDW/kʙ        0.000000e+00 [K]
    external field Real/kʙ       0.000000e+00 [K]
    framework-molecule VDW/kʙ    0.000000e+00 [K]
    framework-molecule Real/kʙ   0.000000e+00 [K]
    molecule-molecule VDW/kʙ    -2.793238e+05 [K]
    molecule-molecule Real/kʙ   -9.399309e+04 [K]
    Van der Waals (Tail)/kʙ     -6.618755e+03 [K]
    Ewald Fourier/kʙ             6.220505e+03 [K]
    Ewald self/kʙ               -4.536595e+06 [K]
    Ewald exclusion/kʙ           4.522070e+06 [K]
    intra VDW/kʙ                 0.000000e+00 [K]
    intra Coulombic/kʙ           0.000000e+00 [K]
    polarization/kʙ              0.000000e+00 [K]
    dU/dlambda VDW/kʙ            0.000000e+00 [K]
    dU/dlambda Real/kʙ           0.000000e+00 [K]
    dU/dlambda Ewald/kʙ          0.000000e+00 [K]


Initialization: Current cycle: 700 out of 2000
===============================================================================

Box:      25.37493   0.00000   0.00000
           0.00000  25.37493   0.00000
           0.00000   0.00000  25.37493
Lengths:  25.37493  25.37493  25.37493
Angles:   90.00000  90.00000  90.00000
Rectangular boundary conditions

net charge:   0.00000000

component   0 (CO2) lambda:  0 occupancy:  0 (0.000000)
    net charge:   0.00000000 [e]

Amount of molecules per component :
-------------------------------------------------------------------------------
Component 0 (CO2)
    molecules:         2.460000e+02 molecules
    number density:    1.505638e-02 molec/A^3
    density:           1.100045e+03 kg/m^3

Total potential energy/kʙ       -4.025498e+05 [K]
-------------------------------------------------------------------------------
    external field VDW/kʙ        0.000000e+00 [K]
    external field Real/kʙ       0.000000e+00 [K]
    framework-molecule VDW/kʙ    0.000000e+00 [K]
    framework-molecule Real/kʙ   0.000000e+00 [K]
    molecule-molecule VDW/kʙ    -2.891321e+05 [K]
    molecule-molecule Real/kʙ   -9.739699e+04 [K]
    Van der Waals (Tail)/kʙ     -6.878473e+03 [K]
    Ewald Fourier/kʙ             5.323960e+03 [K]
    Ewald self/kʙ               -4.518228e+06 [K]
    Ewald exclusion/kʙ           4.503762e+06 [K]
    intra VDW/kʙ                 0.000000e+00 [K]
    intra Coulombic/kʙ           0.000000e+00 [K]
    polarization/kʙ              0.000000e+00 [K]
    dU/dlambda VDW/kʙ            0.000000e+00 [K]
    dU/dlambda Real/kʙ           0.000000e+00 [K]
    dU/dlambda Ewald/kʙ          0.000000e+00 [K]


Initialization: Current cycle: 800 out of 2000
===============================================================================

Box:      25.25657   0.00000   0.00000
           0.00000  25.25657   0.00000
           0.00000   0.00000  25.25657
Lengths:  25.25657  25.25657  25.25657
Angles:   90.00000  90.00000  90.00000
Rectangular boundary conditions

net charge:   0.00000000

component   0 (CO2) lambda:  0 occupancy:  0 (0.000000)
    net charge:   0.00000000 [e]

Amount of molecules per component :
-------------------------------------------------------------------------------
Component 0 (CO2)
    molecules:         2.470000e+02 molecules
    number density:    1.533112e-02 molec/A^3
    density:           1.120118e+03 kg/m^3

Total potential energy/kʙ       -4.101087e+05 [K]
-------------------------------------------------------------------------------
    external field VDW/kʙ        0.000000e+00 [K]
    external field Real/kʙ       0.000000e+00 [K]
    framework-molecule VDW/kʙ    0.000000e+00 [K]
    framework-molecule Real/kʙ   0.000000e+00 [K]
    molecule-molecule VDW/kʙ    -2.915607e+05 [K]
    molecule-molecule Real/kʙ   -1.024379e+05 [K]
    Van der Waals (Tail)/kʙ     -7.032456e+03 [K]
    Ewald Fourier/kʙ             5.447394e+03 [K]
    Ewald self/kʙ               -4.536595e+06 [K]
    Ewald exclusion/kʙ           4.522070e+06 [K]
    intra VDW/kʙ                 0.000000e+00 [K]
    intra Coulombic/kʙ           0.000000e+00 [K]
    polarization/kʙ              0.000000e+00 [K]
    dU/dlambda VDW/kʙ            0.000000e+00 [K]
    dU/dlambda Real/kʙ           0.000000e+00 [K]
    dU/dlambda Ewald/kʙ          0.000000e+00 [K]


Initialization: Current cycle: 900 out of 2000
===============================================================================

Box:      25.24648   0.00000   0.00000
           0.00000  25.24648   0.00000
           0.00000   0.00000  25.24648
Lengths:  25.24648  25.24648  25.24648
Angles:   90.00000  90.00000  90.00000
Rectangular boundary conditions

net charge:   0.00000000

component   0 (CO2) lambda:  0 occupancy:  0 (0.000000)
    net charge:   0.00000000 [e]

Amount of molecules per component :
-------------------------------------------------------------------------------
Component 0 (CO2)
    molecules:         2.430000e+02 molecules
    number density:    1.510094e-02 molec/A^3
    density:           1.103301e+03 kg/m^3

Total potential energy/kʙ       -3.990505e+05 [K]
-------------------------------------------------------------------------------
    external field VDW/kʙ        0.000000e+00 [K]
    external field Real/kʙ       0.000000e+00 [K]
    framework-molecule VDW/kʙ    0.000000e+00 [K]
    framework-molecule Real/kʙ   0.000000e+00 [K]
    molecule-molecule VDW/kʙ    -2.880256e+05 [K]
    molecule-molecule Real/kʙ   -9.653295e+04 [K]
    Van der Waals (Tail)/kʙ     -6.814696e+03 [K]
    Ewald Fourier/kʙ             6.612528e+03 [K]
    Ewald self/kʙ               -4.463128e+06 [K]
    Ewald exclusion/kʙ           4.448838e+06 [K]
    intra VDW/kʙ                 0.000000e+00 [K]
    intra Coulombic/kʙ           0.000000e+00 [K]
    polarization/kʙ              0.000000e+00 [K]
    dU/dlambda VDW/kʙ            0.000000e+00 [K]
    dU/dlambda Real/kʙ           0.000000e+00 [K]
    dU/dlambda Ewald/kʙ          0.000000e+00 [K]


Initialization: Current cycle: 1000 out of 2000
===============================================================================

Box:      24.95617   0.00000   0.00000
           0.00000  24.95617   0.00000
           0.00000   0.00000  24.95617
Lengths:  24.95617  24.95617  24.95617
Angles:   90.00000  90.00000  90.00000
Rectangular boundary conditions

net charge:   0.00000000

component   0 (CO2) lambda:  0 occupancy:  0 (0.000000)
    net charge:   0.00000000 [e]

Amount of molecules per component :
-------------------------------------------------------------------------------
Component 0 (CO2)
    molecules:         2.420000e+02 molecules
    number density:    1.556974e-02 molec/A^3
    density:           1.137552e+03 kg/m^3

Total potential energy/kʙ       -4.052506e+05 [K]
-------------------------------------------------------------------------------
    external field VDW/kʙ        0.000000e+00 [K]
    external field Real/kʙ       0.000000e+00 [K]
    framework-molecule VDW/kʙ    0.000000e+00 [K]
    framework-molecule Real/kʙ   0.000000e+00 [K]
    molecule-molecule VDW/kʙ    -2.923402e+05 [K]
    molecule-molecule Real/kʙ   -9.747384e+04 [K]
    Van der Waals (Tail)/kʙ     -6.997339e+03 [K]
    Ewald Fourier/kʙ             5.791723e+03 [K]
    Ewald self/kʙ               -4.444761e+06 [K]
    Ewald exclusion/kʙ           4.430530e+06 [K]
    intra VDW/kʙ                 0.000000e+00 [K]
    intra Coulombic/kʙ           0.000000e+00 [K]
    polarization/kʙ              0.000000e+00 [K]
    dU/dlambda VDW/kʙ            0.000000e+00 [K]
    dU/dlambda Real/kʙ           0.000000e+00 [K]
    dU/dlambda Ewald/kʙ          0.000000e+00 [K]


Initialization: Current cycle: 1100 out of 2000
===============================================================================

Box:      24.82227   0.00000   0.00000
           0.00000  24.82227   0.00000
           0.00000   0.00000  24.82227
Lengths:  24.82227  24.82227  24.82227
Angles:   90.00000  90.00000  90.00000
Rectangular boundary conditions

net charge:   0.00000000

component   0 (CO2) lambda:  0 occupancy:  0 (0.000000)
    net charge:   0.00000000 [e]

Amount of molecules per component :
-------------------------------------------------------------------------------
Component 0 (CO2)
    molecules:         2.390000e+02 molecules
    number density:    1.562692e-02 molec/A^3
    density:           1.141729e+03 kg/m^3

Total potential energy/kʙ       -4.077889e+05 [K]
-------------------------------------------------------------------------------
    external field VDW/kʙ        0.000000e+00 [K]
    external field Real/kʙ       0.000000e+00 [K]
    framework-molecule VDW/kʙ    0.000000e+00 [K]
    framework-molecule Real/kʙ   0.000000e+00 [K]
    molecule-molecule VDW/kʙ    -2.932482e+05 [K]
    molecule-molecule Real/kʙ   -9.939112e+04 [K]
    Van der Waals (Tail)/kʙ     -6.935975e+03 [K]
    Ewald Fourier/kʙ             5.840879e+03 [K]
    Ewald self/kʙ               -4.389661e+06 [K]
    Ewald exclusion/kʙ           4.375606e+06 [K]
    intra VDW/kʙ                 0.000000e+00 [K]
    intra Coulombic/kʙ           0.000000e+00 [K]
    polarization/kʙ              0.000000e+00 [K]
    dU/dlambda VDW/kʙ            0.000000e+00 [K]
    dU/dlambda Real/kʙ           0.000000e+00 [K]
    dU/dlambda Ewald/kʙ          0.000000e+00 [K]


Initialization: Current cycle: 1200 out of 2000
===============================================================================

Box:      24.76244   0.00000   0.00000
           0.00000  24.76244   0.00000
           0.00000   0.00000  24.76244
Lengths:  24.76244  24.76244  24.76244
Angles:   90.00000  90.00000  90.00000
Rectangular boundary conditions

net charge:   0.00000000

component   0 (CO2) lambda:  0 occupancy:  0 (0.000000)
    net charge:   0.00000000 [e]

Amount of molecules per component :
-------------------------------------------------------------------------------
Component 0 (CO2)
    molecules:         2.430000e+02 molecules
    number density:    1.600391e-02 molec/A^3
    density:           1.169273e+03 kg/m^3

Total potential energy/kʙ       -4.179300e+05 [K]
-------------------------------------------------------------------------------
    external field VDW/kʙ        0.000000e+00 [K]
    external field Real/kʙ       0.000000e+00 [K]
    framework-molecule VDW/kʙ    0.000000e+00 [K]
    framework-molecule Real/kʙ   0.000000e+00 [K]
    molecule-molecule VDW/kʙ    -3.011799e+05 [K]
    molecule-molecule Real/kʙ   -1.008677e+05 [K]
    Van der Waals (Tail)/kʙ     -7.222183e+03 [K]
    Ewald Fourier/kʙ             5.629485e+03 [K]
    Ewald self/kʙ               -4.463128e+06 [K]
    Ewald exclusion/kʙ           4.448838e+06 [K]
    intra VDW/kʙ                 0.000000e+00 [K]
    intra Coulombic/kʙ           0.000000e+00 [K]
    polarization/kʙ              0.000000e+00 [K]
    dU/dlambda VDW/kʙ            0.000000e+00 [K]
    dU/dlambda Real/kʙ           0.000000e+00 [K]
    dU/dlambda Ewald/kʙ          0.000000e+00 [K]


Initialization: Current cycle: 1300 out of 2000
===============================================================================

Box:      24.80860   0.00000   0.00000
           0.00000  24.80860   0.00000
           0.00000   0.00000  24.80860
Lengths:  24.80860  24.80860  24.80860
Angles:   90.00000  90.00000  90.00000
Rectangular boundary conditions

net charge:   0.00000000

component   0 (CO2) lambda:  0 occupancy:  0 (0.000000)
    net charge:   0.00000000 [e]

Amount of molecules per component :
-------------------------------------------------------------------------------
Component 0 (CO2)
    molecules:         2.390000e+02 molecules
    number density:    1.565277e-02 molec/A^3
    density:           1.143618e+03 kg/m^3

Total potential energy/kʙ       -4.091148e+05 [K]
-------------------------------------------------------------------------------
    external field VDW/kʙ        0.000000e+00 [K]
    external field Real/kʙ       0.000000e+00 [K]
    framework-molecule VDW/kʙ    0.000000e+00 [K]
    framework-molecule Real/kʙ   0.000000e+00 [K]
    molecule-molecule VDW/kʙ    -2.948852e+05 [K]
    molecule-molecule Real/kʙ   -9.894882e+04 [K]
    Van der Waals (Tail)/kʙ     -6.947447e+03 [K]
    Ewald Fourier/kʙ             5.721174e+03 [K]
    Ewald self/kʙ               -4.389661e+06 [K]
    Ewald exclusion/kʙ           4.375606e+06 [K]
    intra VDW/kʙ                 0.000000e+00 [K]
    intra Coulombic/kʙ           0.000000e+00 [K]
    polarization/kʙ              0.000000e+00 [K]
    dU/dlambda VDW/kʙ            0.000000e+00 [K]
    dU/dlambda Real/kʙ           0.000000e+00 [K]
    dU/dlambda Ewald/kʙ          0.000000e+00 [K]


Initialization: Current cycle: 1400 out of 2000
===============================================================================

Box:      24.75869   0.00000   0.00000
           0.00000  24.75869   0.00000
           0.00000   0.00000  24.75869
Lengths:  24.75869  24.75869  24.75869
Angles:   90.00000  90.00000  90.00000
Rectangular boundary conditions

net charge:   0.00000000

component   0 (CO2) lambda:  0 occupancy:  0 (0.000000)
    net charge:   0.00000000 [e]

Amount of molecules per component :
-------------------------------------------------------------------------------
Component 0 (CO2)
    molecules:         2.440000e+02 molecules
    number density:    1.607707e-02 molec/A^3
    density:           1.174618e+03 kg/m^3

Total potential energy/kʙ       -4.252612e+05 [K]
-------------------------------------------------------------------------------
    external field VDW/kʙ        0.000000e+00 [K]
    external field Real/kʙ       0.000000e+00 [K]
    framework-molecule VDW/kʙ    0.000000e+00 [K]
    framework-molecule Real/kʙ   0.000000e+00 [K]
    molecule-molecule VDW/kʙ    -3.016931e+05 [K]
    molecule-molecule Real/kʙ   -1.073970e+05 [K]
    Van der Waals (Tail)/kʙ     -7.285056e+03 [K]
    Ewald Fourier/kʙ             5.462570e+03 [K]
    Ewald self/kʙ               -4.481495e+06 [K]
    Ewald exclusion/kʙ           4.467146e+06 [K]
    intra VDW/kʙ                 0.000000e+00 [K]
    intra Coulombic/kʙ           0.000000e+00 [K]
    polarization/kʙ              0.000000e+00 [K]
    dU/dlambda VDW/kʙ            0.000000e+00 [K]
    dU/dlambda Real/kʙ           0.000000e+00 [K]
    dU/dlambda Ewald/kʙ          0.000000e+00 [K]


Initialization: Current cycle: 1500 out of 2000
===============================================================================

Box:      24.92106   0.00000   0.00000
           0.00000  24.92106   0.00000
           0.00000   0.00000  24.92106
Lengths:  24.92106  24.92106  24.92106
Angles:   90.00000  90.00000  90.00000
Rectangular boundary conditions

net charge:   0.00000000

component   0 (CO2) lambda:  0 occupancy:  0 (0.000000)
    net charge:   0.00000000 [e]

Amount of molecules per component :
-------------------------------------------------------------------------------
Component 0 (CO2)
    molecules:         2.470000e+02 molecules
    number density:    1.595869e-02 molec/A^3
    density:           1.165969e+03 kg/m^3

Total potential energy/kʙ       -4.327348e+05 [K]
-------------------------------------------------------------------------------
    external field VDW/kʙ        0.000000e+00 [K]
    external field Real/kʙ       0.000000e+00 [K]
    framework-molecule VDW/kʙ    0.000000e+00 [K]
    framework-molecule Real/kʙ   0.000000e+00 [K]
    molecule-molecule VDW/kʙ    -3.081259e+05 [K]
    molecule-molecule Real/kʙ   -1.080814e+05 [K]
    Van der Waals (Tail)/kʙ     -7.320325e+03 [K]
    Ewald Fourier/kʙ             5.317868e+03 [K]
    Ewald self/kʙ               -4.536595e+06 [K]
    Ewald exclusion/kʙ           4.522070e+06 [K]
    intra VDW/kʙ                 0.000000e+00 [K]
    intra Coulombic/kʙ           0.000000e+00 [K]
    polarization/kʙ              0.000000e+00 [K]
    dU/dlambda VDW/kʙ            0.000000e+00 [K]
    dU/dlambda Real/kʙ           0.000000e+00 [K]
    dU/dlambda Ewald/kʙ          0.000000e+00 [K]


Initialization: Current cycle: 1600 out of 2000
===============================================================================

Box:      24.82861   0.00000   0.00000
           0.00000  24.82861   0.00000
           0.00000   0.00000  24.82861
Lengths:  24.82861  24.82861  24.82861
Angles:   90.00000  90.00000  90.00000
Rectangular boundary conditions

net charge:   0.00000000

component   0 (CO2) lambda:  0 occupancy:  0 (0.000000)
    net charge:   0.00000000 [e]

Amount of molecules per component :
-------------------------------------------------------------------------------
Component 0 (CO2)
    molecules:         2.440000e+02 molecules
    number density:    1.594163e-02 molec/A^3
    density:           1.164723e+03 kg/m^3

Total potential energy/kʙ       -4.233071e+05 [K]
-------------------------------------------------------------------------------
    external field VDW/kʙ        0.000000e+00 [K]
    external field Real/kʙ       0.000000e+00 [K]
    framework-molecule VDW/kʙ    0.000000e+00 [K]
    framework-molecule Real/kʙ   0.000000e+00 [K]
    molecule-molecule VDW/kʙ    -3.005781e+05 [K]
    molecule-molecule Real/kʙ   -1.065107e+05 [K]
    Van der Waals (Tail)/kʙ     -7.223683e+03 [K]
    Ewald Fourier/kʙ             5.353918e+03 [K]
    Ewald self/kʙ               -4.481495e+06 [K]
    Ewald exclusion/kʙ           4.467146e+06 [K]
    intra VDW/kʙ                 0.000000e+00 [K]
    intra Coulombic/kʙ           0.000000e+00 [K]
    polarization/kʙ              0.000000e+00 [K]
    dU/dlambda VDW/kʙ            0.000000e+00 [K]
    dU/dlambda Real/kʙ           0.000000e+00 [K]
    dU/dlambda Ewald/kʙ          0.000000e+00 [K]


Initialization: Current cycle: 1700 out of 2000
===============================================================================

Box:      24.77309   0.00000   0.00000
           0.00000  24.77309   0.00000
           0.00000   0.00000  24.77309
Lengths:  24.77309  24.77309  24.77309
Angles:   90.00000  90.00000  90.00000
Rectangular boundary conditions

net charge:   0.00000000

component   0 (CO2) lambda:  0 occupancy:  0 (0.000000)
    net charge:   0.00000000 [e]

Amount of molecules per component :
-------------------------------------------------------------------------------
Component 0 (CO2)
    molecules:         2.430000e+02 molecules
    number density:    1.598327e-02 molec/A^3
    density:           1.167765e+03 kg/m^3

Total potential energy/kʙ       -4.254143e+05 [K]
-------------------------------------------------------------------------------
    external field VDW/kʙ        0.000000e+00 [K]
    external field Real/kʙ       0.000000e+00 [K]
    framework-molecule VDW/kʙ    0.000000e+00 [K]
    framework-molecule Real/kʙ   0.000000e+00 [K]
    molecule-molecule VDW/kʙ    -2.968662e+05 [K]
    molecule-molecule Real/kʙ   -1.123372e+05 [K]
    Van der Waals (Tail)/kʙ     -7.212868e+03 [K]
    Ewald Fourier/kʙ             5.291787e+03 [K]
    Ewald self/kʙ               -4.463128e+06 [K]
    Ewald exclusion/kʙ           4.448838e+06 [K]
    intra VDW/kʙ                 0.000000e+00 [K]
    intra Coulombic/kʙ           0.000000e+00 [K]
    polarization/kʙ              0.000000e+00 [K]
    dU/dlambda VDW/kʙ            0.000000e+00 [K]
    dU/dlambda Real/kʙ           0.000000e+00 [K]
    dU/dlambda Ewald/kʙ          0.000000e+00 [K]


Initialization: Current cycle: 1800 out of 2000
===============================================================================

Box:      24.70308   0.00000   0.00000
           0.00000  24.70308   0.00000
           0.00000   0.00000  24.70308
Lengths:  24.70308  24.70308  24.70308
Angles:   90.00000  90.00000  90.00000
Rectangular boundary conditions

net charge:   0.00000000

component   0 (CO2) lambda:  0 occupancy:  0 (0.000000)
    net charge:   0.00000000 [e]

Amount of molecules per component :
-------------------------------------------------------------------------------
Component 0 (CO2)
    molecules:         2.390000e+02 molecules
    number density:    1.585420e-02 molec/A^3
    density:           1.158335e+03 kg/m^3

Total potential energy/kʙ       -4.181254e+05 [K]
-------------------------------------------------------------------------------
    external field VDW/kʙ        0.000000e+00 [K]
    external field Real/kʙ       0.000000e+00 [K]
    framework-molecule VDW/kʙ    0.000000e+00 [K]
    framework-molecule Real/kʙ   0.000000e+00 [K]
    molecule-molecule VDW/kʙ    -2.895350e+05 [K]
    molecule-molecule Real/kʙ   -1.126564e+05 [K]
    Van der Waals (Tail)/kʙ     -7.036854e+03 [K]
    Ewald Fourier/kʙ             5.157377e+03 [K]
    Ewald self/kʙ               -4.389661e+06 [K]
    Ewald exclusion/kʙ           4.375606e+06 [K]
    intra VDW/kʙ                 0.000000e+00 [K]
    intra Coulombic/kʙ           0.000000e+00 [K]
    polarization/kʙ              0.000000e+00 [K]
    dU/dlambda VDW/kʙ            0.000000e+00 [K]
    dU/dlambda Real/kʙ           0.000000e+00 [K]
    dU/dlambda Ewald/kʙ          0.000000e+00 [K]


Initialization: Current cycle: 1900 out of 2000
===============================================================================

Box:      24.80288   0.00000   0.00000
           0.00000  24.80288   0.00000
           0.00000   0.00000  24.80288
Lengths:  24.80288  24.80288  24.80288
Angles:   90.00000  90.00000  90.00000
Rectangular boundary conditions

net charge:   0.00000000

component   0 (CO2) lambda:  0 occupancy:  0 (0.000000)
    net charge:   0.00000000 [e]

Amount of molecules per component :
-------------------------------------------------------------------------------
Component 0 (CO2)
    molecules:         2.390000e+02 molecules
    number density:    1.566360e-02 molec/A^3
    density:           1.144410e+03 kg/m^3

Total potential energy/kʙ       -4.149007e+05 [K]
-------------------------------------------------------------------------------
    external field VDW/kʙ        0.000000e+00 [K]
    external field Real/kʙ       0.000000e+00 [K]
    framework-molecule VDW/kʙ    0.000000e+00 [K]
    framework-molecule Real/kʙ   0.000000e+00 [K]
    molecule-molecule VDW/kʙ    -2.969528e+05 [K]
    molecule-molecule Real/kʙ   -1.020511e+05 [K]
    Van der Waals (Tail)/kʙ     -6.952256e+03 [K]
    Ewald Fourier/kʙ             5.110000e+03 [K]
    Ewald self/kʙ               -4.389661e+06 [K]
    Ewald exclusion/kʙ           4.375606e+06 [K]
    intra VDW/kʙ                 0.000000e+00 [K]
    intra Coulombic/kʙ           0.000000e+00 [K]
    polarization/kʙ              0.000000e+00 [K]
    dU/dlambda VDW/kʙ            0.000000e+00 [K]
    dU/dlambda Real/kʙ           0.000000e+00 [K]
    dU/dlambda Ewald/kʙ          0.000000e+00 [K]


Current cycle: 0 out of 6000
===============================================================================

Box:      24.78210   0.00000   0.00000  Average:  24.78210   0.00000   0.00000
           0.00000  24.78210   0.00000             0.00000  24.78210   0.00000
           0.00000   0.00000  24.78210             0.00000   0.00000  24.78210
Lengths:  24.78210  24.78210  24.78210  Average:  24.78210  24.78210  24.78210
Angles:   90.00000  90.00000  90.00000  Average:  90.00000  90.00000  90.00000
Rectangular boundary conditions

net charge:   0.00000000

component 0 (CO2) lambda:  0 occupancy:  0 (0.000000)
    net charge:   0.00000000 [e]

Amount of molecules per component :
-------------------------------------------------------------------------------
Component 0 (CO2)
    molecules:      2.400000e+02 molecules  (2.400000e+02 +/- 0.000000e+00)
    number density: 1.576875e-02 molec./A^3 (1.576875e-02 +/- 0.000000e+00)
    density:        1.152092e+03 kg/m^3     (1.152092e+03 +/- 0.000000e+00)

Average pressure tensor: 
-------------------------------------------------------------------------------
 4.7896e+02  0.0000e+00  0.0000e+00 +/- 0.0000e+00 0.0000e+00 0.0000e+00 [bar]
 0.0000e+00  4.7896e+02  0.0000e+00 +/- 0.0000e+00 0.0000e+00 0.0000e+00 [bar]
 0.0000e+00  0.0000e+00  4.7896e+02 +/- 0.0000e+00 0.0000e+00 0.0000e+00 [bar]
Ideal-gas pressure:   4.789647e+02 +/ 0.000000e+00 [bar]
Excess pressure:      0.000000e+00 +/ 0.000000e+00 [bar]
Pressure:             4.789647e+02 +/ 0.000000e+00 [bar]

Total potential energy/kʙ  -4.092743e+05 (-4.092743e+05 +/- 0.000000e+00) [K]
-------------------------------------------------------------------------------
ExternalField-molecule
    Van der Waals/kʙ        0.000000e+00 ( 0.000000e+00 +/- 0.000000e+00) [K]
Framework-molecule
    Van der Waals/kʙ        0.000000e+00 ( 0.000000e+00 +/- 0.000000e+00) [K]
    Van der Waals (Tail)/kʙ 0.000000e+00 ( 0.000000e+00 +/- 0.000000e+00) [K]
    Coulombic Real/kʙ       0.000000e+00 ( 0.000000e+00 +/- 0.000000e+00) [K]
    Coulombic Fourier/kʙ    0.000000e+00 ( 0.000000e+00 +/- 0.000000e+00) [K]
Molecule-molecule
    Van der Waals/kʙ       -2.928143e+05 (-2.928143e+05 +/- 0.000000e+00) [K]
    Van der Waals (Tail)/kʙ-7.028208e+03 (-7.028208e+03 +/- 0.000000e+00) [K]
    Coulombic Real/kʙ      -1.009167e+05 (-1.009167e+05 +/- 0.000000e+00) [K]
    Coulombic Fourier/kʙ   -8.515091e+03 (-8.515091e+03 +/- 0.000000e+00) [K]
    Molecule Intra/kʙ       0.000000e+00 ( 0.000000e+00 +/- 0.000000e+00) [K]

Current cycle: 100 out of 6000
===============================================================================

Box:      24.84025   0.00000   0.00000  Average:  24.83024   0.00000   0.00000
           0.00000  24.84025   0.00000             0.00000  24.83024   0.00000
           0.00000   0.00000  24.84025             0.00000   0.00000  24.83024
Lengths:  24.84025  24.84025  24.84025  Average:  24.83024  24.83024  24.83024
Angles:   90.00000  90.00000  90.00000  Average:  90.00000  90.00000  90.00000
Rectangular boundary conditions

net charge:   0.00000000

component 0 (CO2) lambda:  0 occupancy:  0 (0.000000)
    net charge:   0.00000000 [e]

Amount of molecules per component :
-------------------------------------------------------------------------------
Component 0 (CO2)
    molecules:      2.450000e+02 molecules  (2.428515e+02 +/- 0.000000e+00)
    number density: 1.598447e-02 molec./A^3 (1.586399e-02 +/- 0.000000e+00)
    density:        1.167853e+03 kg/m^3     (1.159050e+03 +/- 0.000000e+00)

Average pressure tensor: 
-------------------------------------------------------------------------------
 4.7252e+01 -1.4221e+02  1.0353e+02 +/- 0.0000e+00 0.0000e+00 0.0000e+00 [bar]
-1.4221e+02 -1.2819e+02 -1.8702e+02 +/- 0.0000e+00 0.0000e+00 0.0000e+00 [bar]
 1.0353e+02 -1.8702e+02  2.3889e+02 +/- 0.0000e+00 0.0000e+00 0.0000e+00 [bar]
Ideal-gas pressure:   4.818576e+02 +/ 0.000000e+00 [bar]
Excess pressure:     -4.292084e+02 +/ 0.000000e+00 [bar]
Pressure:             5.264922e+01 +/ 0.000000e+00 [bar]

Total potential energy/kʙ  -4.362206e+05 (-4.219472e+05 +/- 0.000000e+00) [K]
-------------------------------------------------------------------------------
ExternalField-molecule
    Van der Waals/kʙ        0.000000e+00 ( 0.000000e+00 +/- 0.000000e+00) [K]
Framework-molecule
    Van der Waals/kʙ        0.000000e+00 ( 0.000000e+00 +/- 0.000000e+00) [K]
    Van der Waals (Tail)/kʙ 0.000000e+00 ( 0.000000e+00 +/- 0.000000e+00) [K]
    Coulombic Real/kʙ       0.000000e+00 ( 0.000000e+00 +/- 0.000000e+00) [K]
    Coulombic Fourier/kʙ    0.000000e+00 ( 0.000000e+00 +/- 0.000000e+00) [K]
Molecule-molecule
    Van der Waals/kʙ       -3.089810e+05 (-2.993068e+05 +/- 0.000000e+00) [K]
    Van der Waals (Tail)/kʙ-7.272783e+03 (-7.162019e+03 +/- 0.000000e+00) [K]
    Coulombic Real/kʙ      -1.102385e+05 (-1.064653e+05 +/- 0.000000e+00) [K]
    Coulombic Fourier/kʙ   -9.728351e+03 (-9.013055e+03 +/- 0.000000e+00) [K]
    Molecule Intra/kʙ       0.000000e+00 ( 0.000000e+00 +/- 0.000000e+00) [K]

Current cycle: 200 out of 6000
===============================================================================

Box:      24.61127   0.00000   0.00000  Average:  24.77753   0.00000   0.00000
           0.00000  24.61127   0.00000             0.00000  24.77753   0.00000
           0.00000   0.00000  24.61127             0.00000   0.00000  24.77753
Lengths:  24.61127  24.61127  24.61127  Average:  24.77753  24.77753  24.77753
Angles:   90.00000  90.00000  90.00000  Average:  90.00000  90.00000  90.00000
Rectangular boundary conditions

net charge:   0.00000000

component 0 (CO2) lambda:  0 occupancy:  0 (0.000000)
    net charge:   0.00000000 [e]

Amount of molecules per component :
-------------------------------------------------------------------------------
Component 0 (CO2)
    molecules:      2.410000e+02 molecules  (2.424577e+02 +/- 0.000000e+00)
    number density: 1.616647e-02 molec./A^3 (1.593960e-02 +/- 0.000000e+00)
    density:        1.181150e+03 kg/m^3     (1.164575e+03 +/- 0.000000e+00)

Average pressure tensor: 
-------------------------------------------------------------------------------
-4.3213e+01 -1.3942e+02  1.1407e+02 +/- 0.0000e+00 0.0000e+00 0.0000e+00 [bar]
-1.3942e+02 -6.6934e+00 -1.2282e+02 +/- 0.0000e+00 0.0000e+00 0.0000e+00 [bar]
 1.1407e+02 -1.2282e+02  7.6155e+01 +/- 0.0000e+00 0.0000e+00 0.0000e+00 [bar]
Ideal-gas pressure:   4.841544e+02 +/ 0.000000e+00 [bar]
Excess pressure:     -4.754050e+02 +/ 0.000000e+00 [bar]
Pressure:             8.749451e+00 +/ 0.000000e+00 [bar]

Total potential energy/kʙ  -4.283285e+05 (-4.252823e+05 +/- 0.000000e+00) [K]
-------------------------------------------------------------------------------
ExternalField-molecule
    Van der Waals/kʙ        0.000000e+00 ( 0.000000e+00 +/- 0.000000e+00) [K]
Framework-molecule
    Van der Waals/kʙ        0.000000e+00 ( 0.000000e+00 +/- 0.000000e+00) [K]
    Van der Waals (Tail)/kʙ 0.000000e+00 ( 0.000000e+00 +/- 0.000000e+00) [K]
    Coulombic Real/kʙ       0.000000e+00 ( 0.000000e+00 +/- 0.000000e+00) [K]
    Coulombic Fourier/kʙ    0.000000e+00 ( 0.000000e+00 +/- 0.000000e+00) [K]
Molecule-molecule
    Van der Waals/kʙ       -3.008492e+05 (-2.997275e+05 +/- 0.000000e+00) [K]
    Van der Waals (Tail)/kʙ-7.235499e+03 (-7.175102e+03 +/- 0.000000e+00) [K]
    Coulombic Real/kʙ      -1.115253e+05 (-1.093181e+05 +/- 0.000000e+00) [K]
    Coulombic Fourier/kʙ   -8.718474e+03 (-9.061489e+03 +/- 0.000000e+00) [K]
    Molecule Intra/kʙ       0.000000e+00 ( 0.000000e+00 +/- 0.000000e+00) [K]

Current cycle: 300 out of 6000
===============================================================================

Box:      24.79200   0.00000   0.00000  Average:  24.74305   0.00000   0.00000
           0.00000  24.79200   0.00000             0.00000  24.74305   0.00000
           0.00000   0.00000  24.79200             0.00000   0.00000  24.74305
Lengths:  24.79200  24.79200  24.79200  Average:  24.74305  24.74305  24.74305
Angles:   90.00000  90.00000  90.00000  Average:  90.00000  90.00000  90.00000
Rectangular boundary conditions

net charge:   0.00000000

component 0 (CO2) lambda:  0 occupancy:  0 (0.000000)
    net charge:   0.00000000 [e]

Amount of molecules per component :
-------------------------------------------------------------------------------
Component 0 (CO2)
    molecules:      2.380000e+02 molecules  (2.404850e+02 +/- 0.000000e+00)
    number density: 1.561861e-02 molec./A^3 (1.587568e-02 +/- 0.000000e+00)
    density:        1.141123e+03 kg/m^3     (1.159904e+03 +/- 0.000000e+00)

Average pressure tensor: 
-------------------------------------------------------------------------------
-3.3256e+01 -1.4563e+02 -8.4290e+00 +/- 0.0000e+00 0.0000e+00 0.0000e+00 [bar]
-1.4563e+02  6.7658e+00 -4.0699e+01 +/- 0.0000e+00 0.0000e+00 0.0000e+00 [bar]
-8.4290e+00 -4.0699e+01  2.6788e+01 +/- 0.0000e+00 0.0000e+00 0.0000e+00 [bar]
Ideal-gas pressure:   4.822128e+02 +/ 0.000000e+00 [bar]
Excess pressure:     -4.821134e+02 +/ 0.000000e+00 [bar]
Pressure:             9.940956e-02 +/ 0.000000e+00 [bar]

Total potential energy/kʙ  -4.035594e+05 (-4.190357e+05 +/- 0.000000e+00) [K]
-------------------------------------------------------------------------------
ExternalField-molecule
    Van der Waals/kʙ        0.000000e+00 ( 0.000000e+00 +/- 0.000000e+00) [K]
Framework-molecule
    Van der Waals/kʙ        0.000000e+00 ( 0.000000e+00 +/- 0.000000e+00) [K]
    Van der Waals (Tail)/kʙ 0.000000e+00 ( 0.000000e+00 +/- 0.000000e+00) [K]
    Coulombic Real/kʙ       0.000000e+00 ( 0.000000e+00 +/- 0.000000e+00) [K]
    Coulombic Fourier/kʙ    0.000000e+00 ( 0.000000e+00 +/- 0.000000e+00) [K]
Molecule-molecule
    Van der Waals/kʙ       -2.904200e+05 (-2.967832e+05 +/- 0.000000e+00) [K]
    Van der Waals (Tail)/kʙ-6.903282e+03 (-7.098373e+03 +/- 0.000000e+00) [K]
    Coulombic Real/kʙ      -9.807114e+04 (-1.063504e+05 +/- 0.000000e+00) [K]
    Coulombic Fourier/kʙ   -8.165000e+03 (-8.803679e+03 +/- 0.000000e+00) [K]
    Molecule Intra/kʙ       0.000000e+00 ( 0.000000e+00 +/- 0.000000e+00) [K]

Current cycle: 400 out of 6000
===============================================================================

Box:      24.66849   0.00000   0.00000  Average:  24.73531   0.00000   0.00000
           0.00000  24.66849   0.00000             0.00000  24.73531   0.00000
           0.00000   0.00000  24.66849             0.00000   0.00000  24.73531
Lengths:  24.66849  24.66849  24.66849  Average:  24.73531  24.73531  24.73531
Angles:   90.00000  90.00000  90.00000  Average:  90.00000  90.00000  90.00000
Rectangular boundary conditions

net charge:   0.00000000

component 0 (CO2) lambda:  0 occupancy:  0 (0.000000)
    net charge:   0.00000000 [e]

Amount of molecules per component :
-------------------------------------------------------------------------------
Component 0 (CO2)
    molecules:      2.370000e+02 molecules  (2.400324e+02 +/- 0.000000e+00)
    number density: 1.578776e-02 molec./A^3 (1.586071e-02 +/- 0.000000e+00)
    density:        1.153481e+03 kg/m^3     (1.158811e+03 +/- 0.000000e+00)

Average pressure tensor: 
-------------------------------------------------------------------------------
-3.2642e+01 -1.1687e+02 -1.3237e+01 +/- 0.0000e+00 0.0000e+00 0.0000e+00 [bar]
-1.1687e+02  9.7224e+01 -6.1149e+01 +/- 0.0000e+00 0.0000e+00 0.0000e+00 [bar]
-1.3237e+01 -6.1149e+01 -3.0420e+01 +/- 0.0000e+00 0.0000e+00 0.0000e+00 [bar]
Ideal-gas pressure:   4.817581e+02 +/ 0.000000e+00 [bar]
Excess pressure:     -4.703708e+02 +/ 0.000000e+00 [bar]
Pressure:             1.138725e+01 +/ 0.000000e+00 [bar]

Total potential energy/kʙ  -4.124972e+05 (-4.170144e+05 +/- 0.000000e+00) [K]
-------------------------------------------------------------------------------
ExternalField-molecule
    Van der Waals/kʙ        0.000000e+00 ( 0.000000e+00 +/- 0.000000e+00) [K]
Framework-molecule
    Van der Waals/kʙ        0.000000e+00 ( 0.000000e+00 +/- 0.000000e+00) [K]
    Van der Waals (Tail)/kʙ 0.000000e+00 ( 0.000000e+00 +/- 0.000000e+00) [K]
    Coulombic Real/kʙ       0.000000e+00 ( 0.000000e+00 +/- 0.000000e+00) [K]
    Coulombic Fourier/kʙ    0.000000e+00 ( 0.000000e+00 +/- 0.000000e+00) [K]
Molecule-molecule
    Van der Waals/kʙ       -2.903037e+05 (-2.958706e+05 +/- 0.000000e+00) [K]
    Van der Waals (Tail)/kʙ-6.948725e+03 (-7.081920e+03 +/- 0.000000e+00) [K]
    Coulombic Real/kʙ      -1.060216e+05 (-1.053030e+05 +/- 0.000000e+00) [K]
    Coulombic Fourier/kʙ   -9.223145e+03 (-8.758813e+03 +/- 0.000000e+00) [K]
    Molecule Intra/kʙ       0.000000e+00 ( 0.000000e+00 +/- 0.000000e+00) [K]

Current cycle: 500 out of 6000
===============================================================================

Box:      24.68614   0.00000   0.00000  Average:  24.71369   0.00000   0.00000
           0.00000  24.68614   0.00000             0.00000  24.71369   0.00000
           0.00000   0.00000  24.68614             0.00000   0.00000  24.71369
Lengths:  24.68614  24.68614  24.68614  Average:  24.71369  24.71369  24.71369
Angles:   90.00000  90.00000  90.00000  Average:  90.00000  90.00000  90.00000
Rectangular boundary conditions

net charge:   0.00000000

component 0 (CO2) lambda:  0 occupancy:  0 (0.000000)
    net charge:   0.00000000 [e]

Amount of molecules per component :
-------------------------------------------------------------------------------
Component 0 (CO2)
    molecules:      2.400000e+02 molecules  (2.395589e+02 +/- 0.000000e+00)
    number density: 1.595335e-02 molec./A^3 (1.587109e-02 +/- 0.000000e+00)
    density:        1.165579e+03 kg/m^3     (1.159569e+03 +/- 0.000000e+00)

Average pressure tensor: 
-------------------------------------------------------------------------------
-2.1404e+01 -7.0449e+01 -3.0758e+01 +/- 0.0000e+00 0.0000e+00 0.0000e+00 [bar]
-7.0449e+01  1.3414e+02 -4.2206e+01 +/- 0.0000e+00 0.0000e+00 0.0000e+00 [bar]
-3.0758e+01 -4.2206e+01 -2.2916e+01 +/- 0.0000e+00 0.0000e+00 0.0000e+00 [bar]
Ideal-gas pressure:   4.820734e+02 +/ 0.000000e+00 [bar]
Excess pressure:     -4.521328e+02 +/ 0.000000e+00 [bar]
Pressure:             2.994061e+01 +/ 0.000000e+00 [bar]

Total potential energy/kʙ  -4.115398e+05 (-4.160160e+05 +/- 0.000000e+00) [K]
-------------------------------------------------------------------------------
ExternalField-molecule
    Van der Waals/kʙ        0.000000e+00 ( 0.000000e+00 +/- 0.000000e+00) [K]
Framework-molecule
    Van der Waals/kʙ        0.000000e+00 ( 0.000000e+00 +/- 0.000000e+00) [K]
    Van der Waals (Tail)/kʙ 0.000000e+00 ( 0.000000e+00 +/- 0.000000e+00) [K]
    Coulombic Real/kʙ       0.000000e+00 ( 0.000000e+00 +/- 0.000000e+00) [K]
    Coulombic Fourier/kʙ    0.000000e+00 ( 0.000000e+00 +/- 0.000000e+00) [K]
Molecule-molecule
    Van der Waals/kʙ       -2.884416e+05 (-2.950739e+05 +/- 0.000000e+00) [K]
    Van der Waals (Tail)/kʙ-7.110485e+03 (-7.072003e+03 +/- 0.000000e+00) [K]
    Coulombic Real/kʙ      -1.066628e+05 (-1.050224e+05 +/- 0.000000e+00) [K]
    Coulombic Fourier/kʙ   -9.324932e+03 (-8.847744e+03 +/- 0.000000e+00) [K]
    Molecule Intra/kʙ       0.000000e+00 ( 0.000000e+00 +/- 0.000000e+00) [K]

Current cycle: 600 out of 6000
===============================================================================

Box:      24.88446   0.00000   0.00000  Average:  24.73271   0.00000   0.00000
           0.00000  24.88446   0.00000             0.00000  24.73271   0.00000
           0.00000   0.00000  24.88446             0.00000   0.00000  24.73271
Lengths:  24.88446  24.88446  24.88446  Average:  24.73271  24.73271  24.73271
Angles:   90.00000  90.00000  90.00000  Average:  90.00000  90.00000  90.00000
Rectangular boundary conditions

net charge:   0.00000000

component 0 (CO2) lambda:  0 occupancy:  0 (0.000000)
    net charge:   0.00000000 [e]

Amount of molecules per component :
-------------------------------------------------------------------------------
Component 0 (CO2)
    molecules:      2.380000e+02 molecules  (2.397953e+02 +/- 0.000000e+00)
    number density: 1.544516e-02 molec./A^3 (1.585028e-02 +/- 0.000000e+00)
    density:        1.128450e+03 kg/m^3     (1.158049e+03 +/- 0.000000e+00)

Average pressure tensor: 
-------------------------------------------------------------------------------
-1.2877e+01 -6.3733e+01 -8.6584e+00 +/- 0.0000e+00 0.0000e+00 0.0000e+00 [bar]
-6.3733e+01  1.3925e+02 -1.3496e+01 +/- 0.0000e+00 0.0000e+00 0.0000e+00 [bar]
-8.6584e+00 -1.3496e+01 -6.1388e+01 +/- 0.0000e+00 0.0000e+00 0.0000e+00 [bar]
Ideal-gas pressure:   4.814414e+02 +/ 0.000000e+00 [bar]
Excess pressure:     -4.597797e+02 +/ 0.000000e+00 [bar]
Pressure:             2.166169e+01 +/ 0.000000e+00 [bar]

Total potential energy/kʙ  -3.984686e+05 (-4.153731e+05 +/- 0.000000e+00) [K]
-------------------------------------------------------------------------------
ExternalField-molecule
    Van der Waals/kʙ        0.000000e+00 ( 0.000000e+00 +/- 0.000000e+00) [K]
Framework-molecule
    Van der Waals/kʙ        0.000000e+00 ( 0.000000e+00 +/- 0.000000e+00) [K]
    Van der Waals (Tail)/kʙ 0.000000e+00 ( 0.000000e+00 +/- 0.000000e+00) [K]
    Coulombic Real/kʙ       0.000000e+00 ( 0.000000e+00 +/- 0.000000e+00) [K]
    Coulombic Fourier/kʙ    0.000000e+00 ( 0.000000e+00 +/- 0.000000e+00) [K]
Molecule-molecule
    Van der Waals/kʙ       -2.869906e+05 (-2.948544e+05 +/- 0.000000e+00) [K]
    Van der Waals (Tail)/kʙ-6.826616e+03 (-7.064960e+03 +/- 0.000000e+00) [K]
    Coulombic Real/kʙ      -9.604908e+04 (-1.045914e+05 +/- 0.000000e+00) [K]
    Coulombic Fourier/kʙ   -8.602304e+03 (-8.862315e+03 +/- 0.000000e+00) [K]
    Molecule Intra/kʙ       0.000000e+00 ( 0.000000e+00 +/- 0.000000e+00) [K]

Current cycle: 700 out of 6000
===============================================================================

Box:      24.76234   0.00000   0.00000  Average:  24.74689   0.00000   0.00000
           0.00000  24.76234   0.00000             0.00000  24.74689   0.00000
           0.00000   0.00000  24.76234             0.00000   0.00000  24.74689
Lengths:  24.76234  24.76234  24.76234  Average:  24.74689  24.74689  24.74689
Angles:   90.00000  90.00000  90.00000  Average:  90.00000  90.00000  90.00000
Rectangular boundary conditions

net charge:   0.00000000

component 0 (CO2) lambda:  0 occupancy:  0 (0.000000)
    net charge:   0.00000000 [e]

Amount of molecules per component :
-------------------------------------------------------------------------------
Component 0 (CO2)
    molecules:      2.380000e+02 molecules  (2.396947e+02 +/- 0.000000e+00)
    number density: 1.567479e-02 molec./A^3 (1.581681e-02 +/- 0.000000e+00)
    density:        1.145227e+03 kg/m^3     (1.155603e+03 +/- 0.000000e+00)

Average pressure tensor: 
-------------------------------------------------------------------------------
-7.4633e+00 -8.4015e+01  7.6519e+00 +/- 0.0000e+00 0.0000e+00 0.0000e+00 [bar]
-8.4015e+01  1.1813e+02  1.2576e+01 +/- 0.0000e+00 0.0000e+00 0.0000e+00 [bar]
 7.6519e+00  1.2576e+01 -6.8562e+01 +/- 0.0000e+00 0.0000e+00 0.0000e+00 [bar]
Ideal-gas pressure:   4.804246e+02 +/ 0.000000e+00 [bar]
Excess pressure:     -4.663905e+02 +/ 0.000000e+00 [bar]
Pressure:             1.403405e+01 +/ 0.000000e+00 [bar]

Total potential energy/kʙ  -4.135763e+05 (-4.143004e+05 +/- 0.000000e+00) [K]
-------------------------------------------------------------------------------
ExternalField-molecule
    Van der Waals/kʙ        0.000000e+00 ( 0.000000e+00 +/- 0.000000e+00) [K]
Framework-molecule
    Van der Waals/kʙ        0.000000e+00 ( 0.000000e+00 +/- 0.000000e+00) [K]
    Van der Waals (Tail)/kʙ 0.000000e+00 ( 0.000000e+00 +/- 0.000000e+00) [K]
    Coulombic Real/kʙ       0.000000e+00 ( 0.000000e+00 +/- 0.000000e+00) [K]
    Coulombic Fourier/kʙ    0.000000e+00 ( 0.000000e+00 +/- 0.000000e+00) [K]
Molecule-molecule
    Van der Waals/kʙ       -2.918744e+05 (-2.940058e+05 +/- 0.000000e+00) [K]
    Van der Waals (Tail)/kʙ-6.928111e+03 (-7.045776e+03 +/- 0.000000e+00) [K]
    Coulombic Real/kʙ      -1.056826e+05 (-1.043631e+05 +/- 0.000000e+00) [K]
    Coulombic Fourier/kʙ   -9.091302e+03 (-8.885747e+03 +/- 0.000000e+00) [K]
    Molecule Intra/kʙ       0.000000e+00 ( 0.000000e+00 +/- 0.000000e+00) [K]

Current cycle: 800 out of 6000
===============================================================================

Box:      24.75634   0.00000   0.00000  Average:  24.75271   0.00000   0.00000
           0.00000  24.75634   0.00000             0.00000  24.75271   0.00000
           0.00000   0.00000  24.75634             0.00000   0.00000  24.75271
Lengths:  24.75634  24.75634  24.75634  Average:  24.75271  24.75271  24.75271
Angles:   90.00000  90.00000  90.00000  Average:  90.00000  90.00000  90.00000
Rectangular boundary conditions

net charge:   0.00000000

component 0 (CO2) lambda:  0 occupancy:  0 (0.000000)
    net charge:   0.00000000 [e]

Amount of molecules per component :
-------------------------------------------------------------------------------
Component 0 (CO2)
    molecules:      2.420000e+02 molecules  (2.399526e+02 +/- 0.000000e+00)
    number density: 1.594983e-02 molec./A^3 (1.582255e-02 +/- 0.000000e+00)
    density:        1.165322e+03 kg/m^3     (1.156022e+03 +/- 0.000000e+00)

Average pressure tensor: 
-------------------------------------------------------------------------------
-2.4219e+01 -7.4546e+01  2.3688e+01 +/- 0.0000e+00 0.0000e+00 0.0000e+00 [bar]
-7.4546e+01  1.0493e+02 -2.2895e+00 +/- 0.0000e+00 0.0000e+00 0.0000e+00 [bar]
 2.3688e+01 -2.2895e+00 -6.7262e+01 +/- 0.0000e+00 0.0000e+00 0.0000e+00 [bar]
Ideal-gas pressure:   4.805989e+02 +/ 0.000000e+00 [bar]
Excess pressure:     -4.761154e+02 +/ 0.000000e+00 [bar]
Pressure:             4.483500e+00 +/ 0.000000e+00 [bar]

Total potential energy/kʙ  -4.179756e+05 (-4.146885e+05 +/- 0.000000e+00) [K]
-------------------------------------------------------------------------------
ExternalField-molecule
    Van der Waals/kʙ        0.000000e+00 ( 0.000000e+00 +/- 0.000000e+00) [K]
Framework-molecule
    Van der Waals/kʙ        0.000000e+00 ( 0.000000e+00 +/- 0.000000e+00) [K]
    Van der Waals (Tail)/kʙ 0.000000e+00 ( 0.000000e+00 +/- 0.000000e+00) [K]
    Coulombic Real/kʙ       0.000000e+00 ( 0.000000e+00 +/- 0.000000e+00) [K]
    Coulombic Fourier/kʙ    0.000000e+00 ( 0.000000e+00 +/- 0.000000e+00) [K]
Molecule-molecule
    Van der Waals/kʙ       -3.025014e+05 (-2.948122e+05 +/- 0.000000e+00) [K]
    Van der Waals (Tail)/kʙ-7.168160e+03 (-7.058732e+03 +/- 0.000000e+00) [K]
    Coulombic Real/kʙ      -9.908767e+04 (-1.039083e+05 +/- 0.000000e+00) [K]
    Coulombic Fourier/kʙ   -9.218350e+03 (-8.909233e+03 +/- 0.000000e+00) [K]
    Molecule Intra/kʙ       0.000000e+00 ( 0.000000e+00 +/- 0.000000e+00) [K]

Current cycle: 900 out of 6000
===============================================================================

Box:      24.78497   0.00000   0.00000  Average:  24.76284   0.00000   0.00000
           0.00000  24.78497   0.00000             0.00000  24.76284   0.00000
           0.00000   0.00000  24.78497             0.00000   0.00000  24.76284
Lengths:  24.78497  24.78497  24.78497  Average:  24.76284  24.76284  24.76284
Angles:   90.00000  90.00000  90.00000  Average:  90.00000  90.00000  90.00000
Rectangular boundary conditions

net charge:   0.00000000

component 0 (CO2) lambda:  0 occupancy:  0 (0.000000)
    net charge:   0.00000000 [e]

Amount of molecules per component :
-------------------------------------------------------------------------------
Component 0 (CO2)
    molecules:      2.380000e+02 molecules  (2.402142e+02 +/- 0.000000e+00)
    number density: 1.563189e-02 molec./A^3 (1.582028e-02 +/- 0.000000e+00)
    density:        1.142093e+03 kg/m^3     (1.155857e+03 +/- 0.000000e+00)

Average pressure tensor: 
-------------------------------------------------------------------------------
-3.5095e+01 -7.2462e+01  4.0455e+01 +/- 0.0000e+00 0.0000e+00 0.0000e+00 [bar]
-7.2462e+01  1.0649e+02 -1.6731e+01 +/- 0.0000e+00 0.0000e+00 0.0000e+00 [bar]
 4.0455e+01 -1.6731e+01 -4.4198e+01 +/- 0.0000e+00 0.0000e+00 0.0000e+00 [bar]
Ideal-gas pressure:   4.805301e+02 +/ 0.000000e+00 [bar]
Excess pressure:     -4.714647e+02 +/ 0.000000e+00 [bar]
Pressure:             9.065412e+00 +/ 0.000000e+00 [bar]

Total potential energy/kʙ  -4.039115e+05 (-4.143796e+05 +/- 0.000000e+00) [K]
-------------------------------------------------------------------------------
ExternalField-molecule
    Van der Waals/kʙ        0.000000e+00 ( 0.000000e+00 +/- 0.000000e+00) [K]
Framework-molecule
    Van der Waals/kʙ        0.000000e+00 ( 0.000000e+00 +/- 0.000000e+00) [K]
    Van der Waals (Tail)/kʙ 0.000000e+00 ( 0.000000e+00 +/- 0.000000e+00) [K]
    Coulombic Real/kʙ       0.000000e+00 ( 0.000000e+00 +/- 0.000000e+00) [K]
    Coulombic Fourier/kʙ    0.000000e+00 ( 0.000000e+00 +/- 0.000000e+00) [K]
Molecule-molecule
    Van der Waals/kʙ       -2.855237e+05 (-2.949109e+05 +/- 0.000000e+00) [K]
    Van der Waals (Tail)/kʙ-6.909152e+03 (-7.062782e+03 +/- 0.000000e+00) [K]
    Coulombic Real/kʙ      -1.027876e+05 (-1.034609e+05 +/- 0.000000e+00) [K]
    Coulombic Fourier/kʙ   -8.691071e+03 (-8.944996e+03 +/- 0.000000e+00) [K]
    Molecule Intra/kʙ       0.000000e+00 ( 0.000000e+00 +/- 0.000000e+00) [K]

Current cycle: 1000 out of 6000
===============================================================================

Box:      24.67804   0.00000   0.00000  Average:  24.76007   0.00000   0.00000
           0.00000  24.67804   0.00000             0.00000  24.76007   0.00000
           0.00000   0.00000  24.67804             0.00000   0.00000  24.76007
Lengths:  24.67804  24.67804  24.67804  Average:  24.76007  24.76007  24.76007
Angles:   90.00000  90.00000  90.00000  Average:  90.00000  90.00000  90.00000
Rectangular boundary conditions

net charge:   0.00000000

component 0 (CO2) lambda:  0 occupancy:  0 (0.000000)
    net charge:   0.00000000 [e]

Amount of molecules per component :
-------------------------------------------------------------------------------
Component 0 (CO2)
    molecules:      2.420000e+02 molecules  (2.403377e+02 +/- 0.000000e+00)
    number density: 1.610214e-02 molec./A^3 (1.583373e-02 +/- 0.000000e+00)
    density:        1.176450e+03 kg/m^3     (1.156839e+03 +/- 0.000000e+00)

Average pressure tensor: 
-------------------------------------------------------------------------------
-4.0853e+01 -5.9077e+01  6.5232e+01 +/- 0.0000e+00 0.0000e+00 0.0000e+00 [bar]
-5.9077e+01  8.1005e+01 -3.7417e+01 +/- 0.0000e+00 0.0000e+00 0.0000e+00 [bar]
 6.5232e+01 -3.7417e+01 -5.9133e+00 +/- 0.0000e+00 0.0000e+00 0.0000e+00 [bar]
Ideal-gas pressure:   4.809384e+02 +/ 0.000000e+00 [bar]
Excess pressure:     -4.695256e+02 +/ 0.000000e+00 [bar]
Pressure:             1.141287e+01 +/ 0.000000e+00 [bar]

Total potential energy/kʙ  -4.230415e+05 (-4.147069e+05 +/- 0.000000e+00) [K]
-------------------------------------------------------------------------------
ExternalField-molecule
    Van der Waals/kʙ        0.000000e+00 ( 0.000000e+00 +/- 0.000000e+00) [K]
Framework-molecule
    Van der Waals/kʙ        0.000000e+00 ( 0.000000e+00 +/- 0.000000e+00) [K]
    Van der Waals (Tail)/kʙ 0.000000e+00 ( 0.000000e+00 +/- 0.000000e+00) [K]
    Coulombic Real/kʙ       0.000000e+00 ( 0.000000e+00 +/- 0.000000e+00) [K]
    Coulombic Fourier/kʙ    0.000000e+00 ( 0.000000e+00 +/- 0.000000e+00) [K]
Molecule-molecule
    Van der Waals/kʙ       -2.961420e+05 (-2.952949e+05 +/- 0.000000e+00) [K]
    Van der Waals (Tail)/kʙ-7.236611e+03 (-7.069861e+03 +/- 0.000000e+00) [K]
    Coulombic Real/kʙ      -1.103601e+05 (-1.033897e+05 +/- 0.000000e+00) [K]
    Coulombic Fourier/kʙ   -9.302862e+03 (-8.952503e+03 +/- 0.000000e+00) [K]
    Molecule Intra/kʙ       0.000000e+00 ( 0.000000e+00 +/- 0.000000e+00) [K]

Current cycle: 1100 out of 6000
===============================================================================

Box:      24.73419   0.00000   0.00000  Average:  24.76216   0.00000   0.00000
           0.00000  24.73419   0.00000             0.00000  24.76216   0.00000
           0.00000   0.00000  24.73419             0.00000   0.00000  24.76216
Lengths:  24.73419  24.73419  24.73419  Average:  24.76216  24.76216  24.76216
Angles:   90.00000  90.00000  90.00000  Average:  90.00000  90.00000  90.00000
Rectangular boundary conditions

net charge:   0.00000000

component 0 (CO2) lambda:  0 occupancy:  0 (0.000000)
    net charge:   0.00000000 [e]

Amount of molecules per component :
-------------------------------------------------------------------------------
Component 0 (CO2)
    molecules:      2.460000e+02 molecules  (2.406394e+02 +/- 0.000000e+00)
    number density: 1.625706e-02 molec./A^3 (1.584953e-02 +/- 0.000000e+00)
    density:        1.187769e+03 kg/m^3     (1.157994e+03 +/- 0.000000e+00)

Average pressure tensor: 
-------------------------------------------------------------------------------
-2.3728e+01 -4.3728e+01  6.7190e+01 +/- 0.0000e+00 0.0000e+00 0.0000e+00 [bar]
-4.3728e+01  6.5650e+01 -6.2463e+01 +/- 0.0000e+00 0.0000e+00 0.0000e+00 [bar]
 6.7190e+01 -6.2463e+01  2.9474e+01 +/- 0.0000e+00 0.0000e+00 0.0000e+00 [bar]
Ideal-gas pressure:   4.814184e+02 +/ 0.000000e+00 [bar]
Excess pressure:     -4.576198e+02 +/ 0.000000e+00 [bar]
Pressure:             2.379864e+01 +/ 0.000000e+00 [bar]

Total potential energy/kʙ  -4.321861e+05 (-4.156922e+05 +/- 0.000000e+00) [K]
-------------------------------------------------------------------------------
ExternalField-molecule
    Van der Waals/kʙ        0.000000e+00 ( 0.000000e+00 +/- 0.000000e+00) [K]
Framework-molecule
    Van der Waals/kʙ        0.000000e+00 ( 0.000000e+00 +/- 0.000000e+00) [K]
    Van der Waals (Tail)/kʙ 0.000000e+00 ( 0.000000e+00 +/- 0.000000e+00) [K]
    Coulombic Real/kʙ       0.000000e+00 ( 0.000000e+00 +/- 0.000000e+00) [K]
    Coulombic Fourier/kʙ    0.000000e+00 ( 0.000000e+00 +/- 0.000000e+00) [K]
Molecule-molecule
    Van der Waals/kʙ       -3.091880e+05 (-2.961266e+05 +/- 0.000000e+00) [K]
    Van der Waals (Tail)/kʙ-7.427000e+03 (-7.086573e+03 +/- 0.000000e+00) [K]
    Coulombic Real/kʙ      -1.065317e+05 (-1.035219e+05 +/- 0.000000e+00) [K]
    Coulombic Fourier/kʙ   -9.039387e+03 (-8.957225e+03 +/- 0.000000e+00) [K]
    Molecule Intra/kʙ       0.000000e+00 ( 0.000000e+00 +/- 0.000000e+00) [K]

Current cycle: 1200 out of 6000
===============================================================================

Box:      24.83624   0.00000   0.00000  Average:  24.76287   0.00000   0.00000
           0.00000  24.83624   0.00000             0.00000  24.76287   0.00000
           0.00000   0.00000  24.83624             0.00000   0.00000  24.76287
Lengths:  24.83624  24.83624  24.83624  Average:  24.76287  24.76287  24.76287
Angles:   90.00000  90.00000  90.00000  Average:  90.00000  90.00000  90.00000
Rectangular boundary conditions

net charge:   0.00000000

component 0 (CO2) lambda:  0 occupancy:  0 (0.000000)
    net charge:   0.00000000 [e]

Amount of molecules per component :
-------------------------------------------------------------------------------
Component 0 (CO2)
    molecules:      2.430000e+02 molecules  (2.408235e+02 +/- 0.000000e+00)
    number density: 1.586166e-02 molec./A^3 (1.586026e-02 +/- 0.000000e+00)
    density:        1.158880e+03 kg/m^3     (1.158777e+03 +/- 0.000000e+00)

Average pressure tensor: 
-------------------------------------------------------------------------------
 2.2370e+01 -3.9728e+01  7.2392e+01 +/- 0.0000e+00 0.0000e+00 0.0000e+00 [bar]
-3.9728e+01  6.0933e+01 -6.9156e+01 +/- 0.0000e+00 0.0000e+00 0.0000e+00 [bar]
 7.2392e+01 -6.9156e+01  7.5549e-01 +/- 0.0000e+00 0.0000e+00 0.0000e+00 [bar]
Ideal-gas pressure:   4.817443e+02 +/ 0.000000e+00 [bar]
Excess pressure:     -4.537247e+02 +/ 0.000000e+00 [bar]
Pressure:             2.801960e+01 +/ 0.000000e+00 [bar]

Total potential energy/kʙ  -4.136777e+05 (-4.159488e+05 +/- 0.000000e+00) [K]
-------------------------------------------------------------------------------
ExternalField-molecule
    Van der Waals/kʙ        0.000000e+00 ( 0.000000e+00 +/- 0.000000e+00) [K]
Framework-molecule
    Van der Waals/kʙ        0.000000e+00 ( 0.000000e+00 +/- 0.000000e+00) [K]
    Van der Waals (Tail)/kʙ 0.000000e+00 ( 0.000000e+00 +/- 0.000000e+00) [K]
    Coulombic Real/kʙ       0.000000e+00 ( 0.000000e+00 +/- 0.000000e+00) [K]
    Coulombic Fourier/kʙ    0.000000e+00 ( 0.000000e+00 +/- 0.000000e+00) [K]
Molecule-molecule
    Van der Waals/kʙ       -2.983882e+05 (-2.965709e+05 +/- 0.000000e+00) [K]
    Van der Waals (Tail)/kʙ-7.157991e+03 (-7.092741e+03 +/- 0.000000e+00) [K]
    Coulombic Real/kʙ      -9.964830e+04 (-1.033675e+05 +/- 0.000000e+00) [K]
    Coulombic Fourier/kʙ   -8.483190e+03 (-8.917635e+03 +/- 0.000000e+00) [K]
    Molecule Intra/kʙ       0.000000e+00 ( 0.000000e+00 +/- 0.000000e+00) [K]

Current cycle: 1300 out of 6000
===============================================================================

Box:      24.97147   0.00000   0.00000  Average:  24.77465   0.00000   0.00000
           0.00000  24.97147   0.00000             0.00000  24.77465   0.00000
           0.00000   0.00000  24.97147             0.00000   0.00000  24.77465
Lengths:  24.97147  24.97147  24.97147  Average:  24.77465  24.77465  24.77465
Angles:   90.00000  90.00000  90.00000  Average:  90.00000  90.00000  90.00000
Rectangular boundary conditions

net charge:   0.00000000

component 0 (CO2) lambda:  0 occupancy:  0 (0.000000)
    net charge:   0.00000000 [e]

Amount of molecules per component :
-------------------------------------------------------------------------------
Component 0 (CO2)
    molecules:      2.420000e+02 molecules  (2.410738e+02 +/- 0.000000e+00)
    number density: 1.554115e-02 molec./A^3 (1.585407e-02 +/- 0.000000e+00)
    density:        1.135463e+03 kg/m^3     (1.158326e+03 +/- 0.000000e+00)

Average pressure tensor: 
-------------------------------------------------------------------------------
 2.2140e+01 -3.2274e+01  6.0039e+01 +/- 0.0000e+00 0.0000e+00 0.0000e+00 [bar]
-3.2274e+01  6.4596e+01 -7.6372e+01 +/- 0.0000e+00 0.0000e+00 0.0000e+00 [bar]
 6.0039e+01 -7.6372e+01 -5.9074e-01 +/- 0.0000e+00 0.0000e+00 0.0000e+00 [bar]
Ideal-gas pressure:   4.815565e+02 +/ 0.000000e+00 [bar]
Excess pressure:     -4.528414e+02 +/ 0.000000e+00 [bar]
Pressure:             2.871510e+01 +/ 0.000000e+00 [bar]

Total potential energy/kʙ  -4.094968e+05 (-4.161769e+05 +/- 0.000000e+00) [K]
-------------------------------------------------------------------------------
ExternalField-molecule
    Van der Waals/kʙ        0.000000e+00 ( 0.000000e+00 +/- 0.000000e+00) [K]
Framework-molecule
    Van der Waals/kʙ        0.000000e+00 ( 0.000000e+00 +/- 0.000000e+00) [K]
    Van der Waals (Tail)/kʙ 0.000000e+00 ( 0.000000e+00 +/- 0.000000e+00) [K]
    Coulombic Real/kʙ       0.000000e+00 ( 0.000000e+00 +/- 0.000000e+00) [K]
    Coulombic Fourier/kʙ    0.000000e+00 ( 0.000000e+00 +/- 0.000000e+00) [K]
Molecule-molecule
    Van der Waals/kʙ       -2.929080e+05 (-2.966868e+05 +/- 0.000000e+00) [K]
    Van der Waals (Tail)/kʙ-6.984491e+03 (-7.096405e+03 +/- 0.000000e+00) [K]
    Coulombic Real/kʙ      -1.007370e+05 (-1.034788e+05 +/- 0.000000e+00) [K]
    Coulombic Fourier/kʙ   -8.867229e+03 (-8.914879e+03 +/- 0.000000e+00) [K]
    Molecule Intra/kʙ       0.000000e+00 ( 0.000000e+00 +/- 0.000000e+00) [K]

Current cycle: 1400 out of 6000
===============================================================================

Box:      24.93913   0.00000   0.00000  Average:  24.78571   0.00000   0.00000
           0.00000  24.93913   0.00000             0.00000  24.78571   0.00000
           0.00000   0.00000  24.93913             0.00000   0.00000  24.78571
Lengths:  24.93913  24.93913  24.93913  Average:  24.78571  24.78571  24.78571
Angles:   90.00000  90.00000  90.00000  Average:  90.00000  90.00000  90.00000
Rectangular boundary conditions

net charge:   0.00000000

component 0 (CO2) lambda:  0 occupancy:  0 (0.000000)
    net charge:   0.00000000 [e]

Amount of molecules per component :
-------------------------------------------------------------------------------
Component 0 (CO2)
    molecules:      2.390000e+02 molecules  (2.410721e+02 +/- 0.000000e+00)
    number density: 1.540827e-02 molec./A^3 (1.583300e-02 +/- 0.000000e+00)
    density:        1.125754e+03 kg/m^3     (1.156786e+03 +/- 0.000000e+00)

Average pressure tensor: 
-------------------------------------------------------------------------------
 3.0178e+01 -2.2054e+01  6.0260e+01 +/- 0.0000e+00 0.0000e+00 0.0000e+00 [bar]
-2.2054e+01  7.7447e+01 -8.3849e+01 +/- 0.0000e+00 0.0000e+00 0.0000e+00 [bar]
 6.0260e+01 -8.3849e+01 -1.1416e+01 +/- 0.0000e+00 0.0000e+00 0.0000e+00 [bar]
Ideal-gas pressure:   4.809165e+02 +/ 0.000000e+00 [bar]
Excess pressure:     -4.488468e+02 +/ 0.000000e+00 [bar]
Pressure:             3.206963e+01 +/ 0.000000e+00 [bar]

Total potential energy/kʙ  -3.962526e+05 (-4.154040e+05 +/- 0.000000e+00) [K]
-------------------------------------------------------------------------------
ExternalField-molecule
    Van der Waals/kʙ        0.000000e+00 ( 0.000000e+00 +/- 0.000000e+00) [K]
Framework-molecule
    Van der Waals/kʙ        0.000000e+00 ( 0.000000e+00 +/- 0.000000e+00) [K]
    Van der Waals (Tail)/kʙ 0.000000e+00 ( 0.000000e+00 +/- 0.000000e+00) [K]
    Coulombic Real/kʙ       0.000000e+00 ( 0.000000e+00 +/- 0.000000e+00) [K]
    Coulombic Fourier/kʙ    0.000000e+00 ( 0.000000e+00 +/- 0.000000e+00) [K]
Molecule-molecule
    Van der Waals/kʙ       -2.842762e+05 (-2.961260e+05 +/- 0.000000e+00) [K]
    Van der Waals (Tail)/kʙ-6.838927e+03 (-7.088066e+03 +/- 0.000000e+00) [K]
    Coulombic Real/kʙ      -9.626222e+04 (-1.032643e+05 +/- 0.000000e+00) [K]
    Coulombic Fourier/kʙ   -8.875246e+03 (-8.925589e+03 +/- 0.000000e+00) [K]
    Molecule Intra/kʙ       0.000000e+00 ( 0.000000e+00 +/- 0.000000e+00) [K]

Current cycle: 1500 out of 6000
===============================================================================

Box:      24.84194   0.00000   0.00000  Average:  24.79301   0.00000   0.00000
           0.00000  24.84194   0.00000             0.00000  24.79301   0.00000
           0.00000   0.00000  24.84194             0.00000   0.00000  24.79301
[...]
    number density: 1.615442e-02 molec./A^3 (1.591931e-02 +/- 1.550319e-04)
    density:        1.180269e+03 kg/m^3     (1.163092e+03 +/- 1.132690e+01)

Average pressure tensor: 
-------------------------------------------------------------------------------
 4.3524e+01  4.8724e+00  5.6023e+01 +/- 8.6896e+01 5.6674e+01 1.1514e+02 [bar]
 4.8724e+00  9.3308e+00 -2.5791e+01 +/- 5.6674e+01 6.0482e+01 9.0297e+01 [bar]
 5.6023e+01 -2.5791e+01 -3.9401e+01 +/- 1.1514e+02 9.0297e+01 2.9711e+01 [bar]
Ideal-gas pressure:   4.835380e+02 +/ 4.708987e+00 [bar]
Excess pressure:     -4.790534e+02 +/ 2.211983e+01 [bar]
Pressure:             4.484659e+00 +/ 2.209436e+01 [bar]

Total potential energy/kʙ  -4.330634e+05 (-4.199383e+05 +/- 6.464960e+03) [K]
-------------------------------------------------------------------------------
ExternalField-molecule
    Van der Waals/kʙ        0.000000e+00 ( 0.000000e+00 +/- 0.000000e+00) [K]
Framework-molecule
    Van der Waals/kʙ        0.000000e+00 ( 0.000000e+00 +/- 0.000000e+00) [K]
    Van der Waals (Tail)/kʙ 0.000000e+00 ( 0.000000e+00 +/- 0.000000e+00) [K]
    Coulombic Real/kʙ       0.000000e+00 ( 0.000000e+00 +/- 0.000000e+00) [K]
    Coulombic Fourier/kʙ    0.000000e+00 ( 0.000000e+00 +/- 0.000000e+00) [K]
Molecule-molecule
    Van der Waals/kʙ       -3.074050e+05 (-2.987882e+05 +/- 3.675874e+03) [K]
    Van der Waals (Tail)/kʙ-7.320105e+03 (-7.140665e+03 +/- 6.882152e+01) [K]
    Coulombic Real/kʙ      -1.087158e+05 (-1.048734e+05 +/- 2.759182e+03) [K]
    Coulombic Fourier/kʙ   -9.622471e+03 (-9.136081e+03 +/- 1.979071e+02) [K]
    Molecule Intra/kʙ       0.000000e+00 ( 0.000000e+00 +/- 0.000000e+00) [K]

Current cycle: 5800 out of 6000
===============================================================================

Box:      24.76569   0.00000   0.00000  Average:  24.75550   0.00000   0.00000
           0.00000  24.76569   0.00000             0.00000  24.75550   0.00000
           0.00000   0.00000  24.76569             0.00000   0.00000  24.75550
Lengths:  24.76569  24.76569  24.76569  Average:  24.75550  24.75550  24.75550
Angles:   90.00000  90.00000  90.00000  Average:  90.00000  90.00000  90.00000
Rectangular boundary conditions

net charge:   0.00000000

component 0 (CO2) lambda:  0 occupancy:  0 (0.000000)
    net charge:   0.00000000 [e]

Amount of molecules per component :
-------------------------------------------------------------------------------
Component 0 (CO2)
    molecules:      2.450000e+02 molecules  (2.415609e+02 +/- 1.023879e+00)
    number density: 1.612927e-02 molec./A^3 (1.592436e-02 +/- 1.600051e-04)
    density:        1.178432e+03 kg/m^3     (1.163461e+03 +/- 1.169025e+01)

Average pressure tensor: 
-------------------------------------------------------------------------------
 4.0720e+01  5.8599e+00  5.8377e+01 +/- 8.7211e+01 5.7209e+01 1.1404e+02 [bar]
 5.8599e+00  1.1686e+01 -2.1227e+01 +/- 5.7209e+01 5.8263e+01 9.2310e+01 [bar]
 5.8377e+01 -2.1227e+01 -4.0120e+01 +/- 1.1404e+02 9.2310e+01 2.9950e+01 [bar]
Ideal-gas pressure:   4.836915e+02 +/ 4.860045e+00 [bar]
Excess pressure:     -4.795965e+02 +/ 2.253283e+01 [bar]
Pressure:             4.094947e+00 +/ 2.230767e+01 [bar]

Total potential energy/kʙ  -4.391300e+05 (-4.202444e+05 +/- 6.899598e+03) [K]
-------------------------------------------------------------------------------
ExternalField-molecule
    Van der Waals/kʙ        0.000000e+00 ( 0.000000e+00 +/- 0.000000e+00) [K]
Framework-molecule
    Van der Waals/kʙ        0.000000e+00 ( 0.000000e+00 +/- 0.000000e+00) [K]
    Van der Waals (Tail)/kʙ 0.000000e+00 ( 0.000000e+00 +/- 0.000000e+00) [K]
    Coulombic Real/kʙ       0.000000e+00 ( 0.000000e+00 +/- 0.000000e+00) [K]
    Coulombic Fourier/kʙ    0.000000e+00 ( 0.000000e+00 +/- 0.000000e+00) [K]
Molecule-molecule
    Van der Waals/kʙ       -3.090454e+05 (-2.989962e+05 +/- 4.013808e+03) [K]
    Van der Waals (Tail)/kʙ-7.338664e+03 (-7.144176e+03 +/- 7.415882e+01) [K]
    Coulombic Real/kʙ      -1.131231e+05 (-1.049634e+05 +/- 2.814666e+03) [K]
    Coulombic Fourier/kʙ   -9.622819e+03 (-9.140748e+03 +/- 2.000567e+02) [K]
    Molecule Intra/kʙ       0.000000e+00 ( 0.000000e+00 +/- 0.000000e+00) [K]

Current cycle: 5900 out of 6000
===============================================================================

Box:      24.69668   0.00000   0.00000  Average:  24.75416   0.00000   0.00000
           0.00000  24.69668   0.00000             0.00000  24.75416   0.00000
           0.00000   0.00000  24.69668             0.00000   0.00000  24.75416
Lengths:  24.69668  24.69668  24.69668  Average:  24.75416  24.75416  24.75416
Angles:   90.00000  90.00000  90.00000  Average:  90.00000  90.00000  90.00000
Rectangular boundary conditions

net charge:   0.00000000

component 0 (CO2) lambda:  0 occupancy:  0 (0.000000)
    net charge:   0.00000000 [e]

Amount of molecules per component :
-------------------------------------------------------------------------------
Component 0 (CO2)
    molecules:      2.370000e+02 molecules  (2.415558e+02 +/- 1.011613e+00)
    number density: 1.573377e-02 molec./A^3 (1.592661e-02 +/- 1.588258e-04)
    density:        1.149536e+03 kg/m^3     (1.163626e+03 +/- 1.160408e+01)

Average pressure tensor: 
-------------------------------------------------------------------------------
 3.9210e+01  8.2054e+00  5.7596e+01 +/- 8.7638e+01 5.9310e+01 1.0532e+02 [bar]
 8.2054e+00  1.4167e+01 -1.7915e+01 +/- 5.9310e+01 5.7479e+01 9.4466e+01 [bar]
 5.7596e+01 -1.7915e+01 -3.9550e+01 +/- 1.0532e+02 9.4466e+01 2.9718e+01 [bar]
Ideal-gas pressure:   4.837599e+02 +/ 4.824223e+00 [bar]
Excess pressure:     -4.791509e+02 +/ 2.161487e+01 [bar]
Pressure:             4.608985e+00 +/ 2.172316e+01 [bar]

Total potential energy/kʙ  -4.189895e+05 (-4.203778e+05 +/- 6.822580e+03) [K]
-------------------------------------------------------------------------------
ExternalField-molecule
    Van der Waals/kʙ        0.000000e+00 ( 0.000000e+00 +/- 0.000000e+00) [K]
Framework-molecule
    Van der Waals/kʙ        0.000000e+00 ( 0.000000e+00 +/- 0.000000e+00) [K]
    Van der Waals (Tail)/kʙ 0.000000e+00 ( 0.000000e+00 +/- 0.000000e+00) [K]
    Coulombic Real/kʙ       0.000000e+00 ( 0.000000e+00 +/- 0.000000e+00) [K]
    Coulombic Fourier/kʙ    0.000000e+00 ( 0.000000e+00 +/- 0.000000e+00) [K]
Molecule-molecule
    Van der Waals/kʙ       -2.976265e+05 (-2.990333e+05 +/- 3.893369e+03) [K]
    Van der Waals (Tail)/kʙ-6.924960e+03 (-7.144854e+03 +/- 7.172886e+01) [K]
    Coulombic Real/kʙ      -1.060856e+05 (-1.050591e+05 +/- 2.887538e+03) [K]
    Coulombic Fourier/kʙ   -8.352533e+03 (-9.140584e+03 +/- 1.923129e+02) [K]
    Molecule Intra/kʙ       0.000000e+00 ( 0.000000e+00 +/- 0.000000e+00) [K]


Energy statistics             |  Energy [K]   | Recomputed [K]|  Drift [K]    |
===============================================================================
Total potential energy/kʙ     | -4.290818e+05 | -4.290818e+05 |  5.994415e-10 |
    external field VDW/kʙ     |  0.000000e+00 |  0.000000e+00 |  0.000000e+00 |
    external field Real/kʙ    |  0.000000e+00 |  0.000000e+00 |  0.000000e+00 |
    framework-molecule VDW/kʙ |  0.000000e+00 |  0.000000e+00 |  0.000000e+00 |
    framework-molecule Real/kʙ|  0.000000e+00 |  0.000000e+00 |  0.000000e+00 |
    molecule-molecule VDW/kʙ  | -3.085533e+05 | -3.085533e+05 | -1.330148e-09 |
    molecule-molecule Real/kʙ | -1.040721e+05 | -1.040721e+05 |  3.500388e-10 |
    Van der Waals (Tail)/kʙ   | -7.289368e+03 | -7.289368e+03 | -1.006362e-10 |
    Ewald Fourier/kʙ          |  5.063970e+03 |  5.063970e+03 |  0.000000e+00 |
    Ewald self/kʙ             | -4.444761e+06 | -4.444761e+06 |  1.120124e-09 |
    Ewald exclusion/kʙ        |  4.430530e+06 |  4.430530e+06 |  5.600621e-10 |
    intra VDW/kʙ              |  0.000000e+00 |  0.000000e+00 |  0.000000e+00 |
    intra Coulombic/kʙ        |  0.000000e+00 |  0.000000e+00 |  0.000000e+00 |
    polarization/kʙ           |  0.000000e+00 |  0.000000e+00 |  0.000000e+00 |
    dU/dlambda VDW/kʙ         |  0.000000e+00 |  0.000000e+00 |  0.000000e+00 |
    dU/dlambda Real/kʙ        |  0.000000e+00 |  0.000000e+00 |  0.000000e+00 |
    dU/dlambda Ewald/kʙ       |  0.000000e+00 |  0.000000e+00 |  0.000000e+00 |
-------------------------------------------------------------------------------


Monte-Carlo moves statistics
===============================================================================

    Gibbs volume         all:                3012
    Gibbs volume         total:              5950
    Gibbs volume         constructed:        5950
    Gibbs volume         accepted:           2083
    Gibbs volume         fraction:       0.350084
    Gibbs volume         max-change:     0.032344

Component 0 [CO2]
    Reinsertion (CBMC)   all:              149105
    Reinsertion (CBMC)   total:            149105
    Reinsertion (CBMC)   constructed:      109481
    Reinsertion (CBMC)   accepted:            340
    Reinsertion (CBMC)   fraction:       0.002280
    Reinsertion (CBMC)   max-change:     0.000000

    Gibbs swap (CBMC)    all:              299344
    Gibbs swap (CBMC)    total:            597631
    Gibbs swap (CBMC)    constructed:      514976
    Gibbs swap (CBMC)    accepted:           8077
    Gibbs swap (CBMC)    fraction:       0.013515
    Gibbs swap (CBMC)    max-change:     0.000000

    Translation          all:              149489
    Translation          total:             49854      49789      49846
    Translation          constructed:       49854      49789      49726
    Translation          accepted:          23540      23969      15105
    Translation          fraction:       0.472179   0.481412   0.303033
    Translation          max-change:     0.581818   0.574478   0.645229

    Rotation             all:              149814
    Rotation             total:             49912      49794      50108
    Rotation             constructed:       49912      49794      50108
    Rotation             accepted:          28664      27193      26347
    Rotation             fraction:       0.574291   0.546110   0.525804
    Rotation             max-change:     0.531529   0.547622   0.567297



Production run counting of the MC moves summed over systems and components
===============================================================================

Reinsertion (CBMC)                   298749 (19.9166 [%])
Gibbs volume                           5950 (0.3967 [%])
Gibbs swap (CBMC)                    597631 (39.8421 [%])
Translation                          298771 (19.9181 [%])
Rotation                             298899 (19.9266 [%])

Production count MC-steps:          1500000 [-]
               All summed:          1500000 [-]
               difference:                0 [-]


Production run CPU timings of the MC moves
===============================================================================

Component 0 CO2

Rotation                             24.118047 [s]
    Ewald                             5.227878 [s]
    ExternalField-Molecule            0.007894 [s]
    Framework-Molecule                0.009002 [s]
    Molecule-Molecule                18.361490 [s]
    Overhead                          0.511783 [s]

Reinsertion (CBMC)                  110.940869 [s]
    Ewald                             3.945874 [s]
    NonEwald                        106.877069 [s]
    Overhead                          0.117926 [s]

Translation                          24.119120 [s]
    Ewald                             5.206374 [s]
    ExternalField-Molecule            0.008412 [s]
    Framework-Molecule                0.013673 [s]
    Molecule-Molecule                18.446862 [s]
    Overhead                          0.443799 [s]



Gibbs swap (CBMC)                   147.327712 [s]
    Ewald                            12.240831 [s]
    NonEwald                        133.818846 [s]
    Tail                              0.908916 [s]

Gibbs volume                         31.811620 [s]
    Ewald                             6.424072 [s]
    NonEwald                         24.027172 [s]
    Tail                              1.216071 [s]

Property sampling                     0.331584 [s]
Energy/pressure sampling:            11.286063 [s]


Production run CPU timings of the MC moves summed over systems and components
===============================================================================


Translation                          30.316962 [s]
    Ewald                            10.430344 [s]
    ExternalField-Molecule            0.016819 [s]
    Framework-Molecule                0.027240 [s]
    Molecule-Molecule                18.787569 [s]
    Overhead                          1.054990 [s]

Rotation                             30.293704 [s]
    Ewald                            10.438470 [s]
    ExternalField-Molecule            0.015957 [s]
    Framework-Molecule                0.018018 [s]
    Molecule-Molecule                18.698161 [s]
    Overhead                          1.123098 [s]

Reinsertion (CBMC)                  122.012684 [s]
    Ewald                             9.202990 [s]
    NonEwald                        112.177798 [s]
    Overhead                          0.631896 [s]

Gibbs volume                         62.787350 [s]
    Ewald                            12.695573 [s]
    NonEwald                         47.398280 [s]
    Tail                              2.410559 [s]
    Overhead                          0.282938 [s]

Gibbs swap (CBMC)                   331.463754 [s]
    Ewald                            29.067037 [s]
    NonEwald                        299.060366 [s]
    Tail                              2.548214 [s]
    Overhead                          0.788137 [s]

Property sampling:                    0.648526 [s]
Energy/pressure sampling:            11.469637 [s]

Production simulation time:         590.001232 [s]
                All summed:         588.992617 [s]
                  Overhead:           1.008615 [s]


Initalization simulation time:      191.171793 [s]
Equilibration simulation time:        0.000000 [s]
Production simulation time:         590.001232 [s]
Total simulation time:              781.173025 [s]


Energy averages and statistics:
===============================================================================

Framework-molecule energy:
-------------------------------------------------------------------------------



Framework-molecule energy contributions per energy type:
-------------------------------------------------------------------------------



Inter-molecular energy:
-------------------------------------------------------------------------------

    Inter-molecular energy/kʙ 0-0 [CO2-CO2]:
    ---------------------------------------------------------------------------
        Block[  0] -4.159677e+05
        Block[  1] -4.170938e+05
        Block[  2] -4.180642e+05
        Block[  3] -4.219752e+05
        Block[  4] -4.291310e+05
        -----------------------------------------------------------------------
        Average  -4.204464e+05 +/-  6.648884e+03 [K]



Inter-molecular energy contributions per energy type:
-------------------------------------------------------------------------------

    Van der Waals energy/kʙ 0-0 [CO2-CO2]:
    ---------------------------------------------------------------------------
        Block[  0] -2.965557e+05
        Block[  1] -2.965141e+05
        Block[  2] -2.978416e+05
        Block[  3] -3.008807e+05
        Block[  4] -3.035552e+05
        -----------------------------------------------------------------------
        Average  -2.990695e+05 +/-  3.814257e+03 [K]

    VDW Tail-Correction energy/kʙ 0-0 [CO2-CO2]:
    ---------------------------------------------------------------------------
        Block[  0] -7.092197e+03
        Block[  1] -7.101606e+03
        Block[  2] -7.133240e+03
        Block[  3] -7.169913e+03
        Block[  4] -7.228243e+03
        -----------------------------------------------------------------------
        Average  -7.145040e+03 +/-  6.900884e+01 [K]

    Coulomb Real energy/kʙ 0-0 [CO2-CO2]:
    ---------------------------------------------------------------------------
        Block[  0] -1.033985e+05
        Block[  1] -1.044090e+05
        Block[  2] -1.038858e+05
        Block[  3] -1.047320e+05
        Block[  4] -1.090536e+05
        -----------------------------------------------------------------------
        Average  -1.050958e+05 +/-  2.818220e+03 [K]

    Coulomb Fourier energy/kʙ 0-0 [CO2-CO2]:
    ---------------------------------------------------------------------------
        Block[  0] -8.921256e+03
        Block[  1] -9.069135e+03
        Block[  2] -9.203584e+03
        Block[  3] -9.192612e+03
        Block[  4] -9.294052e+03
        -----------------------------------------------------------------------
        Average  -9.136128e+03 +/-  1.791959e+02 [K]


Total energy/kʙ
-------------------------------------------------------------------------------
    Block[  0] -4.159677e+05
    Block[  1] -4.170938e+05
    Block[  2] -4.180642e+05
    Block[  3] -4.219752e+05
    Block[  4] -4.291310e+05
    ---------------------------------------------------------------------------
    Average  -4.204464e+05 +/-  6.648884e+03 [K]

Pressure averages and statistics:
===============================================================================

Average pressure tensor: 
-------------------------------------------------------------------------------
 3.7844e+01  4.8745e+00  6.1964e+01 +/- 8.8083e+01 5.5572e+01 1.1052e+02 [bar]
 4.8745e+00  1.0774e+01 -1.7635e+01 +/- 5.5572e+01 5.8472e+01 9.4130e+01 [bar]
 6.1964e+01 -1.7635e+01 -3.7800e+01 +/- 1.1052e+02 9.4130e+01 2.9739e+01 [bar]

    Block[  0]  4.817443e+07
    Block[  1]  4.793966e+07
    Block[  2]  4.822685e+07
    Block[  3]  4.872201e+07
    Block[  4]  4.886383e+07
    ---------------------------------------------------------------------------
    Ideal gas pressure   4.838536e+07 +/-  2.920847e-02 [Pa]
                         4.838536e+02 +/-  4.850184e+00 [bar]


    Block[  0] -4.542402e+07
    Block[  1] -4.994122e+07
    Block[  2] -4.738769e+07
    Block[  3] -4.777714e+07
    Block[  4] -4.959363e+07
    ---------------------------------------------------------------------------
    Excess pressure  -4.802474e+07 +/-  2.269300e+06 [Pa]
                     -4.802474e+02 +/-  2.269300e+01 [bar]


    Block[  0]  2.750403e+06
    Block[  1] -2.001557e+06
    Block[  2]  8.391621e+05
    Block[  3]  9.448635e+05
    Block[  4] -7.298000e+05
    ---------------------------------------------------------------------------
    Pressure average   3.606143e+05 +/-  2.242409e+06 [Pa]
                       3.606143e+00 +/-  2.242409e+01 [bar]


Enthalpy of adsorption
===============================================================================

Component 0 [CO2]
-------------------------------------------------------------------------------
    Block[  0] -2.878544e+03
    Block[  1] -3.309192e+03
    Block[  2] -3.617679e+03
    Block[  3] -3.219668e+03
    Block[  4] -1.913327e+03
    ---------------------------------------------------------------------------
    Enthalpy of adsorption: -2.987682e+03 +/-  8.141381e+02 [K]
                            -2.484098e+01 +/-  6.769122e+00 [kJ/mol]
    Warning: need to subtract the ideal-gas energy.


Densities
===============================================================================

Component 0 (CO2)
    Block[  0] 240.8216666666667
    Block[  1] 242.51500000000001
    Block[  2] 241.89416666666668
    Block[  3] 240.60500000000002
    Block[  4] 241.77333333333334
    -----------------------------------------------------------------------
    Density average   2.415218e+02 +/-  9.852026e-01 [molecules]
    Density average   1.592970e-02 +/-  1.596805e-04 [molec/A^3]
    Density average   1.163851e+03 +/-  1.166653e+01 [kg.m⁻³]

