Compiler and run-time data
===============================================================================
RASPA 3.0.4

Random seed: 2395326785

Compiled as a 64-bits application
Compiler: gcc Ubuntu Clang 18.1.3 (1ubuntu1)
Compile Date = Mar 15 2025, Compile Time = 19:39:45

2025-06-03 09:35:50.112263
Simulation started on Tue, Jun 03
The start time was 09:35:00

Hostname:    c060
OS type:     Linux on x86_64
OS release:  6.8.0-58-generic
OS version:  #60-Ubuntu SMP PREEMPT_DYNAMIC Fri Mar 14 18:29:48 UTC 2025


Mutual consistent basic set of units:
===============================================================================

Unit of temperature: 1 [K]
Unit of length:      1e-10 [m]
Unit of time:        1e-12 [s]
Unit of mass:        1.6605402e-27 [kg]
Unit of charge:      1.60217733e-19 [C/particle]


Boltzmann constant (internal units):          0.8314464919307584 [-]
represents conversion from energy (internal units) to temperature (in Kelvin)

Derived units and their conversion factors:
===============================================================================

Unit of energy:                           1.6605402000000002e-23 [J]
Unit of energy:                           10.000008872307538 [J.mol⁻¹]
Unit of velocity:                         100 [m.s⁻¹]
Unit of force:                            1.6605402000000002e-13 [N]
Unit of diffusion:                        1.0000000000000002e-08 [m².s⁻¹]
Unit of acceleration:                     1.0000000000000002e-08 [m².s⁻¹]
Unit of torque:                           1.6605402000000002e-23 [N.m]
Unit of pressure:                         16605402 [Pa]
Unit of volume:                           1e-30 [m³]
Unit of density:                          1660.5402 [kg.m⁻³]
Unit of dynamic viscosity:                1.6605401999999997e-05 [N.s.m⁻²]
Unit of enthalpy:                         1.6605402000000002e-23 [J]
Unit of polarizability:                   1.5458657349975198e-35 [-]
Unit of Coulomb potential:                167101.08000665612 [K]
Unit of dielectric constant:              1.5458657349975193e-05 [s².C².kg⁻¹.m⁻³]
Unit of dipole moment:                    1.60217733e-29 [C.m]
Unit of Debye:                            4.803206799099162 [C.m]
Unit of electric potential:               0.00010364272224473431 [V]
Unit of electric field:                   1036427.222447343 [V.m⁻¹]
Unit of isothermal compressibility:       6.02213665167516e-08 [Pa⁻¹]
Unit of heat capacity:                    10.000008872307538 [J.mol⁻¹.K⁻¹]
Unit of volumetric expansion coefficient: 1 [K⁻¹]


Internal conversion factors:
===============================================================================

Energy (internal units) to Kelvin:      1.202724284692786 [-]
Kelvin to energy (internal units):      0.8314457542157567 [-]


System definitions
===============================================================================

Temperature:          250 [K]
Beta:                 0.0048108928702210625 [-]
Pressure:             8e+06 [Pa]
Helium void fraction: 1 [-]

Box:      30.00000   0.00000   0.00000
           0.00000  30.00000   0.00000
           0.00000   0.00000  30.00000
Lengths:  30.00000  30.00000  30.00000
Angles:   90.00000  90.00000  90.00000
Rectangular boundary conditions



Property measurement settings
===============================================================================




Pseudo-atoms
===============================================================================

  0 - C_co2    framework-atom: false
  1 - O_co2    framework-atom: false

  0 - C_co2    mass: 12.00000, charge:  0.70000
  1 - O_co2    mass: 15.99940, charge: -0.35000

  0 - C_co2    polarizability:  0.00000
  1 - O_co2    polarizability:  0.00000

  0 - J. J. Potoff et al., AIChE J. 2001, 47, 1676–1682.
  1 - J. J. Potoff et al., AIChE J. 2001, 47, 1676–1682.

Force field status
===============================================================================

Cutoff Framework-Molecule VDW:  10.00000 [Å]
Cutoff Molecule-Molecule VDW:   10.00000 [Å]
Cutoff Coulomb:                 10.00000 [Å]

Overlap-criteria VDW:           1.000000e+05 [K]

C_co2    - C_co2    Lennard-Jones p₀/kʙ:  27.00000 [K], p₁:  2.80000 [Å]
                                  shift:   0.00000 [K], tailcorrections: true
C_co2    - O_co2    Lennard-Jones p₀/kʙ:  46.18441 [K], p₁:  2.92500 [Å]
                                  shift:   0.00000 [K], tailcorrections: true
O_co2    - O_co2    Lennard-Jones p₀/kʙ:  79.00000 [K], p₁:  3.05000 [Å]
                                  shift:   0.00000 [K], tailcorrections: true

Ewald precision: 1e-06
Ewald alpha: 0.32079885109097883
Ewald k-vectors: 10 10 10


Component definitions
===============================================================================

Component 0 [CO2]

    Type: Adsorbate

    Critical temperature:  304.1282 [K]
    Critical pressure:     7377300 [Pa]
    Acentric factor:       0.22394 [-]

    Mol-fraction:                 1 [-]
    Swappable:                   false

    Mass:                         43.9988 [-]
    Bulk fluid density:           0 [-]
    Compressibility:              0 [-]
    Excess molecules:             0 [-]

    Number Of Atoms:    3
    CBMC starting bead: 0
      0: O_co2  position  0.00000 -0.00000  1.16000, charge -0.35000
      1: C_co2  position  0.00000 -0.00000  0.00000, charge  0.70000
      2: O_co2  position  0.00000 -0.00000 -1.16000, charge -0.35000
    Diagonalized inertia-vector:      43.05758528 43.05758528 0.00000000
    Translational degrees of freedom: 3
    Rotational degrees of freedom:    2
    Shape of the molecule is: 'Linear'
    Net-charge:        0.00000000 [e]

    Move probabilities:
    Translation:                   0.331126 [-]
    Random translation:            0.000000 [-]
    Rotation:                      0.331126 [-]
    Random rotation:               0.000000 [-]
    Volume change:                 0.006623 [-]
    Reinsertion (CBMC):            0.331126 [-]
    Identity change (CBMC):        0.000000 [-]
    Swap:                          0.000000 [-]
    Swap (CBMC):                   0.000000 [-]
    Swap (CFCMC):                  0.000000 [-]
    Swap (CB/CFCMC):               0.000000 [-]
    Gibbs volume:                  0.000000 [-]
    Gibbs swap (CBMC):             0.000000 [-]
    Gibbs swap (CFCMC):            0.000000 [-]
    Widom:                         0.000000 [-]
    Widom (CFCMC):                 0.000000 [-]
    Widom (CB/CFCMC):              0.000000 [-]
    Parallel tempering:            0.000000 [-]
    Hybrid MC:                     0.000000 [-]

    number of blocking-pockets: 0

    number of bonds: 0





Number of pseudo-atoms
===============================================================================

Component   0 (CO2)
-------------------------------------------------------------------------------
    index   0 (C_co2): 150 atoms
    index   1 (O_co2): 300 atoms

Total number of pseudo-atoms:
-------------------------------------------------------------------------------
    index   0 (C_co2): 150 atoms
    index   1 (O_co2): 300 atoms




Energy status Recomputed from scratch
===============================================================================

Total potential energy/kʙ       -4.667017e+04 [K]
    external field VDW/kʙ        0.000000e+00 [K]
    external field Real/kʙ       0.000000e+00 [K]
    framework-molecule VDW/kʙ    0.000000e+00 [K]
    framework-molecule Real/kʙ   0.000000e+00 [K]
    molecule-molecule VDW/kʙ    -3.201442e+04 [K]
    molecule-molecule Real/kʙ   -1.032970e+04 [K]
    Van der Waals (Tail)/kʙ     -2.673791e+03 [K]
    Ewald Fourier/kʙ             2.014403e+04 [K]
    Ewald self/kʙ               -3.334385e+06 [K]
    Ewald exclusion/kʙ           3.312589e+06 [K]
    intra VDW/kʙ                 0.000000e+00 [K]
    intra Coulombic/kʙ           0.000000e+00 [K]
    polarization/kʙ              0.000000e+00 [K]
    dU/dlambda VDW/kʙ            0.000000e+00 [K]
    dU/dlambda Real/kʙ           0.000000e+00 [K]
    dU/dlambda Ewald/kʙ          0.000000e+00 [K]





Initialization: Current cycle: 0 out of 1000
===============================================================================

Box:      30.00000   0.00000   0.00000
           0.00000  30.00000   0.00000
           0.00000   0.00000  30.00000
Lengths:  30.00000  30.00000  30.00000
Angles:   90.00000  90.00000  90.00000
Rectangular boundary conditions

net charge:   0.00000000

component   0 (CO2) lambda:  0 occupancy:  1 (1.000000)
    net charge:   0.00000000 [e]

Amount of molecules per component :
-------------------------------------------------------------------------------
Component 0 (CO2)
    molecules:         1.500000e+02 molecules
    number density:    5.555556e-03 molec/A^3
    density:           4.058984e+02 kg/m^3

Total potential energy/kʙ       -8.247700e+04 [K]
-------------------------------------------------------------------------------
    external field VDW/kʙ        0.000000e+00 [K]
    external field Real/kʙ       0.000000e+00 [K]
    framework-molecule VDW/kʙ    0.000000e+00 [K]
    framework-molecule Real/kʙ   0.000000e+00 [K]
    molecule-molecule VDW/kʙ    -6.228946e+04 [K]
    molecule-molecule Real/kʙ   -1.354745e+04 [K]
    Van der Waals (Tail)/kʙ     -2.673791e+03 [K]
    Ewald Fourier/kʙ             1.782997e+04 [K]
    Ewald self/kʙ               -3.334385e+06 [K]
    Ewald exclusion/kʙ           3.312589e+06 [K]
    intra VDW/kʙ                 0.000000e+00 [K]
    intra Coulombic/kʙ           0.000000e+00 [K]
    polarization/kʙ              0.000000e+00 [K]
    dU/dlambda VDW/kʙ            0.000000e+00 [K]
    dU/dlambda Real/kʙ           0.000000e+00 [K]
    dU/dlambda Ewald/kʙ          0.000000e+00 [K]


Initialization: Current cycle: 100 out of 1000
===============================================================================

Box:      26.74577   0.00000   0.00000
           0.00000  26.74577   0.00000
           0.00000   0.00000  26.74577
Lengths:  26.74577  26.74577  26.74577
Angles:   90.00000  90.00000  90.00000
Rectangular boundary conditions

net charge:   0.00000000

component   0 (CO2) lambda:  0 occupancy:  1 (1.000000)
    net charge:   0.00000000 [e]

Amount of molecules per component :
-------------------------------------------------------------------------------
Component 0 (CO2)
    molecules:         1.500000e+02 molecules
    number density:    7.840181e-03 molec/A^3
    density:           5.728170e+02 kg/m^3

Total potential energy/kʙ       -1.342800e+05 [K]
-------------------------------------------------------------------------------
    external field VDW/kʙ        0.000000e+00 [K]
    external field Real/kʙ       0.000000e+00 [K]
    framework-molecule VDW/kʙ    0.000000e+00 [K]
    framework-molecule Real/kʙ   0.000000e+00 [K]
    molecule-molecule VDW/kʙ    -9.644742e+04 [K]
    molecule-molecule Real/kʙ   -2.577694e+04 [K]
    Van der Waals (Tail)/kʙ     -3.773341e+03 [K]
    Ewald Fourier/kʙ             1.351397e+04 [K]
    Ewald self/kʙ               -3.334385e+06 [K]
    Ewald exclusion/kʙ           3.312589e+06 [K]
    intra VDW/kʙ                 0.000000e+00 [K]
    intra Coulombic/kʙ           0.000000e+00 [K]
    polarization/kʙ              0.000000e+00 [K]
    dU/dlambda VDW/kʙ            0.000000e+00 [K]
    dU/dlambda Real/kʙ           0.000000e+00 [K]
    dU/dlambda Ewald/kʙ          0.000000e+00 [K]


Initialization: Current cycle: 200 out of 1000
===============================================================================

Box:      25.86247   0.00000   0.00000
           0.00000  25.86247   0.00000
           0.00000   0.00000  25.86247
Lengths:  25.86247  25.86247  25.86247
Angles:   90.00000  90.00000  90.00000
Rectangular boundary conditions

net charge:   0.00000000

component   0 (CO2) lambda:  0 occupancy:  1 (1.000000)
    net charge:   0.00000000 [e]

Amount of molecules per component :
-------------------------------------------------------------------------------
Component 0 (CO2)
    molecules:         1.500000e+02 molecules
    number density:    8.671241e-03 molec/A^3
    density:           6.335357e+02 kg/m^3

Total potential energy/kʙ       -1.419489e+05 [K]
-------------------------------------------------------------------------------
    external field VDW/kʙ        0.000000e+00 [K]
    external field Real/kʙ       0.000000e+00 [K]
    framework-molecule VDW/kʙ    0.000000e+00 [K]
    framework-molecule Real/kʙ   0.000000e+00 [K]
    molecule-molecule VDW/kʙ    -1.021122e+05 [K]
    molecule-molecule Real/kʙ   -2.823549e+04 [K]
    Van der Waals (Tail)/kʙ     -4.173315e+03 [K]
    Ewald Fourier/kʙ             1.436829e+04 [K]
    Ewald self/kʙ               -3.334385e+06 [K]
    Ewald exclusion/kʙ           3.312589e+06 [K]
    intra VDW/kʙ                 0.000000e+00 [K]
    intra Coulombic/kʙ           0.000000e+00 [K]
    polarization/kʙ              0.000000e+00 [K]
    dU/dlambda VDW/kʙ            0.000000e+00 [K]
    dU/dlambda Real/kʙ           0.000000e+00 [K]
    dU/dlambda Ewald/kʙ          0.000000e+00 [K]


Initialization: Current cycle: 300 out of 1000
===============================================================================

Box:      24.36351   0.00000   0.00000
           0.00000  24.36351   0.00000
           0.00000   0.00000  24.36351
Lengths:  24.36351  24.36351  24.36351
Angles:   90.00000  90.00000  90.00000
Rectangular boundary conditions

net charge:   0.00000000

component   0 (CO2) lambda:  0 occupancy:  1 (1.000000)
    net charge:   0.00000000 [e]

Amount of molecules per component :
-------------------------------------------------------------------------------
Component 0 (CO2)
    molecules:         1.500000e+02 molecules
    number density:    1.037222e-02 molec/A^3
    density:           7.578125e+02 kg/m^3

Total potential energy/kʙ       -1.749887e+05 [K]
-------------------------------------------------------------------------------
    external field VDW/kʙ        0.000000e+00 [K]
    external field Real/kʙ       0.000000e+00 [K]
    framework-molecule VDW/kʙ    0.000000e+00 [K]
    framework-molecule Real/kʙ   0.000000e+00 [K]
    molecule-molecule VDW/kʙ    -1.246412e+05 [K]
    molecule-molecule Real/kʙ   -3.664230e+04 [K]
    Van der Waals (Tail)/kʙ     -4.991969e+03 [K]
    Ewald Fourier/kʙ             1.308308e+04 [K]
    Ewald self/kʙ               -3.334385e+06 [K]
    Ewald exclusion/kʙ           3.312589e+06 [K]
    intra VDW/kʙ                 0.000000e+00 [K]
    intra Coulombic/kʙ           0.000000e+00 [K]
    polarization/kʙ              0.000000e+00 [K]
    dU/dlambda VDW/kʙ            0.000000e+00 [K]
    dU/dlambda Real/kʙ           0.000000e+00 [K]
    dU/dlambda Ewald/kʙ          0.000000e+00 [K]


Initialization: Current cycle: 400 out of 1000
===============================================================================

Box:      23.45838   0.00000   0.00000
           0.00000  23.45838   0.00000
           0.00000   0.00000  23.45838
Lengths:  23.45838  23.45838  23.45838
Angles:   90.00000  90.00000  90.00000
Rectangular boundary conditions

net charge:   0.00000000

component   0 (CO2) lambda:  0 occupancy:  1 (1.000000)
    net charge:   0.00000000 [e]

Amount of molecules per component :
-------------------------------------------------------------------------------
Component 0 (CO2)
    molecules:         1.500000e+02 molecules
    number density:    1.161976e-02 molec/A^3
    density:           8.489595e+02 kg/m^3

Total potential energy/kʙ       -1.854022e+05 [K]
-------------------------------------------------------------------------------
    external field VDW/kʙ        0.000000e+00 [K]
    external field Real/kʙ       0.000000e+00 [K]
    framework-molecule VDW/kʙ    0.000000e+00 [K]
    framework-molecule Real/kʙ   0.000000e+00 [K]
    molecule-molecule VDW/kʙ    -1.352169e+05 [K]
    molecule-molecule Real/kʙ   -3.589070e+04 [K]
    Van der Waals (Tail)/kʙ     -5.592385e+03 [K]
    Ewald Fourier/kʙ             1.309406e+04 [K]
    Ewald self/kʙ               -3.334385e+06 [K]
    Ewald exclusion/kʙ           3.312589e+06 [K]
    intra VDW/kʙ                 0.000000e+00 [K]
    intra Coulombic/kʙ           0.000000e+00 [K]
    polarization/kʙ              0.000000e+00 [K]
    dU/dlambda VDW/kʙ            0.000000e+00 [K]
    dU/dlambda Real/kʙ           0.000000e+00 [K]
    dU/dlambda Ewald/kʙ          0.000000e+00 [K]


Initialization: Current cycle: 500 out of 1000
===============================================================================

Box:      22.55537   0.00000   0.00000
           0.00000  22.55537   0.00000
           0.00000   0.00000  22.55537
Lengths:  22.55537  22.55537  22.55537
Angles:   90.00000  90.00000  90.00000
Rectangular boundary conditions

net charge:   0.00000000

component   0 (CO2) lambda:  0 occupancy:  1 (1.000000)
    net charge:   0.00000000 [e]

Amount of molecules per component :
-------------------------------------------------------------------------------
Component 0 (CO2)
    molecules:         1.500000e+02 molecules
    number density:    1.307198e-02 molec/A^3
    density:           9.550615e+02 kg/m^3

Total potential energy/kʙ       -2.104582e+05 [K]
-------------------------------------------------------------------------------
    external field VDW/kʙ        0.000000e+00 [K]
    external field Real/kʙ       0.000000e+00 [K]
    framework-molecule VDW/kʙ    0.000000e+00 [K]
    framework-molecule Real/kʙ   0.000000e+00 [K]
    molecule-molecule VDW/kʙ    -1.487759e+05 [K]
    molecule-molecule Real/kʙ   -4.445092e+04 [K]
    Van der Waals (Tail)/kʙ     -6.291315e+03 [K]
    Ewald Fourier/kʙ             1.085627e+04 [K]
    Ewald self/kʙ               -3.334385e+06 [K]
    Ewald exclusion/kʙ           3.312589e+06 [K]
    intra VDW/kʙ                 0.000000e+00 [K]
    intra Coulombic/kʙ           0.000000e+00 [K]
    polarization/kʙ              0.000000e+00 [K]
    dU/dlambda VDW/kʙ            0.000000e+00 [K]
    dU/dlambda Real/kʙ           0.000000e+00 [K]
    dU/dlambda Ewald/kʙ          0.000000e+00 [K]


Initialization: Current cycle: 600 out of 1000
===============================================================================

Box:      22.13427   0.00000   0.00000
           0.00000  22.13427   0.00000
           0.00000   0.00000  22.13427
Lengths:  22.13427  22.13427  22.13427
Angles:   90.00000  90.00000  90.00000
Rectangular boundary conditions

net charge:   0.00000000

component   0 (CO2) lambda:  0 occupancy:  1 (1.000000)
    net charge:   0.00000000 [e]

Amount of molecules per component :
-------------------------------------------------------------------------------
Component 0 (CO2)
    molecules:         1.500000e+02 molecules
    number density:    1.383234e-02 molec/A^3
    density:           1.010614e+03 kg/m^3

Total potential energy/kʙ       -2.092180e+05 [K]
-------------------------------------------------------------------------------
    external field VDW/kʙ        0.000000e+00 [K]
    external field Real/kʙ       0.000000e+00 [K]
    framework-molecule VDW/kʙ    0.000000e+00 [K]
    framework-molecule Real/kʙ   0.000000e+00 [K]
    molecule-molecule VDW/kʙ    -1.482360e+05 [K]
    molecule-molecule Real/kʙ   -4.438979e+04 [K]
    Van der Waals (Tail)/kʙ     -6.657260e+03 [K]
    Ewald Fourier/kʙ             1.186128e+04 [K]
    Ewald self/kʙ               -3.334385e+06 [K]
    Ewald exclusion/kʙ           3.312589e+06 [K]
    intra VDW/kʙ                 0.000000e+00 [K]
    intra Coulombic/kʙ           0.000000e+00 [K]
    polarization/kʙ              0.000000e+00 [K]
    dU/dlambda VDW/kʙ            0.000000e+00 [K]
    dU/dlambda Real/kʙ           0.000000e+00 [K]
    dU/dlambda Ewald/kʙ          0.000000e+00 [K]


Initialization: Current cycle: 700 out of 1000
===============================================================================

Box:      22.42868   0.00000   0.00000
           0.00000  22.42868   0.00000
           0.00000   0.00000  22.42868
Lengths:  22.42868  22.42868  22.42868
Angles:   90.00000  90.00000  90.00000
Rectangular boundary conditions

net charge:   0.00000000

component   0 (CO2) lambda:  0 occupancy:  1 (1.000000)
    net charge:   0.00000000 [e]

Amount of molecules per component :
-------------------------------------------------------------------------------
Component 0 (CO2)
    molecules:         1.500000e+02 molecules
    number density:    1.329474e-02 molec/A^3
    density:           9.713367e+02 kg/m^3

Total potential energy/kʙ       -2.230502e+05 [K]
-------------------------------------------------------------------------------
    external field VDW/kʙ        0.000000e+00 [K]
    external field Real/kʙ       0.000000e+00 [K]
    framework-molecule VDW/kʙ    0.000000e+00 [K]
    framework-molecule Real/kʙ   0.000000e+00 [K]
    molecule-molecule VDW/kʙ    -1.548903e+05 [K]
    molecule-molecule Real/kʙ   -5.014837e+04 [K]
    Van der Waals (Tail)/kʙ     -6.398526e+03 [K]
    Ewald Fourier/kʙ             1.018327e+04 [K]
    Ewald self/kʙ               -3.334385e+06 [K]
    Ewald exclusion/kʙ           3.312589e+06 [K]
    intra VDW/kʙ                 0.000000e+00 [K]
    intra Coulombic/kʙ           0.000000e+00 [K]
    polarization/kʙ              0.000000e+00 [K]
    dU/dlambda VDW/kʙ            0.000000e+00 [K]
    dU/dlambda Real/kʙ           0.000000e+00 [K]
    dU/dlambda Ewald/kʙ          0.000000e+00 [K]


Initialization: Current cycle: 800 out of 1000
===============================================================================

Box:      21.90579   0.00000   0.00000
           0.00000  21.90579   0.00000
           0.00000   0.00000  21.90579
Lengths:  21.90579  21.90579  21.90579
Angles:   90.00000  90.00000  90.00000
Rectangular boundary conditions

net charge:   0.00000000

component   0 (CO2) lambda:  0 occupancy:  1 (1.000000)
    net charge:   0.00000000 [e]

Amount of molecules per component :
-------------------------------------------------------------------------------
Component 0 (CO2)
    molecules:         1.500000e+02 molecules
    number density:    1.426969e-02 molec/A^3
    density:           1.042568e+03 kg/m^3

Total potential energy/kʙ       -2.247467e+05 [K]
-------------------------------------------------------------------------------
    external field VDW/kʙ        0.000000e+00 [K]
    external field Real/kʙ       0.000000e+00 [K]
    framework-molecule VDW/kʙ    0.000000e+00 [K]
    framework-molecule Real/kʙ   0.000000e+00 [K]
    molecule-molecule VDW/kʙ    -1.596603e+05 [K]
    molecule-molecule Real/kʙ   -4.669807e+04 [K]
    Van der Waals (Tail)/kʙ     -6.867752e+03 [K]
    Ewald Fourier/kʙ             1.027570e+04 [K]
    Ewald self/kʙ               -3.334385e+06 [K]
    Ewald exclusion/kʙ           3.312589e+06 [K]
    intra VDW/kʙ                 0.000000e+00 [K]
    intra Coulombic/kʙ           0.000000e+00 [K]
    polarization/kʙ              0.000000e+00 [K]
    dU/dlambda VDW/kʙ            0.000000e+00 [K]
    dU/dlambda Real/kʙ           0.000000e+00 [K]
    dU/dlambda Ewald/kʙ          0.000000e+00 [K]


Initialization: Current cycle: 900 out of 1000
===============================================================================

Box:      22.02256   0.00000   0.00000
           0.00000  22.02256   0.00000
           0.00000   0.00000  22.02256
Lengths:  22.02256  22.02256  22.02256
Angles:   90.00000  90.00000  90.00000
Rectangular boundary conditions

net charge:   0.00000000

component   0 (CO2) lambda:  0 occupancy:  1 (1.000000)
    net charge:   0.00000000 [e]

Amount of molecules per component :
-------------------------------------------------------------------------------
Component 0 (CO2)
    molecules:         1.500000e+02 molecules
    number density:    1.404390e-02 molec/A^3
    density:           1.026072e+03 kg/m^3

Total potential energy/kʙ       -2.206532e+05 [K]
-------------------------------------------------------------------------------
    external field VDW/kʙ        0.000000e+00 [K]
    external field Real/kʙ       0.000000e+00 [K]
    framework-molecule VDW/kʙ    0.000000e+00 [K]
    framework-molecule Real/kʙ   0.000000e+00 [K]
    molecule-molecule VDW/kʙ    -1.558784e+05 [K]
    molecule-molecule Real/kʙ   -4.597026e+04 [K]
    Van der Waals (Tail)/kʙ     -6.759084e+03 [K]
    Ewald Fourier/kʙ             9.750810e+03 [K]
    Ewald self/kʙ               -3.334385e+06 [K]
    Ewald exclusion/kʙ           3.312589e+06 [K]
    intra VDW/kʙ                 0.000000e+00 [K]
    intra Coulombic/kʙ           0.000000e+00 [K]
    polarization/kʙ              0.000000e+00 [K]
    dU/dlambda VDW/kʙ            0.000000e+00 [K]
    dU/dlambda Real/kʙ           0.000000e+00 [K]
    dU/dlambda Ewald/kʙ          0.000000e+00 [K]


Current cycle: 0 out of 5000
===============================================================================

Box:      21.77241   0.00000   0.00000  Average:  21.77241   0.00000   0.00000
           0.00000  21.77241   0.00000             0.00000  21.77241   0.00000
           0.00000   0.00000  21.77241             0.00000   0.00000  21.77241
Lengths:  21.77241  21.77241  21.77241  Average:  21.77241  21.77241  21.77241
Angles:   90.00000  90.00000  90.00000  Average:  90.00000  90.00000  90.00000
Rectangular boundary conditions

net charge:   0.00000000

component 0 (CO2) lambda:  0 occupancy:  1 (1.000000)
    net charge:   0.00000000 [e]

Amount of molecules per component :
-------------------------------------------------------------------------------
Component 0 (CO2)
    molecules:      1.500000e+02 molecules  (1.500000e+02 +/- 0.000000e+00)
    number density: 1.453356e-02 molec./A^3 (1.453356e-02 +/- 0.000000e+00)
    density:        1.061847e+03 kg/m^3     (1.061847e+03 +/- 0.000000e+00)

Average pressure tensor: 
-------------------------------------------------------------------------------
 5.0164e+02  0.0000e+00  0.0000e+00 +/- 0.0000e+00 0.0000e+00 0.0000e+00 [bar]
 0.0000e+00  5.0164e+02  0.0000e+00 +/- 0.0000e+00 0.0000e+00 0.0000e+00 [bar]
 0.0000e+00  0.0000e+00  5.0164e+02 +/- 0.0000e+00 0.0000e+00 0.0000e+00 [bar]
Ideal-gas pressure:   5.016441e+02 +/ 0.000000e+00 [bar]
Excess pressure:      0.000000e+00 +/ 0.000000e+00 [bar]
Pressure:             5.016441e+02 +/ 0.000000e+00 [bar]

Total potential energy/kʙ  -2.318045e+05 (-2.318045e+05 +/- 0.000000e+00) [K]
-------------------------------------------------------------------------------
ExternalField-molecule
    Van der Waals/kʙ        0.000000e+00 ( 0.000000e+00 +/- 0.000000e+00) [K]
Framework-molecule
    Van der Waals/kʙ        0.000000e+00 ( 0.000000e+00 +/- 0.000000e+00) [K]
    Van der Waals (Tail)/kʙ 0.000000e+00 ( 0.000000e+00 +/- 0.000000e+00) [K]
    Coulombic Real/kʙ       0.000000e+00 ( 0.000000e+00 +/- 0.000000e+00) [K]
    Coulombic Fourier/kʙ    0.000000e+00 ( 0.000000e+00 +/- 0.000000e+00) [K]
Molecule-molecule
    Van der Waals/kʙ       -1.640747e+05 (-1.640747e+05 +/- 0.000000e+00) [K]
    Van der Waals (Tail)/kʙ-6.994746e+03 (-6.994746e+03 +/- 0.000000e+00) [K]
    Coulombic Real/kʙ      -4.906342e+04 (-4.906342e+04 +/- 0.000000e+00) [K]
    Coulombic Fourier/kʙ   -1.167161e+04 (-1.167161e+04 +/- 0.000000e+00) [K]
    Molecule Intra/kʙ       0.000000e+00 ( 0.000000e+00 +/- 0.000000e+00) [K]

Current cycle: 100 out of 5000
===============================================================================

Box:      21.99725   0.00000   0.00000  Average:  21.88995   0.00000   0.00000
           0.00000  21.99725   0.00000             0.00000  21.88995   0.00000
           0.00000   0.00000  21.99725             0.00000   0.00000  21.88995
Lengths:  21.99725  21.99725  21.99725  Average:  21.88995  21.88995  21.88995
Angles:   90.00000  90.00000  90.00000  Average:  90.00000  90.00000  90.00000
Rectangular boundary conditions

net charge:   0.00000000

component 0 (CO2) lambda:  0 occupancy:  1 (1.000000)
    net charge:   0.00000000 [e]

Amount of molecules per component :
-------------------------------------------------------------------------------
Component 0 (CO2)
    molecules:      1.500000e+02 molecules  (1.500000e+02 +/- 0.000000e+00)
    number density: 1.409243e-02 molec./A^3 (1.430329e-02 +/- 0.000000e+00)
    density:        1.029617e+03 kg/m^3     (1.045023e+03 +/- 0.000000e+00)

Average pressure tensor: 
-------------------------------------------------------------------------------
-1.6159e+02 -2.3886e+02 -1.7822e+02 +/- 0.0000e+00 0.0000e+00 0.0000e+00 [bar]
-2.3886e+02  3.0835e+02  1.0987e+01 +/- 0.0000e+00 0.0000e+00 0.0000e+00 [bar]
-1.7822e+02  1.0987e+01 -1.6342e+02 +/- 0.0000e+00 0.0000e+00 0.0000e+00 [bar]
Ideal-gas pressure:   4.936960e+02 +/ 0.000000e+00 [bar]
Excess pressure:     -4.992494e+02 +/ 0.000000e+00 [bar]
Pressure:            -5.553413e+00 +/ 0.000000e+00 [bar]

Total potential energy/kʙ  -2.298878e+05 (-2.282560e+05 +/- 0.000000e+00) [K]
-------------------------------------------------------------------------------
ExternalField-molecule
    Van der Waals/kʙ        0.000000e+00 ( 0.000000e+00 +/- 0.000000e+00) [K]
Framework-molecule
    Van der Waals/kʙ        0.000000e+00 ( 0.000000e+00 +/- 0.000000e+00) [K]
    Van der Waals (Tail)/kʙ 0.000000e+00 ( 0.000000e+00 +/- 0.000000e+00) [K]
    Coulombic Real/kʙ       0.000000e+00 ( 0.000000e+00 +/- 0.000000e+00) [K]
    Coulombic Fourier/kʙ    0.000000e+00 ( 0.000000e+00 +/- 0.000000e+00) [K]
Molecule-molecule
    Van der Waals/kʙ       -1.636651e+05 (-1.607761e+05 +/- 0.000000e+00) [K]
    Van der Waals (Tail)/kʙ-6.782439e+03 (-6.866829e+03 +/- 0.000000e+00) [K]
    Coulombic Real/kʙ      -4.685350e+04 (-4.877428e+04 +/- 0.000000e+00) [K]
    Coulombic Fourier/kʙ   -1.258681e+04 (-1.183878e+04 +/- 0.000000e+00) [K]
    Molecule Intra/kʙ       0.000000e+00 ( 0.000000e+00 +/- 0.000000e+00) [K]

Current cycle: 200 out of 5000
===============================================================================

Box:      22.03438   0.00000   0.00000  Average:  21.97369   0.00000   0.00000
           0.00000  22.03438   0.00000             0.00000  21.97369   0.00000
           0.00000   0.00000  22.03438             0.00000   0.00000  21.97369
Lengths:  22.03438  22.03438  22.03438  Average:  21.97369  21.97369  21.97369
Angles:   90.00000  90.00000  90.00000  Average:  90.00000  90.00000  90.00000
Rectangular boundary conditions

net charge:   0.00000000

component 0 (CO2) lambda:  0 occupancy:  1 (1.000000)
    net charge:   0.00000000 [e]

Amount of molecules per component :
-------------------------------------------------------------------------------
Component 0 (CO2)
    molecules:      1.500000e+02 molecules  (1.500000e+02 +/- 0.000000e+00)
    number density: 1.402131e-02 molec./A^3 (1.414192e-02 +/- 0.000000e+00)
    density:        1.024421e+03 kg/m^3     (1.033233e+03 +/- 0.000000e+00)

Average pressure tensor: 
-------------------------------------------------------------------------------
-5.6264e+01 -1.0392e+02 -8.3900e+01 +/- 0.0000e+00 0.0000e+00 0.0000e+00 [bar]
-1.0392e+02  3.3961e+02  1.4762e+01 +/- 0.0000e+00 0.0000e+00 0.0000e+00 [bar]
-8.3900e+01  1.4762e+01 -4.6181e+00 +/- 0.0000e+00 0.0000e+00 0.0000e+00 [bar]
Ideal-gas pressure:   4.881262e+02 +/ 0.000000e+00 [bar]
Excess pressure:     -3.952172e+02 +/ 0.000000e+00 [bar]
Pressure:             9.290895e+01 +/ 0.000000e+00 [bar]

Total potential energy/kʙ  -2.192507e+05 (-2.249336e+05 +/- 0.000000e+00) [K]
-------------------------------------------------------------------------------
ExternalField-molecule
    Van der Waals/kʙ        0.000000e+00 ( 0.000000e+00 +/- 0.000000e+00) [K]
Framework-molecule
    Van der Waals/kʙ        0.000000e+00 ( 0.000000e+00 +/- 0.000000e+00) [K]
    Van der Waals (Tail)/kʙ 0.000000e+00 ( 0.000000e+00 +/- 0.000000e+00) [K]
    Coulombic Real/kʙ       0.000000e+00 ( 0.000000e+00 +/- 0.000000e+00) [K]
    Coulombic Fourier/kʙ    0.000000e+00 ( 0.000000e+00 +/- 0.000000e+00) [K]
Molecule-molecule
    Van der Waals/kʙ       -1.574940e+05 (-1.588830e+05 +/- 0.000000e+00) [K]
    Van der Waals (Tail)/kʙ-6.748211e+03 (-6.810109e+03 +/- 0.000000e+00) [K]
    Coulombic Real/kʙ      -4.405683e+04 (-4.753731e+04 +/- 0.000000e+00) [K]
    Coulombic Fourier/kʙ   -1.095165e+04 (-1.170315e+04 +/- 0.000000e+00) [K]
    Molecule Intra/kʙ       0.000000e+00 ( 0.000000e+00 +/- 0.000000e+00) [K]

Current cycle: 300 out of 5000
===============================================================================

Box:      21.93911   0.00000   0.00000  Average:  21.94572   0.00000   0.00000
           0.00000  21.93911   0.00000             0.00000  21.94572   0.00000
           0.00000   0.00000  21.93911             0.00000   0.00000  21.94572
Lengths:  21.93911  21.93911  21.93911  Average:  21.94572  21.94572  21.94572
Angles:   90.00000  90.00000  90.00000  Average:  90.00000  90.00000  90.00000
Rectangular boundary conditions

net charge:   0.00000000

component 0 (CO2) lambda:  0 occupancy:  1 (1.000000)
    net charge:   0.00000000 [e]

Amount of molecules per component :
-------------------------------------------------------------------------------
Component 0 (CO2)
    molecules:      1.500000e+02 molecules  (1.500000e+02 +/- 0.000000e+00)
    number density: 1.420478e-02 molec./A^3 (1.419619e-02 +/- 0.000000e+00)
    density:        1.037825e+03 kg/m^3     (1.037198e+03 +/- 0.000000e+00)

Average pressure tensor: 
-------------------------------------------------------------------------------
-6.4463e+01 -8.2648e+01 -1.4681e+01 +/- 0.0000e+00 0.0000e+00 0.0000e+00 [bar]
-8.2648e+01  2.5486e+02  1.9988e+00 +/- 0.0000e+00 0.0000e+00 0.0000e+00 [bar]
-1.4681e+01  1.9988e+00  6.5499e+00 +/- 0.0000e+00 0.0000e+00 0.0000e+00 [bar]
Ideal-gas pressure:   4.899994e+02 +/ 0.000000e+00 [bar]
Excess pressure:     -4.243514e+02 +/ 0.000000e+00 [bar]
Pressure:             6.564795e+01 +/ 0.000000e+00 [bar]

Total potential energy/kʙ  -2.286696e+05 (-2.253023e+05 +/- 0.000000e+00) [K]
-------------------------------------------------------------------------------
ExternalField-molecule
    Van der Waals/kʙ        0.000000e+00 ( 0.000000e+00 +/- 0.000000e+00) [K]
Framework-molecule
    Van der Waals/kʙ        0.000000e+00 ( 0.000000e+00 +/- 0.000000e+00) [K]
    Van der Waals (Tail)/kʙ 0.000000e+00 ( 0.000000e+00 +/- 0.000000e+00) [K]
    Coulombic Real/kʙ       0.000000e+00 ( 0.000000e+00 +/- 0.000000e+00) [K]
    Coulombic Fourier/kʙ    0.000000e+00 ( 0.000000e+00 +/- 0.000000e+00) [K]
Molecule-molecule
    Van der Waals/kʙ       -1.611361e+05 (-1.599701e+05 +/- 0.000000e+00) [K]
    Van der Waals (Tail)/kʙ-6.836509e+03 (-6.827780e+03 +/- 0.000000e+00) [K]
    Coulombic Real/kʙ      -4.850793e+04 (-4.688969e+04 +/- 0.000000e+00) [K]
    Coulombic Fourier/kʙ   -1.218906e+04 (-1.161476e+04 +/- 0.000000e+00) [K]
    Molecule Intra/kʙ       0.000000e+00 ( 0.000000e+00 +/- 0.000000e+00) [K]

Current cycle: 400 out of 5000
===============================================================================

Box:      21.95725   0.00000   0.00000  Average:  21.92758   0.00000   0.00000
           0.00000  21.95725   0.00000             0.00000  21.92758   0.00000
           0.00000   0.00000  21.95725             0.00000   0.00000  21.92758
Lengths:  21.95725  21.95725  21.95725  Average:  21.92758  21.92758  21.92758
Angles:   90.00000  90.00000  90.00000  Average:  90.00000  90.00000  90.00000
Rectangular boundary conditions

net charge:   0.00000000

component 0 (CO2) lambda:  0 occupancy:  1 (1.000000)
    net charge:   0.00000000 [e]

Amount of molecules per component :
-------------------------------------------------------------------------------
Component 0 (CO2)
    molecules:      1.500000e+02 molecules  (1.500000e+02 +/- 0.000000e+00)
    number density: 1.416959e-02 molec./A^3 (1.423141e-02 +/- 0.000000e+00)
    density:        1.035254e+03 kg/m^3     (1.039771e+03 +/- 0.000000e+00)

Average pressure tensor: 
-------------------------------------------------------------------------------
-3.7876e+00 -8.2314e+01  1.4005e+01 +/- 0.0000e+00 0.0000e+00 0.0000e+00 [bar]
-8.2314e+01  2.5330e+02 -4.3976e-01 +/- 0.0000e+00 0.0000e+00 0.0000e+00 [bar]
 1.4005e+01 -4.3976e-01  7.4021e+01 +/- 0.0000e+00 0.0000e+00 0.0000e+00 [bar]
Ideal-gas pressure:   4.912150e+02 +/ 0.000000e+00 [bar]
Excess pressure:     -3.833717e+02 +/ 0.000000e+00 [bar]
Pressure:             1.078433e+02 +/ 0.000000e+00 [bar]

Total potential energy/kʙ  -2.294494e+05 (-2.250229e+05 +/- 0.000000e+00) [K]
-------------------------------------------------------------------------------
ExternalField-molecule
    Van der Waals/kʙ        0.000000e+00 ( 0.000000e+00 +/- 0.000000e+00) [K]
Framework-molecule
    Van der Waals/kʙ        0.000000e+00 ( 0.000000e+00 +/- 0.000000e+00) [K]
    Van der Waals (Tail)/kʙ 0.000000e+00 ( 0.000000e+00 +/- 0.000000e+00) [K]
    Coulombic Real/kʙ       0.000000e+00 ( 0.000000e+00 +/- 0.000000e+00) [K]
    Coulombic Fourier/kʙ    0.000000e+00 ( 0.000000e+00 +/- 0.000000e+00) [K]
Molecule-molecule
    Van der Waals/kʙ       -1.624282e+05 (-1.600553e+05 +/- 0.000000e+00) [K]
    Van der Waals (Tail)/kʙ-6.819572e+03 (-6.851788e+03 +/- 0.000000e+00) [K]
    Coulombic Real/kʙ      -4.813661e+04 (-4.657158e+04 +/- 0.000000e+00) [K]
    Coulombic Fourier/kʙ   -1.206507e+04 (-1.154425e+04 +/- 0.000000e+00) [K]
    Molecule Intra/kʙ       0.000000e+00 ( 0.000000e+00 +/- 0.000000e+00) [K]

Current cycle: 500 out of 5000
===============================================================================

Box:      21.79806   0.00000   0.00000  Average:  21.89685   0.00000   0.00000
           0.00000  21.79806   0.00000             0.00000  21.89685   0.00000
           0.00000   0.00000  21.79806             0.00000   0.00000  21.89685
Lengths:  21.79806  21.79806  21.79806  Average:  21.89685  21.89685  21.89685
Angles:   90.00000  90.00000  90.00000  Average:  90.00000  90.00000  90.00000
Rectangular boundary conditions

net charge:   0.00000000

component 0 (CO2) lambda:  0 occupancy:  1 (1.000000)
    net charge:   0.00000000 [e]

Amount of molecules per component :
-------------------------------------------------------------------------------
Component 0 (CO2)
    molecules:      1.500000e+02 molecules  (1.500000e+02 +/- 0.000000e+00)
    number density: 1.448231e-02 molec./A^3 (1.429151e-02 +/- 0.000000e+00)
    density:        1.058102e+03 kg/m^3     (1.044162e+03 +/- 0.000000e+00)

Average pressure tensor: 
-------------------------------------------------------------------------------
-3.6740e+01 -8.6241e+01  3.3237e+01 +/- 0.0000e+00 0.0000e+00 0.0000e+00 [bar]
-8.6241e+01  2.0329e+02 -1.4841e+01 +/- 0.0000e+00 0.0000e+00 0.0000e+00 [bar]
 3.3237e+01 -1.4841e+01  1.1603e+02 +/- 0.0000e+00 0.0000e+00 0.0000e+00 [bar]
Ideal-gas pressure:   4.932896e+02 +/ 0.000000e+00 [bar]
Excess pressure:     -3.990944e+02 +/ 0.000000e+00 [bar]
Pressure:             9.419520e+01 +/ 0.000000e+00 [bar]

Total potential energy/kʙ  -2.309032e+05 (-2.258843e+05 +/- 0.000000e+00) [K]
-------------------------------------------------------------------------------
ExternalField-molecule
    Van der Waals/kʙ        0.000000e+00 ( 0.000000e+00 +/- 0.000000e+00) [K]
Framework-molecule
    Van der Waals/kʙ        0.000000e+00 ( 0.000000e+00 +/- 0.000000e+00) [K]
    Van der Waals (Tail)/kʙ 0.000000e+00 ( 0.000000e+00 +/- 0.000000e+00) [K]
    Coulombic Real/kʙ       0.000000e+00 ( 0.000000e+00 +/- 0.000000e+00) [K]
    Coulombic Fourier/kʙ    0.000000e+00 ( 0.000000e+00 +/- 0.000000e+00) [K]
Molecule-molecule
    Van der Waals/kʙ       -1.659539e+05 (-1.608174e+05 +/- 0.000000e+00) [K]
    Van der Waals (Tail)/kʙ-6.970079e+03 (-6.878689e+03 +/- 0.000000e+00) [K]
    Coulombic Real/kʙ      -4.644533e+04 (-4.657925e+04 +/- 0.000000e+00) [K]
    Coulombic Fourier/kʙ   -1.153382e+04 (-1.160900e+04 +/- 0.000000e+00) [K]
    Molecule Intra/kʙ       0.000000e+00 ( 0.000000e+00 +/- 0.000000e+00) [K]

Current cycle: 600 out of 5000
===============================================================================

Box:      21.84796   0.00000   0.00000  Average:  21.90022   0.00000   0.00000
           0.00000  21.84796   0.00000             0.00000  21.90022   0.00000
           0.00000   0.00000  21.84796             0.00000   0.00000  21.90022
Lengths:  21.84796  21.84796  21.84796  Average:  21.90022  21.90022  21.90022
Angles:   90.00000  90.00000  90.00000  Average:  90.00000  90.00000  90.00000
Rectangular boundary conditions

net charge:   0.00000000

component 0 (CO2) lambda:  0 occupancy:  1 (1.000000)
    net charge:   0.00000000 [e]

Amount of molecules per component :
-------------------------------------------------------------------------------
Component 0 (CO2)
    molecules:      1.500000e+02 molecules  (1.500000e+02 +/- 0.000000e+00)
    number density: 1.438329e-02 molec./A^3 (1.428454e-02 +/- 0.000000e+00)
    density:        1.050868e+03 kg/m^3     (1.043653e+03 +/- 0.000000e+00)

Average pressure tensor: 
-------------------------------------------------------------------------------
-5.1983e+01 -1.0130e+02 -1.5907e+01 +/- 0.0000e+00 0.0000e+00 0.0000e+00 [bar]
-1.0130e+02  1.5660e+02 -4.2305e+01 +/- 0.0000e+00 0.0000e+00 0.0000e+00 [bar]
-1.5907e+01 -4.2305e+01  1.1112e+02 +/- 0.0000e+00 0.0000e+00 0.0000e+00 [bar]
Ideal-gas pressure:   4.930490e+02 +/ 0.000000e+00 [bar]
Excess pressure:     -4.211349e+02 +/ 0.000000e+00 [bar]
Pressure:             7.191410e+01 +/ 0.000000e+00 [bar]

Total potential energy/kʙ  -2.215169e+05 (-2.252503e+05 +/- 0.000000e+00) [K]
-------------------------------------------------------------------------------
ExternalField-molecule
    Van der Waals/kʙ        0.000000e+00 ( 0.000000e+00 +/- 0.000000e+00) [K]
Framework-molecule
    Van der Waals/kʙ        0.000000e+00 ( 0.000000e+00 +/- 0.000000e+00) [K]
    Van der Waals (Tail)/kʙ 0.000000e+00 ( 0.000000e+00 +/- 0.000000e+00) [K]
    Coulombic Real/kʙ       0.000000e+00 ( 0.000000e+00 +/- 0.000000e+00) [K]
    Coulombic Fourier/kʙ    0.000000e+00 ( 0.000000e+00 +/- 0.000000e+00) [K]
Molecule-molecule
    Van der Waals/kʙ       -1.609544e+05 (-1.607148e+05 +/- 0.000000e+00) [K]
    Van der Waals (Tail)/kʙ-6.922426e+03 (-6.874151e+03 +/- 0.000000e+00) [K]
    Coulombic Real/kʙ      -4.250234e+04 (-4.608836e+04 +/- 0.000000e+00) [K]
    Coulombic Fourier/kʙ   -1.113775e+04 (-1.157297e+04 +/- 0.000000e+00) [K]
    Molecule Intra/kʙ       0.000000e+00 ( 0.000000e+00 +/- 0.000000e+00) [K]

Current cycle: 700 out of 5000
===============================================================================

Box:      21.78055   0.00000   0.00000  Average:  21.88059   0.00000   0.00000
           0.00000  21.78055   0.00000             0.00000  21.88059   0.00000
           0.00000   0.00000  21.78055             0.00000   0.00000  21.88059
Lengths:  21.78055  21.78055  21.78055  Average:  21.88059  21.88059  21.88059
Angles:   90.00000  90.00000  90.00000  Average:  90.00000  90.00000  90.00000
Rectangular boundary conditions

net charge:   0.00000000

component 0 (CO2) lambda:  0 occupancy:  1 (1.000000)
    net charge:   0.00000000 [e]

Amount of molecules per component :
-------------------------------------------------------------------------------
Component 0 (CO2)
    molecules:      1.500000e+02 molecules  (1.500000e+02 +/- 0.000000e+00)
    number density: 1.451726e-02 molec./A^3 (1.432319e-02 +/- 0.000000e+00)
    density:        1.060656e+03 kg/m^3     (1.046477e+03 +/- 0.000000e+00)

Average pressure tensor: 
-------------------------------------------------------------------------------
-2.1785e+01 -6.7862e+01  5.2777e+00 +/- 0.0000e+00 0.0000e+00 0.0000e+00 [bar]
-6.7862e+01  1.4396e+02 -2.9691e+01 +/- 0.0000e+00 0.0000e+00 0.0000e+00 [bar]
 5.2777e+00 -2.9691e+01  1.1273e+02 +/- 0.0000e+00 0.0000e+00 0.0000e+00 [bar]
Ideal-gas pressure:   4.943829e+02 +/ 0.000000e+00 [bar]
Excess pressure:     -4.160834e+02 +/ 0.000000e+00 [bar]
Pressure:             7.829948e+01 +/ 0.000000e+00 [bar]

Total potential energy/kʙ  -2.301272e+05 (-2.257258e+05 +/- 0.000000e+00) [K]
-------------------------------------------------------------------------------
ExternalField-molecule
    Van der Waals/kʙ        0.000000e+00 ( 0.000000e+00 +/- 0.000000e+00) [K]
Framework-molecule
    Van der Waals/kʙ        0.000000e+00 ( 0.000000e+00 +/- 0.000000e+00) [K]
    Van der Waals (Tail)/kʙ 0.000000e+00 ( 0.000000e+00 +/- 0.000000e+00) [K]
    Coulombic Real/kʙ       0.000000e+00 ( 0.000000e+00 +/- 0.000000e+00) [K]
    Coulombic Fourier/kʙ    0.000000e+00 ( 0.000000e+00 +/- 0.000000e+00) [K]
Molecule-molecule
    Van der Waals/kʙ       -1.653072e+05 (-1.612719e+05 +/- 0.000000e+00) [K]
    Van der Waals (Tail)/kʙ-6.986900e+03 (-6.894607e+03 +/- 0.000000e+00) [K]
    Coulombic Real/kʙ      -4.674936e+04 (-4.603062e+04 +/- 0.000000e+00) [K]
    Coulombic Fourier/kʙ   -1.108369e+04 (-1.152867e+04 +/- 0.000000e+00) [K]
    Molecule Intra/kʙ       0.000000e+00 ( 0.000000e+00 +/- 0.000000e+00) [K]

Current cycle: 800 out of 5000
===============================================================================

Box:      21.58516   0.00000   0.00000  Average:  21.83945   0.00000   0.00000
           0.00000  21.58516   0.00000             0.00000  21.83945   0.00000
           0.00000   0.00000  21.58516             0.00000   0.00000  21.83945
Lengths:  21.58516  21.58516  21.58516  Average:  21.83945  21.83945  21.83945
Angles:   90.00000  90.00000  90.00000  Average:  90.00000  90.00000  90.00000
Rectangular boundary conditions

net charge:   0.00000000

component 0 (CO2) lambda:  0 occupancy:  1 (1.000000)
    net charge:   0.00000000 [e]

Amount of molecules per component :
-------------------------------------------------------------------------------
Component 0 (CO2)
    molecules:      1.500000e+02 molecules  (1.500000e+02 +/- 0.000000e+00)
    number density: 1.491508e-02 molec./A^3 (1.440665e-02 +/- 0.000000e+00)
    density:        1.089721e+03 kg/m^3     (1.052574e+03 +/- 0.000000e+00)

Average pressure tensor: 
-------------------------------------------------------------------------------
 6.2183e+00 -6.5091e+01  8.9893e+00 +/- 0.0000e+00 0.0000e+00 0.0000e+00 [bar]
-6.5091e+01  1.2091e+02 -1.8079e+01 +/- 0.0000e+00 0.0000e+00 0.0000e+00 [bar]
 8.9893e+00 -1.8079e+01  1.0006e+02 +/- 0.0000e+00 0.0000e+00 0.0000e+00 [bar]
Ideal-gas pressure:   4.972636e+02 +/ 0.000000e+00 [bar]
Excess pressure:     -4.215318e+02 +/ 0.000000e+00 [bar]
Pressure:             7.573171e+01 +/ 0.000000e+00 [bar]

Total potential energy/kʙ  -2.406593e+05 (-2.269701e+05 +/- 0.000000e+00) [K]
-------------------------------------------------------------------------------
ExternalField-molecule
    Van der Waals/kʙ        0.000000e+00 ( 0.000000e+00 +/- 0.000000e+00) [K]
Framework-molecule
    Van der Waals/kʙ        0.000000e+00 ( 0.000000e+00 +/- 0.000000e+00) [K]
    Van der Waals (Tail)/kʙ 0.000000e+00 ( 0.000000e+00 +/- 0.000000e+00) [K]
    Coulombic Real/kʙ       0.000000e+00 ( 0.000000e+00 +/- 0.000000e+00) [K]
    Coulombic Fourier/kʙ    0.000000e+00 ( 0.000000e+00 +/- 0.000000e+00) [K]
Molecule-molecule
    Van der Waals/kʙ       -1.678123e+05 (-1.621582e+05 +/- 0.000000e+00) [K]
    Van der Waals (Tail)/kʙ-7.178363e+03 (-6.934257e+03 +/- 0.000000e+00) [K]
    Coulombic Real/kʙ      -5.291896e+04 (-4.635146e+04 +/- 0.000000e+00) [K]
    Coulombic Fourier/kʙ   -1.274963e+04 (-1.152624e+04 +/- 0.000000e+00) [K]
    Molecule Intra/kʙ       0.000000e+00 ( 0.000000e+00 +/- 0.000000e+00) [K]

Current cycle: 900 out of 5000
===============================================================================

Box:      21.64575   0.00000   0.00000  Average:  21.81025   0.00000   0.00000
           0.00000  21.64575   0.00000             0.00000  21.81025   0.00000
           0.00000   0.00000  21.64575             0.00000   0.00000  21.81025
Lengths:  21.64575  21.64575  21.64575  Average:  21.81025  21.81025  21.81025
Angles:   90.00000  90.00000  90.00000  Average:  90.00000  90.00000  90.00000
Rectangular boundary conditions

net charge:   0.00000000

component 0 (CO2) lambda:  0 occupancy:  1 (1.000000)
    net charge:   0.00000000 [e]

Amount of molecules per component :
-------------------------------------------------------------------------------
Component 0 (CO2)
    molecules:      1.500000e+02 molecules  (1.500000e+02 +/- 0.000000e+00)
    number density: 1.479017e-02 molec./A^3 (1.446533e-02 +/- 0.000000e+00)
    density:        1.080595e+03 kg/m^3     (1.056862e+03 +/- 0.000000e+00)

Average pressure tensor: 
-------------------------------------------------------------------------------
 2.5489e+01 -7.5544e+01 -1.1633e+00 +/- 0.0000e+00 0.0000e+00 0.0000e+00 [bar]
-7.5544e+01  1.3095e+02 -4.8967e+01 +/- 0.0000e+00 0.0000e+00 0.0000e+00 [bar]
-1.1633e+00 -4.8967e+01  1.0194e+02 +/- 0.0000e+00 0.0000e+00 0.0000e+00 [bar]
Ideal-gas pressure:   4.992889e+02 +/ 0.000000e+00 [bar]
Excess pressure:     -4.131650e+02 +/ 0.000000e+00 [bar]
Pressure:             8.612392e+01 +/ 0.000000e+00 [bar]

Total potential energy/kʙ  -2.361202e+05 (-2.282368e+05 +/- 0.000000e+00) [K]
-------------------------------------------------------------------------------
ExternalField-molecule
    Van der Waals/kʙ        0.000000e+00 ( 0.000000e+00 +/- 0.000000e+00) [K]
Framework-molecule
    Van der Waals/kʙ        0.000000e+00 ( 0.000000e+00 +/- 0.000000e+00) [K]
    Van der Waals (Tail)/kʙ 0.000000e+00 ( 0.000000e+00 +/- 0.000000e+00) [K]
    Coulombic Real/kʙ       0.000000e+00 ( 0.000000e+00 +/- 0.000000e+00) [K]
    Coulombic Fourier/kʙ    0.000000e+00 ( 0.000000e+00 +/- 0.000000e+00) [K]
Molecule-molecule
    Van der Waals/kʙ       -1.686922e+05 (-1.627844e+05 +/- 0.000000e+00) [K]
    Van der Waals (Tail)/kʙ-7.118248e+03 (-6.962463e+03 +/- 0.000000e+00) [K]
    Coulombic Real/kʙ      -4.815594e+04 (-4.687872e+04 +/- 0.000000e+00) [K]
    Coulombic Fourier/kʙ   -1.215374e+04 (-1.161126e+04 +/- 0.000000e+00) [K]
    Molecule Intra/kʙ       0.000000e+00 ( 0.000000e+00 +/- 0.000000e+00) [K]

Current cycle: 1000 out of 5000
===============================================================================

Box:      21.92007   0.00000   0.00000  Average:  21.80351   0.00000   0.00000
           0.00000  21.92007   0.00000             0.00000  21.80351   0.00000
           0.00000   0.00000  21.92007             0.00000   0.00000  21.80351
Lengths:  21.92007  21.92007  21.92007  Average:  21.80351  21.80351  21.80351
Angles:   90.00000  90.00000  90.00000  Average:  90.00000  90.00000  90.00000
Rectangular boundary conditions

net charge:   0.00000000

component 0 (CO2) lambda:  0 occupancy:  1 (1.000000)
    net charge:   0.00000000 [e]

Amount of molecules per component :
-------------------------------------------------------------------------------
Component 0 (CO2)
    molecules:      1.500000e+02 molecules  (1.500000e+02 +/- 0.000000e+00)
    number density: 1.424181e-02 molec./A^3 (1.447834e-02 +/- 0.000000e+00)
    density:        1.040531e+03 kg/m^3     (1.057812e+03 +/- 0.000000e+00)

Average pressure tensor: 
-------------------------------------------------------------------------------
 2.3009e+01 -8.1587e+01 -6.2131e+00 +/- 0.0000e+00 0.0000e+00 0.0000e+00 [bar]
-8.1587e+01  1.3449e+02 -6.4061e+01 +/- 0.0000e+00 0.0000e+00 0.0000e+00 [bar]
-6.2131e+00 -6.4061e+01  8.8076e+01 +/- 0.0000e+00 0.0000e+00 0.0000e+00 [bar]
Ideal-gas pressure:   4.997382e+02 +/ 0.000000e+00 [bar]
Excess pressure:     -4.178808e+02 +/ 0.000000e+00 [bar]
Pressure:             8.185731e+01 +/ 0.000000e+00 [bar]

Total potential energy/kʙ  -2.302746e+05 (-2.284110e+05 +/- 0.000000e+00) [K]
-------------------------------------------------------------------------------
ExternalField-molecule
    Van der Waals/kʙ        0.000000e+00 ( 0.000000e+00 +/- 0.000000e+00) [K]
Framework-molecule
    Van der Waals/kʙ        0.000000e+00 ( 0.000000e+00 +/- 0.000000e+00) [K]
    Van der Waals (Tail)/kʙ 0.000000e+00 ( 0.000000e+00 +/- 0.000000e+00) [K]
    Coulombic Real/kʙ       0.000000e+00 ( 0.000000e+00 +/- 0.000000e+00) [K]
    Coulombic Fourier/kʙ    0.000000e+00 ( 0.000000e+00 +/- 0.000000e+00) [K]
Molecule-molecule
    Van der Waals/kʙ       -1.649551e+05 (-1.629696e+05 +/- 0.000000e+00) [K]
    Van der Waals (Tail)/kʙ-6.854332e+03 (-6.967525e+03 +/- 0.000000e+00) [K]
    Coulombic Real/kʙ      -4.684613e+04 (-4.683287e+04 +/- 0.000000e+00) [K]
    Coulombic Fourier/kʙ   -1.161903e+04 (-1.164100e+04 +/- 0.000000e+00) [K]
    Molecule Intra/kʙ       0.000000e+00 ( 0.000000e+00 +/- 0.000000e+00) [K]

Current cycle: 1100 out of 5000
===============================================================================

Box:      21.78576   0.00000   0.00000  Average:  21.81119   0.00000   0.00000
           0.00000  21.78576   0.00000             0.00000  21.81119   0.00000
           0.00000   0.00000  21.78576             0.00000   0.00000  21.81119
Lengths:  21.78576  21.78576  21.78576  Average:  21.81119  21.81119  21.81119
Angles:   90.00000  90.00000  90.00000  Average:  90.00000  90.00000  90.00000
Rectangular boundary conditions

net charge:   0.00000000

component 0 (CO2) lambda:  0 occupancy:  1 (1.000000)
    net charge:   0.00000000 [e]

Amount of molecules per component :
-------------------------------------------------------------------------------
Component 0 (CO2)
    molecules:      1.500000e+02 molecules  (1.500000e+02 +/- 0.000000e+00)
    number density: 1.450684e-02 molec./A^3 (1.446278e-02 +/- 0.000000e+00)
    density:        1.059895e+03 kg/m^3     (1.056675e+03 +/- 0.000000e+00)

Average pressure tensor: 
-------------------------------------------------------------------------------
 2.8878e+01 -8.0724e+01 -1.0310e+01 +/- 0.0000e+00 0.0000e+00 0.0000e+00 [bar]
-8.0724e+01  1.2917e+02 -6.2731e+01 +/- 0.0000e+00 0.0000e+00 0.0000e+00 [bar]
-1.0310e+01 -6.2731e+01  8.4838e+01 +/- 0.0000e+00 0.0000e+00 0.0000e+00 [bar]
Ideal-gas pressure:   4.992009e+02 +/ 0.000000e+00 [bar]
Excess pressure:     -4.182395e+02 +/ 0.000000e+00 [bar]
Pressure:             8.096142e+01 +/ 0.000000e+00 [bar]

Total potential energy/kʙ  -2.295856e+05 (-2.281461e+05 +/- 0.000000e+00) [K]
-------------------------------------------------------------------------------
ExternalField-molecule
    Van der Waals/kʙ        0.000000e+00 ( 0.000000e+00 +/- 0.000000e+00) [K]
Framework-molecule
    Van der Waals/kʙ        0.000000e+00 ( 0.000000e+00 +/- 0.000000e+00) [K]
    Van der Waals (Tail)/kʙ 0.000000e+00 ( 0.000000e+00 +/- 0.000000e+00) [K]
    Coulombic Real/kʙ       0.000000e+00 ( 0.000000e+00 +/- 0.000000e+00) [K]
    Coulombic Fourier/kʙ    0.000000e+00 ( 0.000000e+00 +/- 0.000000e+00) [K]
Molecule-molecule
    Van der Waals/kʙ       -1.608361e+05 (-1.626695e+05 +/- 0.000000e+00) [K]
    Van der Waals (Tail)/kʙ-6.981887e+03 (-6.960664e+03 +/- 0.000000e+00) [K]
    Coulombic Real/kʙ      -4.956862e+04 (-4.686920e+04 +/- 0.000000e+00) [K]
    Coulombic Fourier/kʙ   -1.219905e+04 (-1.164671e+04 +/- 0.000000e+00) [K]
    Molecule Intra/kʙ       0.000000e+00 ( 0.000000e+00 +/- 0.000000e+00) [K]

Current cycle: 1200 out of 5000
===============================================================================

Box:      21.85392   0.00000   0.00000  Average:  21.80725   0.00000   0.00000
           0.00000  21.85392   0.00000             0.00000  21.80725   0.00000
           0.00000   0.00000  21.85392             0.00000   0.00000  21.80725
Lengths:  21.85392  21.85392  21.85392  Average:  21.80725  21.80725  21.80725
Angles:   90.00000  90.00000  90.00000  Average:  90.00000  90.00000  90.00000
Rectangular boundary conditions

net charge:   0.00000000

component 0 (CO2) lambda:  0 occupancy:  1 (1.000000)
    net charge:   0.00000000 [e]

Amount of molecules per component :
-------------------------------------------------------------------------------
Component 0 (CO2)
    molecules:      1.500000e+02 molecules  (1.500000e+02 +/- 0.000000e+00)
    number density: 1.437153e-02 molec./A^3 (1.447015e-02 +/- 0.000000e+00)
    density:        1.050009e+03 kg/m^3     (1.057214e+03 +/- 0.000000e+00)

Average pressure tensor: 
-------------------------------------------------------------------------------
 1.1203e+01 -8.5449e+01 -1.1310e+01 +/- 0.0000e+00 0.0000e+00 0.0000e+00 [bar]
-8.5449e+01  1.2912e+02 -5.5518e+01 +/- 0.0000e+00 0.0000e+00 0.0000e+00 [bar]
-1.1310e+01 -5.5518e+01  8.7734e+01 +/- 0.0000e+00 0.0000e+00 0.0000e+00 [bar]
Ideal-gas pressure:   4.994554e+02 +/ 0.000000e+00 [bar]
Excess pressure:     -4.234358e+02 +/ 0.000000e+00 [bar]
Pressure:             7.601964e+01 +/ 0.000000e+00 [bar]

Total potential energy/kʙ  -2.300418e+05 (-2.280430e+05 +/- 0.000000e+00) [K]
-------------------------------------------------------------------------------
ExternalField-molecule
    Van der Waals/kʙ        0.000000e+00 ( 0.000000e+00 +/- 0.000000e+00) [K]
Framework-molecule
    Van der Waals/kʙ        0.000000e+00 ( 0.000000e+00 +/- 0.000000e+00) [K]
    Van der Waals (Tail)/kʙ 0.000000e+00 ( 0.000000e+00 +/- 0.000000e+00) [K]
    Coulombic Real/kʙ       0.000000e+00 ( 0.000000e+00 +/- 0.000000e+00) [K]
    Coulombic Fourier/kʙ    0.000000e+00 ( 0.000000e+00 +/- 0.000000e+00) [K]
Molecule-molecule
    Van der Waals/kʙ       -1.671916e+05 (-1.627907e+05 +/- 0.000000e+00) [K]
    Van der Waals (Tail)/kʙ-6.916766e+03 (-6.962367e+03 +/- 0.000000e+00) [K]
    Coulombic Real/kʙ      -4.431161e+04 (-4.664088e+04 +/- 0.000000e+00) [K]
    Coulombic Fourier/kʙ   -1.162190e+04 (-1.164906e+04 +/- 0.000000e+00) [K]
    Molecule Intra/kʙ       0.000000e+00 ( 0.000000e+00 +/- 0.000000e+00) [K]

Current cycle: 1300 out of 5000
===============================================================================

Box:      21.68974   0.00000   0.00000  Average:  21.80809   0.00000   0.00000
           0.00000  21.68974   0.00000             0.00000  21.80809   0.00000
           0.00000   0.00000  21.68974             0.00000   0.00000  21.80809
Lengths:  21.68974  21.68974  21.68974  Average:  21.80809  21.80809  21.80809
Angles:   90.00000  90.00000  90.00000  Average:  90.00000  90.00000  90.00000
Rectangular boundary conditions

net charge:   0.00000000

component 0 (CO2) lambda:  0 occupancy:  1 (1.000000)
    net charge:   0.00000000 [e]

Amount of molecules per component :
-------------------------------------------------------------------------------
Component 0 (CO2)
    molecules:      1.500000e+02 molecules  (1.500000e+02 +/- 0.000000e+00)
    number density: 1.470036e-02 molec./A^3 (1.446815e-02 +/- 0.000000e+00)
    density:        1.074033e+03 kg/m^3     (1.057068e+03 +/- 0.000000e+00)

Average pressure tensor: 
-------------------------------------------------------------------------------
-5.7101e+00 -7.8806e+01 -1.6390e+01 +/- 0.0000e+00 0.0000e+00 0.0000e+00 [bar]
-7.8806e+01  1.2784e+02 -6.9680e+01 +/- 0.0000e+00 0.0000e+00 0.0000e+00 [bar]
-1.6390e+01 -6.9680e+01  6.8324e+01 +/- 0.0000e+00 0.0000e+00 0.0000e+00 [bar]
Ideal-gas pressure:   4.993864e+02 +/ 0.000000e+00 [bar]
Excess pressure:     -4.359021e+02 +/ 0.000000e+00 [bar]
Pressure:             6.348426e+01 +/ 0.000000e+00 [bar]

Total potential energy/kʙ  -2.362189e+05 (-2.279799e+05 +/- 0.000000e+00) [K]
-------------------------------------------------------------------------------
ExternalField-molecule
    Van der Waals/kʙ        0.000000e+00 ( 0.000000e+00 +/- 0.000000e+00) [K]
Framework-molecule
    Van der Waals/kʙ        0.000000e+00 ( 0.000000e+00 +/- 0.000000e+00) [K]
    Van der Waals (Tail)/kʙ 0.000000e+00 ( 0.000000e+00 +/- 0.000000e+00) [K]
    Coulombic Real/kʙ       0.000000e+00 ( 0.000000e+00 +/- 0.000000e+00) [K]
    Coulombic Fourier/kʙ    0.000000e+00 ( 0.000000e+00 +/- 0.000000e+00) [K]
Molecule-molecule
    Van der Waals/kʙ       -1.679148e+05 (-1.628104e+05 +/- 0.000000e+00) [K]
    Van der Waals (Tail)/kʙ-7.075024e+03 (-6.959395e+03 +/- 0.000000e+00) [K]
    Coulombic Real/kʙ      -4.866038e+04 (-4.653887e+04 +/- 0.000000e+00) [K]
    Coulombic Fourier/kʙ   -1.256874e+04 (-1.167116e+04 +/- 0.000000e+00) [K]
    Molecule Intra/kʙ       0.000000e+00 ( 0.000000e+00 +/- 0.000000e+00) [K]

Current cycle: 1400 out of 5000
===============================================================================

Box:      21.96609   0.00000   0.00000  Average:  21.81586   0.00000   0.00000
           0.00000  21.96609   0.00000             0.00000  21.81586   0.00000
           0.00000   0.00000  21.96609             0.00000   0.00000  21.81586
Lengths:  21.96609  21.96609  21.96609  Average:  21.81586  21.81586  21.81586
Angles:   90.00000  90.00000  90.00000  Average:  90.00000  90.00000  90.00000
Rectangular boundary conditions

net charge:   0.00000000

component 0 (CO2) lambda:  0 occupancy:  1 (1.000000)
    net charge:   0.00000000 [e]

Amount of molecules per component :
-------------------------------------------------------------------------------
Component 0 (CO2)
    molecules:      1.500000e+02 molecules  (1.500000e+02 +/- 0.000000e+00)
    number density: 1.415249e-02 molec./A^3 (1.445265e-02 +/- 0.000000e+00)
    density:        1.034005e+03 kg/m^3     (1.055936e+03 +/- 0.000000e+00)

Average pressure tensor: 
-------------------------------------------------------------------------------
-8.6309e+00 -8.2867e+01 -6.5064e+00 +/- 0.0000e+00 0.0000e+00 0.0000e+00 [bar]
-8.2867e+01  1.3062e+02 -7.0285e+01 +/- 0.0000e+00 0.0000e+00 0.0000e+00 [bar]
-6.5064e+00 -7.0285e+01  6.5080e+01 +/- 0.0000e+00 0.0000e+00 0.0000e+00 [bar]
Ideal-gas pressure:   4.988515e+02 +/ 0.000000e+00 [bar]
Excess pressure:     -4.364963e+02 +/ 0.000000e+00 [bar]
Pressure:             6.235526e+01 +/ 0.000000e+00 [bar]

Total potential energy/kʙ  -2.239114e+05 (-2.277837e+05 +/- 0.000000e+00) [K]
-------------------------------------------------------------------------------
ExternalField-molecule
    Van der Waals/kʙ        0.000000e+00 ( 0.000000e+00 +/- 0.000000e+00) [K]
Framework-molecule
    Van der Waals/kʙ        0.000000e+00 ( 0.000000e+00 +/- 0.000000e+00) [K]
    Van der Waals (Tail)/kʙ 0.000000e+00 ( 0.000000e+00 +/- 0.000000e+00) [K]
    Coulombic Real/kʙ       0.000000e+00 ( 0.000000e+00 +/- 0.000000e+00) [K]
    Coulombic Fourier/kʙ    0.000000e+00 ( 0.000000e+00 +/- 0.000000e+00) [K]
Molecule-molecule
    Van der Waals/kʙ       -1.611639e+05 (-1.626726e+05 +/- 0.000000e+00) [K]
    Van der Waals (Tail)/kʙ-6.811346e+03 (-6.952576e+03 +/- 0.000000e+00) [K]
    Coulombic Real/kʙ      -4.513970e+04 (-4.648977e+04 +/- 0.000000e+00) [K]
    Coulombic Fourier/kʙ   -1.079649e+04 (-1.166876e+04 +/- 0.000000e+00) [K]
    Molecule Intra/kʙ       0.000000e+00 ( 0.000000e+00 +/- 0.000000e+00) [K]

Current cycle: 1500 out of 5000
===============================================================================

Box:      22.11465   0.00000   0.00000  Average:  21.82248   0.00000   0.00000
           0.00000  22.11465   0.00000             0.00000  21.82248   0.00000
           0.00000   0.00000  22.11465             0.00000   0.00000  21.82248
Lengths:  22.11465  22.11465  22.11465  Average:  21.82248  21.82248  21.82248
Angles:   90.00000  90.00000  90.00000  Average:  90.00000  90.00000  90.00000
Rectangular boundary conditions

net charge:   0.00000000

component 0 (CO2) lambda:  0 occupancy:  1 (1.000000)
    net charge:   0.00000000 [e]

Amount of molecules per component :
-------------------------------------------------------------------------------
Component 0 (CO2)
    molecules:      1.500000e+02 molecules  (1.500000e+02 +/- 0.000000e+00)
    number density: 1.386920e-02 molec./A^3 (1.443932e-02 +/- 0.000000e+00)
    density:        1.013307e+03 kg/m^3     (1.054962e+03 +/- 0.000000e+00)

Average pressure tensor: 
-------------------------------------------------------------------------------
-8.1593e+00 -6.1432e+01 -2.2516e-02 +/- 0.0000e+00 0.0000e+00 0.0000e+00 [bar]
-6.1432e+01  1.3059e+02 -5.8806e+01 +/- 0.0000e+00 0.0000e+00 0.0000e+00 [bar]
-2.2516e-02 -5.8806e+01  6.4092e+01 +/- 0.0000e+00 0.0000e+00 0.0000e+00 [bar]
Ideal-gas pressure:   4.983914e+02 +/ 0.000000e+00 [bar]
Excess pressure:     -4.362180e+02 +/ 0.000000e+00 [bar]
Pressure:             6.217337e+01 +/ 0.000000e+00 [bar]

Total potential energy/kʙ  -2.225533e+05 (-2.276165e+05 +/- 0.000000e+00) [K]
-------------------------------------------------------------------------------
ExternalField-molecule
    Van der Waals/kʙ        0.000000e+00 ( 0.000000e+00 +/- 0.000000e+00) [K]
Framework-molecule
    Van der Waals/kʙ        0.000000e+00 ( 0.000000e+00 +/- 0.000000e+00) [K]
    Van der Waals (Tail)/kʙ 0.000000e+00 ( 0.000000e+00 +/- 0.000000e+00) [K]
    Coulombic Real/kʙ       0.000000e+00 ( 0.000000e+00 +/- 0.000000e+00) [K]
    Coulombic Fourier/kʙ    0.000000e+00 ( 0.000000e+00 +/- 0.000000e+00) [K]
Molecule-molecule
    Van der Waals/kʙ       -1.609632e+05 (-1.624789e+05 +/- 0.000000e+00) [K]
    Van der Waals (Tail)/kʙ-6.675000e+03 (-6.944335e+03 +/- 0.000000e+00) [K]
    Coulombic Real/kʙ      -4.300477e+04 (-4.652529e+04 +/- 0.000000e+00) [K]
    Coulombic Fourier/kʙ   -1.191035e+04 (-1.166793e+04 +/- 0.000000e+00) [K]
    Molecule Intra/kʙ       0.000000e+00 ( 0.000000e+00 +/- 0.000000e+00) [K]

Current cycle: 1600 out of 5000
===============================================================================

Box:      21.61984   0.00000   0.00000  Average:  21.81565   0.00000   0.00000
           0.00000  21.61984   0.00000             0.00000  21.81565   0.00000
           0.00000   0.00000  21.61984             0.00000   0.00000  21.81565
Lengths:  21.61984  21.61984  21.61984  Average:  21.81565  21.81565  21.81565
Angles:   90.00000  90.00000  90.00000  Average:  90.00000  90.00000  90.00000
Rectangular boundary conditions

net charge:   0.00000000

component 0 (CO2) lambda:  0 occupancy:  1 (1.000000)
    net charge:   0.00000000 [e]

Amount of molecules per component :
-------------------------------------------------------------------------------
Component 0 (CO2)
    molecules:      1.500000e+02 molecules  (1.500000e+02 +/- 0.000000e+00)
    number density: 1.484342e-02 molec./A^3 (1.445291e-02 +/- 0.000000e+00)
    density:        1.084486e+03 kg/m^3     (1.055955e+03 +/- 0.000000e+00)

Average pressure tensor: 
-------------------------------------------------------------------------------
-2.3474e+01 -6.2036e+01 -1.0072e+01 +/- 0.0000e+00 0.0000e+00 0.0000e+00 [bar]
-6.2036e+01  1.1529e+02 -6.4199e+01 +/- 0.0000e+00 0.0000e+00 0.0000e+00 [bar]
-1.0072e+01 -6.4199e+01  7.0060e+01 +/- 0.0000e+00 0.0000e+00 0.0000e+00 [bar]
Ideal-gas pressure:   4.988605e+02 +/ 0.000000e+00 [bar]
Excess pressure:     -4.449015e+02 +/ 0.000000e+00 [bar]
Pressure:             5.395903e+01 +/ 0.000000e+00 [bar]

Total potential energy/kʙ  -2.376275e+05 (-2.279198e+05 +/- 0.000000e+00) [K]
-------------------------------------------------------------------------------
ExternalField-molecule
    Van der Waals/kʙ        0.000000e+00 ( 0.000000e+00 +/- 0.000000e+00) [K]
Framework-molecule
    Van der Waals/kʙ        0.000000e+00 ( 0.000000e+00 +/- 0.000000e+00) [K]
    Van der Waals (Tail)/kʙ 0.000000e+00 ( 0.000000e+00 +/- 0.000000e+00) [K]
    Coulombic Real/kʙ       0.000000e+00 ( 0.000000e+00 +/- 0.000000e+00) [K]
    Coulombic Fourier/kʙ    0.000000e+00 ( 0.000000e+00 +/- 0.000000e+00) [K]
Molecule-molecule
    Van der Waals/kʙ       -1.665508e+05 (-1.626166e+05 +/- 0.000000e+00) [K]
    Van der Waals (Tail)/kʙ-7.143877e+03 (-6.950154e+03 +/- 0.000000e+00) [K]
    Coulombic Real/kʙ      -5.214906e+04 (-4.666198e+04 +/- 0.000000e+00) [K]
    Coulombic Fourier/kʙ   -1.178381e+04 (-1.169104e+04 +/- 0.000000e+00) [K]
    Molecule Intra/kʙ       0.000000e+00 ( 0.000000e+00 +/- 0.000000e+00) [K]

Current cycle: 1700 out of 5000
===============================================================================

Box:      21.69988   0.00000   0.00000  Average:  21.81082   0.00000   0.00000
           0.00000  21.69988   0.00000             0.00000  21.81082   0.00000
           0.00000   0.00000  21.69988             0.00000   0.00000  21.81082
Lengths:  21.69988  21.69988  21.69988  Average:  21.81082  21.81082  21.81082
Angles:   90.00000  90.00000  90.00000  Average:  90.00000  90.00000  90.00000
Rectangular boundary conditions

net charge:   0.00000000

component 0 (CO2) lambda:  0 occupancy:  1 (1.000000)
    net charge:   0.00000000 [e]

Amount of molecules per component :
-------------------------------------------------------------------------------
Component 0 (CO2)
    molecules:      1.500000e+02 molecules  (1.500000e+02 +/- 0.000000e+00)
    number density: 1.467977e-02 molec./A^3 (1.446237e-02 +/- 0.000000e+00)
    density:        1.072529e+03 kg/m^3     (1.056646e+03 +/- 0.000000e+00)

Average pressure tensor: 
-------------------------------------------------------------------------------
-3.4993e+01 -5.4806e+01 -2.3587e+01 +/- 0.0000e+00 0.0000e+00 0.0000e+00 [bar]
-5.4806e+01  1.2624e+02 -6.0308e+01 +/- 0.0000e+00 0.0000e+00 0.0000e+00 [bar]
-2.3587e+01 -6.0308e+01  7.6031e+01 +/- 0.0000e+00 0.0000e+00 0.0000e+00 [bar]
Ideal-gas pressure:   4.991870e+02 +/ 0.000000e+00 [bar]
Excess pressure:     -4.434274e+02 +/ 0.000000e+00 [bar]
Pressure:             5.575968e+01 +/ 0.000000e+00 [bar]

Total potential energy/kʙ  -2.326176e+05 (-2.281158e+05 +/- 0.000000e+00) [K]
-------------------------------------------------------------------------------
ExternalField-molecule
    Van der Waals/kʙ        0.000000e+00 ( 0.000000e+00 +/- 0.000000e+00) [K]
Framework-molecule
    Van der Waals/kʙ        0.000000e+00 ( 0.000000e+00 +/- 0.000000e+00) [K]
    Van der Waals (Tail)/kʙ 0.000000e+00 ( 0.000000e+00 +/- 0.000000e+00) [K]
    Coulombic Real/kʙ       0.000000e+00 ( 0.000000e+00 +/- 0.000000e+00) [K]
    Coulombic Fourier/kʙ    0.000000e+00 ( 0.000000e+00 +/- 0.000000e+00) [K]
Molecule-molecule
    Van der Waals/kʙ       -1.630760e+05 (-1.626848e+05 +/- 0.000000e+00) [K]
    Van der Waals (Tail)/kʙ-7.065113e+03 (-6.955486e+03 +/- 0.000000e+00) [K]
    Coulombic Real/kʙ      -5.021471e+04 (-4.676246e+04 +/- 0.000000e+00) [K]
    Coulombic Fourier/kʙ   -1.226171e+04 (-1.171311e+04 +/- 0.000000e+00) [K]
    Molecule Intra/kʙ       0.000000e+00 ( 0.000000e+00 +/- 0.000000e+00) [K]

Current cycle: 1800 out of 5000
===============================================================================

Box:      22.16870   0.00000   0.00000  Average:  21.82086   0.00000   0.00000
           0.00000  22.16870   0.00000             0.00000  21.82086   0.00000
           0.00000   0.00000  22.16870             0.00000   0.00000  21.82086
Lengths:  22.16870  22.16870  22.16870  Average:  21.82086  21.82086  21.82086
Angles:   90.00000  90.00000  90.00000  Average:  90.00000  90.00000  90.00000
Rectangular boundary conditions

net charge:   0.00000000

component 0 (CO2) lambda:  0 occupancy:  1 (1.000000)
    net charge:   0.00000000 [e]

Amount of molecules per component :
-------------------------------------------------------------------------------
Component 0 (CO2)
    molecules:      1.500000e+02 molecules  (1.500000e+02 +/- 0.000000e+00)
    number density: 1.376799e-02 molec./A^3 (1.444261e-02 +/- 0.000000e+00)
    density:        1.005913e+03 kg/m^3     (1.055202e+03 +/- 0.000000e+00)

Average pressure tensor: 
-------------------------------------------------------------------------------
-3.7037e+01 -5.3663e+01 -2.5662e+01 +/- 0.0000e+00 0.0000e+00 0.0000e+00 [bar]
-5.3663e+01  1.3791e+02 -5.8340e+01 +/- 0.0000e+00 0.0000e+00 0.0000e+00 [bar]
-2.5662e+01 -5.8340e+01  7.0529e+01 +/- 0.0000e+00 0.0000e+00 0.0000e+00 [bar]
Ideal-gas pressure:   4.985048e+02 +/ 0.000000e+00 [bar]
Excess pressure:     -4.413712e+02 +/ 0.000000e+00 [bar]
Pressure:             5.713360e+01 +/ 0.000000e+00 [bar]

Total potential energy/kʙ  -2.159056e+05 (-2.276563e+05 +/- 0.000000e+00) [K]
-------------------------------------------------------------------------------
ExternalField-molecule
    Van der Waals/kʙ        0.000000e+00 ( 0.000000e+00 +/- 0.000000e+00) [K]
Framework-molecule
    Van der Waals/kʙ        0.000000e+00 ( 0.000000e+00 +/- 0.000000e+00) [K]
    Van der Waals (Tail)/kʙ 0.000000e+00 ( 0.000000e+00 +/- 0.000000e+00) [K]
    Coulombic Real/kʙ       0.000000e+00 ( 0.000000e+00 +/- 0.000000e+00) [K]
    Coulombic Fourier/kʙ    0.000000e+00 ( 0.000000e+00 +/- 0.000000e+00) [K]
Molecule-molecule
    Van der Waals/kʙ       -1.545386e+05 (-1.624296e+05 +/- 0.000000e+00) [K]
    Van der Waals (Tail)/kʙ-6.626290e+03 (-6.946614e+03 +/- 0.000000e+00) [K]
    Coulombic Real/kʙ      -4.324135e+04 (-4.657382e+04 +/- 0.000000e+00) [K]
    Coulombic Fourier/kʙ   -1.149938e+04 (-1.170627e+04 +/- 0.000000e+00) [K]
    Molecule Intra/kʙ       0.000000e+00 ( 0.000000e+00 +/- 0.000000e+00) [K]

Current cycle: 1900 out of 5000
===============================================================================

Box:      22.04221   0.00000   0.00000  Average:  21.82118   0.00000   0.00000
           0.00000  22.04221   0.00000             0.00000  21.82118   0.00000
           0.00000   0.00000  22.04221             0.00000   0.00000  21.82118
Lengths:  22.04221  22.04221  22.04221  Average:  21.82118  21.82118  21.82118
Angles:   90.00000  90.00000  90.00000  Average:  90.00000  90.00000  90.00000
Rectangular boundary conditions

net charge:   0.00000000

component 0 (CO2) lambda:  0 occupancy:  1 (1.000000)
    net charge:   0.00000000 [e]

Amount of molecules per component :
-------------------------------------------------------------------------------
Component 0 (CO2)
    molecules:      1.500000e+02 molecules  (1.500000e+02 +/- 0.000000e+00)
    number density: 1.400638e-02 molec./A^3 (1.444185e-02 +/- 0.000000e+00)
    density:        1.023330e+03 kg/m^3     (1.055146e+03 +/- 0.000000e+00)

Average pressure tensor: 
-------------------------------------------------------------------------------
-2.7316e+01 -6.0867e+01 -2.2935e+01 +/- 0.0000e+00 0.0000e+00 0.0000e+00 [bar]
-6.0867e+01  1.3197e+02 -5.9173e+01 +/- 0.0000e+00 0.0000e+00 0.0000e+00 [bar]
-2.2935e+01 -5.9173e+01  8.1833e+01 +/- 0.0000e+00 0.0000e+00 0.0000e+00 [bar]
Ideal-gas pressure:   4.984786e+02 +/ 0.000000e+00 [bar]
Excess pressure:     -4.363174e+02 +/ 0.000000e+00 [bar]
Pressure:             6.216117e+01 +/ 0.000000e+00 [bar]

Total potential energy/kʙ  -2.223123e+05 (-2.275786e+05 +/- 0.000000e+00) [K]
-------------------------------------------------------------------------------
ExternalField-molecule
    Van der Waals/kʙ        0.000000e+00 ( 0.000000e+00 +/- 0.000000e+00) [K]
Framework-molecule
    Van der Waals/kʙ        0.000000e+00 ( 0.000000e+00 +/- 0.000000e+00) [K]
    Van der Waals (Tail)/kʙ 0.000000e+00 ( 0.000000e+00 +/- 0.000000e+00) [K]
    Coulombic Real/kʙ       0.000000e+00 ( 0.000000e+00 +/- 0.000000e+00) [K]
    Coulombic Fourier/kʙ    0.000000e+00 ( 0.000000e+00 +/- 0.000000e+00) [K]
Molecule-molecule
    Van der Waals/kʙ       -1.610613e+05 (-1.622919e+05 +/- 0.000000e+00) [K]
    Van der Waals (Tail)/kʙ-6.741024e+03 (-6.945709e+03 +/- 0.000000e+00) [K]
    Coulombic Real/kʙ      -4.391526e+04 (-4.660846e+04 +/- 0.000000e+00) [K]
    Coulombic Fourier/kʙ   -1.059475e+04 (-1.173252e+04 +/- 0.000000e+00) [K]
    Molecule Intra/kʙ       0.000000e+00 ( 0.000000e+00 +/- 0.000000e+00) [K]

Current cycle: 2000 out of 5000
===============================================================================

Box:      21.77635   0.00000   0.00000  Average:  21.82514   0.00000   0.00000
           0.00000  21.77635   0.00000             0.00000  21.82514   0.00000
           0.00000   0.00000  21.77635             0.00000   0.00000  21.82514
Lengths:  21.77635  21.77635  21.77635  Average:  21.82514  21.82514  21.82514
Angles:   90.00000  90.00000  90.00000  Average:  90.00000  90.00000  90.00000
Rectangular boundary conditions

net charge:   0.00000000

component 0 (CO2) lambda:  0 occupancy:  1 (1.000000)
    net charge:   0.00000000 [e]

Amount of molecules per component :
-------------------------------------------------------------------------------
Component 0 (CO2)
    molecules:      1.500000e+02 molecules  (1.500000e+02 +/- 0.000000e+00)
    number density: 1.452566e-02 molec./A^3 (1.443386e-02 +/- 0.000000e+00)
    density:        1.061270e+03 kg/m^3     (1.054563e+03 +/- 0.000000e+00)

Average pressure tensor: 
-------------------------------------------------------------------------------
-3.4057e+01 -4.9533e+01 -2.3654e+01 +/- 0.0000e+00 0.0000e+00 0.0000e+00 [bar]
-4.9533e+01  1.2596e+02 -6.2166e+01 +/- 0.0000e+00 0.0000e+00 0.0000e+00 [bar]
-2.3654e+01 -6.2166e+01  8.6809e+01 +/- 0.0000e+00 0.0000e+00 0.0000e+00 [bar]
Ideal-gas pressure:   4.982029e+02 +/ 0.000000e+00 [bar]
Excess pressure:     -4.386337e+02 +/ 0.000000e+00 [bar]
Pressure:             5.956920e+01 +/ 0.000000e+00 [bar]

Total potential energy/kʙ  -2.326416e+05 (-2.274721e+05 +/- 0.000000e+00) [K]
-------------------------------------------------------------------------------
ExternalField-molecule
    Van der Waals/kʙ        0.000000e+00 ( 0.000000e+00 +/- 0.000000e+00) [K]
Framework-molecule
    Van der Waals/kʙ        0.000000e+00 ( 0.000000e+00 +/- 0.000000e+00) [K]
    Van der Waals (Tail)/kʙ 0.000000e+00 ( 0.000000e+00 +/- 0.000000e+00) [K]
    Coulombic Real/kʙ       0.000000e+00 ( 0.000000e+00 +/- 0.000000e+00) [K]
    Coulombic Fourier/kʙ    0.000000e+00 ( 0.000000e+00 +/- 0.000000e+00) [K]
Molecule-molecule
    Van der Waals/kʙ       -1.667778e+05 (-1.621807e+05 +/- 0.000000e+00) [K]
    Van der Waals (Tail)/kʙ-6.990946e+03 (-6.942183e+03 +/- 0.000000e+00) [K]
    Coulombic Real/kʙ      -4.705533e+04 (-4.662770e+04 +/- 0.000000e+00) [K]
    Coulombic Fourier/kʙ   -1.181751e+04 (-1.172158e+04 +/- 0.000000e+00) [K]
    Molecule Intra/kʙ       0.000000e+00 ( 0.000000e+00 +/- 0.000000e+00) [K]

Current cycle: 2100 out of 5000
===============================================================================

Box:      21.75089   0.00000   0.00000  Average:  21.81946   0.00000   0.00000
           0.00000  21.75089   0.00000             0.00000  21.81946   0.00000
           0.00000   0.00000  21.75089             0.00000   0.00000  21.81946
Lengths:  21.75089  21.75089  21.75089  Average:  21.81946  21.81946  21.81946
Angles:   90.00000  90.00000  90.00000  Average:  90.00000  90.00000  90.00000
Rectangular boundary conditions

net charge:   0.00000000

component 0 (CO2) lambda:  0 occupancy:  1 (1.000000)
    net charge:   0.00000000 [e]

Amount of molecules per component :
-------------------------------------------------------------------------------
Component 0 (CO2)
    molecules:      1.500000e+02 molecules  (1.500000e+02 +/- 0.000000e+00)
    number density: 1.457673e-02 molec./A^3 (1.444506e-02 +/- 0.000000e+00)
    density:        1.065001e+03 kg/m^3     (1.055381e+03 +/- 0.000000e+00)

Average pressure tensor: 
-------------------------------------------------------------------------------
-2.5360e+01 -5.1640e+01 -2.2075e+01 +/- 0.0000e+00 0.0000e+00 0.0000e+00 [bar]
-5.1640e+01  1.1979e+02 -5.5109e+01 +/- 0.0000e+00 0.0000e+00 0.0000e+00 [bar]
-2.2075e+01 -5.5109e+01  1.0330e+02 +/- 0.0000e+00 0.0000e+00 0.0000e+00 [bar]
Ideal-gas pressure:   4.985895e+02 +/ 0.000000e+00 [bar]
Excess pressure:     -4.326822e+02 +/ 0.000000e+00 [bar]
Pressure:             6.590726e+01 +/ 0.000000e+00 [bar]

Total potential energy/kʙ  -2.301371e+05 (-2.275306e+05 +/- 0.000000e+00) [K]
-------------------------------------------------------------------------------
ExternalField-molecule
    Van der Waals/kʙ        0.000000e+00 ( 0.000000e+00 +/- 0.000000e+00) [K]
Framework-molecule
    Van der Waals/kʙ        0.000000e+00 ( 0.000000e+00 +/- 0.000000e+00) [K]
    Van der Waals (Tail)/kʙ 0.000000e+00 ( 0.000000e+00 +/- 0.000000e+00) [K]
[...]
    Coulombic Fourier/kʙ    0.000000e+00 ( 0.000000e+00 +/- 0.000000e+00) [K]
Molecule-molecule
    Van der Waals/kʙ       -1.644897e+05 (-1.614907e+05 +/- 2.615294e+03) [K]
    Van der Waals (Tail)/kʙ-7.229512e+03 (-6.922011e+03 +/- 9.352585e+01) [K]
    Coulombic Real/kʙ      -4.765714e+04 (-4.631783e+04 +/- 4.663282e+02) [K]
    Coulombic Fourier/kʙ   -1.141866e+04 (-1.152369e+04 +/- 2.606800e+02) [K]
    Molecule Intra/kʙ       0.000000e+00 ( 0.000000e+00 +/- 0.000000e+00) [K]

Current cycle: 4700 out of 5000
===============================================================================

Box:      21.74106   0.00000   0.00000  Average:  21.84832   0.00000   0.00000
           0.00000  21.74106   0.00000             0.00000  21.84832   0.00000
           0.00000   0.00000  21.74106             0.00000   0.00000  21.84832
Lengths:  21.74106  21.74106  21.74106  Average:  21.84832  21.84832  21.84832
Angles:   90.00000  90.00000  90.00000  Average:  90.00000  90.00000  90.00000
Rectangular boundary conditions

net charge:   0.00000000

component 0 (CO2) lambda:  0 occupancy:  1 (1.000000)
    net charge:   0.00000000 [e]

Amount of molecules per component :
-------------------------------------------------------------------------------
Component 0 (CO2)
    molecules:      1.500000e+02 molecules  (1.500000e+02 +/- 0.000000e+00)
    number density: 1.459652e-02 molec./A^3 (1.439040e-02 +/- 1.857665e-04)
    density:        1.066447e+03 kg/m^3     (1.051387e+03 +/- 1.357242e+01)

Average pressure tensor: 
-------------------------------------------------------------------------------
 2.1103e+01 -3.4936e+00  3.4581e+00 +/- 1.0965e+02 6.4755e+01 4.7360e+01 [bar]
-3.4936e+00  9.0556e+01 -1.8779e+01 +/- 6.4755e+01 6.3626e+01 5.8432e+01 [bar]
 3.4581e+00 -1.8779e+01  9.2221e+01 +/- 4.7360e+01 5.8432e+01 2.2983e+01 [bar]
Ideal-gas pressure:   4.967029e+02 +/ 6.411963e+00 [bar]
Excess pressure:     -4.287430e+02 +/ 5.072882e+01 [bar]
Pressure:             6.795992e+01 +/ 4.551341e+01 [bar]

Total potential energy/kʙ  -2.276804e+05 (-2.263120e+05 +/- 2.986457e+03) [K]
-------------------------------------------------------------------------------
ExternalField-molecule
    Van der Waals/kʙ        0.000000e+00 ( 0.000000e+00 +/- 0.000000e+00) [K]
Framework-molecule
    Van der Waals/kʙ        0.000000e+00 ( 0.000000e+00 +/- 0.000000e+00) [K]
    Van der Waals (Tail)/kʙ 0.000000e+00 ( 0.000000e+00 +/- 0.000000e+00) [K]
    Coulombic Real/kʙ       0.000000e+00 ( 0.000000e+00 +/- 0.000000e+00) [K]
    Coulombic Fourier/kʙ    0.000000e+00 ( 0.000000e+00 +/- 0.000000e+00) [K]
Molecule-molecule
    Van der Waals/kʙ       -1.638896e+05 (-1.615736e+05 +/- 2.355374e+03) [K]
    Van der Waals (Tail)/kʙ-7.025048e+03 (-6.925011e+03 +/- 8.550705e+01) [K]
    Coulombic Real/kʙ      -4.527943e+04 (-4.628863e+04 +/- 5.096963e+02) [K]
    Coulombic Fourier/kʙ   -1.148632e+04 (-1.152477e+04 +/- 2.575365e+02) [K]
    Molecule Intra/kʙ       0.000000e+00 ( 0.000000e+00 +/- 0.000000e+00) [K]

Current cycle: 4800 out of 5000
===============================================================================

Box:      21.83967   0.00000   0.00000  Average:  21.85009   0.00000   0.00000
           0.00000  21.83967   0.00000             0.00000  21.85009   0.00000
           0.00000   0.00000  21.83967             0.00000   0.00000  21.85009
Lengths:  21.83967  21.83967  21.83967  Average:  21.85009  21.85009  21.85009
Angles:   90.00000  90.00000  90.00000  Average:  90.00000  90.00000  90.00000
Rectangular boundary conditions

net charge:   0.00000000

component 0 (CO2) lambda:  0 occupancy:  1 (1.000000)
    net charge:   0.00000000 [e]

Amount of molecules per component :
-------------------------------------------------------------------------------
Component 0 (CO2)
    molecules:      1.500000e+02 molecules  (1.500000e+02 +/- 0.000000e+00)
    number density: 1.439969e-02 molec./A^3 (1.438684e-02 +/- 1.874603e-04)
    density:        1.052066e+03 kg/m^3     (1.051127e+03 +/- 1.369617e+01)

Average pressure tensor: 
-------------------------------------------------------------------------------
 2.0741e+01 -3.0106e+00  9.5200e+00 +/- 1.0955e+02 6.4687e+01 5.9373e+01 [bar]
-3.0106e+00  8.6519e+01 -1.6576e+01 +/- 6.4687e+01 5.8742e+01 6.0470e+01 [bar]
 9.5200e+00 -1.6576e+01  9.1401e+01 +/- 5.9373e+01 6.0470e+01 2.1292e+01 [bar]
Ideal-gas pressure:   4.965800e+02 +/ 6.470427e+00 [bar]
Excess pressure:     -4.303597e+02 +/ 4.876824e+01 [bar]
Pressure:             6.622032e+01 +/ 4.366827e+01 [bar]

Total potential energy/kʙ  -2.264645e+05 (-2.263129e+05 +/- 2.914352e+03) [K]
-------------------------------------------------------------------------------
ExternalField-molecule
    Van der Waals/kʙ        0.000000e+00 ( 0.000000e+00 +/- 0.000000e+00) [K]
Framework-molecule
    Van der Waals/kʙ        0.000000e+00 ( 0.000000e+00 +/- 0.000000e+00) [K]
    Van der Waals (Tail)/kʙ 0.000000e+00 ( 0.000000e+00 +/- 0.000000e+00) [K]
    Coulombic Real/kʙ       0.000000e+00 ( 0.000000e+00 +/- 0.000000e+00) [K]
    Coulombic Fourier/kʙ    0.000000e+00 ( 0.000000e+00 +/- 0.000000e+00) [K]
Molecule-molecule
    Van der Waals/kʙ       -1.628074e+05 (-1.615512e+05 +/- 2.339052e+03) [K]
    Van der Waals (Tail)/kʙ-6.930316e+03 (-6.923630e+03 +/- 8.591155e+01) [K]
    Coulombic Real/kʙ      -4.579309e+04 (-4.632040e+04 +/- 4.405099e+02) [K]
    Coulombic Fourier/kʙ   -1.093364e+04 (-1.151767e+04 +/- 2.618893e+02) [K]
    Molecule Intra/kʙ       0.000000e+00 ( 0.000000e+00 +/- 0.000000e+00) [K]

Current cycle: 4900 out of 5000
===============================================================================

Box:      21.86136   0.00000   0.00000  Average:  21.84894   0.00000   0.00000
           0.00000  21.86136   0.00000             0.00000  21.84894   0.00000
           0.00000   0.00000  21.86136             0.00000   0.00000  21.84894
Lengths:  21.86136  21.86136  21.86136  Average:  21.84894  21.84894  21.84894
Angles:   90.00000  90.00000  90.00000  Average:  90.00000  90.00000  90.00000
Rectangular boundary conditions

net charge:   0.00000000

component 0 (CO2) lambda:  0 occupancy:  1 (1.000000)
    net charge:   0.00000000 [e]

Amount of molecules per component :
-------------------------------------------------------------------------------
Component 0 (CO2)
    molecules:      1.500000e+02 molecules  (1.500000e+02 +/- 0.000000e+00)
    number density: 1.435688e-02 molec./A^3 (1.438902e-02 +/- 1.829210e-04)
    density:        1.048938e+03 kg/m^3     (1.051286e+03 +/- 1.336452e+01)

Average pressure tensor: 
-------------------------------------------------------------------------------
 2.0832e+01 -2.7593e+00  6.9785e+00 +/- 1.0954e+02 6.4676e+01 5.0568e+01 [bar]
-2.7593e+00  8.2666e+01 -1.3949e+01 +/- 6.4676e+01 5.7936e+01 6.3271e+01 [bar]
 6.9785e+00 -1.3949e+01  9.3780e+01 +/- 5.0568e+01 6.3271e+01 2.4317e+01 [bar]
Ideal-gas pressure:   4.966551e+02 +/ 6.313749e+00 [bar]
Excess pressure:     -4.308959e+02 +/ 4.832303e+01 [bar]
Pressure:             6.575927e+01 +/ 4.336600e+01 [bar]

Total potential energy/kʙ  -2.215922e+05 (-2.263293e+05 +/- 2.845338e+03) [K]
-------------------------------------------------------------------------------
ExternalField-molecule
    Van der Waals/kʙ        0.000000e+00 ( 0.000000e+00 +/- 0.000000e+00) [K]
Framework-molecule
    Van der Waals/kʙ        0.000000e+00 ( 0.000000e+00 +/- 0.000000e+00) [K]
    Van der Waals (Tail)/kʙ 0.000000e+00 ( 0.000000e+00 +/- 0.000000e+00) [K]
    Coulombic Real/kʙ       0.000000e+00 ( 0.000000e+00 +/- 0.000000e+00) [K]
    Coulombic Fourier/kʙ    0.000000e+00 ( 0.000000e+00 +/- 0.000000e+00) [K]
Molecule-molecule
    Van der Waals/kʙ       -1.590927e+05 (-1.615673e+05 +/- 2.282777e+03) [K]
    Van der Waals (Tail)/kʙ-6.909712e+03 (-6.924457e+03 +/- 8.389939e+01) [K]
    Coulombic Real/kʙ      -4.357996e+04 (-4.631491e+04 +/- 4.407778e+02) [K]
    Coulombic Fourier/kʙ   -1.200981e+04 (-1.152266e+04 +/- 2.565628e+02) [K]
    Molecule Intra/kʙ       0.000000e+00 ( 0.000000e+00 +/- 0.000000e+00) [K]


Energy statistics             |  Energy [K]   | Recomputed [K]|  Drift [K]    |
===============================================================================
Total potential energy/kʙ     | -2.333123e+05 | -2.333123e+05 | -1.400155e-09 |
    external field VDW/kʙ     |  0.000000e+00 |  0.000000e+00 |  0.000000e+00 |
    external field Real/kʙ    |  0.000000e+00 |  0.000000e+00 |  0.000000e+00 |
    framework-molecule VDW/kʙ |  0.000000e+00 |  0.000000e+00 |  0.000000e+00 |
    framework-molecule Real/kʙ|  0.000000e+00 |  0.000000e+00 |  0.000000e+00 |
    molecule-molecule VDW/kʙ  | -1.666303e+05 | -1.666303e+05 | -2.030225e-09 |
    molecule-molecule Real/kʙ | -4.771237e+04 | -4.771237e+04 |  6.300699e-10 |
    Van der Waals (Tail)/kʙ   | -7.089779e+03 | -7.089779e+03 |  0.000000e+00 |
    Ewald Fourier/kʙ          |  9.916432e+03 |  9.916432e+03 |  0.000000e+00 |
    Ewald self/kʙ             | -3.334385e+06 | -3.334385e+06 |  0.000000e+00 |
    Ewald exclusion/kʙ        |  3.312589e+06 |  3.312589e+06 |  0.000000e+00 |
    intra VDW/kʙ              |  0.000000e+00 |  0.000000e+00 |  0.000000e+00 |
    intra Coulombic/kʙ        |  0.000000e+00 |  0.000000e+00 |  0.000000e+00 |
    polarization/kʙ           |  0.000000e+00 |  0.000000e+00 |  0.000000e+00 |
    dU/dlambda VDW/kʙ         |  0.000000e+00 |  0.000000e+00 |  0.000000e+00 |
    dU/dlambda Real/kʙ        |  0.000000e+00 |  0.000000e+00 |  0.000000e+00 |
    dU/dlambda Ewald/kʙ       |  0.000000e+00 |  0.000000e+00 |  0.000000e+00 |
-------------------------------------------------------------------------------


Monte-Carlo moves statistics
===============================================================================

    Volume change        all:                4922
    Volume change        total:              4922
    Volume change        constructed:        4922
    Volume change        accepted:           1779
    Volume change        fraction:       0.361438
    Volume change        max-change:     0.050000

Component 0 [CO2]
    Reinsertion (CBMC)   all:              248786
    Reinsertion (CBMC)   total:            248786
    Reinsertion (CBMC)   constructed:      224037
    Reinsertion (CBMC)   accepted:           4151
    Reinsertion (CBMC)   fraction:       0.016685
    Reinsertion (CBMC)   max-change:     0.000000

    Translation          all:              247830
    Translation          total:             82398      82879      82553
    Translation          constructed:       82365      82879      82553
    Translation          accepted:          30649      40408      40325
    Translation          fraction:       0.371963   0.487554   0.488474
    Translation          max-change:     1.000000   0.687500   0.692308

    Rotation             all:              248462
    Rotation             total:             82549      82759      83154
    Rotation             constructed:       82428      82759      83154
    Rotation             accepted:          28764      45643      43661
    Rotation             fraction:       0.348448   0.551517   0.525062
    Rotation             max-change:     1.169591   0.586667   0.631579



Production run counting of the MC moves summed over systems and components
===============================================================================

Volume change                          4922 (0.6563 [%])
Reinsertion (CBMC)                   248786 (33.1715 [%])
Translation                          247830 (33.0440 [%])
Rotation                             248462 (33.1283 [%])

Production count MC-steps:           750000 [-]
               All summed:           750000 [-]
               difference:                0 [-]


Production run CPU timings of the MC moves
===============================================================================

Component 0 CO2

Rotation                             34.845034 [s]
    Ewald                            18.606989 [s]
    ExternalField-Molecule            0.009075 [s]
    Framework-Molecule                0.007741 [s]
    Molecule-Molecule                14.732055 [s]
    Overhead                          1.489174 [s]

Reinsertion (CBMC)                  118.402728 [s]
    Ewald                            16.873222 [s]
    NonEwald                        101.263377 [s]
    Overhead                          0.266129 [s]

Translation                          34.756922 [s]
    Ewald                            18.569462 [s]
    ExternalField-Molecule            0.008802 [s]
    Framework-Molecule                0.013592 [s]
    Molecule-Molecule                14.773895 [s]
    Overhead                          1.391171 [s]



Volume change                         22.595064 [s]
    Ewald                             10.832999 [s]
    NonEwald                          11.003393 [s]
    Tail                               0.612483 [s]

Property sampling                     0.262188 [s]
Energy/pressure sampling:             5.110214 [s]


Production run CPU timings of the MC moves summed over systems and components
===============================================================================


Translation                          34.756922 [s]
    Ewald                            18.569462 [s]
    ExternalField-Molecule            0.008802 [s]
    Framework-Molecule                0.013592 [s]
    Molecule-Molecule                14.773895 [s]
    Overhead                          1.391171 [s]

Rotation                             34.845034 [s]
    Ewald                            18.606989 [s]
    ExternalField-Molecule            0.009075 [s]
    Framework-Molecule                0.007741 [s]
    Molecule-Molecule                14.732055 [s]
    Overhead                          1.489174 [s]

Volume change                        22.595064 [s]
    Ewald                            10.832999 [s]
    NonEwald                         11.003393 [s]
    Tail                              0.612483 [s]
    Overhead                          0.146189 [s]

Reinsertion (CBMC)                  118.402728 [s]
    Ewald                            16.873222 [s]
    NonEwald                        101.263377 [s]
    Overhead                          0.266129 [s]

Property sampling:                    0.262188 [s]
Energy/pressure sampling:             5.110214 [s]

Production simulation time:         216.573489 [s]
                All summed:         215.972150 [s]
                  Overhead:           0.601339 [s]


Initalization simulation time:       40.672669 [s]
Equilibration simulation time:        0.000000 [s]
Production simulation time:         216.573489 [s]
Total simulation time:              257.246158 [s]


Energy averages and statistics:
===============================================================================

Framework-molecule energy:
-------------------------------------------------------------------------------



Framework-molecule energy contributions per energy type:
-------------------------------------------------------------------------------



Inter-molecular energy:
-------------------------------------------------------------------------------

    Inter-molecular energy/kʙ 0-0 [CO2-CO2]:
    ---------------------------------------------------------------------------
        Block[  0] -2.283924e+05
        Block[  1] -2.265002e+05
        Block[  2] -2.233161e+05
        Block[  3] -2.285758e+05
        Block[  4] -2.252030e+05
        -----------------------------------------------------------------------
        Average  -2.263975e+05 +/-  2.752108e+03 [K]



Inter-molecular energy contributions per energy type:
-------------------------------------------------------------------------------

    Van der Waals energy/kʙ 0-0 [CO2-CO2]:
    ---------------------------------------------------------------------------
        Block[  0] -1.629498e+05
        Block[  1] -1.613656e+05
        Block[  2] -1.593068e+05
        Block[  3] -1.637822e+05
        Block[  4] -1.607219e+05
        -----------------------------------------------------------------------
        Average  -1.616253e+05 +/-  2.209128e+03 [K]

    VDW Tail-Correction energy/kʙ 0-0 [CO2-CO2]:
    ---------------------------------------------------------------------------
        Block[  0] -6.968657e+03
        Block[  1] -6.915221e+03
        Block[  2] -6.840102e+03
        Block[  3] -7.010838e+03
        Block[  4] -6.896549e+03
        -----------------------------------------------------------------------
        Average  -6.926273e+03 +/-  8.183056e+01 [K]

    Coulomb Real energy/kʙ 0-0 [CO2-CO2]:
    ---------------------------------------------------------------------------
        Block[  0] -4.683274e+04
        Block[  1] -4.641838e+04
        Block[  2] -4.591000e+04
        Block[  3] -4.632393e+04
        Block[  4] -4.615724e+04
        -----------------------------------------------------------------------
        Average  -4.632846e+04 +/-  4.241119e+02 [K]

    Coulomb Fourier energy/kʙ 0-0 [CO2-CO2]:
    ---------------------------------------------------------------------------
        Block[  0] -1.164122e+04
        Block[  1] -1.180097e+04
        Block[  2] -1.125923e+04
        Block[  3] -1.145882e+04
        Block[  4] -1.142725e+04
        -----------------------------------------------------------------------
        Average  -1.151750e+04 +/-  2.588956e+02 [K]


Total energy/kʙ
-------------------------------------------------------------------------------
    Block[  0] -2.283924e+05
    Block[  1] -2.265002e+05
    Block[  2] -2.233161e+05
    Block[  3] -2.285758e+05
    Block[  4] -2.252030e+05
    ---------------------------------------------------------------------------
    Average  -2.263975e+05 +/-  2.752108e+03 [K]

Pressure averages and statistics:
===============================================================================

Average pressure tensor: 
-------------------------------------------------------------------------------
 1.7852e+01 -8.7656e+00  7.2760e+00 +/- 1.0953e+02 6.6876e+01 4.9270e+01 [bar]
-8.7656e+00  8.0275e+01 -1.1013e+01 +/- 6.6876e+01 5.8574e+01 6.6541e+01 [bar]
 7.2760e+00 -1.1013e+01  9.6966e+01 +/- 4.9270e+01 6.6541e+01 2.9408e+01 [bar]

    Block[  0]  4.997463e+07
    Block[  1]  4.966563e+07
    Block[  2]  4.898725e+07
    Block[  3]  5.029456e+07
    Block[  4]  4.947474e+07
    ---------------------------------------------------------------------------
    Ideal gas pressure   4.967936e+07 +/-  3.713261e-02 [Pa]
                         4.967936e+02 +/-  6.166020e+00 [bar]


    Block[  0] -4.178357e+07
    Block[  1] -4.595018e+07
    Block[  2] -3.781920e+07
    Block[  3] -4.776023e+07
    Block[  4] -4.256802e+07
    ---------------------------------------------------------------------------
    Excess pressure  -4.317624e+07 +/-  4.796745e+06 [Pa]
                     -4.317624e+02 +/-  4.796745e+01 [bar]


    Block[  0]  8.191061e+06
    Block[  1]  3.715441e+06
    Block[  2]  1.116805e+07
    Block[  3]  2.534327e+06
    Block[  4]  6.906721e+06
    ---------------------------------------------------------------------------
    Pressure average   6.503120e+06 +/-  4.313803e+06 [Pa]
                       6.503120e+01 +/-  4.313803e+01 [bar]


Enthalpy of adsorption
===============================================================================

No fluctuating components present.


Densities
===============================================================================

Component 0 (CO2)
    Block[  0] 150
    Block[  1] 150
    Block[  2] 150
    Block[  3] 150
    Block[  4] 150
    -----------------------------------------------------------------------
    Density average   1.500000e+02 +/-  0.000000e+00 [molecules]
    Density average   1.439303e-02 +/-  1.786410e-04 [molec/A^3]
    Density average   1.051580e+03 +/-  1.305182e+01 [kg.m⁻³]

