Compiler and run-time data
===============================================================================
RASPA 3.0.4

Random seed: 3824550561

Compiled as a 64-bits application
Compiler: gcc Ubuntu Clang 18.1.3 (1ubuntu1)
Compile Date = Mar 15 2025, Compile Time = 19:39:45

2025-06-02 14:17:00.103761
Simulation started on Mon, Jun 02
The start time was 14:17:00

Hostname:    c060
OS type:     Linux on x86_64
OS release:  6.8.0-58-generic
OS version:  #60-Ubuntu SMP PREEMPT_DYNAMIC Fri Mar 14 18:29:48 UTC 2025


Mutual consistent basic set of units:
===============================================================================

Unit of temperature: 1 [K]
Unit of length:      1e-10 [m]
Unit of time:        1e-12 [s]
Unit of mass:        1.6605402e-27 [kg]
Unit of charge:      1.60217733e-19 [C/particle]


Boltzmann constant (internal units):          0.8314464919307584 [-]
represents conversion from energy (internal units) to temperature (in Kelvin)

Derived units and their conversion factors:
===============================================================================

Unit of energy:                           1.6605402000000002e-23 [J]
Unit of energy:                           10.000008872307538 [J.mol⁻¹]
Unit of velocity:                         100 [m.s⁻¹]
Unit of force:                            1.6605402000000002e-13 [N]
Unit of diffusion:                        1.0000000000000002e-08 [m².s⁻¹]
Unit of acceleration:                     1.0000000000000002e-08 [m².s⁻¹]
Unit of torque:                           1.6605402000000002e-23 [N.m]
Unit of pressure:                         16605402 [Pa]
Unit of volume:                           1e-30 [m³]
Unit of density:                          1660.5402 [kg.m⁻³]
Unit of dynamic viscosity:                1.6605401999999997e-05 [N.s.m⁻²]
Unit of enthalpy:                         1.6605402000000002e-23 [J]
Unit of polarizability:                   1.5458657349975198e-35 [-]
Unit of Coulomb potential:                167101.08000665612 [K]
Unit of dielectric constant:              1.5458657349975193e-05 [s².C².kg⁻¹.m⁻³]
Unit of dipole moment:                    1.60217733e-29 [C.m]
Unit of Debye:                            4.803206799099162 [C.m]
Unit of electric potential:               0.00010364272224473431 [V]
Unit of electric field:                   1036427.222447343 [V.m⁻¹]
Unit of isothermal compressibility:       6.02213665167516e-08 [Pa⁻¹]
Unit of heat capacity:                    10.000008872307538 [J.mol⁻¹.K⁻¹]
Unit of volumetric expansion coefficient: 1 [K⁻¹]


Internal conversion factors:
===============================================================================

Energy (internal units) to Kelvin:      1.202724284692786 [-]
Kelvin to energy (internal units):      0.8314457542157567 [-]


System definitions
===============================================================================

Temperature:          250 [K]
Beta:                 0.0048108928702210625 [-]
Pressure:             4e+06 [Pa]
Helium void fraction: 1 [-]

Box:      30.00000   0.00000   0.00000
           0.00000  30.00000   0.00000
           0.00000   0.00000  30.00000
Lengths:  30.00000  30.00000  30.00000
Angles:   90.00000  90.00000  90.00000
Rectangular boundary conditions



Property measurement settings
===============================================================================




Pseudo-atoms
===============================================================================

  0 - C_co2    framework-atom: false
  1 - O_co2    framework-atom: false

  0 - C_co2    mass: 12.00000, charge:  0.70000
  1 - O_co2    mass: 15.99940, charge: -0.35000

  0 - C_co2    polarizability:  0.00000
  1 - O_co2    polarizability:  0.00000

  0 - J. J. Potoff et al., AIChE J. 2001, 47, 1676–1682.
  1 - J. J. Potoff et al., AIChE J. 2001, 47, 1676–1682.

Force field status
===============================================================================

Cutoff Framework-Molecule VDW:  10.00000 [Å]
Cutoff Molecule-Molecule VDW:   10.00000 [Å]
Cutoff Coulomb:                 10.00000 [Å]

Overlap-criteria VDW:           1.000000e+05 [K]

C_co2    - C_co2    Lennard-Jones p₀/kʙ:  27.00000 [K], p₁:  2.80000 [Å]
                                  shift:   0.00000 [K], tailcorrections: true
C_co2    - O_co2    Lennard-Jones p₀/kʙ:  46.18441 [K], p₁:  2.92500 [Å]
                                  shift:   0.00000 [K], tailcorrections: true
O_co2    - O_co2    Lennard-Jones p₀/kʙ:  79.00000 [K], p₁:  3.05000 [Å]
                                  shift:   0.00000 [K], tailcorrections: true

Ewald precision: 1e-06
Ewald alpha: 0.32079885109097883
Ewald k-vectors: 10 10 10


Component definitions
===============================================================================

Component 0 [CO2]

    Type: Adsorbate

    Critical temperature:  304.1282 [K]
    Critical pressure:     7377300 [Pa]
    Acentric factor:       0.22394 [-]

    Mol-fraction:                 1 [-]
    Swappable:                   false

    Mass:                         43.9988 [-]
    Bulk fluid density:           0 [-]
    Compressibility:              0 [-]
    Excess molecules:             0 [-]

    Number Of Atoms:    3
    CBMC starting bead: 0
      0: O_co2  position  0.00000 -0.00000  1.16000, charge -0.35000
      1: C_co2  position  0.00000 -0.00000  0.00000, charge  0.70000
      2: O_co2  position  0.00000 -0.00000 -1.16000, charge -0.35000
    Diagonalized inertia-vector:      43.05758528 43.05758528 0.00000000
    Translational degrees of freedom: 3
    Rotational degrees of freedom:    2
    Shape of the molecule is: 'Linear'
    Net-charge:        0.00000000 [e]

    Move probabilities:
    Translation:                   0.331126 [-]
    Random translation:            0.000000 [-]
    Rotation:                      0.331126 [-]
    Random rotation:               0.000000 [-]
    Volume change:                 0.006623 [-]
    Reinsertion (CBMC):            0.331126 [-]
    Identity change (CBMC):        0.000000 [-]
    Swap:                          0.000000 [-]
    Swap (CBMC):                   0.000000 [-]
    Swap (CFCMC):                  0.000000 [-]
    Swap (CB/CFCMC):               0.000000 [-]
    Gibbs volume:                  0.000000 [-]
    Gibbs swap (CBMC):             0.000000 [-]
    Gibbs swap (CFCMC):            0.000000 [-]
    Widom:                         0.000000 [-]
    Widom (CFCMC):                 0.000000 [-]
    Widom (CB/CFCMC):              0.000000 [-]
    Parallel tempering:            0.000000 [-]
    Hybrid MC:                     0.000000 [-]

    number of blocking-pockets: 0

    number of bonds: 0





Number of pseudo-atoms
===============================================================================

Component   0 (CO2)
-------------------------------------------------------------------------------
    index   0 (C_co2): 100 atoms
    index   1 (O_co2): 200 atoms

Total number of pseudo-atoms:
-------------------------------------------------------------------------------
    index   0 (C_co2): 100 atoms
    index   1 (O_co2): 200 atoms




Energy status Recomputed from scratch
===============================================================================

Total potential energy/kʙ       -4.134792e+03 [K]
    external field VDW/kʙ        0.000000e+00 [K]
    external field Real/kʙ       0.000000e+00 [K]
    framework-molecule VDW/kʙ    0.000000e+00 [K]
    framework-molecule Real/kʙ   0.000000e+00 [K]
    molecule-molecule VDW/kʙ    -5.412412e+02 [K]
    molecule-molecule Real/kʙ   -2.528339e+03 [K]
    Van der Waals (Tail)/kʙ     -1.188352e+03 [K]
    Ewald Fourier/kʙ             1.465399e+04 [K]
    Ewald self/kʙ               -2.222923e+06 [K]
    Ewald exclusion/kʙ           2.208392e+06 [K]
    intra VDW/kʙ                 0.000000e+00 [K]
    intra Coulombic/kʙ           0.000000e+00 [K]
    polarization/kʙ              0.000000e+00 [K]
    dU/dlambda VDW/kʙ            0.000000e+00 [K]
    dU/dlambda Real/kʙ           0.000000e+00 [K]
    dU/dlambda Ewald/kʙ          0.000000e+00 [K]





Initialization: Current cycle: 0 out of 1000
===============================================================================

Box:      30.24896   0.00000   0.00000
           0.00000  30.24896   0.00000
           0.00000   0.00000  30.24896
Lengths:  30.24896  30.24896  30.24896
Angles:   90.00000  90.00000  90.00000
Rectangular boundary conditions

net charge:   0.00000000

component   0 (CO2) lambda:  0 occupancy:  1 (1.000000)
    net charge:   0.00000000 [e]

Amount of molecules per component :
-------------------------------------------------------------------------------
Component 0 (CO2)
    molecules:         1.000000e+02 molecules
    number density:    3.613004e-03 molec/A^3
    density:           2.639723e+02 kg/m^3

Total potential energy/kʙ       -3.240464e+04 [K]
-------------------------------------------------------------------------------
    external field VDW/kʙ        0.000000e+00 [K]
    external field Real/kʙ       0.000000e+00 [K]
    framework-molecule VDW/kʙ    0.000000e+00 [K]
    framework-molecule Real/kʙ   0.000000e+00 [K]
    molecule-molecule VDW/kʙ    -2.665666e+04 [K]
    molecule-molecule Real/kʙ   -4.023238e+03 [K]
    Van der Waals (Tail)/kʙ     -1.159250e+03 [K]
    Ewald Fourier/kʙ             1.396536e+04 [K]
    Ewald self/kʙ               -2.222923e+06 [K]
    Ewald exclusion/kʙ           2.208392e+06 [K]
    intra VDW/kʙ                 0.000000e+00 [K]
    intra Coulombic/kʙ           0.000000e+00 [K]
    polarization/kʙ              0.000000e+00 [K]
    dU/dlambda VDW/kʙ            0.000000e+00 [K]
    dU/dlambda Real/kʙ           0.000000e+00 [K]
    dU/dlambda Ewald/kʙ          0.000000e+00 [K]


Initialization: Current cycle: 100 out of 1000
===============================================================================

Box:      28.22025   0.00000   0.00000
           0.00000  28.22025   0.00000
           0.00000   0.00000  28.22025
Lengths:  28.22025  28.22025  28.22025
Angles:   90.00000  90.00000  90.00000
Rectangular boundary conditions

net charge:   0.00000000

component   0 (CO2) lambda:  0 occupancy:  1 (1.000000)
    net charge:   0.00000000 [e]

Amount of molecules per component :
-------------------------------------------------------------------------------
Component 0 (CO2)
    molecules:         1.000000e+02 molecules
    number density:    4.449564e-03 molec/A^3
    density:           3.250928e+02 kg/m^3

Total potential energy/kʙ       -6.563743e+04 [K]
-------------------------------------------------------------------------------
    external field VDW/kʙ        0.000000e+00 [K]
    external field Real/kʙ       0.000000e+00 [K]
    framework-molecule VDW/kʙ    0.000000e+00 [K]
    framework-molecule Real/kʙ   0.000000e+00 [K]
    molecule-molecule VDW/kʙ    -4.898733e+04 [K]
    molecule-molecule Real/kʙ   -1.190719e+04 [K]
    Van der Waals (Tail)/kʙ     -1.427664e+03 [K]
    Ewald Fourier/kʙ             1.121561e+04 [K]
    Ewald self/kʙ               -2.222923e+06 [K]
    Ewald exclusion/kʙ           2.208392e+06 [K]
    intra VDW/kʙ                 0.000000e+00 [K]
    intra Coulombic/kʙ           0.000000e+00 [K]
    polarization/kʙ              0.000000e+00 [K]
    dU/dlambda VDW/kʙ            0.000000e+00 [K]
    dU/dlambda Real/kʙ           0.000000e+00 [K]
    dU/dlambda Ewald/kʙ          0.000000e+00 [K]


Initialization: Current cycle: 200 out of 1000
===============================================================================

Box:      26.00611   0.00000   0.00000
           0.00000  26.00611   0.00000
           0.00000   0.00000  26.00611
Lengths:  26.00611  26.00611  26.00611
Angles:   90.00000  90.00000  90.00000
Rectangular boundary conditions

net charge:   0.00000000

component   0 (CO2) lambda:  0 occupancy:  1 (1.000000)
    net charge:   0.00000000 [e]

Amount of molecules per component :
-------------------------------------------------------------------------------
Component 0 (CO2)
    molecules:         1.000000e+02 molecules
    number density:    5.685564e-03 molec/A^3
    density:           4.153971e+02 kg/m^3

Total potential energy/kʙ       -7.486847e+04 [K]
-------------------------------------------------------------------------------
    external field VDW/kʙ        0.000000e+00 [K]
    external field Real/kʙ       0.000000e+00 [K]
    framework-molecule VDW/kʙ    0.000000e+00 [K]
    framework-molecule Real/kʙ   0.000000e+00 [K]
    molecule-molecule VDW/kʙ    -5.480488e+04 [K]
    molecule-molecule Real/kʙ   -1.453798e+04 [K]
    Van der Waals (Tail)/kʙ     -1.824241e+03 [K]
    Ewald Fourier/kʙ             1.082948e+04 [K]
    Ewald self/kʙ               -2.222923e+06 [K]
    Ewald exclusion/kʙ           2.208392e+06 [K]
    intra VDW/kʙ                 0.000000e+00 [K]
    intra Coulombic/kʙ           0.000000e+00 [K]
    polarization/kʙ              0.000000e+00 [K]
    dU/dlambda VDW/kʙ            0.000000e+00 [K]
    dU/dlambda Real/kʙ           0.000000e+00 [K]
    dU/dlambda Ewald/kʙ          0.000000e+00 [K]


Initialization: Current cycle: 300 out of 1000
===============================================================================

Box:      25.74109   0.00000   0.00000
           0.00000  25.74109   0.00000
           0.00000   0.00000  25.74109
Lengths:  25.74109  25.74109  25.74109
Angles:   90.00000  90.00000  90.00000
Rectangular boundary conditions

net charge:   0.00000000

component   0 (CO2) lambda:  0 occupancy:  1 (1.000000)
    net charge:   0.00000000 [e]

Amount of molecules per component :
-------------------------------------------------------------------------------
Component 0 (CO2)
    molecules:         1.000000e+02 molecules
    number density:    5.862992e-03 molec/A^3
    density:           4.283603e+02 kg/m^3

Total potential energy/kʙ       -8.270887e+04 [K]
-------------------------------------------------------------------------------
    external field VDW/kʙ        0.000000e+00 [K]
    external field Real/kʙ       0.000000e+00 [K]
    framework-molecule VDW/kʙ    0.000000e+00 [K]
    framework-molecule Real/kʙ   0.000000e+00 [K]
    molecule-molecule VDW/kʙ    -5.837762e+04 [K]
    molecule-molecule Real/kʙ   -1.828399e+04 [K]
    Van der Waals (Tail)/kʙ     -1.881170e+03 [K]
    Ewald Fourier/kʙ             1.036476e+04 [K]
    Ewald self/kʙ               -2.222923e+06 [K]
    Ewald exclusion/kʙ           2.208392e+06 [K]
    intra VDW/kʙ                 0.000000e+00 [K]
    intra Coulombic/kʙ           0.000000e+00 [K]
    polarization/kʙ              0.000000e+00 [K]
    dU/dlambda VDW/kʙ            0.000000e+00 [K]
    dU/dlambda Real/kʙ           0.000000e+00 [K]
    dU/dlambda Ewald/kʙ          0.000000e+00 [K]


Initialization: Current cycle: 400 out of 1000
===============================================================================

Box:      26.36402   0.00000   0.00000
           0.00000  26.36402   0.00000
           0.00000   0.00000  26.36402
Lengths:  26.36402  26.36402  26.36402
Angles:   90.00000  90.00000  90.00000
Rectangular boundary conditions

net charge:   0.00000000

component   0 (CO2) lambda:  0 occupancy:  1 (1.000000)
    net charge:   0.00000000 [e]

Amount of molecules per component :
-------------------------------------------------------------------------------
Component 0 (CO2)
    molecules:         1.000000e+02 molecules
    number density:    5.457139e-03 molec/A^3
    density:           3.987079e+02 kg/m^3

Total potential energy/kʙ       -7.304178e+04 [K]
-------------------------------------------------------------------------------
    external field VDW/kʙ        0.000000e+00 [K]
    external field Real/kʙ       0.000000e+00 [K]
    framework-molecule VDW/kʙ    0.000000e+00 [K]
    framework-molecule Real/kʙ   0.000000e+00 [K]
    molecule-molecule VDW/kʙ    -5.258587e+04 [K]
    molecule-molecule Real/kʙ   -1.538351e+04 [K]
    Van der Waals (Tail)/kʙ     -1.750950e+03 [K]
    Ewald Fourier/kʙ             1.120940e+04 [K]
    Ewald self/kʙ               -2.222923e+06 [K]
    Ewald exclusion/kʙ           2.208392e+06 [K]
    intra VDW/kʙ                 0.000000e+00 [K]
    intra Coulombic/kʙ           0.000000e+00 [K]
    polarization/kʙ              0.000000e+00 [K]
    dU/dlambda VDW/kʙ            0.000000e+00 [K]
    dU/dlambda Real/kʙ           0.000000e+00 [K]
    dU/dlambda Ewald/kʙ          0.000000e+00 [K]


Initialization: Current cycle: 500 out of 1000
===============================================================================

Box:      26.24999   0.00000   0.00000
           0.00000  26.24999   0.00000
           0.00000   0.00000  26.24999
Lengths:  26.24999  26.24999  26.24999
Angles:   90.00000  90.00000  90.00000
Rectangular boundary conditions

net charge:   0.00000000

component   0 (CO2) lambda:  0 occupancy:  1 (1.000000)
    net charge:   0.00000000 [e]

Amount of molecules per component :
-------------------------------------------------------------------------------
Component 0 (CO2)
    molecules:         1.000000e+02 molecules
    number density:    5.528568e-03 molec/A^3
    density:           4.039266e+02 kg/m^3

Total potential energy/kʙ       -7.820732e+04 [K]
-------------------------------------------------------------------------------
    external field VDW/kʙ        0.000000e+00 [K]
    external field Real/kʙ       0.000000e+00 [K]
    framework-molecule VDW/kʙ    0.000000e+00 [K]
    framework-molecule Real/kʙ   0.000000e+00 [K]
    molecule-molecule VDW/kʙ    -5.580417e+04 [K]
    molecule-molecule Real/kʙ   -1.699151e+04 [K]
    Van der Waals (Tail)/kʙ     -1.773868e+03 [K]
    Ewald Fourier/kʙ             1.089308e+04 [K]
    Ewald self/kʙ               -2.222923e+06 [K]
    Ewald exclusion/kʙ           2.208392e+06 [K]
    intra VDW/kʙ                 0.000000e+00 [K]
    intra Coulombic/kʙ           0.000000e+00 [K]
    polarization/kʙ              0.000000e+00 [K]
    dU/dlambda VDW/kʙ            0.000000e+00 [K]
    dU/dlambda Real/kʙ           0.000000e+00 [K]
    dU/dlambda Ewald/kʙ          0.000000e+00 [K]


Initialization: Current cycle: 600 out of 1000
===============================================================================

Box:      25.95296   0.00000   0.00000
           0.00000  25.95296   0.00000
           0.00000   0.00000  25.95296
Lengths:  25.95296  25.95296  25.95296
Angles:   90.00000  90.00000  90.00000
Rectangular boundary conditions

net charge:   0.00000000

component   0 (CO2) lambda:  0 occupancy:  1 (1.000000)
    net charge:   0.00000000 [e]

Amount of molecules per component :
-------------------------------------------------------------------------------
Component 0 (CO2)
    molecules:         1.000000e+02 molecules
    number density:    5.720567e-03 molec/A^3
    density:           4.179544e+02 kg/m^3

Total potential energy/kʙ       -7.853300e+04 [K]
-------------------------------------------------------------------------------
    external field VDW/kʙ        0.000000e+00 [K]
    external field Real/kʙ       0.000000e+00 [K]
    framework-molecule VDW/kʙ    0.000000e+00 [K]
    framework-molecule Real/kʙ   0.000000e+00 [K]
    molecule-molecule VDW/kʙ    -5.670215e+04 [K]
    molecule-molecule Real/kʙ   -1.635638e+04 [K]
    Van der Waals (Tail)/kʙ     -1.835472e+03 [K]
    Ewald Fourier/kʙ             1.089185e+04 [K]
    Ewald self/kʙ               -2.222923e+06 [K]
    Ewald exclusion/kʙ           2.208392e+06 [K]
    intra VDW/kʙ                 0.000000e+00 [K]
    intra Coulombic/kʙ           0.000000e+00 [K]
    polarization/kʙ              0.000000e+00 [K]
    dU/dlambda VDW/kʙ            0.000000e+00 [K]
    dU/dlambda Real/kʙ           0.000000e+00 [K]
    dU/dlambda Ewald/kʙ          0.000000e+00 [K]


Initialization: Current cycle: 700 out of 1000
===============================================================================

Box:      26.44926   0.00000   0.00000
           0.00000  26.44926   0.00000
           0.00000   0.00000  26.44926
Lengths:  26.44926  26.44926  26.44926
Angles:   90.00000  90.00000  90.00000
Rectangular boundary conditions

net charge:   0.00000000

component   0 (CO2) lambda:  0 occupancy:  1 (1.000000)
    net charge:   0.00000000 [e]

Amount of molecules per component :
-------------------------------------------------------------------------------
Component 0 (CO2)
    molecules:         1.000000e+02 molecules
    number density:    5.404549e-03 molec/A^3
    density:           3.948656e+02 kg/m^3

Total potential energy/kʙ       -7.919885e+04 [K]
-------------------------------------------------------------------------------
    external field VDW/kʙ        0.000000e+00 [K]
    external field Real/kʙ       0.000000e+00 [K]
    framework-molecule VDW/kʙ    0.000000e+00 [K]
    framework-molecule Real/kʙ   0.000000e+00 [K]
    molecule-molecule VDW/kʙ    -5.735470e+04 [K]
    molecule-molecule Real/kʙ   -1.557310e+04 [K]
    Van der Waals (Tail)/kʙ     -1.734076e+03 [K]
    Ewald Fourier/kʙ             9.993881e+03 [K]
    Ewald self/kʙ               -2.222923e+06 [K]
    Ewald exclusion/kʙ           2.208392e+06 [K]
    intra VDW/kʙ                 0.000000e+00 [K]
    intra Coulombic/kʙ           0.000000e+00 [K]
    polarization/kʙ              0.000000e+00 [K]
    dU/dlambda VDW/kʙ            0.000000e+00 [K]
    dU/dlambda Real/kʙ           0.000000e+00 [K]
    dU/dlambda Ewald/kʙ          0.000000e+00 [K]


Initialization: Current cycle: 800 out of 1000
===============================================================================

Box:      26.64027   0.00000   0.00000
           0.00000  26.64027   0.00000
           0.00000   0.00000  26.64027
Lengths:  26.64027  26.64027  26.64027
Angles:   90.00000  90.00000  90.00000
Rectangular boundary conditions

net charge:   0.00000000

component   0 (CO2) lambda:  0 occupancy:  1 (1.000000)
    net charge:   0.00000000 [e]

Amount of molecules per component :
-------------------------------------------------------------------------------
Component 0 (CO2)
    molecules:         1.000000e+02 molecules
    number density:    5.289126e-03 molec/A^3
    density:           3.864326e+02 kg/m^3

Total potential energy/kʙ       -7.301081e+04 [K]
-------------------------------------------------------------------------------
    external field VDW/kʙ        0.000000e+00 [K]
    external field Real/kʙ       0.000000e+00 [K]
    framework-molecule VDW/kʙ    0.000000e+00 [K]
    framework-molecule Real/kʙ   0.000000e+00 [K]
    molecule-molecule VDW/kʙ    -5.598976e+04 [K]
    molecule-molecule Real/kʙ   -1.270276e+04 [K]
    Van der Waals (Tail)/kʙ     -1.697042e+03 [K]
    Ewald Fourier/kʙ             1.190961e+04 [K]
    Ewald self/kʙ               -2.222923e+06 [K]
    Ewald exclusion/kʙ           2.208392e+06 [K]
    intra VDW/kʙ                 0.000000e+00 [K]
    intra Coulombic/kʙ           0.000000e+00 [K]
    polarization/kʙ              0.000000e+00 [K]
    dU/dlambda VDW/kʙ            0.000000e+00 [K]
    dU/dlambda Real/kʙ           0.000000e+00 [K]
    dU/dlambda Ewald/kʙ          0.000000e+00 [K]


Initialization: Current cycle: 900 out of 1000
===============================================================================

Box:      27.09501   0.00000   0.00000
           0.00000  27.09501   0.00000
           0.00000   0.00000  27.09501
Lengths:  27.09501  27.09501  27.09501
Angles:   90.00000  90.00000  90.00000
Rectangular boundary conditions

net charge:   0.00000000

component   0 (CO2) lambda:  0 occupancy:  1 (1.000000)
    net charge:   0.00000000 [e]

Amount of molecules per component :
-------------------------------------------------------------------------------
Component 0 (CO2)
    molecules:         1.000000e+02 molecules
    number density:    5.027266e-03 molec/A^3
    density:           3.673006e+02 kg/m^3

Total potential energy/kʙ       -6.485180e+04 [K]
-------------------------------------------------------------------------------
    external field VDW/kʙ        0.000000e+00 [K]
    external field Real/kʙ       0.000000e+00 [K]
    framework-molecule VDW/kʙ    0.000000e+00 [K]
    framework-molecule Real/kʙ   0.000000e+00 [K]
    molecule-molecule VDW/kʙ    -4.786288e+04 [K]
    molecule-molecule Real/kʙ   -1.232972e+04 [K]
    Van der Waals (Tail)/kʙ     -1.613023e+03 [K]
    Ewald Fourier/kʙ             1.148468e+04 [K]
    Ewald self/kʙ               -2.222923e+06 [K]
    Ewald exclusion/kʙ           2.208392e+06 [K]
    intra VDW/kʙ                 0.000000e+00 [K]
    intra Coulombic/kʙ           0.000000e+00 [K]
    polarization/kʙ              0.000000e+00 [K]
    dU/dlambda VDW/kʙ            0.000000e+00 [K]
    dU/dlambda Real/kʙ           0.000000e+00 [K]
    dU/dlambda Ewald/kʙ          0.000000e+00 [K]


Current cycle: 0 out of 5000
===============================================================================

Box:      26.08269   0.00000   0.00000  Average:  26.08269   0.00000   0.00000
           0.00000  26.08269   0.00000             0.00000  26.08269   0.00000
           0.00000   0.00000  26.08269             0.00000   0.00000  26.08269
Lengths:  26.08269  26.08269  26.08269  Average:  26.08269  26.08269  26.08269
Angles:   90.00000  90.00000  90.00000  Average:  90.00000  90.00000  90.00000
Rectangular boundary conditions

net charge:   0.00000000

component 0 (CO2) lambda:  0 occupancy:  1 (1.000000)
    net charge:   0.00000000 [e]

Amount of molecules per component :
-------------------------------------------------------------------------------
Component 0 (CO2)
    molecules:      1.000000e+02 molecules  (1.000000e+02 +/- 0.000000e+00)
    number density: 5.635633e-03 molec./A^3 (5.635633e-03 +/- 0.000000e+00)
    density:        4.117490e+02 kg/m^3     (4.117490e+02 +/- 0.000000e+00)

Average pressure tensor: 
-------------------------------------------------------------------------------
 1.9452e+02  0.0000e+00  0.0000e+00 +/- 0.0000e+00 0.0000e+00 0.0000e+00 [bar]
 0.0000e+00  1.9452e+02  0.0000e+00 +/- 0.0000e+00 0.0000e+00 0.0000e+00 [bar]
 0.0000e+00  0.0000e+00  1.9452e+02 +/- 0.0000e+00 0.0000e+00 0.0000e+00 [bar]
Ideal-gas pressure:   1.945209e+02 +/ 0.000000e+00 [bar]
Excess pressure:      0.000000e+00 +/ 0.000000e+00 [bar]
Pressure:             1.945209e+02 +/ 0.000000e+00 [bar]

Total potential energy/kʙ  -8.703376e+04 (-8.703376e+04 +/- 0.000000e+00) [K]
-------------------------------------------------------------------------------
ExternalField-molecule
    Van der Waals/kʙ        0.000000e+00 ( 0.000000e+00 +/- 0.000000e+00) [K]
Framework-molecule
    Van der Waals/kʙ        0.000000e+00 ( 0.000000e+00 +/- 0.000000e+00) [K]
    Van der Waals (Tail)/kʙ 0.000000e+00 ( 0.000000e+00 +/- 0.000000e+00) [K]
    Coulombic Real/kʙ       0.000000e+00 ( 0.000000e+00 +/- 0.000000e+00) [K]
    Coulombic Fourier/kʙ    0.000000e+00 ( 0.000000e+00 +/- 0.000000e+00) [K]
Molecule-molecule
    Van der Waals/kʙ       -6.061003e+04 (-6.061003e+04 +/- 0.000000e+00) [K]
    Van der Waals (Tail)/kʙ-1.808220e+03 (-1.808220e+03 +/- 0.000000e+00) [K]
    Coulombic Real/kʙ      -2.054855e+04 (-2.054855e+04 +/- 0.000000e+00) [K]
    Coulombic Fourier/kʙ   -4.066955e+03 (-4.066955e+03 +/- 0.000000e+00) [K]
    Molecule Intra/kʙ       0.000000e+00 ( 0.000000e+00 +/- 0.000000e+00) [K]

Current cycle: 100 out of 5000
===============================================================================

Box:      25.16899   0.00000   0.00000  Average:  25.33555   0.00000   0.00000
           0.00000  25.16899   0.00000             0.00000  25.33555   0.00000
           0.00000   0.00000  25.16899             0.00000   0.00000  25.33555
Lengths:  25.16899  25.16899  25.16899  Average:  25.33555  25.33555  25.33555
Angles:   90.00000  90.00000  90.00000  Average:  90.00000  90.00000  90.00000
Rectangular boundary conditions

net charge:   0.00000000

component 0 (CO2) lambda:  0 occupancy:  1 (1.000000)
    net charge:   0.00000000 [e]

Amount of molecules per component :
-------------------------------------------------------------------------------
Component 0 (CO2)
    molecules:      1.000000e+02 molecules  (1.000000e+02 +/- 0.000000e+00)
    number density: 6.271954e-03 molec./A^3 (6.154871e-03 +/- 0.000000e+00)
    density:        4.582397e+02 kg/m^3     (4.496854e+02 +/- 0.000000e+00)

Average pressure tensor: 
-------------------------------------------------------------------------------
 2.6512e+01 -1.3585e+01  6.6290e+01 +/- 0.0000e+00 0.0000e+00 0.0000e+00 [bar]
-1.3585e+01 -8.5303e+01 -1.3384e+01 +/- 0.0000e+00 0.0000e+00 0.0000e+00 [bar]
 6.6290e+01 -1.3384e+01  3.5749e+00 +/- 0.0000e+00 0.0000e+00 0.0000e+00 [bar]
Ideal-gas pressure:   2.124431e+02 +/ 0.000000e+00 [bar]
Excess pressure:     -2.308483e+02 +/ 0.000000e+00 [bar]
Pressure:            -1.840516e+01 +/ 0.000000e+00 [bar]

Total potential energy/kʙ  -8.549600e+04 (-8.806754e+04 +/- 0.000000e+00) [K]
-------------------------------------------------------------------------------
ExternalField-molecule
    Van der Waals/kʙ        0.000000e+00 ( 0.000000e+00 +/- 0.000000e+00) [K]
Framework-molecule
    Van der Waals/kʙ        0.000000e+00 ( 0.000000e+00 +/- 0.000000e+00) [K]
    Van der Waals (Tail)/kʙ 0.000000e+00 ( 0.000000e+00 +/- 0.000000e+00) [K]
    Coulombic Real/kʙ       0.000000e+00 ( 0.000000e+00 +/- 0.000000e+00) [K]
    Coulombic Fourier/kʙ    0.000000e+00 ( 0.000000e+00 +/- 0.000000e+00) [K]
Molecule-molecule
    Van der Waals/kʙ       -6.124317e+04 (-6.296267e+04 +/- 0.000000e+00) [K]
    Van der Waals (Tail)/kʙ-2.012387e+03 (-1.958159e+03 +/- 0.000000e+00) [K]
    Coulombic Real/kʙ      -1.782341e+04 (-1.874271e+04 +/- 0.000000e+00) [K]
    Coulombic Fourier/kʙ   -4.417031e+03 (-4.404007e+03 +/- 0.000000e+00) [K]
    Molecule Intra/kʙ       0.000000e+00 ( 0.000000e+00 +/- 0.000000e+00) [K]

Current cycle: 200 out of 5000
===============================================================================

Box:      23.41415   0.00000   0.00000  Average:  24.89704   0.00000   0.00000
           0.00000  23.41415   0.00000             0.00000  24.89704   0.00000
           0.00000   0.00000  23.41415             0.00000   0.00000  24.89704
Lengths:  23.41415  23.41415  23.41415  Average:  24.89704  24.89704  24.89704
Angles:   90.00000  90.00000  90.00000  Average:  90.00000  90.00000  90.00000
Rectangular boundary conditions

net charge:   0.00000000

component 0 (CO2) lambda:  0 occupancy:  1 (1.000000)
    net charge:   0.00000000 [e]

Amount of molecules per component :
-------------------------------------------------------------------------------
Component 0 (CO2)
    molecules:      1.000000e+02 molecules  (1.000000e+02 +/- 0.000000e+00)
    number density: 7.790491e-03 molec./A^3 (6.512154e-03 +/- 0.000000e+00)
    density:        5.691866e+02 kg/m^3     (4.757891e+02 +/- 0.000000e+00)

Average pressure tensor: 
-------------------------------------------------------------------------------
 1.2523e+01 -1.8837e+01  3.5712e+01 +/- 0.0000e+00 0.0000e+00 0.0000e+00 [bar]
-1.8837e+01 -2.0095e+01 -7.0984e+00 +/- 0.0000e+00 0.0000e+00 0.0000e+00 [bar]
 3.5712e+01 -7.0984e+00 -8.9949e+00 +/- 0.0000e+00 0.0000e+00 0.0000e+00 [bar]
Ideal-gas pressure:   2.247752e+02 +/ 0.000000e+00 [bar]
Excess pressure:     -2.302974e+02 +/ 0.000000e+00 [bar]
Pressure:            -5.522248e+00 +/ 0.000000e+00 [bar]

Total potential energy/kʙ  -8.683464e+04 (-8.647929e+04 +/- 0.000000e+00) [K]
-------------------------------------------------------------------------------
ExternalField-molecule
    Van der Waals/kʙ        0.000000e+00 ( 0.000000e+00 +/- 0.000000e+00) [K]
Framework-molecule
    Van der Waals/kʙ        0.000000e+00 ( 0.000000e+00 +/- 0.000000e+00) [K]
    Van der Waals (Tail)/kʙ 0.000000e+00 ( 0.000000e+00 +/- 0.000000e+00) [K]
    Coulombic Real/kʙ       0.000000e+00 ( 0.000000e+00 +/- 0.000000e+00) [K]
    Coulombic Fourier/kʙ    0.000000e+00 ( 0.000000e+00 +/- 0.000000e+00) [K]
Molecule-molecule
    Van der Waals/kʙ       -6.145990e+04 (-6.201988e+04 +/- 0.000000e+00) [K]
    Van der Waals (Tail)/kʙ-2.499617e+03 (-2.089542e+03 +/- 0.000000e+00) [K]
    Coulombic Real/kʙ      -1.820438e+04 (-1.804034e+04 +/- 0.000000e+00) [K]
    Coulombic Fourier/kʙ   -4.670743e+03 (-4.329521e+03 +/- 0.000000e+00) [K]
    Molecule Intra/kʙ       0.000000e+00 ( 0.000000e+00 +/- 0.000000e+00) [K]

Current cycle: 300 out of 5000
===============================================================================

Box:      21.56867   0.00000   0.00000  Average:  24.16782   0.00000   0.00000
           0.00000  21.56867   0.00000             0.00000  24.16782   0.00000
           0.00000   0.00000  21.56867             0.00000   0.00000  24.16782
Lengths:  21.56867  21.56867  21.56867  Average:  24.16782  24.16782  24.16782
Angles:   90.00000  90.00000  90.00000  Average:  90.00000  90.00000  90.00000
Rectangular boundary conditions

net charge:   0.00000000

component 0 (CO2) lambda:  0 occupancy:  1 (1.000000)
    net charge:   0.00000000 [e]

Amount of molecules per component :
-------------------------------------------------------------------------------
Component 0 (CO2)
    molecules:      1.000000e+02 molecules  (1.000000e+02 +/- 0.000000e+00)
    number density: 9.966210e-03 molec./A^3 (7.199755e-03 +/- 0.000000e+00)
    density:        7.281483e+02 kg/m^3     (5.260264e+02 +/- 0.000000e+00)

Average pressure tensor: 
-------------------------------------------------------------------------------
 4.3443e+00  3.5222e+01  2.8674e-01 +/- 0.0000e+00 0.0000e+00 0.0000e+00 [bar]
 3.5222e+01 -3.2634e+01 -1.5255e+00 +/- 0.0000e+00 0.0000e+00 0.0000e+00 [bar]
 2.8674e-01 -1.5255e+00  1.1312e+01 +/- 0.0000e+00 0.0000e+00 0.0000e+00 [bar]
Ideal-gas pressure:   2.485086e+02 +/ 0.000000e+00 [bar]
Excess pressure:     -2.541678e+02 +/ 0.000000e+00 [bar]
Pressure:            -5.659220e+00 +/ 0.000000e+00 [bar]

Total potential energy/kʙ  -1.016355e+05 (-8.872494e+04 +/- 0.000000e+00) [K]
-------------------------------------------------------------------------------
ExternalField-molecule
    Van der Waals/kʙ        0.000000e+00 ( 0.000000e+00 +/- 0.000000e+00) [K]
Framework-molecule
    Van der Waals/kʙ        0.000000e+00 ( 0.000000e+00 +/- 0.000000e+00) [K]
    Van der Waals (Tail)/kʙ 0.000000e+00 ( 0.000000e+00 +/- 0.000000e+00) [K]
    Coulombic Real/kʙ       0.000000e+00 ( 0.000000e+00 +/- 0.000000e+00) [K]
    Coulombic Fourier/kʙ    0.000000e+00 ( 0.000000e+00 +/- 0.000000e+00) [K]
Molecule-molecule
    Van der Waals/kʙ       -7.724655e+04 (-6.404871e+04 +/- 0.000000e+00) [K]
    Van der Waals (Tail)/kʙ-3.197707e+03 (-2.313621e+03 +/- 0.000000e+00) [K]
    Coulombic Real/kʙ      -1.677342e+04 (-1.796260e+04 +/- 0.000000e+00) [K]
    Coulombic Fourier/kʙ   -4.417807e+03 (-4.400008e+03 +/- 0.000000e+00) [K]
    Molecule Intra/kʙ       0.000000e+00 ( 0.000000e+00 +/- 0.000000e+00) [K]

Current cycle: 400 out of 5000
===============================================================================

Box:      20.22439   0.00000   0.00000  Average:  23.29019   0.00000   0.00000
           0.00000  20.22439   0.00000             0.00000  23.29019   0.00000
           0.00000   0.00000  20.22439             0.00000   0.00000  23.29019
Lengths:  20.22439  20.22439  20.22439  Average:  23.29019  23.29019  23.29019
Angles:   90.00000  90.00000  90.00000  Average:  90.00000  90.00000  90.00000
Rectangular boundary conditions

net charge:   0.00000000

component 0 (CO2) lambda:  0 occupancy:  1 (1.000000)
    net charge:   0.00000000 [e]

Amount of molecules per component :
-------------------------------------------------------------------------------
Component 0 (CO2)
    molecules:      1.000000e+02 molecules  (1.000000e+02 +/- 0.000000e+00)
    number density: 1.208853e-02 molec./A^3 (8.242492e-03 +/- 0.000000e+00)
    density:        8.832086e+02 kg/m^3     (6.022106e+02 +/- 0.000000e+00)

Average pressure tensor: 
-------------------------------------------------------------------------------
-3.7820e-01  9.4676e+00  2.8056e+01 +/- 0.0000e+00 0.0000e+00 0.0000e+00 [bar]
 9.4676e+00 -1.8892e+01 -8.9034e+00 +/- 0.0000e+00 0.0000e+00 0.0000e+00 [bar]
 2.8056e+01 -8.9034e+00  2.0979e+01 +/- 0.0000e+00 0.0000e+00 0.0000e+00 [bar]
Ideal-gas pressure:   2.845000e+02 +/ 0.000000e+00 [bar]
Excess pressure:     -2.839304e+02 +/ 0.000000e+00 [bar]
Pressure:             5.695926e-01 +/ 0.000000e+00 [bar]

Total potential energy/kʙ  -1.282348e+05 (-9.670511e+04 +/- 0.000000e+00) [K]
-------------------------------------------------------------------------------
ExternalField-molecule
    Van der Waals/kʙ        0.000000e+00 ( 0.000000e+00 +/- 0.000000e+00) [K]
Framework-molecule
    Van der Waals/kʙ        0.000000e+00 ( 0.000000e+00 +/- 0.000000e+00) [K]
    Van der Waals (Tail)/kʙ 0.000000e+00 ( 0.000000e+00 +/- 0.000000e+00) [K]
    Coulombic Real/kʙ       0.000000e+00 ( 0.000000e+00 +/- 0.000000e+00) [K]
    Coulombic Fourier/kʙ    0.000000e+00 ( 0.000000e+00 +/- 0.000000e+00) [K]
Molecule-molecule
    Van der Waals/kʙ       -9.355838e+04 (-6.931427e+04 +/- 0.000000e+00) [K]
    Van der Waals (Tail)/kʙ-3.878664e+03 (-2.650648e+03 +/- 0.000000e+00) [K]
    Coulombic Real/kʙ      -2.479944e+04 (-1.984357e+04 +/- 0.000000e+00) [K]
    Coulombic Fourier/kʙ   -5.998302e+03 (-4.896618e+03 +/- 0.000000e+00) [K]
    Molecule Intra/kʙ       0.000000e+00 ( 0.000000e+00 +/- 0.000000e+00) [K]

Current cycle: 500 out of 5000
===============================================================================

Box:      19.58768   0.00000   0.00000  Average:  22.62695   0.00000   0.00000
           0.00000  19.58768   0.00000             0.00000  22.62695   0.00000
           0.00000   0.00000  19.58768             0.00000   0.00000  22.62695
Lengths:  19.58768  19.58768  19.58768  Average:  22.62695  22.62695  22.62695
Angles:   90.00000  90.00000  90.00000  Average:  90.00000  90.00000  90.00000
Rectangular boundary conditions

net charge:   0.00000000

component 0 (CO2) lambda:  0 occupancy:  1 (1.000000)
    net charge:   0.00000000 [e]

Amount of molecules per component :
-------------------------------------------------------------------------------
Component 0 (CO2)
    molecules:      1.000000e+02 molecules  (1.000000e+02 +/- 0.000000e+00)
    number density: 1.330612e-02 molec./A^3 (9.106138e-03 +/- 0.000000e+00)
    density:        9.721677e+02 kg/m^3     (6.653101e+02 +/- 0.000000e+00)

Average pressure tensor: 
-------------------------------------------------------------------------------
 1.8368e+01  1.6118e+01  3.9104e+01 +/- 0.0000e+00 0.0000e+00 0.0000e+00 [bar]
 1.6118e+01 -3.7225e+01  5.5262e+00 +/- 0.0000e+00 0.0000e+00 0.0000e+00 [bar]
 3.9104e+01  5.5262e+00 -1.6265e+01 +/- 0.0000e+00 0.0000e+00 0.0000e+00 [bar]
Ideal-gas pressure:   3.143098e+02 +/ 0.000000e+00 [bar]
Excess pressure:     -3.260170e+02 +/ 0.000000e+00 [bar]
Pressure:            -1.170719e+01 +/ 0.000000e+00 [bar]

Total potential energy/kʙ  -1.399313e+05 (-1.036030e+05 +/- 0.000000e+00) [K]
-------------------------------------------------------------------------------
ExternalField-molecule
    Van der Waals/kʙ        0.000000e+00 ( 0.000000e+00 +/- 0.000000e+00) [K]
Framework-molecule
    Van der Waals/kʙ        0.000000e+00 ( 0.000000e+00 +/- 0.000000e+00) [K]
    Van der Waals (Tail)/kʙ 0.000000e+00 ( 0.000000e+00 +/- 0.000000e+00) [K]
    Coulombic Real/kʙ       0.000000e+00 ( 0.000000e+00 +/- 0.000000e+00) [K]
    Coulombic Fourier/kʙ    0.000000e+00 ( 0.000000e+00 +/- 0.000000e+00) [K]
Molecule-molecule
    Van der Waals/kʙ       -1.002120e+05 (-7.435005e+04 +/- 0.000000e+00) [K]
    Van der Waals (Tail)/kʙ-4.269333e+03 (-2.923360e+03 +/- 0.000000e+00) [K]
    Coulombic Real/kʙ      -2.840536e+04 (-2.109071e+04 +/- 0.000000e+00) [K]
    Coulombic Fourier/kʙ   -7.044572e+03 (-5.238884e+03 +/- 0.000000e+00) [K]
    Molecule Intra/kʙ       0.000000e+00 ( 0.000000e+00 +/- 0.000000e+00) [K]

Current cycle: 600 out of 5000
===============================================================================

Box:      19.41525   0.00000   0.00000  Average:  22.08609   0.00000   0.00000
           0.00000  19.41525   0.00000             0.00000  22.08609   0.00000
           0.00000   0.00000  19.41525             0.00000   0.00000  22.08609
Lengths:  19.41525  19.41525  19.41525  Average:  22.08609  22.08609  22.08609
Angles:   90.00000  90.00000  90.00000  Average:  90.00000  90.00000  90.00000
Rectangular boundary conditions

net charge:   0.00000000

component 0 (CO2) lambda:  0 occupancy:  1 (1.000000)
    net charge:   0.00000000 [e]

Amount of molecules per component :
-------------------------------------------------------------------------------
Component 0 (CO2)
    molecules:      1.000000e+02 molecules  (1.000000e+02 +/- 0.000000e+00)
    number density: 1.366378e-02 molec./A^3 (9.879444e-03 +/- 0.000000e+00)
    density:        9.982993e+02 kg/m^3     (7.218091e+02 +/- 0.000000e+00)

Average pressure tensor: 
-------------------------------------------------------------------------------
 5.4638e+01  1.5535e+01  6.2475e+01 +/- 0.0000e+00 0.0000e+00 0.0000e+00 [bar]
 1.5535e+01 -8.1409e+01  7.2569e+00 +/- 0.0000e+00 0.0000e+00 0.0000e+00 [bar]
 6.2475e+01  7.2569e+00 -1.9963e+01 +/- 0.0000e+00 0.0000e+00 0.0000e+00 [bar]
Ideal-gas pressure:   3.410014e+02 +/ 0.000000e+00 [bar]
Excess pressure:     -3.565791e+02 +/ 0.000000e+00 [bar]
Pressure:            -1.557767e+01 +/ 0.000000e+00 [bar]

Total potential energy/kʙ  -1.432327e+05 (-1.103597e+05 +/- 0.000000e+00) [K]
-------------------------------------------------------------------------------
ExternalField-molecule
    Van der Waals/kʙ        0.000000e+00 ( 0.000000e+00 +/- 0.000000e+00) [K]
Framework-molecule
    Van der Waals/kʙ        0.000000e+00 ( 0.000000e+00 +/- 0.000000e+00) [K]
    Van der Waals (Tail)/kʙ 0.000000e+00 ( 0.000000e+00 +/- 0.000000e+00) [K]
    Coulombic Real/kʙ       0.000000e+00 ( 0.000000e+00 +/- 0.000000e+00) [K]
    Coulombic Fourier/kʙ    0.000000e+00 ( 0.000000e+00 +/- 0.000000e+00) [K]
Molecule-molecule
    Van der Waals/kʙ       -1.044753e+05 (-7.923661e+04 +/- 0.000000e+00) [K]
    Van der Waals (Tail)/kʙ-4.384091e+03 (-3.166240e+03 +/- 0.000000e+00) [K]
    Coulombic Real/kʙ      -2.724928e+04 (-2.231008e+04 +/- 0.000000e+00) [K]
    Coulombic Fourier/kʙ   -7.123989e+03 (-5.646820e+03 +/- 0.000000e+00) [K]
    Molecule Intra/kʙ       0.000000e+00 ( 0.000000e+00 +/- 0.000000e+00) [K]

Current cycle: 700 out of 5000
===============================================================================

Box:      19.06225   0.00000   0.00000  Average:  21.66688   0.00000   0.00000
           0.00000  19.06225   0.00000             0.00000  21.66688   0.00000
           0.00000   0.00000  19.06225             0.00000   0.00000  21.66688
Lengths:  19.06225  19.06225  19.06225  Average:  21.66688  21.66688  21.66688
Angles:   90.00000  90.00000  90.00000  Average:  90.00000  90.00000  90.00000
Rectangular boundary conditions

net charge:   0.00000000

component 0 (CO2) lambda:  0 occupancy:  1 (1.000000)
    net charge:   0.00000000 [e]

Amount of molecules per component :
-------------------------------------------------------------------------------
Component 0 (CO2)
    molecules:      1.000000e+02 molecules  (1.000000e+02 +/- 0.000000e+00)
    number density: 1.443702e-02 molec./A^3 (1.050268e-02 +/- 0.000000e+00)
    density:        1.054793e+03 kg/m^3     (7.673440e+02 +/- 0.000000e+00)

Average pressure tensor: 
-------------------------------------------------------------------------------
 3.1956e+01  1.0486e+01  6.3422e+01 +/- 0.0000e+00 0.0000e+00 0.0000e+00 [bar]
 1.0486e+01 -5.6056e+01 -2.4467e+01 +/- 0.0000e+00 0.0000e+00 0.0000e+00 [bar]
 6.3422e+01 -2.4467e+01 -5.5412e+01 +/- 0.0000e+00 0.0000e+00 0.0000e+00 [bar]
Ideal-gas pressure:   3.625133e+02 +/ 0.000000e+00 [bar]
Excess pressure:     -3.890171e+02 +/ 0.000000e+00 [bar]
Pressure:            -2.650373e+01 +/ 0.000000e+00 [bar]

Total potential energy/kʙ  -1.501374e+05 (-1.161640e+05 +/- 0.000000e+00) [K]
-------------------------------------------------------------------------------
ExternalField-molecule
    Van der Waals/kʙ        0.000000e+00 ( 0.000000e+00 +/- 0.000000e+00) [K]
Framework-molecule
    Van der Waals/kʙ        0.000000e+00 ( 0.000000e+00 +/- 0.000000e+00) [K]
    Van der Waals (Tail)/kʙ 0.000000e+00 ( 0.000000e+00 +/- 0.000000e+00) [K]
    Coulombic Real/kʙ       0.000000e+00 ( 0.000000e+00 +/- 0.000000e+00) [K]
    Coulombic Fourier/kʙ    0.000000e+00 ( 0.000000e+00 +/- 0.000000e+00) [K]
Molecule-molecule
    Van der Waals/kʙ       -1.083020e+05 (-8.320698e+04 +/- 0.000000e+00) [K]
    Van der Waals (Tail)/kʙ-4.632189e+03 (-3.363032e+03 +/- 0.000000e+00) [K]
    Coulombic Real/kʙ      -2.948692e+04 (-2.364339e+04 +/- 0.000000e+00) [K]
    Coulombic Fourier/kʙ   -7.716286e+03 (-5.950641e+03 +/- 0.000000e+00) [K]
    Molecule Intra/kʙ       0.000000e+00 ( 0.000000e+00 +/- 0.000000e+00) [K]

Current cycle: 800 out of 5000
===============================================================================

Box:      19.30020   0.00000   0.00000  Average:  21.35039   0.00000   0.00000
           0.00000  19.30020   0.00000             0.00000  21.35039   0.00000
           0.00000   0.00000  19.30020             0.00000   0.00000  21.35039
Lengths:  19.30020  19.30020  19.30020  Average:  21.35039  21.35039  21.35039
Angles:   90.00000  90.00000  90.00000  Average:  90.00000  90.00000  90.00000
Rectangular boundary conditions

net charge:   0.00000000

component 0 (CO2) lambda:  0 occupancy:  1 (1.000000)
    net charge:   0.00000000 [e]

Amount of molecules per component :
-------------------------------------------------------------------------------
Component 0 (CO2)
    molecules:      1.000000e+02 molecules  (1.000000e+02 +/- 0.000000e+00)
    number density: 1.390959e-02 molec./A^3 (1.097457e-02 +/- 0.000000e+00)
    density:        1.016258e+03 kg/m^3     (8.018209e+02 +/- 0.000000e+00)

Average pressure tensor: 
-------------------------------------------------------------------------------
 1.0339e+02  2.3298e+01  8.1780e+01 +/- 0.0000e+00 0.0000e+00 0.0000e+00 [bar]
 2.3298e+01 -6.1915e+01 -3.5659e+01 +/- 0.0000e+00 0.0000e+00 0.0000e+00 [bar]
 8.1780e+01 -3.5659e+01 -8.5691e+01 +/- 0.0000e+00 0.0000e+00 0.0000e+00 [bar]
Ideal-gas pressure:   3.788011e+02 +/ 0.000000e+00 [bar]
Excess pressure:     -3.935381e+02 +/ 0.000000e+00 [bar]
Pressure:            -1.473702e+01 +/ 0.000000e+00 [bar]

Total potential energy/kʙ  -1.437993e+05 (-1.201549e+05 +/- 0.000000e+00) [K]
-------------------------------------------------------------------------------
ExternalField-molecule
    Van der Waals/kʙ        0.000000e+00 ( 0.000000e+00 +/- 0.000000e+00) [K]
Framework-molecule
    Van der Waals/kʙ        0.000000e+00 ( 0.000000e+00 +/- 0.000000e+00) [K]
    Van der Waals (Tail)/kʙ 0.000000e+00 ( 0.000000e+00 +/- 0.000000e+00) [K]
    Coulombic Real/kʙ       0.000000e+00 ( 0.000000e+00 +/- 0.000000e+00) [K]
    Coulombic Fourier/kʙ    0.000000e+00 ( 0.000000e+00 +/- 0.000000e+00) [K]
Molecule-molecule
    Van der Waals/kʙ       -1.036028e+05 (-8.595821e+04 +/- 0.000000e+00) [K]
    Van der Waals (Tail)/kʙ-4.462960e+03 (-3.510831e+03 +/- 0.000000e+00) [K]
    Coulombic Real/kʙ      -2.833265e+04 (-2.451128e+04 +/- 0.000000e+00) [K]
    Coulombic Fourier/kʙ   -7.400962e+03 (-6.174630e+03 +/- 0.000000e+00) [K]
    Molecule Intra/kʙ       0.000000e+00 ( 0.000000e+00 +/- 0.000000e+00) [K]

Current cycle: 900 out of 5000
===============================================================================

Box:      19.26582   0.00000   0.00000  Average:  21.13087   0.00000   0.00000
           0.00000  19.26582   0.00000             0.00000  21.13087   0.00000
           0.00000   0.00000  19.26582             0.00000   0.00000  21.13087
Lengths:  19.26582  19.26582  19.26582  Average:  21.13087  21.13087  21.13087
Angles:   90.00000  90.00000  90.00000  Average:  90.00000  90.00000  90.00000
Rectangular boundary conditions

net charge:   0.00000000

component 0 (CO2) lambda:  0 occupancy:  1 (1.000000)
    net charge:   0.00000000 [e]

Amount of molecules per component :
-------------------------------------------------------------------------------
Component 0 (CO2)
    molecules:      1.000000e+02 molecules  (1.000000e+02 +/- 0.000000e+00)
    number density: 1.398419e-02 molec./A^3 (1.128335e-02 +/- 0.000000e+00)
    density:        1.021709e+03 kg/m^3     (8.243810e+02 +/- 0.000000e+00)

Average pressure tensor: 
-------------------------------------------------------------------------------
 1.3653e+02  1.1988e+01  7.5177e+01 +/- 0.0000e+00 0.0000e+00 0.0000e+00 [bar]
 1.1988e+01 -6.1200e+01 -4.6449e+01 +/- 0.0000e+00 0.0000e+00 0.0000e+00 [bar]
 7.5177e+01 -4.6449e+01 -5.2199e+01 +/- 0.0000e+00 0.0000e+00 0.0000e+00 [bar]
Ideal-gas pressure:   3.894591e+02 +/ 0.000000e+00 [bar]
Excess pressure:     -3.817494e+02 +/ 0.000000e+00 [bar]
Pressure:             7.709679e+00 +/ 0.000000e+00 [bar]

Total potential energy/kʙ  -1.441482e+05 (-1.225638e+05 +/- 0.000000e+00) [K]
-------------------------------------------------------------------------------
ExternalField-molecule
    Van der Waals/kʙ        0.000000e+00 ( 0.000000e+00 +/- 0.000000e+00) [K]
Framework-molecule
    Van der Waals/kʙ        0.000000e+00 ( 0.000000e+00 +/- 0.000000e+00) [K]
    Van der Waals (Tail)/kʙ 0.000000e+00 ( 0.000000e+00 +/- 0.000000e+00) [K]
    Coulombic Real/kʙ       0.000000e+00 ( 0.000000e+00 +/- 0.000000e+00) [K]
    Coulombic Fourier/kʙ    0.000000e+00 ( 0.000000e+00 +/- 0.000000e+00) [K]
Molecule-molecule
    Van der Waals/kʙ       -1.020466e+05 (-8.756601e+04 +/- 0.000000e+00) [K]
    Van der Waals (Tail)/kʙ-4.486897e+03 (-3.611771e+03 +/- 0.000000e+00) [K]
    Coulombic Real/kʙ      -2.952598e+04 (-2.506967e+04 +/- 0.000000e+00) [K]
    Coulombic Fourier/kʙ   -8.088760e+03 (-6.316321e+03 +/- 0.000000e+00) [K]
    Molecule Intra/kʙ       0.000000e+00 ( 0.000000e+00 +/- 0.000000e+00) [K]

Current cycle: 1000 out of 5000
===============================================================================

Box:      19.19475   0.00000   0.00000  Average:  20.94494   0.00000   0.00000
           0.00000  19.19475   0.00000             0.00000  20.94494   0.00000
           0.00000   0.00000  19.19475             0.00000   0.00000  20.94494
Lengths:  19.19475  19.19475  19.19475  Average:  20.94494  20.94494  20.94494
Angles:   90.00000  90.00000  90.00000  Average:  90.00000  90.00000  90.00000
Rectangular boundary conditions

net charge:   0.00000000

component 0 (CO2) lambda:  0 occupancy:  1 (1.000000)
    net charge:   0.00000000 [e]

Amount of molecules per component :
-------------------------------------------------------------------------------
Component 0 (CO2)
    molecules:      1.000000e+02 molecules  (1.000000e+02 +/- 0.000000e+00)
    number density: 1.414011e-02 molec./A^3 (1.155254e-02 +/- 0.000000e+00)
    density:        1.033101e+03 kg/m^3     (8.440486e+02 +/- 0.000000e+00)

Average pressure tensor: 
-------------------------------------------------------------------------------
 1.3260e+02  1.5541e+01  5.0915e+01 +/- 0.0000e+00 0.0000e+00 0.0000e+00 [bar]
 1.5541e+01 -5.2479e+01 -4.5422e+01 +/- 0.0000e+00 0.0000e+00 0.0000e+00 [bar]
 5.0915e+01 -4.5422e+01 -1.3425e+01 +/- 0.0000e+00 0.0000e+00 0.0000e+00 [bar]
Ideal-gas pressure:   3.987506e+02 +/ 0.000000e+00 [bar]
Excess pressure:     -3.765183e+02 +/ 0.000000e+00 [bar]
Pressure:             2.223223e+01 +/ 0.000000e+00 [bar]

Total potential energy/kʙ  -1.493351e+05 (-1.248510e+05 +/- 0.000000e+00) [K]
-------------------------------------------------------------------------------
ExternalField-molecule
    Van der Waals/kʙ        0.000000e+00 ( 0.000000e+00 +/- 0.000000e+00) [K]
Framework-molecule
    Van der Waals/kʙ        0.000000e+00 ( 0.000000e+00 +/- 0.000000e+00) [K]
    Van der Waals (Tail)/kʙ 0.000000e+00 ( 0.000000e+00 +/- 0.000000e+00) [K]
    Coulombic Real/kʙ       0.000000e+00 ( 0.000000e+00 +/- 0.000000e+00) [K]
    Coulombic Fourier/kʙ    0.000000e+00 ( 0.000000e+00 +/- 0.000000e+00) [K]
Molecule-molecule
    Van der Waals/kʙ       -1.053181e+05 (-8.917890e+04 +/- 0.000000e+00) [K]
    Van der Waals (Tail)/kʙ-4.536924e+03 (-3.699087e+03 +/- 0.000000e+00) [K]
    Coulombic Real/kʙ      -3.208398e+04 (-2.554364e+04 +/- 0.000000e+00) [K]
    Coulombic Fourier/kʙ   -7.396150e+03 (-6.429341e+03 +/- 0.000000e+00) [K]
    Molecule Intra/kʙ       0.000000e+00 ( 0.000000e+00 +/- 0.000000e+00) [K]

Current cycle: 1100 out of 5000
===============================================================================

Box:      18.93009   0.00000   0.00000  Average:  20.78178   0.00000   0.00000
           0.00000  18.93009   0.00000             0.00000  20.78178   0.00000
           0.00000   0.00000  18.93009             0.00000   0.00000  20.78178
Lengths:  18.93009  18.93009  18.93009  Average:  20.78178  20.78178  20.78178
Angles:   90.00000  90.00000  90.00000  Average:  90.00000  90.00000  90.00000
Rectangular boundary conditions

net charge:   0.00000000

component 0 (CO2) lambda:  0 occupancy:  1 (1.000000)
    net charge:   0.00000000 [e]

Amount of molecules per component :
-------------------------------------------------------------------------------
Component 0 (CO2)
    molecules:      1.000000e+02 molecules  (1.000000e+02 +/- 0.000000e+00)
    number density: 1.474151e-02 molec./A^3 (1.179719e-02 +/- 0.000000e+00)
    density:        1.077040e+03 kg/m^3     (8.619227e+02 +/- 0.000000e+00)

Average pressure tensor: 
-------------------------------------------------------------------------------
 1.2757e+02  2.9931e+01  4.3345e+01 +/- 0.0000e+00 0.0000e+00 0.0000e+00 [bar]
 2.9931e+01 -6.2040e+01 -2.8136e+01 +/- 0.0000e+00 0.0000e+00 0.0000e+00 [bar]
 4.3345e+01 -2.8136e+01  2.4602e+01 +/- 0.0000e+00 0.0000e+00 0.0000e+00 [bar]
Ideal-gas pressure:   4.071947e+02 +/ 0.000000e+00 [bar]
Excess pressure:     -3.771509e+02 +/ 0.000000e+00 [bar]
Pressure:             3.004388e+01 +/ 0.000000e+00 [bar]

Total potential energy/kʙ  -1.537700e+05 (-1.268685e+05 +/- 0.000000e+00) [K]
-------------------------------------------------------------------------------
ExternalField-molecule
    Van der Waals/kʙ        0.000000e+00 ( 0.000000e+00 +/- 0.000000e+00) [K]
Framework-molecule
    Van der Waals/kʙ        0.000000e+00 ( 0.000000e+00 +/- 0.000000e+00) [K]
    Van der Waals (Tail)/kʙ 0.000000e+00 ( 0.000000e+00 +/- 0.000000e+00) [K]
    Coulombic Real/kʙ       0.000000e+00 ( 0.000000e+00 +/- 0.000000e+00) [K]
    Coulombic Fourier/kʙ    0.000000e+00 ( 0.000000e+00 +/- 0.000000e+00) [K]
Molecule-molecule
    Van der Waals/kʙ       -1.109128e+05 (-9.074127e+04 +/- 0.000000e+00) [K]
    Van der Waals (Tail)/kʙ-4.729886e+03 (-3.779495e+03 +/- 0.000000e+00) [K]
    Coulombic Real/kʙ      -3.044215e+04 (-2.584351e+04 +/- 0.000000e+00) [K]
    Coulombic Fourier/kʙ   -7.685160e+03 (-6.504175e+03 +/- 0.000000e+00) [K]
    Molecule Intra/kʙ       0.000000e+00 ( 0.000000e+00 +/- 0.000000e+00) [K]

Current cycle: 1200 out of 5000
===============================================================================

Box:      19.15765   0.00000   0.00000  Average:  20.63762   0.00000   0.00000
           0.00000  19.15765   0.00000             0.00000  20.63762   0.00000
           0.00000   0.00000  19.15765             0.00000   0.00000  20.63762
Lengths:  19.15765  19.15765  19.15765  Average:  20.63762  20.63762  20.63762
Angles:   90.00000  90.00000  90.00000  Average:  90.00000  90.00000  90.00000
Rectangular boundary conditions

net charge:   0.00000000

component 0 (CO2) lambda:  0 occupancy:  1 (1.000000)
    net charge:   0.00000000 [e]

Amount of molecules per component :
-------------------------------------------------------------------------------
Component 0 (CO2)
    molecules:      1.000000e+02 molecules  (1.000000e+02 +/- 0.000000e+00)
    number density: 1.422240e-02 molec./A^3 (1.201971e-02 +/- 0.000000e+00)
    density:        1.039113e+03 kg/m^3     (8.781808e+02 +/- 0.000000e+00)

Average pressure tensor: 
-------------------------------------------------------------------------------
 1.2224e+02  3.3857e+01  1.1954e+01 +/- 0.0000e+00 0.0000e+00 0.0000e+00 [bar]
 3.3857e+01 -3.5347e+01 -9.3668e+00 +/- 0.0000e+00 0.0000e+00 0.0000e+00 [bar]
 1.1954e+01 -9.3668e+00  3.8490e+01 +/- 0.0000e+00 0.0000e+00 0.0000e+00 [bar]
Ideal-gas pressure:   4.148755e+02 +/ 0.000000e+00 [bar]
Excess pressure:     -3.730800e+02 +/ 0.000000e+00 [bar]
Pressure:             4.179555e+01 +/ 0.000000e+00 [bar]

Total potential energy/kʙ  -1.484551e+05 (-1.290240e+05 +/- 0.000000e+00) [K]
-------------------------------------------------------------------------------
ExternalField-molecule
    Van der Waals/kʙ        0.000000e+00 ( 0.000000e+00 +/- 0.000000e+00) [K]
Framework-molecule
    Van der Waals/kʙ        0.000000e+00 ( 0.000000e+00 +/- 0.000000e+00) [K]
    Van der Waals (Tail)/kʙ 0.000000e+00 ( 0.000000e+00 +/- 0.000000e+00) [K]
    Coulombic Real/kʙ       0.000000e+00 ( 0.000000e+00 +/- 0.000000e+00) [K]
    Coulombic Fourier/kʙ    0.000000e+00 ( 0.000000e+00 +/- 0.000000e+00) [K]
Molecule-molecule
    Van der Waals/kʙ       -1.021383e+05 (-9.218829e+04 +/- 0.000000e+00) [K]
    Van der Waals (Tail)/kʙ-4.563328e+03 (-3.852612e+03 +/- 0.000000e+00) [K]
    Coulombic Real/kʙ      -3.398362e+04 (-2.637498e+04 +/- 0.000000e+00) [K]
    Coulombic Fourier/kʙ   -7.769825e+03 (-6.608114e+03 +/- 0.000000e+00) [K]
    Molecule Intra/kʙ       0.000000e+00 ( 0.000000e+00 +/- 0.000000e+00) [K]

Current cycle: 1300 out of 5000
===============================================================================

Box:      19.20625   0.00000   0.00000  Average:  20.53036   0.00000   0.00000
           0.00000  19.20625   0.00000             0.00000  20.53036   0.00000
           0.00000   0.00000  19.20625             0.00000   0.00000  20.53036
Lengths:  19.20625  19.20625  19.20625  Average:  20.53036  20.53036  20.53036
Angles:   90.00000  90.00000  90.00000  Average:  90.00000  90.00000  90.00000
Rectangular boundary conditions

net charge:   0.00000000

component 0 (CO2) lambda:  0 occupancy:  1 (1.000000)
    net charge:   0.00000000 [e]

Amount of molecules per component :
-------------------------------------------------------------------------------
Component 0 (CO2)
    molecules:      1.000000e+02 molecules  (1.000000e+02 +/- 0.000000e+00)
    number density: 1.411472e-02 molec./A^3 (1.217487e-02 +/- 0.000000e+00)
    density:        1.031246e+03 kg/m^3     (8.895169e+02 +/- 0.000000e+00)

Average pressure tensor: 
-------------------------------------------------------------------------------
 1.4382e+02  4.8301e+01  8.0703e+00 +/- 0.0000e+00 0.0000e+00 0.0000e+00 [bar]
 4.8301e+01 -4.4277e+01 -2.8393e+00 +/- 0.0000e+00 0.0000e+00 0.0000e+00 [bar]
 8.0703e+00 -2.8393e+00  3.7970e+01 +/- 0.0000e+00 0.0000e+00 0.0000e+00 [bar]
Ideal-gas pressure:   4.202310e+02 +/ 0.000000e+00 [bar]
Excess pressure:     -3.743940e+02 +/ 0.000000e+00 [bar]
Pressure:             4.583697e+01 +/ 0.000000e+00 [bar]

Total potential energy/kʙ  -1.473469e+05 (-1.303224e+05 +/- 0.000000e+00) [K]
-------------------------------------------------------------------------------
ExternalField-molecule
    Van der Waals/kʙ        0.000000e+00 ( 0.000000e+00 +/- 0.000000e+00) [K]
Framework-molecule
    Van der Waals/kʙ        0.000000e+00 ( 0.000000e+00 +/- 0.000000e+00) [K]
    Van der Waals (Tail)/kʙ 0.000000e+00 ( 0.000000e+00 +/- 0.000000e+00) [K]
    Coulombic Real/kʙ       0.000000e+00 ( 0.000000e+00 +/- 0.000000e+00) [K]
    Coulombic Fourier/kʙ    0.000000e+00 ( 0.000000e+00 +/- 0.000000e+00) [K]
Molecule-molecule
    Van der Waals/kʙ       -1.056483e+05 (-9.311960e+04 +/- 0.000000e+00) [K]
    Van der Waals (Tail)/kʙ-4.528779e+03 (-3.902448e+03 +/- 0.000000e+00) [K]
    Coulombic Real/kʙ      -2.962671e+04 (-2.664464e+04 +/- 0.000000e+00) [K]
    Coulombic Fourier/kʙ   -7.543132e+03 (-6.655672e+03 +/- 0.000000e+00) [K]
    Molecule Intra/kʙ       0.000000e+00 ( 0.000000e+00 +/- 0.000000e+00) [K]

Current cycle: 1400 out of 5000
===============================================================================

Box:      19.78031   0.00000   0.00000  Average:  20.45827   0.00000   0.00000
           0.00000  19.78031   0.00000             0.00000  20.45827   0.00000
           0.00000   0.00000  19.78031             0.00000   0.00000  20.45827
Lengths:  19.78031  19.78031  19.78031  Average:  20.45827  20.45827  20.45827
Angles:   90.00000  90.00000  90.00000  Average:  90.00000  90.00000  90.00000
Rectangular boundary conditions

net charge:   0.00000000

component 0 (CO2) lambda:  0 occupancy:  1 (1.000000)
    net charge:   0.00000000 [e]

Amount of molecules per component :
-------------------------------------------------------------------------------
Component 0 (CO2)
    molecules:      1.000000e+02 molecules  (1.000000e+02 +/- 0.000000e+00)
    number density: 1.292114e-02 molec./A^3 (1.226631e-02 +/- 0.000000e+00)
    density:        9.440406e+02 kg/m^3     (8.961973e+02 +/- 0.000000e+00)

Average pressure tensor: 
-------------------------------------------------------------------------------
 1.3170e+02  5.2319e+01 -8.1721e+00 +/- 0.0000e+00 0.0000e+00 0.0000e+00 [bar]
 5.2319e+01 -4.0158e+01  1.5915e+01 +/- 0.0000e+00 0.0000e+00 0.0000e+00 [bar]
-8.1721e+00  1.5915e+01  1.1361e+01 +/- 0.0000e+00 0.0000e+00 0.0000e+00 [bar]
Ideal-gas pressure:   4.233870e+02 +/ 0.000000e+00 [bar]
Excess pressure:     -3.890865e+02 +/ 0.000000e+00 [bar]
Pressure:             3.430041e+01 +/ 0.000000e+00 [bar]

Total potential energy/kʙ  -1.330254e+05 (-1.308407e+05 +/- 0.000000e+00) [K]
-------------------------------------------------------------------------------
ExternalField-molecule
    Van der Waals/kʙ        0.000000e+00 ( 0.000000e+00 +/- 0.000000e+00) [K]
Framework-molecule
    Van der Waals/kʙ        0.000000e+00 ( 0.000000e+00 +/- 0.000000e+00) [K]
    Van der Waals (Tail)/kʙ 0.000000e+00 ( 0.000000e+00 +/- 0.000000e+00) [K]
    Coulombic Real/kʙ       0.000000e+00 ( 0.000000e+00 +/- 0.000000e+00) [K]
    Coulombic Fourier/kʙ    0.000000e+00 ( 0.000000e+00 +/- 0.000000e+00) [K]
Molecule-molecule
    Van der Waals/kʙ       -9.524418e+04 (-9.358889e+04 +/- 0.000000e+00) [K]
    Van der Waals (Tail)/kʙ-4.145811e+03 (-3.927430e+03 +/- 0.000000e+00) [K]
    Coulombic Real/kʙ      -2.649569e+04 (-2.665256e+04 +/- 0.000000e+00) [K]
    Coulombic Fourier/kʙ   -7.139684e+03 (-6.671784e+03 +/- 0.000000e+00) [K]
    Molecule Intra/kʙ       0.000000e+00 ( 0.000000e+00 +/- 0.000000e+00) [K]

Current cycle: 1500 out of 5000
===============================================================================

Box:      19.49332   0.00000   0.00000  Average:  20.39153   0.00000   0.00000
           0.00000  19.49332   0.00000             0.00000  20.39153   0.00000
           0.00000   0.00000  19.49332             0.00000   0.00000  20.39153
Lengths:  19.49332  19.49332  19.49332  Average:  20.39153  20.39153  20.39153
Angles:   90.00000  90.00000  90.00000  Average:  90.00000  90.00000  90.00000
Rectangular boundary conditions

net charge:   0.00000000

component 0 (CO2) lambda:  0 occupancy:  1 (1.000000)
    net charge:   0.00000000 [e]

Amount of molecules per component :
-------------------------------------------------------------------------------
Component 0 (CO2)
    molecules:      1.000000e+02 molecules  (1.000000e+02 +/- 0.000000e+00)
    number density: 1.350027e-02 molec./A^3 (1.235393e-02 +/- 0.000000e+00)
    density:        9.863526e+02 kg/m^3     (9.025992e+02 +/- 0.000000e+00)

Average pressure tensor: 
-------------------------------------------------------------------------------
 1.3572e+02  4.2340e+01 -1.3940e+01 +/- 0.0000e+00 0.0000e+00 0.0000e+00 [bar]
 4.2340e+01 -1.2320e+01  1.2366e+01 +/- 0.0000e+00 0.0000e+00 0.0000e+00 [bar]
-1.3940e+01  1.2366e+01  1.6700e+01 +/- 0.0000e+00 0.0000e+00 0.0000e+00 [bar]
Ideal-gas pressure:   4.264114e+02 +/ 0.000000e+00 [bar]
Excess pressure:     -3.797102e+02 +/ 0.000000e+00 [bar]
Pressure:             4.670123e+01 +/ 0.000000e+00 [bar]

Total potential energy/kʙ  -1.435892e+05 (-1.315136e+05 +/- 0.000000e+00) [K]
-------------------------------------------------------------------------------
ExternalField-molecule
    Van der Waals/kʙ        0.000000e+00 ( 0.000000e+00 +/- 0.000000e+00) [K]
Framework-molecule
    Van der Waals/kʙ        0.000000e+00 ( 0.000000e+00 +/- 0.000000e+00) [K]
    Van der Waals (Tail)/kʙ 0.000000e+00 ( 0.000000e+00 +/- 0.000000e+00) [K]
    Coulombic Real/kʙ       0.000000e+00 ( 0.000000e+00 +/- 0.000000e+00) [K]
    Coulombic Fourier/kʙ    0.000000e+00 ( 0.000000e+00 +/- 0.000000e+00) [K]
Molecule-molecule
    Van der Waals/kʙ       -1.035965e+05 (-9.414204e+04 +/- 0.000000e+00) [K]
    Van der Waals (Tail)/kʙ-4.331627e+03 (-3.957842e+03 +/- 0.000000e+00) [K]
    Coulombic Real/kʙ      -2.845477e+04 (-2.672764e+04 +/- 0.000000e+00) [K]
    Coulombic Fourier/kʙ   -7.206266e+03 (-6.686048e+03 +/- 0.000000e+00) [K]
    Molecule Intra/kʙ       0.000000e+00 ( 0.000000e+00 +/- 0.000000e+00) [K]

Current cycle: 1600 out of 5000
===============================================================================

Box:      18.99196   0.00000   0.00000  Average:  20.31488   0.00000   0.00000
           0.00000  18.99196   0.00000             0.00000  20.31488   0.00000
           0.00000   0.00000  18.99196             0.00000   0.00000  20.31488
Lengths:  18.99196  18.99196  18.99196  Average:  20.31488  20.31488  20.31488
Angles:   90.00000  90.00000  90.00000  Average:  90.00000  90.00000  90.00000
Rectangular boundary conditions

net charge:   0.00000000

component 0 (CO2) lambda:  0 occupancy:  1 (1.000000)
    net charge:   0.00000000 [e]

Amount of molecules per component :
-------------------------------------------------------------------------------
Component 0 (CO2)
    molecules:      1.000000e+02 molecules  (1.000000e+02 +/- 0.000000e+00)
    number density: 1.459792e-02 molec./A^3 (1.246993e-02 +/- 0.000000e+00)
    density:        1.066549e+03 kg/m^3     (9.110747e+02 +/- 0.000000e+00)

Average pressure tensor: 
-------------------------------------------------------------------------------
 1.2697e+02  4.7671e+01 -2.8630e+01 +/- 0.0000e+00 0.0000e+00 0.0000e+00 [bar]
 4.7671e+01 -1.6013e+01  8.6254e+00 +/- 0.0000e+00 0.0000e+00 0.0000e+00 [bar]
-2.8630e+01  8.6254e+00  4.9373e+00 +/- 0.0000e+00 0.0000e+00 0.0000e+00 [bar]
Ideal-gas pressure:   4.304155e+02 +/ 0.000000e+00 [bar]
Excess pressure:     -3.917830e+02 +/ 0.000000e+00 [bar]
Pressure:             3.863243e+01 +/ 0.000000e+00 [bar]

Total potential energy/kʙ  -1.551384e+05 (-1.325823e+05 +/- 0.000000e+00) [K]
-------------------------------------------------------------------------------
ExternalField-molecule
    Van der Waals/kʙ        0.000000e+00 ( 0.000000e+00 +/- 0.000000e+00) [K]
Framework-molecule
    Van der Waals/kʙ        0.000000e+00 ( 0.000000e+00 +/- 0.000000e+00) [K]
    Van der Waals (Tail)/kʙ 0.000000e+00 ( 0.000000e+00 +/- 0.000000e+00) [K]
    Coulombic Real/kʙ       0.000000e+00 ( 0.000000e+00 +/- 0.000000e+00) [K]
    Coulombic Fourier/kʙ    0.000000e+00 ( 0.000000e+00 +/- 0.000000e+00) [K]
Molecule-molecule
    Van der Waals/kʙ       -1.125903e+05 (-9.483929e+04 +/- 0.000000e+00) [K]
    Van der Waals (Tail)/kʙ-4.683814e+03 (-3.996147e+03 +/- 0.000000e+00) [K]
    Coulombic Real/kʙ      -3.026708e+04 (-2.701101e+04 +/- 0.000000e+00) [K]
    Coulombic Fourier/kʙ   -7.597224e+03 (-6.735880e+03 +/- 0.000000e+00) [K]
    Molecule Intra/kʙ       0.000000e+00 ( 0.000000e+00 +/- 0.000000e+00) [K]

Current cycle: 1700 out of 5000
===============================================================================

Box:      18.89819   0.00000   0.00000  Average:  20.23706   0.00000   0.00000
           0.00000  18.89819   0.00000             0.00000  20.23706   0.00000
           0.00000   0.00000  18.89819             0.00000   0.00000  20.23706
Lengths:  18.89819  18.89819  18.89819  Average:  20.23706  20.23706  20.23706
Angles:   90.00000  90.00000  90.00000  Average:  90.00000  90.00000  90.00000
Rectangular boundary conditions

net charge:   0.00000000

component 0 (CO2) lambda:  0 occupancy:  1 (1.000000)
    net charge:   0.00000000 [e]

Amount of molecules per component :
-------------------------------------------------------------------------------
Component 0 (CO2)
    molecules:      1.000000e+02 molecules  (1.000000e+02 +/- 0.000000e+00)
    number density: 1.481630e-02 molec./A^3 (1.259529e-02 +/- 0.000000e+00)
    density:        1.082504e+03 kg/m^3     (9.202335e+02 +/- 0.000000e+00)

Average pressure tensor: 
-------------------------------------------------------------------------------
 9.1772e+01  5.3238e+01 -2.1867e+01 +/- 0.0000e+00 0.0000e+00 0.0000e+00 [bar]
 5.3238e+01 -2.5699e+01  5.8772e+00 +/- 0.0000e+00 0.0000e+00 0.0000e+00 [bar]
-2.1867e+01  5.8772e+00  3.0040e+01 +/- 0.0000e+00 0.0000e+00 0.0000e+00 [bar]
Ideal-gas pressure:   4.347423e+02 +/ 0.000000e+00 [bar]
Excess pressure:     -4.027049e+02 +/ 0.000000e+00 [bar]
Pressure:             3.203741e+01 +/ 0.000000e+00 [bar]

Total potential energy/kʙ  -1.629302e+05 (-1.339609e+05 +/- 0.000000e+00) [K]
-------------------------------------------------------------------------------
ExternalField-molecule
    Van der Waals/kʙ        0.000000e+00 ( 0.000000e+00 +/- 0.000000e+00) [K]
Framework-molecule
    Van der Waals/kʙ        0.000000e+00 ( 0.000000e+00 +/- 0.000000e+00) [K]
    Van der Waals (Tail)/kʙ 0.000000e+00 ( 0.000000e+00 +/- 0.000000e+00) [K]
    Coulombic Real/kʙ       0.000000e+00 ( 0.000000e+00 +/- 0.000000e+00) [K]
    Coulombic Fourier/kʙ    0.000000e+00 ( 0.000000e+00 +/- 0.000000e+00) [K]
Molecule-molecule
    Van der Waals/kʙ       -1.119152e+05 (-9.566940e+04 +/- 0.000000e+00) [K]
    Van der Waals (Tail)/kʙ-4.753881e+03 (-4.036517e+03 +/- 0.000000e+00) [K]
    Coulombic Real/kʙ      -3.828942e+04 (-2.746446e+04 +/- 0.000000e+00) [K]
    Coulombic Fourier/kʙ   -7.971662e+03 (-6.790503e+03 +/- 0.000000e+00) [K]
    Molecule Intra/kʙ       0.000000e+00 ( 0.000000e+00 +/- 0.000000e+00) [K]

Current cycle: 1800 out of 5000
===============================================================================

Box:      18.92778   0.00000   0.00000  Average:  20.16390   0.00000   0.00000
           0.00000  18.92778   0.00000             0.00000  20.16390   0.00000
           0.00000   0.00000  18.92778             0.00000   0.00000  20.16390
Lengths:  18.92778  18.92778  18.92778  Average:  20.16390  20.16390  20.16390
Angles:   90.00000  90.00000  90.00000  Average:  90.00000  90.00000  90.00000
Rectangular boundary conditions

net charge:   0.00000000

component 0 (CO2) lambda:  0 occupancy:  1 (1.000000)
    net charge:   0.00000000 [e]

Amount of molecules per component :
-------------------------------------------------------------------------------
Component 0 (CO2)
    molecules:      1.000000e+02 molecules  (1.000000e+02 +/- 0.000000e+00)
    number density: 1.474690e-02 molec./A^3 (1.271587e-02 +/- 0.000000e+00)
    density:        1.077434e+03 kg/m^3     (9.290431e+02 +/- 0.000000e+00)

Average pressure tensor: 
-------------------------------------------------------------------------------
 8.5841e+01  5.4001e+01 -1.1398e+01 +/- 0.0000e+00 0.0000e+00 0.0000e+00 [bar]
 5.4001e+01 -3.4519e+01  3.8090e+00 +/- 0.0000e+00 0.0000e+00 0.0000e+00 [bar]
-1.1398e+01  3.8090e+00  4.8803e+01 +/- 0.0000e+00 0.0000e+00 0.0000e+00 [bar]
Ideal-gas pressure:   4.389042e+02 +/ 0.000000e+00 [bar]
Excess pressure:     -4.055295e+02 +/ 0.000000e+00 [bar]
Pressure:             3.337469e+01 +/ 0.000000e+00 [bar]

Total potential energy/kʙ  -1.557939e+05 (-1.352641e+05 +/- 0.000000e+00) [K]
-------------------------------------------------------------------------------
ExternalField-molecule
    Van der Waals/kʙ        0.000000e+00 ( 0.000000e+00 +/- 0.000000e+00) [K]
Framework-molecule
    Van der Waals/kʙ        0.000000e+00 ( 0.000000e+00 +/- 0.000000e+00) [K]
    Van der Waals (Tail)/kʙ 0.000000e+00 ( 0.000000e+00 +/- 0.000000e+00) [K]
    Coulombic Real/kʙ       0.000000e+00 ( 0.000000e+00 +/- 0.000000e+00) [K]
    Coulombic Fourier/kʙ    0.000000e+00 ( 0.000000e+00 +/- 0.000000e+00) [K]
Molecule-molecule
    Van der Waals/kʙ       -1.104080e+05 (-9.650221e+04 +/- 0.000000e+00) [K]
    Van der Waals (Tail)/kʙ-4.731617e+03 (-4.075319e+03 +/- 0.000000e+00) [K]
    Coulombic Real/kʙ      -3.346346e+04 (-2.783934e+04 +/- 0.000000e+00) [K]
    Coulombic Fourier/kʙ   -7.190824e+03 (-6.847224e+03 +/- 0.000000e+00) [K]
    Molecule Intra/kʙ       0.000000e+00 ( 0.000000e+00 +/- 0.000000e+00) [K]

Current cycle: 1900 out of 5000
===============================================================================

Box:      19.25378   0.00000   0.00000  Average:  20.10447   0.00000   0.00000
           0.00000  19.25378   0.00000             0.00000  20.10447   0.00000
           0.00000   0.00000  19.25378             0.00000   0.00000  20.10447
Lengths:  19.25378  19.25378  19.25378  Average:  20.10447  20.10447  20.10447
Angles:   90.00000  90.00000  90.00000  Average:  90.00000  90.00000  90.00000
Rectangular boundary conditions

net charge:   0.00000000

component 0 (CO2) lambda:  0 occupancy:  1 (1.000000)
    net charge:   0.00000000 [e]

Amount of molecules per component :
-------------------------------------------------------------------------------
Component 0 (CO2)
    molecules:      1.000000e+02 molecules  (1.000000e+02 +/- 0.000000e+00)
    number density: 1.401045e-02 molec./A^3 (1.280988e-02 +/- 0.000000e+00)
    density:        1.023627e+03 kg/m^3     (9.359118e+02 +/- 0.000000e+00)

Average pressure tensor: 
-------------------------------------------------------------------------------
 7.4457e+01  5.8195e+01 -9.0940e+00 +/- 0.0000e+00 0.0000e+00 0.0000e+00 [bar]
 5.8195e+01 -4.1316e+01  2.2514e+00 +/- 0.0000e+00 0.0000e+00 0.0000e+00 [bar]
-9.0940e+00  2.2514e+00  6.1414e+01 +/- 0.0000e+00 0.0000e+00 0.0000e+00 [bar]
Ideal-gas pressure:   4.421492e+02 +/ 0.000000e+00 [bar]
Excess pressure:     -4.106307e+02 +/ 0.000000e+00 [bar]
Pressure:             3.151846e+01 +/ 0.000000e+00 [bar]

Total potential energy/kʙ  -1.485536e+05 (-1.361626e+05 +/- 0.000000e+00) [K]
-------------------------------------------------------------------------------
ExternalField-molecule
    Van der Waals/kʙ        0.000000e+00 ( 0.000000e+00 +/- 0.000000e+00) [K]
Framework-molecule
    Van der Waals/kʙ        0.000000e+00 ( 0.000000e+00 +/- 0.000000e+00) [K]
    Van der Waals (Tail)/kʙ 0.000000e+00 ( 0.000000e+00 +/- 0.000000e+00) [K]
    Coulombic Real/kʙ       0.000000e+00 ( 0.000000e+00 +/- 0.000000e+00) [K]
    Coulombic Fourier/kʙ    0.000000e+00 ( 0.000000e+00 +/- 0.000000e+00) [K]
Molecule-molecule
    Van der Waals/kʙ       -1.072454e+05 (-9.717474e+04 +/- 0.000000e+00) [K]
    Van der Waals (Tail)/kʙ-4.495322e+03 (-4.104359e+03 +/- 0.000000e+00) [K]
    Coulombic Real/kʙ      -2.987668e+04 (-2.801585e+04 +/- 0.000000e+00) [K]
    Coulombic Fourier/kʙ   -6.936266e+03 (-6.867618e+03 +/- 0.000000e+00) [K]
    Molecule Intra/kʙ       0.000000e+00 ( 0.000000e+00 +/- 0.000000e+00) [K]

Current cycle: 2000 out of 5000
===============================================================================

Box:      18.96679   0.00000   0.00000  Average:  20.05142   0.00000   0.00000
           0.00000  18.96679   0.00000             0.00000  20.05142   0.00000
           0.00000   0.00000  18.96679             0.00000   0.00000  20.05142
Lengths:  18.96679  18.96679  18.96679  Average:  20.05142  20.05142  20.05142
Angles:   90.00000  90.00000  90.00000  Average:  90.00000  90.00000  90.00000
Rectangular boundary conditions

net charge:   0.00000000

component 0 (CO2) lambda:  0 occupancy:  1 (1.000000)
    net charge:   0.00000000 [e]

Amount of molecules per component :
-------------------------------------------------------------------------------
Component 0 (CO2)
    molecules:      1.000000e+02 molecules  (1.000000e+02 +/- 0.000000e+00)
    number density: 1.465609e-02 molec./A^3 (1.289352e-02 +/- 0.000000e+00)
    density:        1.070799e+03 kg/m^3     (9.420227e+02 +/- 0.000000e+00)

Average pressure tensor: 
-------------------------------------------------------------------------------
 5.6587e+01  5.7268e+01 -9.5420e+00 +/- 0.0000e+00 0.0000e+00 0.0000e+00 [bar]
 5.7268e+01 -4.7710e+01  6.4248e+00 +/- 0.0000e+00 0.0000e+00 0.0000e+00 [bar]
-9.5420e+00  6.4248e+00  5.9813e+01 +/- 0.0000e+00 0.0000e+00 0.0000e+00 [bar]
Ideal-gas pressure:   4.450361e+02 +/ 0.000000e+00 [bar]
Excess pressure:     -4.221396e+02 +/ 0.000000e+00 [bar]
Pressure:             2.289653e+01 +/ 0.000000e+00 [bar]

Total potential energy/kʙ  -1.516634e+05 (-1.369873e+05 +/- 0.000000e+00) [K]
-------------------------------------------------------------------------------
ExternalField-molecule
    Van der Waals/kʙ        0.000000e+00 ( 0.000000e+00 +/- 0.000000e+00) [K]
Framework-molecule
    Van der Waals/kʙ        0.000000e+00 ( 0.000000e+00 +/- 0.000000e+00) [K]
    Van der Waals (Tail)/kʙ 0.000000e+00 ( 0.000000e+00 +/- 0.000000e+00) [K]
    Coulombic Real/kʙ       0.000000e+00 ( 0.000000e+00 +/- 0.000000e+00) [K]
    Coulombic Fourier/kʙ    0.000000e+00 ( 0.000000e+00 +/- 0.000000e+00) [K]
Molecule-molecule
    Van der Waals/kʙ       -1.124989e+05 (-9.781170e+04 +/- 0.000000e+00) [K]
    Van der Waals (Tail)/kʙ-4.702480e+03 (-4.131295e+03 +/- 0.000000e+00) [K]
    Coulombic Real/kʙ      -2.777593e+04 (-2.815302e+04 +/- 0.000000e+00) [K]
    Coulombic Fourier/kʙ   -6.686159e+03 (-6.891329e+03 +/- 0.000000e+00) [K]
    Molecule Intra/kʙ       0.000000e+00 ( 0.000000e+00 +/- 0.000000e+00) [K]

Current cycle: 2100 out of 5000
===============================================================================

Box:      19.46543   0.00000   0.00000  Average:  20.01469   0.00000   0.00000
           0.00000  19.46543   0.00000             0.00000  20.01469   0.00000
           0.00000   0.00000  19.46543             0.00000   0.00000  20.01469
Lengths:  19.46543  19.46543  19.46543  Average:  20.01469  20.01469  20.01469
Angles:   90.00000  90.00000  90.00000  Average:  90.00000  90.00000  90.00000
Rectangular boundary conditions

net charge:   0.00000000

component 0 (CO2) lambda:  0 occupancy:  1 (1.000000)
    net charge:   0.00000000 [e]

Amount of molecules per component :
-------------------------------------------------------------------------------
Component 0 (CO2)
    molecules:      1.000000e+02 molecules  (1.000000e+02 +/- 0.000000e+00)
    number density: 1.355840e-02 molec./A^3 (1.294442e-02 +/- 0.000000e+00)
    density:        9.905996e+02 kg/m^3     (9.457417e+02 +/- 0.000000e+00)

Average pressure tensor: 
-------------------------------------------------------------------------------
 5.9588e+01  5.8376e+01 -1.5402e+01 +/- 0.0000e+00 0.0000e+00 0.0000e+00 [bar]
 5.8376e+01 -3.0268e+01  7.1198e+00 +/- 0.0000e+00 0.0000e+00 0.0000e+00 [bar]
-1.5402e+01  7.1198e+00  4.9848e+01 +/- 0.0000e+00 0.0000e+00 0.0000e+00 [bar]
Ideal-gas pressure:   4.467931e+02 +/ 0.000000e+00 [bar]
Excess pressure:     -4.204036e+02 +/ 0.000000e+00 [bar]
Pressure:             2.638940e+01 +/ 0.000000e+00 [bar]

Total potential energy/kʙ  -1.434759e+05 (-1.374043e+05 +/- 0.000000e+00) [K]
-------------------------------------------------------------------------------
ExternalField-molecule
    Van der Waals/kʙ        0.000000e+00 ( 0.000000e+00 +/- 0.000000e+00) [K]
Framework-molecule
    Van der Waals/kʙ        0.000000e+00 ( 0.000000e+00 +/- 0.000000e+00) [K]
    Van der Waals (Tail)/kʙ 0.000000e+00 ( 0.000000e+00 +/- 0.000000e+00) [K]
[...]
    Coulombic Fourier/kʙ    0.000000e+00 ( 0.000000e+00 +/- 0.000000e+00) [K]
Molecule-molecule
    Van der Waals/kʙ       -1.140193e+05 (-1.025803e+05 +/- 1.028758e+04) [K]
    Van der Waals (Tail)/kʙ-4.845868e+03 (-4.367060e+03 +/- 5.025268e+02) [K]
    Coulombic Real/kʙ      -3.382419e+04 (-2.913652e+04 +/- 2.865789e+03) [K]
    Coulombic Fourier/kʙ   -8.015826e+03 (-7.269420e+03 +/- 6.961388e+02) [K]
    Molecule Intra/kʙ       0.000000e+00 ( 0.000000e+00 +/- 0.000000e+00) [K]

Current cycle: 4700 out of 5000
===============================================================================

Box:      18.94957   0.00000   0.00000  Average:  19.54596   0.00000   0.00000
           0.00000  18.94957   0.00000             0.00000  19.54596   0.00000
           0.00000   0.00000  18.94957             0.00000   0.00000  19.54596
Lengths:  18.94957  18.94957  18.94957  Average:  19.54596  19.54596  19.54596
Angles:   90.00000  90.00000  90.00000  Average:  90.00000  90.00000  90.00000
Rectangular boundary conditions

net charge:   0.00000000

component 0 (CO2) lambda:  0 occupancy:  1 (1.000000)
    net charge:   0.00000000 [e]

Amount of molecules per component :
-------------------------------------------------------------------------------
Component 0 (CO2)
    molecules:      1.000000e+02 molecules  (1.000000e+02 +/- 0.000000e+00)
    number density: 1.469609e-02 molec./A^3 (1.364656e-02 +/- 1.553578e-03)
    density:        1.073721e+03 kg/m^3     (9.970410e+02 +/- 1.135071e+02)

Average pressure tensor: 
-------------------------------------------------------------------------------
 5.5184e+01  3.8899e+00 -4.0188e+01 +/- 7.4725e+01 7.4442e+01 8.2664e+01 [bar]
 3.8899e+00  7.1436e+00  7.1788e+00 +/- 7.4442e+01 7.9330e+01 9.6473e+01 [bar]
-4.0188e+01  7.1788e+00  5.3627e+01 +/- 8.2664e+01 9.6473e+01 6.6829e+01 [bar]
Ideal-gas pressure:   4.710282e+02 +/ 5.362372e+01 [bar]
Excess pressure:     -4.323765e+02 +/ 5.577284e+01 [bar]
Pressure:             3.865166e+01 +/ 2.753768e+01 [bar]

Total potential energy/kʙ  -1.515126e+05 (-1.437158e+05 +/- 1.452631e+04) [K]
-------------------------------------------------------------------------------
ExternalField-molecule
    Van der Waals/kʙ        0.000000e+00 ( 0.000000e+00 +/- 0.000000e+00) [K]
Framework-molecule
    Van der Waals/kʙ        0.000000e+00 ( 0.000000e+00 +/- 0.000000e+00) [K]
    Van der Waals (Tail)/kʙ 0.000000e+00 ( 0.000000e+00 +/- 0.000000e+00) [K]
    Coulombic Real/kʙ       0.000000e+00 ( 0.000000e+00 +/- 0.000000e+00) [K]
    Coulombic Fourier/kʙ    0.000000e+00 ( 0.000000e+00 +/- 0.000000e+00) [K]
Molecule-molecule
    Van der Waals/kʙ       -1.091299e+05 (-1.028203e+05 +/- 1.041618e+04) [K]
    Van der Waals (Tail)/kʙ-4.715313e+03 (-4.377245e+03 +/- 5.068893e+02) [K]
    Coulombic Real/kʙ      -3.031634e+04 (-2.923772e+04 +/- 2.966700e+03) [K]
    Coulombic Fourier/kʙ   -7.351070e+03 (-7.280520e+03 +/- 6.871082e+02) [K]
    Molecule Intra/kʙ       0.000000e+00 ( 0.000000e+00 +/- 0.000000e+00) [K]

Current cycle: 4800 out of 5000
===============================================================================

Box:      19.05223   0.00000   0.00000  Average:  19.53122   0.00000   0.00000
           0.00000  19.05223   0.00000             0.00000  19.53122   0.00000
           0.00000   0.00000  19.05223             0.00000   0.00000  19.53122
Lengths:  19.05223  19.05223  19.05223  Average:  19.53122  19.53122  19.53122
Angles:   90.00000  90.00000  90.00000  Average:  90.00000  90.00000  90.00000
Rectangular boundary conditions

net charge:   0.00000000

component 0 (CO2) lambda:  0 occupancy:  1 (1.000000)
    net charge:   0.00000000 [e]

Amount of molecules per component :
-------------------------------------------------------------------------------
Component 0 (CO2)
    molecules:      1.000000e+02 molecules  (1.000000e+02 +/- 0.000000e+00)
    number density: 1.445981e-02 molec./A^3 (1.367390e-02 +/- 1.559558e-03)
    density:        1.056458e+03 kg/m^3     (9.990383e+02 +/- 1.139440e+02)

Average pressure tensor: 
-------------------------------------------------------------------------------
 5.6151e+01 -1.4056e-01 -3.3506e+01 +/- 7.4250e+01 7.8862e+01 6.4304e+01 [bar]
-1.4056e-01  1.0268e+01  1.1148e+00 +/- 7.8862e+01 7.7218e+01 1.0607e+02 [bar]
-3.3506e+01  1.1148e+00  5.6281e+01 +/- 6.4304e+01 1.0607e+02 6.5878e+01 [bar]
Ideal-gas pressure:   4.719718e+02 +/ 5.383011e+01 [bar]
Excess pressure:     -4.310717e+02 +/ 5.029986e+01 [bar]
Pressure:             4.090003e+01 +/ 2.435261e+01 [bar]

Total potential energy/kʙ  -1.562460e+05 (-1.440108e+05 +/- 1.461602e+04) [K]
-------------------------------------------------------------------------------
ExternalField-molecule
    Van der Waals/kʙ        0.000000e+00 ( 0.000000e+00 +/- 0.000000e+00) [K]
Framework-molecule
    Van der Waals/kʙ        0.000000e+00 ( 0.000000e+00 +/- 0.000000e+00) [K]
    Van der Waals (Tail)/kʙ 0.000000e+00 ( 0.000000e+00 +/- 0.000000e+00) [K]
    Coulombic Real/kʙ       0.000000e+00 ( 0.000000e+00 +/- 0.000000e+00) [K]
    Coulombic Fourier/kʙ    0.000000e+00 ( 0.000000e+00 +/- 0.000000e+00) [K]
Molecule-molecule
    Van der Waals/kʙ       -1.133233e+05 (-1.030095e+05 +/- 1.044847e+04) [K]
    Van der Waals (Tail)/kʙ-4.639500e+03 (-4.385809e+03 +/- 5.084754e+02) [K]
    Coulombic Real/kʙ      -3.097046e+04 (-2.933125e+04 +/- 3.042594e+03) [K]
    Coulombic Fourier/kʙ   -7.312710e+03 (-7.284204e+03 +/- 6.670168e+02) [K]
    Molecule Intra/kʙ       0.000000e+00 ( 0.000000e+00 +/- 0.000000e+00) [K]

Current cycle: 4900 out of 5000
===============================================================================

Box:      19.02712   0.00000   0.00000  Average:  19.52038   0.00000   0.00000
           0.00000  19.02712   0.00000             0.00000  19.52038   0.00000
           0.00000   0.00000  19.02712             0.00000   0.00000  19.52038
Lengths:  19.02712  19.02712  19.02712  Average:  19.52038  19.52038  19.52038
Angles:   90.00000  90.00000  90.00000  Average:  90.00000  90.00000  90.00000
Rectangular boundary conditions

net charge:   0.00000000

component 0 (CO2) lambda:  0 occupancy:  1 (1.000000)
    net charge:   0.00000000 [e]

Amount of molecules per component :
-------------------------------------------------------------------------------
Component 0 (CO2)
    molecules:      1.000000e+02 molecules  (1.000000e+02 +/- 0.000000e+00)
    number density: 1.451714e-02 molec./A^3 (1.369240e-02 +/- 1.553765e-03)
    density:        1.060647e+03 kg/m^3     (1.000390e+03 +/- 1.135208e+02)

Average pressure tensor: 
-------------------------------------------------------------------------------
 5.2905e+01 -1.5663e+00 -3.4681e+01 +/- 7.5553e+01 7.9218e+01 6.4566e+01 [bar]
-1.5663e+00  4.8390e+00  2.0230e+00 +/- 7.9218e+01 8.0169e+01 9.7129e+01 [bar]
-3.4681e+01  2.0230e+00  5.6660e+01 +/- 6.4566e+01 9.7129e+01 6.5868e+01 [bar]
Ideal-gas pressure:   4.726105e+02 +/ 5.363017e+01 [bar]
Excess pressure:     -4.344756e+02 +/ 5.503538e+01 [bar]
Pressure:             3.813484e+01 +/ 2.700829e+01 [bar]

Total potential energy/kʙ  -1.551378e+05 (-1.442532e+05 +/- 1.462736e+04) [K]
-------------------------------------------------------------------------------
ExternalField-molecule
    Van der Waals/kʙ        0.000000e+00 ( 0.000000e+00 +/- 0.000000e+00) [K]
Framework-molecule
    Van der Waals/kʙ        0.000000e+00 ( 0.000000e+00 +/- 0.000000e+00) [K]
    Van der Waals (Tail)/kʙ 0.000000e+00 ( 0.000000e+00 +/- 0.000000e+00) [K]
    Coulombic Real/kʙ       0.000000e+00 ( 0.000000e+00 +/- 0.000000e+00) [K]
    Coulombic Fourier/kʙ    0.000000e+00 ( 0.000000e+00 +/- 0.000000e+00) [K]
Molecule-molecule
    Van der Waals/kʙ       -1.120512e+05 (-1.031679e+05 +/- 1.044153e+04) [K]
    Van der Waals (Tail)/kʙ-4.657895e+03 (-4.392102e+03 +/- 5.071978e+02) [K]
    Coulombic Real/kʙ      -3.096480e+04 (-2.939622e+04 +/- 3.063093e+03) [K]
    Coulombic Fourier/kʙ   -7.463967e+03 (-7.296998e+03 +/- 6.682269e+02) [K]
    Molecule Intra/kʙ       0.000000e+00 ( 0.000000e+00 +/- 0.000000e+00) [K]


Energy statistics             |  Energy [K]   | Recomputed [K]|  Drift [K]    |
===============================================================================
Total potential energy/kʙ     | -1.432010e+05 | -1.432010e+05 |  4.091079e-10 |
    external field VDW/kʙ     |  0.000000e+00 |  0.000000e+00 |  0.000000e+00 |
    external field Real/kʙ    |  0.000000e+00 |  0.000000e+00 |  0.000000e+00 |
    framework-molecule VDW/kʙ |  0.000000e+00 |  0.000000e+00 |  0.000000e+00 |
    framework-molecule Real/kʙ|  0.000000e+00 |  0.000000e+00 |  0.000000e+00 |
    molecule-molecule VDW/kʙ  | -1.024624e+05 | -1.024624e+05 |  4.550505e-10 |
    molecule-molecule Real/kʙ | -2.900377e+04 | -2.900377e+04 | -2.187743e-11 |
    Van der Waals (Tail)/kʙ   | -4.602081e+03 | -4.602081e+03 |  0.000000e+00 |
    Ewald Fourier/kʙ          |  7.398100e+03 |  7.398100e+03 | -2.406517e-11 |
    Ewald self/kʙ             | -2.222923e+06 | -2.222923e+06 |  0.000000e+00 |
    Ewald exclusion/kʙ        |  2.208392e+06 |  2.208392e+06 |  0.000000e+00 |
    intra VDW/kʙ              |  0.000000e+00 |  0.000000e+00 |  0.000000e+00 |
    intra Coulombic/kʙ        |  0.000000e+00 |  0.000000e+00 |  0.000000e+00 |
    polarization/kʙ           |  0.000000e+00 |  0.000000e+00 |  0.000000e+00 |
    dU/dlambda VDW/kʙ         |  0.000000e+00 |  0.000000e+00 |  0.000000e+00 |
    dU/dlambda Real/kʙ        |  0.000000e+00 |  0.000000e+00 |  0.000000e+00 |
    dU/dlambda Ewald/kʙ       |  0.000000e+00 |  0.000000e+00 |  0.000000e+00 |
-------------------------------------------------------------------------------


Monte-Carlo moves statistics
===============================================================================

    Volume change        all:                3316
    Volume change        total:              3316
    Volume change        constructed:        3316
    Volume change        accepted:           1478
    Volume change        fraction:       0.445718
    Volume change        max-change:     0.050000

Component 0 [CO2]
    Reinsertion (CBMC)   all:              165691
    Reinsertion (CBMC)   total:            165691
    Reinsertion (CBMC)   constructed:      152655
    Reinsertion (CBMC)   accepted:           6175
    Reinsertion (CBMC)   fraction:       0.037268
    Reinsertion (CBMC)   max-change:     0.000000

    Translation          all:              166738
    Translation          total:             55042      55637      56059
    Translation          constructed:       55011      54943      55261
    Translation          accepted:          20983      16591      16647
    Translation          fraction:       0.381218   0.298201   0.296955
    Translation          max-change:     1.028571   1.361345   1.384615

    Rotation             all:              164255
    Rotation             total:             54708      54855      54692
    Rotation             constructed:       54282      54823      54692
    Rotation             accepted:          16495      21241      30834
    Rotation             fraction:       0.301510   0.387221   0.563775
    Rotation             max-change:     1.500000   1.058824   0.583333



Production run counting of the MC moves summed over systems and components
===============================================================================

Volume change                          3316 (0.6632 [%])
Reinsertion (CBMC)                   165691 (33.1382 [%])
Translation                          166738 (33.3476 [%])
Rotation                             164255 (32.8510 [%])

Production count MC-steps:           500000 [-]
               All summed:           500000 [-]
               difference:                0 [-]


Production run CPU timings of the MC moves
===============================================================================

Component 0 CO2

Rotation                             22.422007 [s]
    Ewald                            12.987821 [s]
    ExternalField-Molecule            0.006351 [s]
    Framework-Molecule                0.006389 [s]
    Molecule-Molecule                 8.515187 [s]
    Overhead                          0.906259 [s]

Reinsertion (CBMC)                   71.582532 [s]
    Ewald                            11.579398 [s]
    NonEwald                         59.790432 [s]
    Overhead                          0.212702 [s]

Translation                          22.760074 [s]
    Ewald                            13.232480 [s]
    ExternalField-Molecule            0.005506 [s]
    Framework-Molecule                0.010322 [s]
    Molecule-Molecule                 8.768309 [s]
    Overhead                          0.743457 [s]



Volume change                          9.329173 [s]
    Ewald                              4.768967 [s]
    NonEwald                           4.338010 [s]
    Tail                               0.148515 [s]

Property sampling                     0.233864 [s]
Energy/pressure sampling:             3.469561 [s]


Production run CPU timings of the MC moves summed over systems and components
===============================================================================


Translation                          22.760074 [s]
    Ewald                            13.232480 [s]
    ExternalField-Molecule            0.005506 [s]
    Framework-Molecule                0.010322 [s]
    Molecule-Molecule                 8.768309 [s]
    Overhead                          0.743457 [s]

Rotation                             22.422007 [s]
    Ewald                            12.987821 [s]
    ExternalField-Molecule            0.006351 [s]
    Framework-Molecule                0.006389 [s]
    Molecule-Molecule                 8.515187 [s]
    Overhead                          0.906259 [s]

Volume change                         9.329173 [s]
    Ewald                             4.768967 [s]
    NonEwald                          4.338010 [s]
    Tail                              0.148515 [s]
    Overhead                          0.073681 [s]

Reinsertion (CBMC)                   71.582532 [s]
    Ewald                            11.579398 [s]
    NonEwald                         59.790432 [s]
    Overhead                          0.212702 [s]

Property sampling:                    0.233864 [s]
Energy/pressure sampling:             3.469561 [s]

Production simulation time:         130.188861 [s]
                All summed:         129.797211 [s]
                  Overhead:           0.391650 [s]


Initalization simulation time:       20.008946 [s]
Equilibration simulation time:        0.000000 [s]
Production simulation time:         130.188861 [s]
Total simulation time:              150.197807 [s]


Energy averages and statistics:
===============================================================================

Framework-molecule energy:
-------------------------------------------------------------------------------



Framework-molecule energy contributions per energy type:
-------------------------------------------------------------------------------



Inter-molecular energy:
-------------------------------------------------------------------------------

    Inter-molecular energy/kʙ 0-0 [CO2-CO2]:
    ---------------------------------------------------------------------------
        Block[  0] -1.246061e+05
        Block[  1] -1.492218e+05
        Block[  2] -1.441658e+05
        Block[  3] -1.489435e+05
        Block[  4] -1.548641e+05
        -----------------------------------------------------------------------
        Average  -1.443603e+05 +/-  1.449426e+04 [K]



Inter-molecular energy contributions per energy type:
-------------------------------------------------------------------------------

    Van der Waals energy/kʙ 0-0 [CO2-CO2]:
    ---------------------------------------------------------------------------
        Block[  0] -8.901751e+04
        Block[  1] -1.064590e+05
        Block[  2] -1.033984e+05
        Block[  3] -1.068493e+05
        Block[  4] -1.105697e+05
        -----------------------------------------------------------------------
        Average  -1.032588e+05 +/-  1.037600e+04 [K]

    VDW Tail-Correction energy/kʙ 0-0 [CO2-CO2]:
    ---------------------------------------------------------------------------
        Block[  0] -3.690708e+03
        Block[  1] -4.566169e+03
        Block[  2] -4.439185e+03
        Block[  3] -4.567008e+03
        Block[  4] -4.717800e+03
        -----------------------------------------------------------------------
        Average  -4.396174e+03 +/-  5.046893e+02 [K]

    Coulomb Real energy/kʙ 0-0 [CO2-CO2]:
    ---------------------------------------------------------------------------
        Block[  0] -2.547824e+04
        Block[  1] -3.083157e+04
        Block[  2] -2.897669e+04
        Block[  3] -2.999534e+04
        Block[  4] -3.176490e+04
        -----------------------------------------------------------------------
        Average  -2.940935e+04 +/-  3.012668e+03 [K]

    Coulomb Fourier energy/kʙ 0-0 [CO2-CO2]:
    ---------------------------------------------------------------------------
        Block[  0] -6.419673e+03
        Block[  1] -7.365037e+03
        Block[  2] -7.351535e+03
        Block[  3] -7.531824e+03
        Block[  4] -7.811715e+03
        -----------------------------------------------------------------------
        Average  -7.295957e+03 +/-  6.502523e+02 [K]


Total energy/kʙ
-------------------------------------------------------------------------------
    Block[  0] -1.246061e+05
    Block[  1] -1.492218e+05
    Block[  2] -1.441658e+05
    Block[  3] -1.489435e+05
    Block[  4] -1.548641e+05
    ---------------------------------------------------------------------------
    Average  -1.443603e+05 +/-  1.449426e+04 [K]

Pressure averages and statistics:
===============================================================================

Average pressure tensor: 
-------------------------------------------------------------------------------
 5.6684e+01  1.0309e+00 -2.8685e+01 +/- 7.4093e+01 7.4762e+01 5.7344e+01 [bar]
 1.0309e+00  1.9167e-01  6.0458e+00 +/- 7.4762e+01 8.3961e+01 8.4083e+01 [bar]
-2.8685e+01  6.0458e+00  5.3964e+01 +/- 5.7344e+01 8.4083e+01 6.6284e+01 [bar]

    Block[  0]  3.986613e+07
    Block[  1]  4.913501e+07
    Block[  2]  4.772903e+07
    Block[  3]  4.907110e+07
    Block[  4]  5.073815e+07
    ---------------------------------------------------------------------------
    Ideal gas pressure   4.730788e+07 +/-  3.210690e-01 [Pa]
                         4.730788e+02 +/-  5.331480e+01 [bar]


    Block[  0] -3.761899e+07
    Block[  1] -4.677252e+07
    Block[  2] -4.152674e+07
    Block[  3] -4.296510e+07
    Block[  4] -4.918277e+07
    ---------------------------------------------------------------------------
    Excess pressure  -4.361323e+07 +/-  5.610866e+06 [Pa]
                     -4.361323e+02 +/-  5.610866e+01 [bar]


    Block[  0]  2.247138e+06
    Block[  1]  2.362489e+06
    Block[  2]  6.202286e+06
    Block[  3]  6.105996e+06
    Block[  4]  1.555373e+06
    ---------------------------------------------------------------------------
    Pressure average   3.694656e+06 +/-  2.813862e+06 [Pa]
                       3.694656e+01 +/-  2.813862e+01 [bar]


Enthalpy of adsorption
===============================================================================

No fluctuating components present.


Densities
===============================================================================

Component 0 (CO2)
    Block[  0] 100
    Block[  1] 100
    Block[  2] 100
    Block[  3] 100
    Block[  4] 100
    -----------------------------------------------------------------------
    Density average   1.000000e+02 +/-  0.000000e+00 [molecules]
    Density average   1.370597e-02 +/-  1.544628e-03 [molec/A^3]
    Density average   1.001382e+03 +/-  1.128532e+02 [kg.m⁻³]

