Compiler and run-time data
===============================================================================
RASPA 3.0.4

Random seed: 1772552443

Compiled as a 64-bits application
Compiler: gcc Ubuntu Clang 18.1.3 (1ubuntu1)
Compile Date = Mar 15 2025, Compile Time = 19:39:45

2025-06-02 13:21:36.152031
Simulation started on Mon, Jun 02
The start time was 13:21:00

Hostname:    c061
OS type:     Linux on x86_64
OS release:  6.8.0-58-generic
OS version:  #60-Ubuntu SMP PREEMPT_DYNAMIC Fri Mar 14 18:29:48 UTC 2025


Mutual consistent basic set of units:
===============================================================================

Unit of temperature: 1 [K]
Unit of length:      1e-10 [m]
Unit of time:        1e-12 [s]
Unit of mass:        1.6605402e-27 [kg]
Unit of charge:      1.60217733e-19 [C/particle]


Boltzmann constant (internal units):          0.8314464919307584 [-]
represents conversion from energy (internal units) to temperature (in Kelvin)

Derived units and their conversion factors:
===============================================================================

Unit of energy:                           1.6605402000000002e-23 [J]
Unit of energy:                           10.000008872307538 [J.mol⁻¹]
Unit of velocity:                         100 [m.s⁻¹]
Unit of force:                            1.6605402000000002e-13 [N]
Unit of diffusion:                        1.0000000000000002e-08 [m².s⁻¹]
Unit of acceleration:                     1.0000000000000002e-08 [m².s⁻¹]
Unit of torque:                           1.6605402000000002e-23 [N.m]
Unit of pressure:                         16605402 [Pa]
Unit of volume:                           1e-30 [m³]
Unit of density:                          1660.5402 [kg.m⁻³]
Unit of dynamic viscosity:                1.6605401999999997e-05 [N.s.m⁻²]
Unit of enthalpy:                         1.6605402000000002e-23 [J]
Unit of polarizability:                   1.5458657349975198e-35 [-]
Unit of Coulomb potential:                167101.08000665612 [K]
Unit of dielectric constant:              1.5458657349975193e-05 [s².C².kg⁻¹.m⁻³]
Unit of dipole moment:                    1.60217733e-29 [C.m]
Unit of Debye:                            4.803206799099162 [C.m]
Unit of electric potential:               0.00010364272224473431 [V]
Unit of electric field:                   1036427.222447343 [V.m⁻¹]
Unit of isothermal compressibility:       6.02213665167516e-08 [Pa⁻¹]
Unit of heat capacity:                    10.000008872307538 [J.mol⁻¹.K⁻¹]
Unit of volumetric expansion coefficient: 1 [K⁻¹]


Internal conversion factors:
===============================================================================

Energy (internal units) to Kelvin:      1.202724284692786 [-]
Kelvin to energy (internal units):      0.8314457542157567 [-]


System definitions
===============================================================================

Temperature:          250 [K]
Beta:                 0.0048108928702210625 [-]
Pressure:             1.4e+07 [Pa]
Helium void fraction: 1 [-]

Box:      30.00000   0.00000   0.00000
           0.00000  30.00000   0.00000
           0.00000   0.00000  30.00000
Lengths:  30.00000  30.00000  30.00000
Angles:   90.00000  90.00000  90.00000
Rectangular boundary conditions



Property measurement settings
===============================================================================




Pseudo-atoms
===============================================================================

  0 - C_co2    framework-atom: false
  1 - O_co2    framework-atom: false

  0 - C_co2    mass: 12.00000, charge:  0.70000
  1 - O_co2    mass: 15.99940, charge: -0.35000

  0 - C_co2    polarizability:  0.00000
  1 - O_co2    polarizability:  0.00000

  0 - J. J. Potoff et al., AIChE J. 2001, 47, 1676–1682.
  1 - J. J. Potoff et al., AIChE J. 2001, 47, 1676–1682.

Force field status
===============================================================================

Cutoff Framework-Molecule VDW:  11.00000 [Å]
Cutoff Molecule-Molecule VDW:   11.00000 [Å]
Cutoff Coulomb:                 11.00000 [Å]

Overlap-criteria VDW:           1.000000e+05 [K]

C_co2    - C_co2    Lennard-Jones p₀/kʙ:  27.00000 [K], p₁:  2.80000 [Å]
                                  shift:   0.00000 [K], tailcorrections: true
C_co2    - O_co2    Lennard-Jones p₀/kʙ:  46.18441 [K], p₁:  2.92500 [Å]
                                  shift:   0.00000 [K], tailcorrections: true
O_co2    - O_co2    Lennard-Jones p₀/kʙ:  79.00000 [K], p₁:  3.05000 [Å]
                                  shift:   0.00000 [K], tailcorrections: true

Ewald precision: 1e-06
Ewald alpha: 0.2903408740940883
Ewald k-vectors: 9 9 9


Component definitions
===============================================================================

Component 0 [CO2]

    Type: Adsorbate

    Critical temperature:  304.1282 [K]
    Critical pressure:     7377300 [Pa]
    Acentric factor:       0.22394 [-]

    Mol-fraction:                 1 [-]
    Swappable:                   false

    Mass:                         43.9988 [-]
    Bulk fluid density:           0 [-]
    Compressibility:              0 [-]
    Excess molecules:             0 [-]

    Number Of Atoms:    3
    CBMC starting bead: 0
      0: O_co2  position  0.00000 -0.00000  1.16000, charge -0.35000
      1: C_co2  position  0.00000 -0.00000  0.00000, charge  0.70000
      2: O_co2  position  0.00000 -0.00000 -1.16000, charge -0.35000
    Diagonalized inertia-vector:      43.05758528 43.05758528 0.00000000
    Translational degrees of freedom: 3
    Rotational degrees of freedom:    2
    Shape of the molecule is: 'Linear'
    Net-charge:        0.00000000 [e]

    Move probabilities:
    Translation:                   0.331126 [-]
    Random translation:            0.000000 [-]
    Rotation:                      0.331126 [-]
    Random rotation:               0.000000 [-]
    Volume change:                 0.006623 [-]
    Reinsertion (CBMC):            0.331126 [-]
    Identity change (CBMC):        0.000000 [-]
    Swap:                          0.000000 [-]
    Swap (CBMC):                   0.000000 [-]
    Swap (CFCMC):                  0.000000 [-]
    Swap (CB/CFCMC):               0.000000 [-]
    Gibbs volume:                  0.000000 [-]
    Gibbs swap (CBMC):             0.000000 [-]
    Gibbs swap (CFCMC):            0.000000 [-]
    Widom:                         0.000000 [-]
    Widom (CFCMC):                 0.000000 [-]
    Widom (CB/CFCMC):              0.000000 [-]
    Parallel tempering:            0.000000 [-]
    Hybrid MC:                     0.000000 [-]

    number of blocking-pockets: 0

    number of bonds: 0





Number of pseudo-atoms
===============================================================================

Component   0 (CO2)
-------------------------------------------------------------------------------
    index   0 (C_co2): 200 atoms
    index   1 (O_co2): 400 atoms

Total number of pseudo-atoms:
-------------------------------------------------------------------------------
    index   0 (C_co2): 200 atoms
    index   1 (O_co2): 400 atoms




Energy status Recomputed from scratch
===============================================================================

Total potential energy/kʙ       -9.294310e+04 [K]
    external field VDW/kʙ        0.000000e+00 [K]
    external field Real/kʙ       0.000000e+00 [K]
    framework-molecule VDW/kʙ    0.000000e+00 [K]
    framework-molecule Real/kʙ   0.000000e+00 [K]
    molecule-molecule VDW/kʙ    -7.299079e+04 [K]
    molecule-molecule Real/kʙ   -1.449143e+04 [K]
    Van der Waals (Tail)/kʙ     -3.571688e+03 [K]
    Ewald Fourier/kʙ             1.626391e+04 [K]
    Ewald self/kʙ               -4.023739e+06 [K]
    Ewald exclusion/kʙ           4.005586e+06 [K]
    intra VDW/kʙ                 0.000000e+00 [K]
    intra Coulombic/kʙ           0.000000e+00 [K]
    polarization/kʙ              0.000000e+00 [K]
    dU/dlambda VDW/kʙ            0.000000e+00 [K]
    dU/dlambda Real/kʙ           0.000000e+00 [K]
    dU/dlambda Ewald/kʙ          0.000000e+00 [K]





Initialization: Current cycle: 0 out of 1000
===============================================================================

Box:      30.00000   0.00000   0.00000
           0.00000  30.00000   0.00000
           0.00000   0.00000  30.00000
Lengths:  30.00000  30.00000  30.00000
Angles:   90.00000  90.00000  90.00000
Rectangular boundary conditions

net charge:   0.00000000

component   0 (CO2) lambda:  0 occupancy:  1 (1.000000)
    net charge:   0.00000000 [e]

Amount of molecules per component :
-------------------------------------------------------------------------------
Component 0 (CO2)
    molecules:         2.000000e+02 molecules
    number density:    7.407407e-03 molec/A^3
    density:           5.411979e+02 kg/m^3

Total potential energy/kʙ       -1.159033e+05 [K]
-------------------------------------------------------------------------------
    external field VDW/kʙ        0.000000e+00 [K]
    external field Real/kʙ       0.000000e+00 [K]
    framework-molecule VDW/kʙ    0.000000e+00 [K]
    framework-molecule Real/kʙ   0.000000e+00 [K]
    molecule-molecule VDW/kʙ    -9.109417e+04 [K]
    molecule-molecule Real/kʙ   -1.826886e+04 [K]
    Van der Waals (Tail)/kʙ     -3.571688e+03 [K]
    Ewald Fourier/kʙ             1.518450e+04 [K]
    Ewald self/kʙ               -4.023739e+06 [K]
    Ewald exclusion/kʙ           4.005586e+06 [K]
    intra VDW/kʙ                 0.000000e+00 [K]
    intra Coulombic/kʙ           0.000000e+00 [K]
    polarization/kʙ              0.000000e+00 [K]
    dU/dlambda VDW/kʙ            0.000000e+00 [K]
    dU/dlambda Real/kʙ           0.000000e+00 [K]
    dU/dlambda Ewald/kʙ          0.000000e+00 [K]


Initialization: Current cycle: 100 out of 1000
===============================================================================

Box:      27.01974   0.00000   0.00000
           0.00000  27.01974   0.00000
           0.00000   0.00000  27.01974
Lengths:  27.01974  27.01974  27.01974
Angles:   90.00000  90.00000  90.00000
Rectangular boundary conditions

net charge:   0.00000000

component   0 (CO2) lambda:  0 occupancy:  1 (1.000000)
    net charge:   0.00000000 [e]

Amount of molecules per component :
-------------------------------------------------------------------------------
Component 0 (CO2)
    molecules:         2.000000e+02 molecules
    number density:    1.013880e-02 molec/A^3
    density:           7.407580e+02 kg/m^3

Total potential energy/kʙ       -2.154750e+05 [K]
-------------------------------------------------------------------------------
    external field VDW/kʙ        0.000000e+00 [K]
    external field Real/kʙ       0.000000e+00 [K]
    framework-molecule VDW/kʙ    0.000000e+00 [K]
    framework-molecule Real/kʙ   0.000000e+00 [K]
    molecule-molecule VDW/kʙ    -1.658580e+05 [K]
    molecule-molecule Real/kʙ   -3.926076e+04 [K]
    Van der Waals (Tail)/kʙ     -4.888705e+03 [K]
    Ewald Fourier/kʙ             1.268556e+04 [K]
    Ewald self/kʙ               -4.023739e+06 [K]
    Ewald exclusion/kʙ           4.005586e+06 [K]
    intra VDW/kʙ                 0.000000e+00 [K]
    intra Coulombic/kʙ           0.000000e+00 [K]
    polarization/kʙ              0.000000e+00 [K]
    dU/dlambda VDW/kʙ            0.000000e+00 [K]
    dU/dlambda Real/kʙ           0.000000e+00 [K]
    dU/dlambda Ewald/kʙ          0.000000e+00 [K]


Initialization: Current cycle: 200 out of 1000
===============================================================================

Box:      25.23389   0.00000   0.00000
           0.00000  25.23389   0.00000
           0.00000   0.00000  25.23389
Lengths:  25.23389  25.23389  25.23389
Angles:   90.00000  90.00000  90.00000
Rectangular boundary conditions

net charge:   0.00000000

component   0 (CO2) lambda:  0 occupancy:  1 (1.000000)
    net charge:   0.00000000 [e]

Amount of molecules per component :
-------------------------------------------------------------------------------
Component 0 (CO2)
    molecules:         2.000000e+02 molecules
    number density:    1.244736e-02 molec/A^3
    density:           9.094256e+02 kg/m^3

Total potential energy/kʙ       -2.648210e+05 [K]
-------------------------------------------------------------------------------
    external field VDW/kʙ        0.000000e+00 [K]
    external field Real/kʙ       0.000000e+00 [K]
    framework-molecule VDW/kʙ    0.000000e+00 [K]
    framework-molecule Real/kʙ   0.000000e+00 [K]
    molecule-molecule VDW/kʙ    -1.882352e+05 [K]
    molecule-molecule Real/kʙ   -6.119791e+04 [K]
    Van der Waals (Tail)/kʙ     -6.001843e+03 [K]
    Ewald Fourier/kʙ             8.767047e+03 [K]
    Ewald self/kʙ               -4.023739e+06 [K]
    Ewald exclusion/kʙ           4.005586e+06 [K]
    intra VDW/kʙ                 0.000000e+00 [K]
    intra Coulombic/kʙ           0.000000e+00 [K]
    polarization/kʙ              0.000000e+00 [K]
    dU/dlambda VDW/kʙ            0.000000e+00 [K]
    dU/dlambda Real/kʙ           0.000000e+00 [K]
    dU/dlambda Ewald/kʙ          0.000000e+00 [K]


Initialization: Current cycle: 300 out of 1000
===============================================================================

Box:      24.14901   0.00000   0.00000
           0.00000  24.14901   0.00000
           0.00000   0.00000  24.14901
Lengths:  24.14901  24.14901  24.14901
Angles:   90.00000  90.00000  90.00000
Rectangular boundary conditions

net charge:   0.00000000

component   0 (CO2) lambda:  0 occupancy:  1 (1.000000)
    net charge:   0.00000000 [e]

Amount of molecules per component :
-------------------------------------------------------------------------------
Component 0 (CO2)
    molecules:         2.000000e+02 molecules
    number density:    1.420142e-02 molec/A^3
    density:           1.037580e+03 kg/m^3

Total potential energy/kʙ       -2.921093e+05 [K]
-------------------------------------------------------------------------------
    external field VDW/kʙ        0.000000e+00 [K]
    external field Real/kʙ       0.000000e+00 [K]
    framework-molecule VDW/kʙ    0.000000e+00 [K]
    framework-molecule Real/kʙ   0.000000e+00 [K]
    molecule-molecule VDW/kʙ    -2.121200e+05 [K]
    molecule-molecule Real/kʙ   -6.405866e+04 [K]
    Van der Waals (Tail)/kʙ     -6.847611e+03 [K]
    Ewald Fourier/kʙ             9.070058e+03 [K]
    Ewald self/kʙ               -4.023739e+06 [K]
    Ewald exclusion/kʙ           4.005586e+06 [K]
    intra VDW/kʙ                 0.000000e+00 [K]
    intra Coulombic/kʙ           0.000000e+00 [K]
    polarization/kʙ              0.000000e+00 [K]
    dU/dlambda VDW/kʙ            0.000000e+00 [K]
    dU/dlambda Real/kʙ           0.000000e+00 [K]
    dU/dlambda Ewald/kʙ          0.000000e+00 [K]


Initialization: Current cycle: 400 out of 1000
===============================================================================

Box:      24.11550   0.00000   0.00000
           0.00000  24.11550   0.00000
           0.00000   0.00000  24.11550
Lengths:  24.11550  24.11550  24.11550
Angles:   90.00000  90.00000  90.00000
Rectangular boundary conditions

net charge:   0.00000000

component   0 (CO2) lambda:  0 occupancy:  1 (1.000000)
    net charge:   0.00000000 [e]

Amount of molecules per component :
-------------------------------------------------------------------------------
Component 0 (CO2)
    molecules:         2.000000e+02 molecules
    number density:    1.426072e-02 molec/A^3
    density:           1.041913e+03 kg/m^3

Total potential energy/kʙ       -2.874490e+05 [K]
-------------------------------------------------------------------------------
    external field VDW/kʙ        0.000000e+00 [K]
    external field Real/kʙ       0.000000e+00 [K]
    framework-molecule VDW/kʙ    0.000000e+00 [K]
    framework-molecule Real/kʙ   0.000000e+00 [K]
    molecule-molecule VDW/kʙ    -2.142882e+05 [K]
    molecule-molecule Real/kʙ   -5.685961e+04 [K]
    Van der Waals (Tail)/kʙ     -6.876204e+03 [K]
    Ewald Fourier/kʙ             8.728119e+03 [K]
    Ewald self/kʙ               -4.023739e+06 [K]
    Ewald exclusion/kʙ           4.005586e+06 [K]
    intra VDW/kʙ                 0.000000e+00 [K]
    intra Coulombic/kʙ           0.000000e+00 [K]
    polarization/kʙ              0.000000e+00 [K]
    dU/dlambda VDW/kʙ            0.000000e+00 [K]
    dU/dlambda Real/kʙ           0.000000e+00 [K]
    dU/dlambda Ewald/kʙ          0.000000e+00 [K]


Initialization: Current cycle: 500 out of 1000
===============================================================================

Box:      24.08972   0.00000   0.00000
           0.00000  24.08972   0.00000
           0.00000   0.00000  24.08972
Lengths:  24.08972  24.08972  24.08972
Angles:   90.00000  90.00000  90.00000
Rectangular boundary conditions

net charge:   0.00000000

component   0 (CO2) lambda:  0 occupancy:  1 (1.000000)
    net charge:   0.00000000 [e]

Amount of molecules per component :
-------------------------------------------------------------------------------
Component 0 (CO2)
    molecules:         2.000000e+02 molecules
    number density:    1.430654e-02 molec/A^3
    density:           1.045261e+03 kg/m^3

Total potential energy/kʙ       -3.096414e+05 [K]
-------------------------------------------------------------------------------
    external field VDW/kʙ        0.000000e+00 [K]
    external field Real/kʙ       0.000000e+00 [K]
    framework-molecule VDW/kʙ    0.000000e+00 [K]
    framework-molecule Real/kʙ   0.000000e+00 [K]
    molecule-molecule VDW/kʙ    -2.205204e+05 [K]
    molecule-molecule Real/kʙ   -7.241147e+04 [K]
    Van der Waals (Tail)/kʙ     -6.898299e+03 [K]
    Ewald Fourier/kʙ             8.341798e+03 [K]
    Ewald self/kʙ               -4.023739e+06 [K]
    Ewald exclusion/kʙ           4.005586e+06 [K]
    intra VDW/kʙ                 0.000000e+00 [K]
    intra Coulombic/kʙ           0.000000e+00 [K]
    polarization/kʙ              0.000000e+00 [K]
    dU/dlambda VDW/kʙ            0.000000e+00 [K]
    dU/dlambda Real/kʙ           0.000000e+00 [K]
    dU/dlambda Ewald/kʙ          0.000000e+00 [K]


Initialization: Current cycle: 600 out of 1000
===============================================================================

Box:      23.91480   0.00000   0.00000
           0.00000  23.91480   0.00000
           0.00000   0.00000  23.91480
Lengths:  23.91480  23.91480  23.91480
Angles:   90.00000  90.00000  90.00000
Rectangular boundary conditions

net charge:   0.00000000

component   0 (CO2) lambda:  0 occupancy:  1 (1.000000)
    net charge:   0.00000000 [e]

Amount of molecules per component :
-------------------------------------------------------------------------------
Component 0 (CO2)
    molecules:         2.000000e+02 molecules
    number density:    1.462277e-02 molec/A^3
    density:           1.068364e+03 kg/m^3

Total potential energy/kʙ       -3.076629e+05 [K]
-------------------------------------------------------------------------------
    external field VDW/kʙ        0.000000e+00 [K]
    external field Real/kʙ       0.000000e+00 [K]
    framework-molecule VDW/kʙ    0.000000e+00 [K]
    framework-molecule Real/kʙ   0.000000e+00 [K]
    molecule-molecule VDW/kʙ    -2.177431e+05 [K]
    molecule-molecule Real/kʙ   -7.272059e+04 [K]
    Van der Waals (Tail)/kʙ     -7.050774e+03 [K]
    Ewald Fourier/kʙ             8.004649e+03 [K]
    Ewald self/kʙ               -4.023739e+06 [K]
    Ewald exclusion/kʙ           4.005586e+06 [K]
    intra VDW/kʙ                 0.000000e+00 [K]
    intra Coulombic/kʙ           0.000000e+00 [K]
    polarization/kʙ              0.000000e+00 [K]
    dU/dlambda VDW/kʙ            0.000000e+00 [K]
    dU/dlambda Real/kʙ           0.000000e+00 [K]
    dU/dlambda Ewald/kʙ          0.000000e+00 [K]


Initialization: Current cycle: 700 out of 1000
===============================================================================

Box:      23.61834   0.00000   0.00000
           0.00000  23.61834   0.00000
           0.00000   0.00000  23.61834
Lengths:  23.61834  23.61834  23.61834
Angles:   90.00000  90.00000  90.00000
Rectangular boundary conditions

net charge:   0.00000000

component   0 (CO2) lambda:  0 occupancy:  1 (1.000000)
    net charge:   0.00000000 [e]

Amount of molecules per component :
-------------------------------------------------------------------------------
Component 0 (CO2)
    molecules:         2.000000e+02 molecules
    number density:    1.518036e-02 molec/A^3
    density:           1.109103e+03 kg/m^3

Total potential energy/kʙ       -3.209041e+05 [K]
-------------------------------------------------------------------------------
    external field VDW/kʙ        0.000000e+00 [K]
    external field Real/kʙ       0.000000e+00 [K]
    framework-molecule VDW/kʙ    0.000000e+00 [K]
    framework-molecule Real/kʙ   0.000000e+00 [K]
    molecule-molecule VDW/kʙ    -2.346965e+05 [K]
    molecule-molecule Real/kʙ   -6.908813e+04 [K]
    Van der Waals (Tail)/kʙ     -7.319634e+03 [K]
    Ewald Fourier/kʙ             8.353188e+03 [K]
    Ewald self/kʙ               -4.023739e+06 [K]
    Ewald exclusion/kʙ           4.005586e+06 [K]
    intra VDW/kʙ                 0.000000e+00 [K]
    intra Coulombic/kʙ           0.000000e+00 [K]
    polarization/kʙ              0.000000e+00 [K]
    dU/dlambda VDW/kʙ            0.000000e+00 [K]
    dU/dlambda Real/kʙ           0.000000e+00 [K]
    dU/dlambda Ewald/kʙ          0.000000e+00 [K]


Initialization: Current cycle: 800 out of 1000
===============================================================================

Box:      23.51286   0.00000   0.00000
           0.00000  23.51286   0.00000
           0.00000   0.00000  23.51286
Lengths:  23.51286  23.51286  23.51286
Angles:   90.00000  90.00000  90.00000
Rectangular boundary conditions

net charge:   0.00000000

component   0 (CO2) lambda:  0 occupancy:  1 (1.000000)
    net charge:   0.00000000 [e]

Amount of molecules per component :
-------------------------------------------------------------------------------
Component 0 (CO2)
    molecules:         2.000000e+02 molecules
    number density:    1.538557e-02 molec/A^3
    density:           1.124096e+03 kg/m^3

Total potential energy/kʙ       -3.245788e+05 [K]
-------------------------------------------------------------------------------
    external field VDW/kʙ        0.000000e+00 [K]
    external field Real/kʙ       0.000000e+00 [K]
    framework-molecule VDW/kʙ    0.000000e+00 [K]
    framework-molecule Real/kʙ   0.000000e+00 [K]
    molecule-molecule VDW/kʙ    -2.340438e+05 [K]
    molecule-molecule Real/kʙ   -7.247852e+04 [K]
    Van der Waals (Tail)/kʙ     -7.418581e+03 [K]
    Ewald Fourier/kʙ             7.515163e+03 [K]
    Ewald self/kʙ               -4.023739e+06 [K]
    Ewald exclusion/kʙ           4.005586e+06 [K]
    intra VDW/kʙ                 0.000000e+00 [K]
    intra Coulombic/kʙ           0.000000e+00 [K]
    polarization/kʙ              0.000000e+00 [K]
    dU/dlambda VDW/kʙ            0.000000e+00 [K]
    dU/dlambda Real/kʙ           0.000000e+00 [K]
    dU/dlambda Ewald/kʙ          0.000000e+00 [K]


Initialization: Current cycle: 900 out of 1000
===============================================================================

Box:      23.71573   0.00000   0.00000
           0.00000  23.71573   0.00000
           0.00000   0.00000  23.71573
Lengths:  23.71573  23.71573  23.71573
Angles:   90.00000  90.00000  90.00000
Rectangular boundary conditions

net charge:   0.00000000

component   0 (CO2) lambda:  0 occupancy:  1 (1.000000)
    net charge:   0.00000000 [e]

Amount of molecules per component :
-------------------------------------------------------------------------------
Component 0 (CO2)
    molecules:         2.000000e+02 molecules
    number density:    1.499411e-02 molec/A^3
    density:           1.095495e+03 kg/m^3

Total potential energy/kʙ       -3.201095e+05 [K]
-------------------------------------------------------------------------------
    external field VDW/kʙ        0.000000e+00 [K]
    external field Real/kʙ       0.000000e+00 [K]
    framework-molecule VDW/kʙ    0.000000e+00 [K]
    framework-molecule Real/kʙ   0.000000e+00 [K]
    molecule-molecule VDW/kʙ    -2.268010e+05 [K]
    molecule-molecule Real/kʙ   -7.594714e+04 [K]
    Van der Waals (Tail)/kʙ     -7.229827e+03 [K]
    Ewald Fourier/kʙ             8.021525e+03 [K]
    Ewald self/kʙ               -4.023739e+06 [K]
    Ewald exclusion/kʙ           4.005586e+06 [K]
    intra VDW/kʙ                 0.000000e+00 [K]
    intra Coulombic/kʙ           0.000000e+00 [K]
    polarization/kʙ              0.000000e+00 [K]
    dU/dlambda VDW/kʙ            0.000000e+00 [K]
    dU/dlambda Real/kʙ           0.000000e+00 [K]
    dU/dlambda Ewald/kʙ          0.000000e+00 [K]


Current cycle: 0 out of 5000
===============================================================================

Box:      23.55905   0.00000   0.00000  Average:  23.55905   0.00000   0.00000
           0.00000  23.55905   0.00000             0.00000  23.55905   0.00000
           0.00000   0.00000  23.55905             0.00000   0.00000  23.55905
Lengths:  23.55905  23.55905  23.55905  Average:  23.55905  23.55905  23.55905
Angles:   90.00000  90.00000  90.00000  Average:  90.00000  90.00000  90.00000
Rectangular boundary conditions

net charge:   0.00000000

component 0 (CO2) lambda:  0 occupancy:  1 (1.000000)
    net charge:   0.00000000 [e]

Amount of molecules per component :
-------------------------------------------------------------------------------
Component 0 (CO2)
    molecules:      2.000000e+02 molecules  (2.000000e+02 +/- 0.000000e+00)
    number density: 1.529524e-02 molec./A^3 (1.529524e-02 +/- 0.000000e+00)
    density:        1.117497e+03 kg/m^3     (1.117497e+03 +/- 0.000000e+00)

Average pressure tensor: 
-------------------------------------------------------------------------------
 5.2793e+02  0.0000e+00  0.0000e+00 +/- 0.0000e+00 0.0000e+00 0.0000e+00 [bar]
 0.0000e+00  5.2793e+02  0.0000e+00 +/- 0.0000e+00 0.0000e+00 0.0000e+00 [bar]
 0.0000e+00  0.0000e+00  5.2793e+02 +/- 0.0000e+00 0.0000e+00 0.0000e+00 [bar]
Ideal-gas pressure:   5.279346e+02 +/ 0.000000e+00 [bar]
Excess pressure:      0.000000e+00 +/ 0.000000e+00 [bar]
Pressure:             5.279346e+02 +/ 0.000000e+00 [bar]

Total potential energy/kʙ  -3.374312e+05 (-3.374312e+05 +/- 0.000000e+00) [K]
-------------------------------------------------------------------------------
ExternalField-molecule
    Van der Waals/kʙ        0.000000e+00 ( 0.000000e+00 +/- 0.000000e+00) [K]
Framework-molecule
    Van der Waals/kʙ        0.000000e+00 ( 0.000000e+00 +/- 0.000000e+00) [K]
    Van der Waals (Tail)/kʙ 0.000000e+00 ( 0.000000e+00 +/- 0.000000e+00) [K]
    Coulombic Real/kʙ       0.000000e+00 ( 0.000000e+00 +/- 0.000000e+00) [K]
    Coulombic Fourier/kʙ    0.000000e+00 ( 0.000000e+00 +/- 0.000000e+00) [K]
Molecule-molecule
    Van der Waals/kʙ       -2.408801e+05 (-2.408801e+05 +/- 0.000000e+00) [K]
    Van der Waals (Tail)/kʙ-7.375029e+03 (-7.375029e+03 +/- 0.000000e+00) [K]
    Coulombic Real/kʙ      -7.759846e+04 (-7.759846e+04 +/- 0.000000e+00) [K]
    Coulombic Fourier/kʙ   -1.157758e+04 (-1.157758e+04 +/- 0.000000e+00) [K]
    Molecule Intra/kʙ       0.000000e+00 ( 0.000000e+00 +/- 0.000000e+00) [K]

Current cycle: 100 out of 5000
===============================================================================

Box:      23.55785   0.00000   0.00000  Average:  23.42442   0.00000   0.00000
           0.00000  23.55785   0.00000             0.00000  23.42442   0.00000
           0.00000   0.00000  23.55785             0.00000   0.00000  23.42442
Lengths:  23.55785  23.55785  23.55785  Average:  23.42442  23.42442  23.42442
Angles:   90.00000  90.00000  90.00000  Average:  90.00000  90.00000  90.00000
Rectangular boundary conditions

net charge:   0.00000000

component 0 (CO2) lambda:  0 occupancy:  1 (1.000000)
    net charge:   0.00000000 [e]

Amount of molecules per component :
-------------------------------------------------------------------------------
Component 0 (CO2)
    molecules:      2.000000e+02 molecules  (2.000000e+02 +/- 0.000000e+00)
    number density: 1.529759e-02 molec./A^3 (1.556224e-02 +/- 0.000000e+00)
    density:        1.117668e+03 kg/m^3     (1.137004e+03 +/- 0.000000e+00)

Average pressure tensor: 
-------------------------------------------------------------------------------
 6.8274e+01  2.9664e+02 -1.6938e+02 +/- 0.0000e+00 0.0000e+00 0.0000e+00 [bar]
 2.9664e+02  8.4806e+01  2.3661e+01 +/- 0.0000e+00 0.0000e+00 0.0000e+00 [bar]
-1.6938e+02  2.3661e+01  3.4255e+02 +/- 0.0000e+00 0.0000e+00 0.0000e+00 [bar]
Ideal-gas pressure:   5.371503e+02 +/ 0.000000e+00 [bar]
Excess pressure:     -3.719401e+02 +/ 0.000000e+00 [bar]
Pressure:             1.652103e+02 +/ 0.000000e+00 [bar]

Total potential energy/kʙ  -3.267070e+05 (-3.318162e+05 +/- 0.000000e+00) [K]
-------------------------------------------------------------------------------
ExternalField-molecule
    Van der Waals/kʙ        0.000000e+00 ( 0.000000e+00 +/- 0.000000e+00) [K]
Framework-molecule
    Van der Waals/kʙ        0.000000e+00 ( 0.000000e+00 +/- 0.000000e+00) [K]
    Van der Waals (Tail)/kʙ 0.000000e+00 ( 0.000000e+00 +/- 0.000000e+00) [K]
    Coulombic Real/kʙ       0.000000e+00 ( 0.000000e+00 +/- 0.000000e+00) [K]
    Coulombic Fourier/kʙ    0.000000e+00 ( 0.000000e+00 +/- 0.000000e+00) [K]
Molecule-molecule
    Van der Waals/kʙ       -2.351466e+05 (-2.381086e+05 +/- 0.000000e+00) [K]
    Van der Waals (Tail)/kʙ-7.376157e+03 (-7.488469e+03 +/- 0.000000e+00) [K]
    Coulombic Real/kʙ      -7.324834e+04 (-7.524363e+04 +/- 0.000000e+00) [K]
    Coulombic Fourier/kʙ   -1.093595e+04 (-1.097557e+04 +/- 0.000000e+00) [K]
    Molecule Intra/kʙ       0.000000e+00 ( 0.000000e+00 +/- 0.000000e+00) [K]

Current cycle: 200 out of 5000
===============================================================================

Box:      23.57283   0.00000   0.00000  Average:  23.43658   0.00000   0.00000
           0.00000  23.57283   0.00000             0.00000  23.43658   0.00000
           0.00000   0.00000  23.57283             0.00000   0.00000  23.43658
Lengths:  23.57283  23.57283  23.57283  Average:  23.43658  23.43658  23.43658
Angles:   90.00000  90.00000  90.00000  Average:  90.00000  90.00000  90.00000
Rectangular boundary conditions

net charge:   0.00000000

component 0 (CO2) lambda:  0 occupancy:  1 (1.000000)
    net charge:   0.00000000 [e]

Amount of molecules per component :
-------------------------------------------------------------------------------
Component 0 (CO2)
    molecules:      2.000000e+02 molecules  (2.000000e+02 +/- 0.000000e+00)
    number density: 1.526844e-02 molec./A^3 (1.553830e-02 +/- 0.000000e+00)
    density:        1.115538e+03 kg/m^3     (1.135255e+03 +/- 0.000000e+00)

Average pressure tensor: 
-------------------------------------------------------------------------------
 1.2993e+01  1.3878e+02 -5.8378e+01 +/- 0.0000e+00 0.0000e+00 0.0000e+00 [bar]
 1.3878e+02  1.8955e+02  4.3779e+01 +/- 0.0000e+00 0.0000e+00 0.0000e+00 [bar]
-5.8378e+01  4.3779e+01  1.3037e+02 +/- 0.0000e+00 0.0000e+00 0.0000e+00 [bar]
Ideal-gas pressure:   5.363239e+02 +/ 0.000000e+00 [bar]
Excess pressure:     -4.253528e+02 +/ 0.000000e+00 [bar]
Pressure:             1.109711e+02 +/ 0.000000e+00 [bar]

Total potential energy/kʙ  -3.329375e+05 (-3.315320e+05 +/- 0.000000e+00) [K]
-------------------------------------------------------------------------------
ExternalField-molecule
    Van der Waals/kʙ        0.000000e+00 ( 0.000000e+00 +/- 0.000000e+00) [K]
Framework-molecule
    Van der Waals/kʙ        0.000000e+00 ( 0.000000e+00 +/- 0.000000e+00) [K]
    Van der Waals (Tail)/kʙ 0.000000e+00 ( 0.000000e+00 +/- 0.000000e+00) [K]
    Coulombic Real/kʙ       0.000000e+00 ( 0.000000e+00 +/- 0.000000e+00) [K]
    Coulombic Fourier/kʙ    0.000000e+00 ( 0.000000e+00 +/- 0.000000e+00) [K]
Molecule-molecule
    Van der Waals/kʙ       -2.419074e+05 (-2.385115e+05 +/- 0.000000e+00) [K]
    Van der Waals (Tail)/kʙ-7.362104e+03 (-7.470764e+03 +/- 0.000000e+00) [K]
    Coulombic Real/kʙ      -7.285286e+04 (-7.468070e+04 +/- 0.000000e+00) [K]
    Coulombic Fourier/kʙ   -1.081519e+04 (-1.086899e+04 +/- 0.000000e+00) [K]
    Molecule Intra/kʙ       0.000000e+00 ( 0.000000e+00 +/- 0.000000e+00) [K]

Current cycle: 300 out of 5000
===============================================================================

Box:      23.60041   0.00000   0.00000  Average:  23.48695   0.00000   0.00000
           0.00000  23.60041   0.00000             0.00000  23.48695   0.00000
           0.00000   0.00000  23.60041             0.00000   0.00000  23.48695
Lengths:  23.60041  23.60041  23.60041  Average:  23.48695  23.48695  23.48695
Angles:   90.00000  90.00000  90.00000  Average:  90.00000  90.00000  90.00000
Rectangular boundary conditions

net charge:   0.00000000

component 0 (CO2) lambda:  0 occupancy:  1 (1.000000)
    net charge:   0.00000000 [e]

Amount of molecules per component :
-------------------------------------------------------------------------------
Component 0 (CO2)
    molecules:      2.000000e+02 molecules  (2.000000e+02 +/- 0.000000e+00)
    number density: 1.521498e-02 molec./A^3 (1.543922e-02 +/- 0.000000e+00)
    density:        1.111633e+03 kg/m^3     (1.128016e+03 +/- 0.000000e+00)

Average pressure tensor: 
-------------------------------------------------------------------------------
-5.7706e+01  8.2245e+01  4.7765e+01 +/- 0.0000e+00 0.0000e+00 0.0000e+00 [bar]
 8.2245e+01  1.9642e+02  6.0225e+01 +/- 0.0000e+00 0.0000e+00 0.0000e+00 [bar]
 4.7765e+01  6.0225e+01  4.4477e+01 +/- 0.0000e+00 0.0000e+00 0.0000e+00 [bar]
Ideal-gas pressure:   5.329042e+02 +/ 0.000000e+00 [bar]
Excess pressure:     -4.718413e+02 +/ 0.000000e+00 [bar]
Pressure:             6.106289e+01 +/ 0.000000e+00 [bar]

Total potential energy/kʙ  -3.204429e+05 (-3.297981e+05 +/- 0.000000e+00) [K]
-------------------------------------------------------------------------------
ExternalField-molecule
    Van der Waals/kʙ        0.000000e+00 ( 0.000000e+00 +/- 0.000000e+00) [K]
Framework-molecule
    Van der Waals/kʙ        0.000000e+00 ( 0.000000e+00 +/- 0.000000e+00) [K]
    Van der Waals (Tail)/kʙ 0.000000e+00 ( 0.000000e+00 +/- 0.000000e+00) [K]
    Coulombic Real/kʙ       0.000000e+00 ( 0.000000e+00 +/- 0.000000e+00) [K]
    Coulombic Fourier/kʙ    0.000000e+00 ( 0.000000e+00 +/- 0.000000e+00) [K]
Molecule-molecule
    Van der Waals/kʙ       -2.259461e+05 (-2.368358e+05 +/- 0.000000e+00) [K]
    Van der Waals (Tail)/kʙ-7.336328e+03 (-7.431167e+03 +/- 0.000000e+00) [K]
    Coulombic Real/kʙ      -7.593371e+04 (-7.453869e+04 +/- 0.000000e+00) [K]
    Coulombic Fourier/kʙ   -1.122682e+04 (-1.099243e+04 +/- 0.000000e+00) [K]
    Molecule Intra/kʙ       0.000000e+00 ( 0.000000e+00 +/- 0.000000e+00) [K]

Current cycle: 400 out of 5000
===============================================================================

Box:      23.46886   0.00000   0.00000  Average:  23.50283   0.00000   0.00000
           0.00000  23.46886   0.00000             0.00000  23.50283   0.00000
           0.00000   0.00000  23.46886             0.00000   0.00000  23.50283
Lengths:  23.46886  23.46886  23.46886  Average:  23.50283  23.50283  23.50283
Angles:   90.00000  90.00000  90.00000  Average:  90.00000  90.00000  90.00000
Rectangular boundary conditions

net charge:   0.00000000

component 0 (CO2) lambda:  0 occupancy:  1 (1.000000)
    net charge:   0.00000000 [e]

Amount of molecules per component :
-------------------------------------------------------------------------------
Component 0 (CO2)
    molecules:      2.000000e+02 molecules  (2.000000e+02 +/- 0.000000e+00)
    number density: 1.547226e-02 molec./A^3 (1.540770e-02 +/- 0.000000e+00)
    density:        1.130430e+03 kg/m^3     (1.125713e+03 +/- 0.000000e+00)

Average pressure tensor: 
-------------------------------------------------------------------------------
 2.1068e+00  3.4939e+01  3.0379e+01 +/- 0.0000e+00 0.0000e+00 0.0000e+00 [bar]
 3.4939e+01  1.9786e+02  4.4506e+01 +/- 0.0000e+00 0.0000e+00 0.0000e+00 [bar]
 3.0379e+01  4.4506e+01  8.5654e+01 +/- 0.0000e+00 0.0000e+00 0.0000e+00 [bar]
Ideal-gas pressure:   5.318162e+02 +/ 0.000000e+00 [bar]
Excess pressure:     -4.366082e+02 +/ 0.000000e+00 [bar]
Pressure:             9.520803e+01 +/ 0.000000e+00 [bar]

Total potential energy/kʙ  -3.332384e+05 (-3.288330e+05 +/- 0.000000e+00) [K]
-------------------------------------------------------------------------------
ExternalField-molecule
    Van der Waals/kʙ        0.000000e+00 ( 0.000000e+00 +/- 0.000000e+00) [K]
Framework-molecule
    Van der Waals/kʙ        0.000000e+00 ( 0.000000e+00 +/- 0.000000e+00) [K]
    Van der Waals (Tail)/kʙ 0.000000e+00 ( 0.000000e+00 +/- 0.000000e+00) [K]
    Coulombic Real/kʙ       0.000000e+00 ( 0.000000e+00 +/- 0.000000e+00) [K]
    Coulombic Fourier/kʙ    0.000000e+00 ( 0.000000e+00 +/- 0.000000e+00) [K]
Molecule-molecule
    Van der Waals/kʙ       -2.364315e+05 (-2.360073e+05 +/- 0.000000e+00) [K]
    Van der Waals (Tail)/kʙ-7.460383e+03 (-7.421693e+03 +/- 0.000000e+00) [K]
    Coulombic Real/kʙ      -7.837229e+04 (-7.437957e+04 +/- 0.000000e+00) [K]
    Coulombic Fourier/kʙ   -1.097430e+04 (-1.102451e+04 +/- 0.000000e+00) [K]
    Molecule Intra/kʙ       0.000000e+00 ( 0.000000e+00 +/- 0.000000e+00) [K]

Current cycle: 500 out of 5000
===============================================================================

Box:      23.31734   0.00000   0.00000  Average:  23.49205   0.00000   0.00000
           0.00000  23.31734   0.00000             0.00000  23.49205   0.00000
           0.00000   0.00000  23.31734             0.00000   0.00000  23.49205
Lengths:  23.31734  23.31734  23.31734  Average:  23.49205  23.49205  23.49205
Angles:   90.00000  90.00000  90.00000  Average:  90.00000  90.00000  90.00000
Rectangular boundary conditions

net charge:   0.00000000

component 0 (CO2) lambda:  0 occupancy:  1 (1.000000)
    net charge:   0.00000000 [e]

Amount of molecules per component :
-------------------------------------------------------------------------------
Component 0 (CO2)
    molecules:      2.000000e+02 molecules  (2.000000e+02 +/- 0.000000e+00)
    number density: 1.577585e-02 molec./A^3 (1.542881e-02 +/- 0.000000e+00)
    density:        1.152611e+03 kg/m^3     (1.127256e+03 +/- 0.000000e+00)

Average pressure tensor: 
-------------------------------------------------------------------------------
 4.5474e+01  3.1771e+01  7.0726e+00 +/- 0.0000e+00 0.0000e+00 0.0000e+00 [bar]
 3.1771e+01  1.5542e+02  6.8550e+01 +/- 0.0000e+00 0.0000e+00 0.0000e+00 [bar]
 7.0726e+00  6.8550e+01  8.0771e+01 +/- 0.0000e+00 0.0000e+00 0.0000e+00 [bar]
Ideal-gas pressure:   5.325449e+02 +/ 0.000000e+00 [bar]
Excess pressure:     -4.386570e+02 +/ 0.000000e+00 [bar]
Pressure:             9.388789e+01 +/ 0.000000e+00 [bar]

Total potential energy/kʙ  -3.369393e+05 (-3.295891e+05 +/- 0.000000e+00) [K]
-------------------------------------------------------------------------------
ExternalField-molecule
    Van der Waals/kʙ        0.000000e+00 ( 0.000000e+00 +/- 0.000000e+00) [K]
Framework-molecule
    Van der Waals/kʙ        0.000000e+00 ( 0.000000e+00 +/- 0.000000e+00) [K]
    Van der Waals (Tail)/kʙ 0.000000e+00 ( 0.000000e+00 +/- 0.000000e+00) [K]
    Coulombic Real/kʙ       0.000000e+00 ( 0.000000e+00 +/- 0.000000e+00) [K]
    Coulombic Fourier/kʙ    0.000000e+00 ( 0.000000e+00 +/- 0.000000e+00) [K]
Molecule-molecule
    Van der Waals/kʙ       -2.393369e+05 (-2.361234e+05 +/- 0.000000e+00) [K]
    Van der Waals (Tail)/kʙ-7.606768e+03 (-7.436124e+03 +/- 0.000000e+00) [K]
    Coulombic Real/kʙ      -7.816367e+04 (-7.494935e+04 +/- 0.000000e+00) [K]
    Coulombic Fourier/kʙ   -1.183195e+04 (-1.108031e+04 +/- 0.000000e+00) [K]
    Molecule Intra/kʙ       0.000000e+00 ( 0.000000e+00 +/- 0.000000e+00) [K]

Current cycle: 600 out of 5000
===============================================================================

Box:      23.65655   0.00000   0.00000  Average:  23.49340   0.00000   0.00000
           0.00000  23.65655   0.00000             0.00000  23.49340   0.00000
           0.00000   0.00000  23.65655             0.00000   0.00000  23.49340
Lengths:  23.65655  23.65655  23.65655  Average:  23.49340  23.49340  23.49340
Angles:   90.00000  90.00000  90.00000  Average:  90.00000  90.00000  90.00000
Rectangular boundary conditions

net charge:   0.00000000

component 0 (CO2) lambda:  0 occupancy:  1 (1.000000)
    net charge:   0.00000000 [e]

Amount of molecules per component :
-------------------------------------------------------------------------------
Component 0 (CO2)
    molecules:      2.000000e+02 molecules  (2.000000e+02 +/- 0.000000e+00)
    number density: 1.510692e-02 molec./A^3 (1.542593e-02 +/- 0.000000e+00)
    density:        1.103737e+03 kg/m^3     (1.127045e+03 +/- 0.000000e+00)

Average pressure tensor: 
-------------------------------------------------------------------------------
 1.2910e+02  1.7684e+01  4.6822e+00 +/- 0.0000e+00 0.0000e+00 0.0000e+00 [bar]
 1.7684e+01  1.3604e+02  3.1360e+01 +/- 0.0000e+00 0.0000e+00 0.0000e+00 [bar]
 4.6822e+00  3.1360e+01  1.0330e+02 +/- 0.0000e+00 0.0000e+00 0.0000e+00 [bar]
Ideal-gas pressure:   5.324453e+02 +/ 0.000000e+00 [bar]
Excess pressure:     -4.096333e+02 +/ 0.000000e+00 [bar]
Pressure:             1.228120e+02 +/ 0.000000e+00 [bar]

Total potential energy/kʙ  -3.127183e+05 (-3.286688e+05 +/- 0.000000e+00) [K]
-------------------------------------------------------------------------------
ExternalField-molecule
    Van der Waals/kʙ        0.000000e+00 ( 0.000000e+00 +/- 0.000000e+00) [K]
Framework-molecule
    Van der Waals/kʙ        0.000000e+00 ( 0.000000e+00 +/- 0.000000e+00) [K]
    Van der Waals (Tail)/kʙ 0.000000e+00 ( 0.000000e+00 +/- 0.000000e+00) [K]
    Coulombic Real/kʙ       0.000000e+00 ( 0.000000e+00 +/- 0.000000e+00) [K]
    Coulombic Fourier/kʙ    0.000000e+00 ( 0.000000e+00 +/- 0.000000e+00) [K]
Molecule-molecule
    Van der Waals/kʙ       -2.263929e+05 (-2.357090e+05 +/- 0.000000e+00) [K]
    Van der Waals (Tail)/kʙ-7.284222e+03 (-7.434218e+03 +/- 0.000000e+00) [K]
    Coulombic Real/kʙ      -6.854910e+04 (-7.449816e+04 +/- 0.000000e+00) [K]
    Coulombic Fourier/kʙ   -1.049210e+04 (-1.102737e+04 +/- 0.000000e+00) [K]
    Molecule Intra/kʙ       0.000000e+00 ( 0.000000e+00 +/- 0.000000e+00) [K]

Current cycle: 700 out of 5000
===============================================================================

Box:      23.81243   0.00000   0.00000  Average:  23.54298   0.00000   0.00000
           0.00000  23.81243   0.00000             0.00000  23.54298   0.00000
           0.00000   0.00000  23.81243             0.00000   0.00000  23.54298
Lengths:  23.81243  23.81243  23.81243  Average:  23.54298  23.54298  23.54298
Angles:   90.00000  90.00000  90.00000  Average:  90.00000  90.00000  90.00000
Rectangular boundary conditions

net charge:   0.00000000

component 0 (CO2) lambda:  0 occupancy:  1 (1.000000)
    net charge:   0.00000000 [e]

Amount of molecules per component :
-------------------------------------------------------------------------------
Component 0 (CO2)
    molecules:      2.000000e+02 molecules  (2.000000e+02 +/- 0.000000e+00)
    number density: 1.481218e-02 molec./A^3 (1.533115e-02 +/- 0.000000e+00)
    density:        1.082203e+03 kg/m^3     (1.120120e+03 +/- 0.000000e+00)

Average pressure tensor: 
-------------------------------------------------------------------------------
 1.1293e+02  1.8240e+01  1.1402e-02 +/- 0.0000e+00 0.0000e+00 0.0000e+00 [bar]
 1.8240e+01  1.2817e+02  2.8278e+01 +/- 0.0000e+00 0.0000e+00 0.0000e+00 [bar]
 1.1402e-02  2.8278e+01  1.1699e+02 +/- 0.0000e+00 0.0000e+00 0.0000e+00 [bar]
Ideal-gas pressure:   5.291739e+02 +/ 0.000000e+00 [bar]
Excess pressure:     -4.098106e+02 +/ 0.000000e+00 [bar]
Pressure:             1.193633e+02 +/ 0.000000e+00 [bar]

Total potential energy/kʙ  -3.081188e+05 (-3.257431e+05 +/- 0.000000e+00) [K]
-------------------------------------------------------------------------------
ExternalField-molecule
    Van der Waals/kʙ        0.000000e+00 ( 0.000000e+00 +/- 0.000000e+00) [K]
Framework-molecule
    Van der Waals/kʙ        0.000000e+00 ( 0.000000e+00 +/- 0.000000e+00) [K]
    Van der Waals (Tail)/kʙ 0.000000e+00 ( 0.000000e+00 +/- 0.000000e+00) [K]
    Coulombic Real/kʙ       0.000000e+00 ( 0.000000e+00 +/- 0.000000e+00) [K]
    Coulombic Fourier/kʙ    0.000000e+00 ( 0.000000e+00 +/- 0.000000e+00) [K]
Molecule-molecule
    Van der Waals/kʙ       -2.241491e+05 (-2.341472e+05 +/- 0.000000e+00) [K]
    Van der Waals (Tail)/kʙ-7.142107e+03 (-7.389056e+03 +/- 0.000000e+00) [K]
    Coulombic Real/kʙ      -6.623617e+04 (-7.330941e+04 +/- 0.000000e+00) [K]
    Coulombic Fourier/kʙ   -1.059140e+04 (-1.089743e+04 +/- 0.000000e+00) [K]
    Molecule Intra/kʙ       0.000000e+00 ( 0.000000e+00 +/- 0.000000e+00) [K]

Current cycle: 800 out of 5000
===============================================================================

Box:      23.79243   0.00000   0.00000  Average:  23.56380   0.00000   0.00000
           0.00000  23.79243   0.00000             0.00000  23.56380   0.00000
           0.00000   0.00000  23.79243             0.00000   0.00000  23.56380
Lengths:  23.79243  23.79243  23.79243  Average:  23.56380  23.56380  23.56380
Angles:   90.00000  90.00000  90.00000  Average:  90.00000  90.00000  90.00000
Rectangular boundary conditions

net charge:   0.00000000

component 0 (CO2) lambda:  0 occupancy:  1 (1.000000)
    net charge:   0.00000000 [e]

Amount of molecules per component :
-------------------------------------------------------------------------------
Component 0 (CO2)
    molecules:      2.000000e+02 molecules  (2.000000e+02 +/- 0.000000e+00)
    number density: 1.484956e-02 molec./A^3 (1.529069e-02 +/- 0.000000e+00)
    density:        1.084934e+03 kg/m^3     (1.117164e+03 +/- 0.000000e+00)

Average pressure tensor: 
-------------------------------------------------------------------------------
 1.7028e+02  2.6786e+01  3.1278e+00 +/- 0.0000e+00 0.0000e+00 0.0000e+00 [bar]
 2.6786e+01  1.4178e+02  5.4556e+01 +/- 0.0000e+00 0.0000e+00 0.0000e+00 [bar]
 3.1278e+00  5.4556e+01  1.1303e+02 +/- 0.0000e+00 0.0000e+00 0.0000e+00 [bar]
Ideal-gas pressure:   5.277774e+02 +/ 0.000000e+00 [bar]
Excess pressure:     -3.860815e+02 +/ 0.000000e+00 [bar]
Pressure:             1.416959e+02 +/ 0.000000e+00 [bar]

Total potential energy/kʙ  -3.092994e+05 (-3.240677e+05 +/- 0.000000e+00) [K]
-------------------------------------------------------------------------------
ExternalField-molecule
    Van der Waals/kʙ        0.000000e+00 ( 0.000000e+00 +/- 0.000000e+00) [K]
Framework-molecule
    Van der Waals/kʙ        0.000000e+00 ( 0.000000e+00 +/- 0.000000e+00) [K]
    Van der Waals (Tail)/kʙ 0.000000e+00 ( 0.000000e+00 +/- 0.000000e+00) [K]
    Coulombic Real/kʙ       0.000000e+00 ( 0.000000e+00 +/- 0.000000e+00) [K]
    Coulombic Fourier/kʙ    0.000000e+00 ( 0.000000e+00 +/- 0.000000e+00) [K]
Molecule-molecule
    Van der Waals/kʙ       -2.229446e+05 (-2.333363e+05 +/- 0.000000e+00) [K]
    Van der Waals (Tail)/kʙ-7.160129e+03 (-7.371532e+03 +/- 0.000000e+00) [K]
    Coulombic Real/kʙ      -6.911497e+04 (-7.252839e+04 +/- 0.000000e+00) [K]
    Coulombic Fourier/kʙ   -1.007969e+04 (-1.083147e+04 +/- 0.000000e+00) [K]
    Molecule Intra/kʙ       0.000000e+00 ( 0.000000e+00 +/- 0.000000e+00) [K]

Current cycle: 900 out of 5000
===============================================================================

Box:      23.94244   0.00000   0.00000  Average:  23.60277   0.00000   0.00000
           0.00000  23.94244   0.00000             0.00000  23.60277   0.00000
           0.00000   0.00000  23.94244             0.00000   0.00000  23.60277
Lengths:  23.94244  23.94244  23.94244  Average:  23.60277  23.60277  23.60277
Angles:   90.00000  90.00000  90.00000  Average:  90.00000  90.00000  90.00000
Rectangular boundary conditions

net charge:   0.00000000

component 0 (CO2) lambda:  0 occupancy:  1 (1.000000)
    net charge:   0.00000000 [e]

Amount of molecules per component :
-------------------------------------------------------------------------------
Component 0 (CO2)
    molecules:      2.000000e+02 molecules  (2.000000e+02 +/- 0.000000e+00)
    number density: 1.457219e-02 molec./A^3 (1.521677e-02 +/- 0.000000e+00)
    density:        1.064669e+03 kg/m^3     (1.111763e+03 +/- 0.000000e+00)

Average pressure tensor: 
-------------------------------------------------------------------------------
 1.7772e+02  2.9961e+01  4.3465e+00 +/- 0.0000e+00 0.0000e+00 0.0000e+00 [bar]
 2.9961e+01  1.2097e+02  3.4555e+01 +/- 0.0000e+00 0.0000e+00 0.0000e+00 [bar]
 4.3465e+00  3.4555e+01  1.3219e+02 +/- 0.0000e+00 0.0000e+00 0.0000e+00 [bar]
Ideal-gas pressure:   5.252258e+02 +/ 0.000000e+00 [bar]
Excess pressure:     -3.815979e+02 +/ 0.000000e+00 [bar]
Pressure:             1.436280e+02 +/ 0.000000e+00 [bar]

Total potential energy/kʙ  -3.082407e+05 (-3.221173e+05 +/- 0.000000e+00) [K]
-------------------------------------------------------------------------------
ExternalField-molecule
    Van der Waals/kʙ        0.000000e+00 ( 0.000000e+00 +/- 0.000000e+00) [K]
Framework-molecule
    Van der Waals/kʙ        0.000000e+00 ( 0.000000e+00 +/- 0.000000e+00) [K]
    Van der Waals (Tail)/kʙ 0.000000e+00 ( 0.000000e+00 +/- 0.000000e+00) [K]
    Coulombic Real/kʙ       0.000000e+00 ( 0.000000e+00 +/- 0.000000e+00) [K]
    Coulombic Fourier/kʙ    0.000000e+00 ( 0.000000e+00 +/- 0.000000e+00) [K]
Molecule-molecule
    Van der Waals/kʙ       -2.195837e+05 (-2.320527e+05 +/- 0.000000e+00) [K]
    Van der Waals (Tail)/kʙ-7.026386e+03 (-7.336328e+03 +/- 0.000000e+00) [K]
    Coulombic Real/kʙ      -7.157815e+04 (-7.198387e+04 +/- 0.000000e+00) [K]
    Coulombic Fourier/kʙ   -1.005239e+04 (-1.074438e+04 +/- 0.000000e+00) [K]
    Molecule Intra/kʙ       0.000000e+00 ( 0.000000e+00 +/- 0.000000e+00) [K]

Current cycle: 1000 out of 5000
===============================================================================

Box:      24.10495   0.00000   0.00000  Average:  23.63281   0.00000   0.00000
           0.00000  24.10495   0.00000             0.00000  23.63281   0.00000
           0.00000   0.00000  24.10495             0.00000   0.00000  23.63281
Lengths:  24.10495  24.10495  24.10495  Average:  23.63281  23.63281  23.63281
Angles:   90.00000  90.00000  90.00000  Average:  90.00000  90.00000  90.00000
Rectangular boundary conditions

net charge:   0.00000000

component 0 (CO2) lambda:  0 occupancy:  1 (1.000000)
    net charge:   0.00000000 [e]

Amount of molecules per component :
-------------------------------------------------------------------------------
Component 0 (CO2)
    molecules:      2.000000e+02 molecules  (2.000000e+02 +/- 0.000000e+00)
    number density: 1.427944e-02 molec./A^3 (1.515968e-02 +/- 0.000000e+00)
    density:        1.043280e+03 kg/m^3     (1.107592e+03 +/- 0.000000e+00)

Average pressure tensor: 
-------------------------------------------------------------------------------
 1.6968e+02  2.6260e+01 -9.1841e-02 +/- 0.0000e+00 0.0000e+00 0.0000e+00 [bar]
 2.6260e+01  1.2371e+02  3.6540e+01 +/- 0.0000e+00 0.0000e+00 0.0000e+00 [bar]
-9.1841e-02  3.6540e+01  1.2564e+02 +/- 0.0000e+00 0.0000e+00 0.0000e+00 [bar]
Ideal-gas pressure:   5.232553e+02 +/ 0.000000e+00 [bar]
Excess pressure:     -3.835802e+02 +/ 0.000000e+00 [bar]
Pressure:             1.396751e+02 +/ 0.000000e+00 [bar]

Total potential energy/kʙ  -3.012638e+05 (-3.210423e+05 +/- 0.000000e+00) [K]
-------------------------------------------------------------------------------
ExternalField-molecule
    Van der Waals/kʙ        0.000000e+00 ( 0.000000e+00 +/- 0.000000e+00) [K]
Framework-molecule
    Van der Waals/kʙ        0.000000e+00 ( 0.000000e+00 +/- 0.000000e+00) [K]
    Van der Waals (Tail)/kʙ 0.000000e+00 ( 0.000000e+00 +/- 0.000000e+00) [K]
    Coulombic Real/kʙ       0.000000e+00 ( 0.000000e+00 +/- 0.000000e+00) [K]
    Coulombic Fourier/kʙ    0.000000e+00 ( 0.000000e+00 +/- 0.000000e+00) [K]
Molecule-molecule
    Van der Waals/kʙ       -2.154757e+05 (-2.309542e+05 +/- 0.000000e+00) [K]
    Van der Waals (Tail)/kʙ-6.885229e+03 (-7.308784e+03 +/- 0.000000e+00) [K]
    Coulombic Real/kʙ      -6.877596e+04 (-7.207647e+04 +/- 0.000000e+00) [K]
    Coulombic Fourier/kʙ   -1.012700e+04 (-1.070288e+04 +/- 0.000000e+00) [K]
    Molecule Intra/kʙ       0.000000e+00 ( 0.000000e+00 +/- 0.000000e+00) [K]

Current cycle: 1100 out of 5000
===============================================================================

Box:      23.95547   0.00000   0.00000  Average:  23.66872   0.00000   0.00000
           0.00000  23.95547   0.00000             0.00000  23.66872   0.00000
           0.00000   0.00000  23.95547             0.00000   0.00000  23.66872
Lengths:  23.95547  23.95547  23.95547  Average:  23.66872  23.66872  23.66872
Angles:   90.00000  90.00000  90.00000  Average:  90.00000  90.00000  90.00000
Rectangular boundary conditions

net charge:   0.00000000

component 0 (CO2) lambda:  0 occupancy:  1 (1.000000)
    net charge:   0.00000000 [e]

Amount of molecules per component :
-------------------------------------------------------------------------------
Component 0 (CO2)
    molecules:      2.000000e+02 molecules  (2.000000e+02 +/- 0.000000e+00)
    number density: 1.454843e-02 molec./A^3 (1.509237e-02 +/- 0.000000e+00)
    density:        1.062933e+03 kg/m^3     (1.102674e+03 +/- 0.000000e+00)

Average pressure tensor: 
-------------------------------------------------------------------------------
 1.6242e+02  2.9306e+01  5.6037e+00 +/- 0.0000e+00 0.0000e+00 0.0000e+00 [bar]
 2.9306e+01  1.4358e+02  3.2428e+01 +/- 0.0000e+00 0.0000e+00 0.0000e+00 [bar]
 5.6037e+00  3.2428e+01  1.1342e+02 +/- 0.0000e+00 0.0000e+00 0.0000e+00 [bar]
Ideal-gas pressure:   5.209321e+02 +/ 0.000000e+00 [bar]
Excess pressure:     -3.811271e+02 +/ 0.000000e+00 [bar]
Pressure:             1.398050e+02 +/ 0.000000e+00 [bar]

Total potential energy/kʙ  -3.034267e+05 (-3.194039e+05 +/- 0.000000e+00) [K]
-------------------------------------------------------------------------------
ExternalField-molecule
    Van der Waals/kʙ        0.000000e+00 ( 0.000000e+00 +/- 0.000000e+00) [K]
Framework-molecule
    Van der Waals/kʙ        0.000000e+00 ( 0.000000e+00 +/- 0.000000e+00) [K]
    Van der Waals (Tail)/kʙ 0.000000e+00 ( 0.000000e+00 +/- 0.000000e+00) [K]
    Coulombic Real/kʙ       0.000000e+00 ( 0.000000e+00 +/- 0.000000e+00) [K]
    Coulombic Fourier/kʙ    0.000000e+00 ( 0.000000e+00 +/- 0.000000e+00) [K]
Molecule-molecule
    Van der Waals/kʙ       -2.175169e+05 (-2.297519e+05 +/- 0.000000e+00) [K]
    Van der Waals (Tail)/kʙ-7.014930e+03 (-7.278596e+03 +/- 0.000000e+00) [K]
    Coulombic Real/kʙ      -6.796753e+04 (-7.168984e+04 +/- 0.000000e+00) [K]
    Coulombic Fourier/kʙ   -1.092732e+04 (-1.068364e+04 +/- 0.000000e+00) [K]
    Molecule Intra/kʙ       0.000000e+00 ( 0.000000e+00 +/- 0.000000e+00) [K]

Current cycle: 1200 out of 5000
===============================================================================

Box:      23.83033   0.00000   0.00000  Average:  23.68939   0.00000   0.00000
           0.00000  23.83033   0.00000             0.00000  23.68939   0.00000
           0.00000   0.00000  23.83033             0.00000   0.00000  23.68939
Lengths:  23.83033  23.83033  23.83033  Average:  23.68939  23.68939  23.68939
Angles:   90.00000  90.00000  90.00000  Average:  90.00000  90.00000  90.00000
Rectangular boundary conditions

net charge:   0.00000000

component 0 (CO2) lambda:  0 occupancy:  1 (1.000000)
    net charge:   0.00000000 [e]

Amount of molecules per component :
-------------------------------------------------------------------------------
Component 0 (CO2)
    molecules:      2.000000e+02 molecules  (2.000000e+02 +/- 0.000000e+00)
    number density: 1.477882e-02 molec./A^3 (1.505304e-02 +/- 0.000000e+00)
    density:        1.079766e+03 kg/m^3     (1.099801e+03 +/- 0.000000e+00)

Average pressure tensor: 
-------------------------------------------------------------------------------
 1.5302e+02  3.5338e+01  2.8246e+01 +/- 0.0000e+00 0.0000e+00 0.0000e+00 [bar]
 3.5338e+01  1.2721e+02  3.7701e+01 +/- 0.0000e+00 0.0000e+00 0.0000e+00 [bar]
 2.8246e+01  3.7701e+01  1.2890e+02 +/- 0.0000e+00 0.0000e+00 0.0000e+00 [bar]
Ideal-gas pressure:   5.195746e+02 +/ 0.000000e+00 [bar]
Excess pressure:     -3.831971e+02 +/ 0.000000e+00 [bar]
Pressure:             1.363775e+02 +/ 0.000000e+00 [bar]

Total potential energy/kʙ  -3.015478e+05 (-3.182157e+05 +/- 0.000000e+00) [K]
-------------------------------------------------------------------------------
ExternalField-molecule
    Van der Waals/kʙ        0.000000e+00 ( 0.000000e+00 +/- 0.000000e+00) [K]
Framework-molecule
    Van der Waals/kʙ        0.000000e+00 ( 0.000000e+00 +/- 0.000000e+00) [K]
    Van der Waals (Tail)/kʙ 0.000000e+00 ( 0.000000e+00 +/- 0.000000e+00) [K]
    Coulombic Real/kʙ       0.000000e+00 ( 0.000000e+00 +/- 0.000000e+00) [K]
    Coulombic Fourier/kʙ    0.000000e+00 ( 0.000000e+00 +/- 0.000000e+00) [K]
Molecule-molecule
    Van der Waals/kʙ       -2.202606e+05 (-2.290600e+05 +/- 0.000000e+00) [K]
    Van der Waals (Tail)/kʙ-7.126020e+03 (-7.259197e+03 +/- 0.000000e+00) [K]
    Coulombic Real/kʙ      -6.404310e+04 (-7.126197e+04 +/- 0.000000e+00) [K]
    Coulombic Fourier/kʙ   -1.011807e+04 (-1.063451e+04 +/- 0.000000e+00) [K]
    Molecule Intra/kʙ       0.000000e+00 ( 0.000000e+00 +/- 0.000000e+00) [K]

Current cycle: 1300 out of 5000
===============================================================================

Box:      23.76978   0.00000   0.00000  Average:  23.69418   0.00000   0.00000
           0.00000  23.76978   0.00000             0.00000  23.69418   0.00000
           0.00000   0.00000  23.76978             0.00000   0.00000  23.69418
Lengths:  23.76978  23.76978  23.76978  Average:  23.69418  23.69418  23.69418
Angles:   90.00000  90.00000  90.00000  Average:  90.00000  90.00000  90.00000
Rectangular boundary conditions

net charge:   0.00000000

component 0 (CO2) lambda:  0 occupancy:  1 (1.000000)
    net charge:   0.00000000 [e]

Amount of molecules per component :
-------------------------------------------------------------------------------
Component 0 (CO2)
    molecules:      2.000000e+02 molecules  (2.000000e+02 +/- 0.000000e+00)
    number density: 1.489204e-02 molec./A^3 (1.504336e-02 +/- 0.000000e+00)
    density:        1.088038e+03 kg/m^3     (1.099094e+03 +/- 0.000000e+00)

Average pressure tensor: 
-------------------------------------------------------------------------------
 1.5856e+02  3.6120e+01  2.7632e+01 +/- 0.0000e+00 0.0000e+00 0.0000e+00 [bar]
 3.6120e+01  1.3005e+02  2.5525e+01 +/- 0.0000e+00 0.0000e+00 0.0000e+00 [bar]
 2.7632e+01  2.5525e+01  1.3491e+02 +/- 0.0000e+00 0.0000e+00 0.0000e+00 [bar]
Ideal-gas pressure:   5.192405e+02 +/ 0.000000e+00 [bar]
Excess pressure:     -3.780631e+02 +/ 0.000000e+00 [bar]
Pressure:             1.411774e+02 +/ 0.000000e+00 [bar]

Total potential energy/kʙ  -3.142360e+05 (-3.178602e+05 +/- 0.000000e+00) [K]
-------------------------------------------------------------------------------
ExternalField-molecule
    Van der Waals/kʙ        0.000000e+00 ( 0.000000e+00 +/- 0.000000e+00) [K]
Framework-molecule
    Van der Waals/kʙ        0.000000e+00 ( 0.000000e+00 +/- 0.000000e+00) [K]
    Van der Waals (Tail)/kʙ 0.000000e+00 ( 0.000000e+00 +/- 0.000000e+00) [K]
    Coulombic Real/kʙ       0.000000e+00 ( 0.000000e+00 +/- 0.000000e+00) [K]
    Coulombic Fourier/kʙ    0.000000e+00 ( 0.000000e+00 +/- 0.000000e+00) [K]
Molecule-molecule
    Van der Waals/kʙ       -2.250524e+05 (-2.288901e+05 +/- 0.000000e+00) [K]
    Van der Waals (Tail)/kʙ-7.180613e+03 (-7.254179e+03 +/- 0.000000e+00) [K]
    Coulombic Real/kʙ      -7.190292e+04 (-7.110249e+04 +/- 0.000000e+00) [K]
    Coulombic Fourier/kʙ   -1.010000e+04 (-1.061339e+04 +/- 0.000000e+00) [K]
    Molecule Intra/kʙ       0.000000e+00 ( 0.000000e+00 +/- 0.000000e+00) [K]

Current cycle: 1400 out of 5000
===============================================================================

Box:      24.00872   0.00000   0.00000  Average:  23.71130   0.00000   0.00000
           0.00000  24.00872   0.00000             0.00000  23.71130   0.00000
           0.00000   0.00000  24.00872             0.00000   0.00000  23.71130
Lengths:  24.00872  24.00872  24.00872  Average:  23.71130  23.71130  23.71130
Angles:   90.00000  90.00000  90.00000  Average:  90.00000  90.00000  90.00000
Rectangular boundary conditions

net charge:   0.00000000

component 0 (CO2) lambda:  0 occupancy:  1 (1.000000)
    net charge:   0.00000000 [e]

Amount of molecules per component :
-------------------------------------------------------------------------------
Component 0 (CO2)
    molecules:      2.000000e+02 molecules  (2.000000e+02 +/- 0.000000e+00)
    number density: 1.445183e-02 molec./A^3 (1.501096e-02 +/- 0.000000e+00)
    density:        1.055876e+03 kg/m^3     (1.096727e+03 +/- 0.000000e+00)

Average pressure tensor: 
-------------------------------------------------------------------------------
 1.4638e+02  3.4558e+01  2.6223e+01 +/- 0.0000e+00 0.0000e+00 0.0000e+00 [bar]
 3.4558e+01  1.2348e+02  2.1480e+01 +/- 0.0000e+00 0.0000e+00 0.0000e+00 [bar]
 2.6223e+01  2.1480e+01  1.1832e+02 +/- 0.0000e+00 0.0000e+00 0.0000e+00 [bar]
Ideal-gas pressure:   5.181223e+02 +/ 0.000000e+00 [bar]
Excess pressure:     -3.887310e+02 +/ 0.000000e+00 [bar]
Pressure:             1.293913e+02 +/ 0.000000e+00 [bar]

Total potential energy/kʙ  -3.054214e+05 (-3.170731e+05 +/- 0.000000e+00) [K]
-------------------------------------------------------------------------------
ExternalField-molecule
    Van der Waals/kʙ        0.000000e+00 ( 0.000000e+00 +/- 0.000000e+00) [K]
Framework-molecule
    Van der Waals/kʙ        0.000000e+00 ( 0.000000e+00 +/- 0.000000e+00) [K]
    Van der Waals (Tail)/kʙ 0.000000e+00 ( 0.000000e+00 +/- 0.000000e+00) [K]
    Coulombic Real/kʙ       0.000000e+00 ( 0.000000e+00 +/- 0.000000e+00) [K]
    Coulombic Fourier/kʙ    0.000000e+00 ( 0.000000e+00 +/- 0.000000e+00) [K]
Molecule-molecule
    Van der Waals/kʙ       -2.149886e+05 (-2.284539e+05 +/- 0.000000e+00) [K]
    Van der Waals (Tail)/kʙ-6.968354e+03 (-7.237809e+03 +/- 0.000000e+00) [K]
    Coulombic Real/kʙ      -7.309834e+04 (-7.078021e+04 +/- 0.000000e+00) [K]
    Coulombic Fourier/kʙ   -1.036611e+04 (-1.060126e+04 +/- 0.000000e+00) [K]
    Molecule Intra/kʙ       0.000000e+00 ( 0.000000e+00 +/- 0.000000e+00) [K]

Current cycle: 1500 out of 5000
===============================================================================

Box:      23.96716   0.00000   0.00000  Average:  23.72261   0.00000   0.00000
           0.00000  23.96716   0.00000             0.00000  23.72261   0.00000
           0.00000   0.00000  23.96716             0.00000   0.00000  23.72261
Lengths:  23.96716  23.96716  23.96716  Average:  23.72261  23.72261  23.72261
Angles:   90.00000  90.00000  90.00000  Average:  90.00000  90.00000  90.00000
Rectangular boundary conditions

net charge:   0.00000000

component 0 (CO2) lambda:  0 occupancy:  1 (1.000000)
    net charge:   0.00000000 [e]

Amount of molecules per component :
-------------------------------------------------------------------------------
Component 0 (CO2)
    molecules:      2.000000e+02 molecules  (2.000000e+02 +/- 0.000000e+00)
    number density: 1.452714e-02 molec./A^3 (1.498945e-02 +/- 0.000000e+00)
    density:        1.061378e+03 kg/m^3     (1.095155e+03 +/- 0.000000e+00)

Average pressure tensor: 
-------------------------------------------------------------------------------
 1.3845e+02  4.3118e+01  2.9140e+01 +/- 0.0000e+00 0.0000e+00 0.0000e+00 [bar]
 4.3118e+01  1.4673e+02  2.4391e+01 +/- 0.0000e+00 0.0000e+00 0.0000e+00 [bar]
 2.9140e+01  2.4391e+01  1.0082e+02 +/- 0.0000e+00 0.0000e+00 0.0000e+00 [bar]
Ideal-gas pressure:   5.173796e+02 +/ 0.000000e+00 [bar]
Excess pressure:     -3.887153e+02 +/ 0.000000e+00 [bar]
Pressure:             1.286643e+02 +/ 0.000000e+00 [bar]

Total potential energy/kʙ  -3.087513e+05 (-3.166490e+05 +/- 0.000000e+00) [K]
-------------------------------------------------------------------------------
ExternalField-molecule
    Van der Waals/kʙ        0.000000e+00 ( 0.000000e+00 +/- 0.000000e+00) [K]
Framework-molecule
    Van der Waals/kʙ        0.000000e+00 ( 0.000000e+00 +/- 0.000000e+00) [K]
    Van der Waals (Tail)/kʙ 0.000000e+00 ( 0.000000e+00 +/- 0.000000e+00) [K]
    Coulombic Real/kʙ       0.000000e+00 ( 0.000000e+00 +/- 0.000000e+00) [K]
    Coulombic Fourier/kʙ    0.000000e+00 ( 0.000000e+00 +/- 0.000000e+00) [K]
Molecule-molecule
    Van der Waals/kʙ       -2.240825e+05 (-2.280895e+05 +/- 0.000000e+00) [K]
    Van der Waals (Tail)/kʙ-7.004665e+03 (-7.228693e+03 +/- 0.000000e+00) [K]
    Coulombic Real/kʙ      -6.708989e+04 (-7.072000e+04 +/- 0.000000e+00) [K]
    Coulombic Fourier/kʙ   -1.057425e+04 (-1.061079e+04 +/- 0.000000e+00) [K]
    Molecule Intra/kʙ       0.000000e+00 ( 0.000000e+00 +/- 0.000000e+00) [K]

Current cycle: 1600 out of 5000
===============================================================================

Box:      23.85156   0.00000   0.00000  Average:  23.73108   0.00000   0.00000
           0.00000  23.85156   0.00000             0.00000  23.73108   0.00000
           0.00000   0.00000  23.85156             0.00000   0.00000  23.73108
Lengths:  23.85156  23.85156  23.85156  Average:  23.73108  23.73108  23.73108
Angles:   90.00000  90.00000  90.00000  Average:  90.00000  90.00000  90.00000
Rectangular boundary conditions

net charge:   0.00000000

component 0 (CO2) lambda:  0 occupancy:  1 (1.000000)
    net charge:   0.00000000 [e]

Amount of molecules per component :
-------------------------------------------------------------------------------
Component 0 (CO2)
    molecules:      2.000000e+02 molecules  (2.000000e+02 +/- 0.000000e+00)
    number density: 1.473939e-02 molec./A^3 (1.497314e-02 +/- 0.000000e+00)
    density:        1.076885e+03 kg/m^3     (1.093963e+03 +/- 0.000000e+00)

Average pressure tensor: 
-------------------------------------------------------------------------------
 1.3750e+02  4.2611e+01  2.6192e+01 +/- 0.0000e+00 0.0000e+00 0.0000e+00 [bar]
 4.2611e+01  1.6818e+02  3.0827e+01 +/- 0.0000e+00 0.0000e+00 0.0000e+00 [bar]
 2.6192e+01  3.0827e+01  7.4326e+01 +/- 0.0000e+00 0.0000e+00 0.0000e+00 [bar]
Ideal-gas pressure:   5.168169e+02 +/ 0.000000e+00 [bar]
Excess pressure:     -3.901478e+02 +/ 0.000000e+00 [bar]
Pressure:             1.266691e+02 +/ 0.000000e+00 [bar]

Total potential energy/kʙ  -3.072635e+05 (-3.162629e+05 +/- 0.000000e+00) [K]
-------------------------------------------------------------------------------
ExternalField-molecule
    Van der Waals/kʙ        0.000000e+00 ( 0.000000e+00 +/- 0.000000e+00) [K]
Framework-molecule
    Van der Waals/kʙ        0.000000e+00 ( 0.000000e+00 +/- 0.000000e+00) [K]
    Van der Waals (Tail)/kʙ 0.000000e+00 ( 0.000000e+00 +/- 0.000000e+00) [K]
    Coulombic Real/kʙ       0.000000e+00 ( 0.000000e+00 +/- 0.000000e+00) [K]
    Coulombic Fourier/kʙ    0.000000e+00 ( 0.000000e+00 +/- 0.000000e+00) [K]
Molecule-molecule
    Van der Waals/kʙ       -2.238708e+05 (-2.278032e+05 +/- 0.000000e+00) [K]
    Van der Waals (Tail)/kʙ-7.107009e+03 (-7.220934e+03 +/- 0.000000e+00) [K]
    Coulombic Real/kʙ      -6.637923e+04 (-7.065322e+04 +/- 0.000000e+00) [K]
    Coulombic Fourier/kʙ   -9.906414e+03 (-1.058559e+04 +/- 0.000000e+00) [K]
    Molecule Intra/kʙ       0.000000e+00 ( 0.000000e+00 +/- 0.000000e+00) [K]

Current cycle: 1700 out of 5000
===============================================================================

Box:      23.71450   0.00000   0.00000  Average:  23.72668   0.00000   0.00000
           0.00000  23.71450   0.00000             0.00000  23.72668   0.00000
           0.00000   0.00000  23.71450             0.00000   0.00000  23.72668
Lengths:  23.71450  23.71450  23.71450  Average:  23.72668  23.72668  23.72668
Angles:   90.00000  90.00000  90.00000  Average:  90.00000  90.00000  90.00000
Rectangular boundary conditions

net charge:   0.00000000

component 0 (CO2) lambda:  0 occupancy:  1 (1.000000)
    net charge:   0.00000000 [e]

Amount of molecules per component :
-------------------------------------------------------------------------------
Component 0 (CO2)
    molecules:      2.000000e+02 molecules  (2.000000e+02 +/- 0.000000e+00)
    number density: 1.499644e-02 molec./A^3 (1.498123e-02 +/- 0.000000e+00)
    density:        1.095665e+03 kg/m^3     (1.094554e+03 +/- 0.000000e+00)

Average pressure tensor: 
-------------------------------------------------------------------------------
 1.4706e+02  4.5692e+01  2.9243e+01 +/- 0.0000e+00 0.0000e+00 0.0000e+00 [bar]
 4.5692e+01  1.8542e+02  3.0850e+01 +/- 0.0000e+00 0.0000e+00 0.0000e+00 [bar]
 2.9243e+01  3.0850e+01  7.0709e+01 +/- 0.0000e+00 0.0000e+00 0.0000e+00 [bar]
Ideal-gas pressure:   5.170960e+02 +/ 0.000000e+00 [bar]
Excess pressure:     -3.826994e+02 +/ 0.000000e+00 [bar]
Pressure:             1.343967e+02 +/ 0.000000e+00 [bar]

Total potential energy/kʙ  -3.247238e+05 (-3.167847e+05 +/- 0.000000e+00) [K]
-------------------------------------------------------------------------------
ExternalField-molecule
    Van der Waals/kʙ        0.000000e+00 ( 0.000000e+00 +/- 0.000000e+00) [K]
Framework-molecule
    Van der Waals/kʙ        0.000000e+00 ( 0.000000e+00 +/- 0.000000e+00) [K]
    Van der Waals (Tail)/kʙ 0.000000e+00 ( 0.000000e+00 +/- 0.000000e+00) [K]
    Coulombic Real/kʙ       0.000000e+00 ( 0.000000e+00 +/- 0.000000e+00) [K]
    Coulombic Fourier/kʙ    0.000000e+00 ( 0.000000e+00 +/- 0.000000e+00) [K]
Molecule-molecule
    Van der Waals/kʙ       -2.315106e+05 (-2.279673e+05 +/- 0.000000e+00) [K]
    Van der Waals (Tail)/kʙ-7.230950e+03 (-7.226682e+03 +/- 0.000000e+00) [K]
    Coulombic Real/kʙ      -7.591469e+04 (-7.102478e+04 +/- 0.000000e+00) [K]
    Coulombic Fourier/kʙ   -1.006753e+04 (-1.056596e+04 +/- 0.000000e+00) [K]
    Molecule Intra/kʙ       0.000000e+00 ( 0.000000e+00 +/- 0.000000e+00) [K]

Current cycle: 1800 out of 5000
===============================================================================

Box:      23.55350   0.00000   0.00000  Average:  23.72185   0.00000   0.00000
           0.00000  23.55350   0.00000             0.00000  23.72185   0.00000
           0.00000   0.00000  23.55350             0.00000   0.00000  23.72185
Lengths:  23.55350  23.55350  23.55350  Average:  23.72185  23.72185  23.72185
Angles:   90.00000  90.00000  90.00000  Average:  90.00000  90.00000  90.00000
Rectangular boundary conditions

net charge:   0.00000000

component 0 (CO2) lambda:  0 occupancy:  1 (1.000000)
    net charge:   0.00000000 [e]

Amount of molecules per component :
-------------------------------------------------------------------------------
Component 0 (CO2)
    molecules:      2.000000e+02 molecules  (2.000000e+02 +/- 0.000000e+00)
    number density: 1.530607e-02 molec./A^3 (1.499006e-02 +/- 0.000000e+00)
    density:        1.118288e+03 kg/m^3     (1.095199e+03 +/- 0.000000e+00)

Average pressure tensor: 
-------------------------------------------------------------------------------
 1.4663e+02  3.9970e+01  2.8893e+01 +/- 0.0000e+00 0.0000e+00 0.0000e+00 [bar]
 3.9970e+01  1.8498e+02  2.7808e+01 +/- 0.0000e+00 0.0000e+00 0.0000e+00 [bar]
 2.8893e+01  2.7808e+01  8.7072e+01 +/- 0.0000e+00 0.0000e+00 0.0000e+00 [bar]
Ideal-gas pressure:   5.174007e+02 +/ 0.000000e+00 [bar]
Excess pressure:     -3.778387e+02 +/ 0.000000e+00 [bar]
Pressure:             1.395621e+02 +/ 0.000000e+00 [bar]

Total potential energy/kʙ  -3.202567e+05 (-3.169893e+05 +/- 0.000000e+00) [K]
-------------------------------------------------------------------------------
ExternalField-molecule
    Van der Waals/kʙ        0.000000e+00 ( 0.000000e+00 +/- 0.000000e+00) [K]
Framework-molecule
    Van der Waals/kʙ        0.000000e+00 ( 0.000000e+00 +/- 0.000000e+00) [K]
    Van der Waals (Tail)/kʙ 0.000000e+00 ( 0.000000e+00 +/- 0.000000e+00) [K]
    Coulombic Real/kʙ       0.000000e+00 ( 0.000000e+00 +/- 0.000000e+00) [K]
    Coulombic Fourier/kʙ    0.000000e+00 ( 0.000000e+00 +/- 0.000000e+00) [K]
Molecule-molecule
    Van der Waals/kʙ       -2.267522e+05 (-2.279285e+05 +/- 0.000000e+00) [K]
    Van der Waals (Tail)/kʙ-7.380249e+03 (-7.231724e+03 +/- 0.000000e+00) [K]
    Coulombic Real/kʙ      -7.511674e+04 (-7.125771e+04 +/- 0.000000e+00) [K]
    Coulombic Fourier/kʙ   -1.100754e+04 (-1.057136e+04 +/- 0.000000e+00) [K]
    Molecule Intra/kʙ       0.000000e+00 ( 0.000000e+00 +/- 0.000000e+00) [K]

Current cycle: 1900 out of 5000
===============================================================================

Box:      23.94154   0.00000   0.00000  Average:  23.72181   0.00000   0.00000
           0.00000  23.94154   0.00000             0.00000  23.72181   0.00000
           0.00000   0.00000  23.94154             0.00000   0.00000  23.72181
Lengths:  23.94154  23.94154  23.94154  Average:  23.72181  23.72181  23.72181
Angles:   90.00000  90.00000  90.00000  Average:  90.00000  90.00000  90.00000
Rectangular boundary conditions

net charge:   0.00000000

component 0 (CO2) lambda:  0 occupancy:  1 (1.000000)
    net charge:   0.00000000 [e]

Amount of molecules per component :
-------------------------------------------------------------------------------
Component 0 (CO2)
    molecules:      2.000000e+02 molecules  (2.000000e+02 +/- 0.000000e+00)
    number density: 1.457383e-02 molec./A^3 (1.498989e-02 +/- 0.000000e+00)
    density:        1.064789e+03 kg/m^3     (1.095187e+03 +/- 0.000000e+00)

Average pressure tensor: 
-------------------------------------------------------------------------------
 1.4818e+02  4.4840e+01  3.0500e+01 +/- 0.0000e+00 0.0000e+00 0.0000e+00 [bar]
 4.4840e+01  1.9224e+02  2.9504e+01 +/- 0.0000e+00 0.0000e+00 0.0000e+00 [bar]
 3.0500e+01  2.9504e+01  9.6807e+01 +/- 0.0000e+00 0.0000e+00 0.0000e+00 [bar]
Ideal-gas pressure:   5.173949e+02 +/ 0.000000e+00 [bar]
Excess pressure:     -3.716533e+02 +/ 0.000000e+00 [bar]
Pressure:             1.457416e+02 +/ 0.000000e+00 [bar]

Total potential energy/kʙ  -3.063471e+05 (-3.170229e+05 +/- 0.000000e+00) [K]
-------------------------------------------------------------------------------
ExternalField-molecule
    Van der Waals/kʙ        0.000000e+00 ( 0.000000e+00 +/- 0.000000e+00) [K]
Framework-molecule
    Van der Waals/kʙ        0.000000e+00 ( 0.000000e+00 +/- 0.000000e+00) [K]
    Van der Waals (Tail)/kʙ 0.000000e+00 ( 0.000000e+00 +/- 0.000000e+00) [K]
    Coulombic Real/kʙ       0.000000e+00 ( 0.000000e+00 +/- 0.000000e+00) [K]
    Coulombic Fourier/kʙ    0.000000e+00 ( 0.000000e+00 +/- 0.000000e+00) [K]
Molecule-molecule
    Van der Waals/kʙ       -2.193188e+05 (-2.279613e+05 +/- 0.000000e+00) [K]
    Van der Waals (Tail)/kʙ-7.027177e+03 (-7.231909e+03 +/- 0.000000e+00) [K]
    Coulombic Real/kʙ      -6.956620e+04 (-7.125318e+04 +/- 0.000000e+00) [K]
    Coulombic Fourier/kʙ   -1.043491e+04 (-1.057650e+04 +/- 0.000000e+00) [K]
    Molecule Intra/kʙ       0.000000e+00 ( 0.000000e+00 +/- 0.000000e+00) [K]

Current cycle: 2000 out of 5000
===============================================================================

Box:      23.61091   0.00000   0.00000  Average:  23.72405   0.00000   0.00000
           0.00000  23.61091   0.00000             0.00000  23.72405   0.00000
           0.00000   0.00000  23.61091             0.00000   0.00000  23.72405
Lengths:  23.61091  23.61091  23.61091  Average:  23.72405  23.72405  23.72405
Angles:   90.00000  90.00000  90.00000  Average:  90.00000  90.00000  90.00000
Rectangular boundary conditions

net charge:   0.00000000

component 0 (CO2) lambda:  0 occupancy:  1 (1.000000)
    net charge:   0.00000000 [e]

Amount of molecules per component :
-------------------------------------------------------------------------------
Component 0 (CO2)
    molecules:      2.000000e+02 molecules  (2.000000e+02 +/- 0.000000e+00)
    number density: 1.519468e-02 molec./A^3 (1.498547e-02 +/- 0.000000e+00)
    density:        1.110149e+03 kg/m^3     (1.094864e+03 +/- 0.000000e+00)

Average pressure tensor: 
-------------------------------------------------------------------------------
 1.5506e+02  3.8925e+01  2.5694e+01 +/- 0.0000e+00 0.0000e+00 0.0000e+00 [bar]
 3.8925e+01  1.8567e+02  2.8426e+01 +/- 0.0000e+00 0.0000e+00 0.0000e+00 [bar]
 2.5694e+01  2.8426e+01  9.2795e+01 +/- 0.0000e+00 0.0000e+00 0.0000e+00 [bar]
Ideal-gas pressure:   5.172424e+02 +/ 0.000000e+00 [bar]
Excess pressure:     -3.727355e+02 +/ 0.000000e+00 [bar]
Pressure:             1.445070e+02 +/ 0.000000e+00 [bar]

Total potential energy/kʙ  -3.258275e+05 (-3.170075e+05 +/- 0.000000e+00) [K]
-------------------------------------------------------------------------------
ExternalField-molecule
    Van der Waals/kʙ        0.000000e+00 ( 0.000000e+00 +/- 0.000000e+00) [K]
Framework-molecule
    Van der Waals/kʙ        0.000000e+00 ( 0.000000e+00 +/- 0.000000e+00) [K]
    Van der Waals (Tail)/kʙ 0.000000e+00 ( 0.000000e+00 +/- 0.000000e+00) [K]
    Coulombic Real/kʙ       0.000000e+00 ( 0.000000e+00 +/- 0.000000e+00) [K]
    Coulombic Fourier/kʙ    0.000000e+00 ( 0.000000e+00 +/- 0.000000e+00) [K]
Molecule-molecule
    Van der Waals/kʙ       -2.347395e+05 (-2.279335e+05 +/- 0.000000e+00) [K]
    Van der Waals (Tail)/kʙ-7.326540e+03 (-7.229977e+03 +/- 0.000000e+00) [K]
    Coulombic Real/kʙ      -7.282462e+04 (-7.125307e+04 +/- 0.000000e+00) [K]
    Coulombic Fourier/kʙ   -1.093690e+04 (-1.059095e+04 +/- 0.000000e+00) [K]
    Molecule Intra/kʙ       0.000000e+00 ( 0.000000e+00 +/- 0.000000e+00) [K]

Current cycle: 2100 out of 5000
===============================================================================

Box:      23.96728   0.00000   0.00000  Average:  23.72135   0.00000   0.00000
           0.00000  23.96728   0.00000             0.00000  23.72135   0.00000
           0.00000   0.00000  23.96728             0.00000   0.00000  23.72135
Lengths:  23.96728  23.96728  23.96728  Average:  23.72135  23.72135  23.72135
Angles:   90.00000  90.00000  90.00000  Average:  90.00000  90.00000  90.00000
Rectangular boundary conditions

net charge:   0.00000000

component 0 (CO2) lambda:  0 occupancy:  1 (1.000000)
    net charge:   0.00000000 [e]

Amount of molecules per component :
-------------------------------------------------------------------------------
Component 0 (CO2)
    molecules:      2.000000e+02 molecules  (2.000000e+02 +/- 0.000000e+00)
    number density: 1.452692e-02 molec./A^3 (1.499045e-02 +/- 0.000000e+00)
    density:        1.061362e+03 kg/m^3     (1.095228e+03 +/- 0.000000e+00)

Average pressure tensor: 
-------------------------------------------------------------------------------
 1.6837e+02  4.0607e+01  2.7172e+01 +/- 0.0000e+00 0.0000e+00 0.0000e+00 [bar]
 4.0607e+01  1.7362e+02  3.5464e+01 +/- 0.0000e+00 0.0000e+00 0.0000e+00 [bar]
 2.7172e+01  3.5464e+01  8.9350e+01 +/- 0.0000e+00 0.0000e+00 0.0000e+00 [bar]
Ideal-gas pressure:   5.174144e+02 +/ 0.000000e+00 [bar]
Excess pressure:     -3.736332e+02 +/ 0.000000e+00 [bar]
Pressure:             1.437811e+02 +/ 0.000000e+00 [bar]

Total potential energy/kʙ  -3.115955e+05 (-3.173161e+05 +/- 0.000000e+00) [K]
-------------------------------------------------------------------------------
ExternalField-molecule
    Van der Waals/kʙ        0.000000e+00 ( 0.000000e+00 +/- 0.000000e+00) [K]
Framework-molecule
    Van der Waals/kʙ        0.000000e+00 ( 0.000000e+00 +/- 0.000000e+00) [K]
    Van der Waals (Tail)/kʙ 0.000000e+00 ( 0.000000e+00 +/- 0.000000e+00) [K]
[...]
    Coulombic Fourier/kʙ    0.000000e+00 ( 0.000000e+00 +/- 0.000000e+00) [K]
Molecule-molecule
    Van der Waals/kʙ       -2.189644e+05 (-2.266309e+05 +/- 4.925200e+03) [K]
    Van der Waals (Tail)/kʙ-7.145859e+03 (-7.192871e+03 +/- 1.299230e+02) [K]
    Coulombic Real/kʙ      -7.251464e+04 (-7.128914e+04 +/- 1.541400e+03) [K]
    Coulombic Fourier/kʙ   -1.036582e+04 (-1.056840e+04 +/- 1.563919e+02) [K]
    Molecule Intra/kʙ       0.000000e+00 ( 0.000000e+00 +/- 0.000000e+00) [K]

Current cycle: 4700 out of 5000
===============================================================================

Box:      23.92228   0.00000   0.00000  Average:  23.76382   0.00000   0.00000
           0.00000  23.92228   0.00000             0.00000  23.76382   0.00000
           0.00000   0.00000  23.92228             0.00000   0.00000  23.76382
Lengths:  23.92228  23.92228  23.92228  Average:  23.76382  23.76382  23.76382
Angles:   90.00000  90.00000  90.00000  Average:  90.00000  90.00000  90.00000
Rectangular boundary conditions

net charge:   0.00000000

component 0 (CO2) lambda:  0 occupancy:  1 (1.000000)
    net charge:   0.00000000 [e]

Amount of molecules per component :
-------------------------------------------------------------------------------
Component 0 (CO2)
    molecules:      2.000000e+02 molecules  (2.000000e+02 +/- 0.000000e+00)
    number density: 1.460906e-02 molec./A^3 (1.490934e-02 +/- 2.662450e-04)
    density:        1.067363e+03 kg/m^3     (1.089302e+03 +/- 1.945232e+01)

Average pressure tensor: 
-------------------------------------------------------------------------------
 1.3279e+02  3.8398e+01 -1.9265e+00 +/- 8.0254e+01 1.2920e+01 4.8445e+01 [bar]
 3.8398e+01  1.4279e+02  1.2731e+01 +/- 1.2920e+01 9.9529e+01 2.7410e+01 [bar]
-1.9265e+00  1.2731e+01  1.3205e+02 +/- 4.8445e+01 2.7410e+01 7.1505e+01 [bar]
Ideal-gas pressure:   5.146146e+02 +/ 9.189781e+00 [bar]
Excess pressure:     -3.787374e+02 +/ 2.158531e+01 [bar]
Pressure:             1.358772e+02 +/ 2.713146e+01 [bar]

Total potential energy/kʙ  -3.080213e+05 (-3.155304e+05 +/- 6.256088e+03) [K]
-------------------------------------------------------------------------------
ExternalField-molecule
    Van der Waals/kʙ        0.000000e+00 ( 0.000000e+00 +/- 0.000000e+00) [K]
Framework-molecule
    Van der Waals/kʙ        0.000000e+00 ( 0.000000e+00 +/- 0.000000e+00) [K]
    Van der Waals (Tail)/kʙ 0.000000e+00 ( 0.000000e+00 +/- 0.000000e+00) [K]
    Coulombic Real/kʙ       0.000000e+00 ( 0.000000e+00 +/- 0.000000e+00) [K]
    Coulombic Fourier/kʙ    0.000000e+00 ( 0.000000e+00 +/- 0.000000e+00) [K]
Molecule-molecule
    Van der Waals/kʙ       -2.203177e+05 (-2.265075e+05 +/- 4.936507e+03) [K]
    Van der Waals (Tail)/kʙ-7.044168e+03 (-7.189596e+03 +/- 1.302630e+02) [K]
    Coulombic Real/kʙ      -6.984034e+04 (-7.127255e+04 +/- 1.532417e+03) [K]
    Coulombic Fourier/kʙ   -1.081914e+04 (-1.056076e+04 +/- 1.661462e+02) [K]
    Molecule Intra/kʙ       0.000000e+00 ( 0.000000e+00 +/- 0.000000e+00) [K]

Current cycle: 4800 out of 5000
===============================================================================

Box:      23.64518   0.00000   0.00000  Average:  23.76642   0.00000   0.00000
           0.00000  23.64518   0.00000             0.00000  23.76642   0.00000
           0.00000   0.00000  23.64518             0.00000   0.00000  23.76642
Lengths:  23.64518  23.64518  23.64518  Average:  23.76642  23.76642  23.76642
Angles:   90.00000  90.00000  90.00000  Average:  90.00000  90.00000  90.00000
Rectangular boundary conditions

net charge:   0.00000000

component 0 (CO2) lambda:  0 occupancy:  1 (1.000000)
    net charge:   0.00000000 [e]

Amount of molecules per component :
-------------------------------------------------------------------------------
Component 0 (CO2)
    molecules:      2.000000e+02 molecules  (2.000000e+02 +/- 0.000000e+00)
    number density: 1.512872e-02 molec./A^3 (1.490445e-02 +/- 2.640402e-04)
    density:        1.105330e+03 kg/m^3     (1.088945e+03 +/- 1.929123e+01)

Average pressure tensor: 
-------------------------------------------------------------------------------
 1.3549e+02  3.6332e+01 -3.0985e-01 +/- 6.3515e+01 1.3853e+01 4.7090e+01 [bar]
 3.6332e+01  1.4337e+02  1.4191e+01 +/- 1.3853e+01 9.8798e+01 2.5615e+01 [bar]
-3.0985e-01  1.4191e+01  1.3138e+02 +/- 4.7090e+01 2.5615e+01 6.9686e+01 [bar]
Ideal-gas pressure:   5.144459e+02 +/ 9.113680e+00 [bar]
Excess pressure:     -3.777007e+02 +/ 1.762718e+01 [bar]
Pressure:             1.367452e+02 +/ 2.260553e+01 [bar]

Total potential energy/kʙ  -3.187948e+05 (-3.154517e+05 +/- 6.186373e+03) [K]
-------------------------------------------------------------------------------
ExternalField-molecule
    Van der Waals/kʙ        0.000000e+00 ( 0.000000e+00 +/- 0.000000e+00) [K]
Framework-molecule
    Van der Waals/kʙ        0.000000e+00 ( 0.000000e+00 +/- 0.000000e+00) [K]
    Van der Waals (Tail)/kʙ 0.000000e+00 ( 0.000000e+00 +/- 0.000000e+00) [K]
    Coulombic Real/kʙ       0.000000e+00 ( 0.000000e+00 +/- 0.000000e+00) [K]
    Coulombic Fourier/kʙ    0.000000e+00 ( 0.000000e+00 +/- 0.000000e+00) [K]
Molecule-molecule
    Van der Waals/kʙ       -2.286425e+05 (-2.264356e+05 +/- 4.839394e+03) [K]
    Van der Waals (Tail)/kʙ-7.294736e+03 (-7.187795e+03 +/- 1.274688e+02) [K]
    Coulombic Real/kʙ      -7.254277e+04 (-7.127823e+04 +/- 1.532903e+03) [K]
    Coulombic Fourier/kʙ   -1.031473e+04 (-1.055007e+04 +/- 1.814662e+02) [K]
    Molecule Intra/kʙ       0.000000e+00 ( 0.000000e+00 +/- 0.000000e+00) [K]

Current cycle: 4900 out of 5000
===============================================================================

Box:      23.92220   0.00000   0.00000  Average:  23.76728   0.00000   0.00000
           0.00000  23.92220   0.00000             0.00000  23.76728   0.00000
           0.00000   0.00000  23.92220             0.00000   0.00000  23.76728
Lengths:  23.92220  23.92220  23.92220  Average:  23.76728  23.76728  23.76728
Angles:   90.00000  90.00000  90.00000  Average:  90.00000  90.00000  90.00000
Rectangular boundary conditions

net charge:   0.00000000

component 0 (CO2) lambda:  0 occupancy:  1 (1.000000)
    net charge:   0.00000000 [e]

Amount of molecules per component :
-------------------------------------------------------------------------------
Component 0 (CO2)
    molecules:      2.000000e+02 molecules  (2.000000e+02 +/- 0.000000e+00)
    number density: 1.460920e-02 molec./A^3 (1.490276e-02 +/- 2.566100e-04)
    density:        1.067374e+03 kg/m^3     (1.088821e+03 +/- 1.874837e+01)

Average pressure tensor: 
-------------------------------------------------------------------------------
 1.3642e+02  3.5481e+01 -4.6078e+00 +/- 5.5611e+01 1.4770e+01 5.0224e+01 [bar]
 3.5481e+01  1.4447e+02  1.5125e+01 +/- 1.4770e+01 9.8153e+01 2.5208e+01 [bar]
-4.6078e+00  1.5125e+01  1.3148e+02 +/- 5.0224e+01 2.5208e+01 6.9152e+01 [bar]
Ideal-gas pressure:   5.143875e+02 +/ 8.857219e+00 [bar]
Excess pressure:     -3.769326e+02 +/ 1.553239e+01 [bar]
Pressure:             1.374549e+02 +/ 1.971864e+01 [bar]

Total potential energy/kʙ  -3.070745e+05 (-3.153631e+05 +/- 6.156793e+03) [K]
-------------------------------------------------------------------------------
ExternalField-molecule
    Van der Waals/kʙ        0.000000e+00 ( 0.000000e+00 +/- 0.000000e+00) [K]
Framework-molecule
    Van der Waals/kʙ        0.000000e+00 ( 0.000000e+00 +/- 0.000000e+00) [K]
    Van der Waals (Tail)/kʙ 0.000000e+00 ( 0.000000e+00 +/- 0.000000e+00) [K]
    Coulombic Real/kʙ       0.000000e+00 ( 0.000000e+00 +/- 0.000000e+00) [K]
    Coulombic Fourier/kʙ    0.000000e+00 ( 0.000000e+00 +/- 0.000000e+00) [K]
Molecule-molecule
    Van der Waals/kʙ       -2.200059e+05 (-2.263859e+05 +/- 4.728991e+03) [K]
    Van der Waals (Tail)/kʙ-7.044236e+03 (-7.186721e+03 +/- 1.240949e+02) [K]
    Coulombic Real/kʙ      -7.071560e+04 (-7.124661e+04 +/- 1.528214e+03) [K]
    Coulombic Fourier/kʙ   -9.308717e+03 (-1.054384e+04 +/- 1.865296e+02) [K]
    Molecule Intra/kʙ       0.000000e+00 ( 0.000000e+00 +/- 0.000000e+00) [K]


Energy statistics             |  Energy [K]   | Recomputed [K]|  Drift [K]    |
===============================================================================
Total potential energy/kʙ     | -3.143094e+05 | -3.143094e+05 | -1.228418e-09 |
    external field VDW/kʙ     |  0.000000e+00 |  0.000000e+00 |  0.000000e+00 |
    external field Real/kʙ    |  0.000000e+00 |  0.000000e+00 |  0.000000e+00 |
    framework-molecule VDW/kʙ |  0.000000e+00 |  0.000000e+00 |  0.000000e+00 |
    framework-molecule Real/kʙ|  0.000000e+00 |  0.000000e+00 |  0.000000e+00 |
    molecule-molecule VDW/kʙ  | -2.297533e+05 | -2.297533e+05 | -1.015113e-09 |
    molecule-molecule Real/kʙ | -6.712363e+04 | -6.712363e+04 | -1.925214e-10 |
    Van der Waals (Tail)/kʙ   | -7.133505e+03 | -7.133505e+03 |  0.000000e+00 |
    Ewald Fourier/kʙ          |  7.854136e+03 |  7.854136e+03 | -2.078356e-11 |
    Ewald self/kʙ             | -4.023739e+06 | -4.023739e+06 |  0.000000e+00 |
    Ewald exclusion/kʙ        |  4.005586e+06 |  4.005586e+06 |  0.000000e+00 |
    intra VDW/kʙ              |  0.000000e+00 |  0.000000e+00 |  0.000000e+00 |
    intra Coulombic/kʙ        |  0.000000e+00 |  0.000000e+00 |  0.000000e+00 |
    polarization/kʙ           |  0.000000e+00 |  0.000000e+00 |  0.000000e+00 |
    dU/dlambda VDW/kʙ         |  0.000000e+00 |  0.000000e+00 |  0.000000e+00 |
    dU/dlambda Real/kʙ        |  0.000000e+00 |  0.000000e+00 |  0.000000e+00 |
    dU/dlambda Ewald/kʙ       |  0.000000e+00 |  0.000000e+00 |  0.000000e+00 |
-------------------------------------------------------------------------------


Monte-Carlo moves statistics
===============================================================================

    Volume change        all:                6452
    Volume change        total:              6452
    Volume change        constructed:        6452
    Volume change        accepted:           3456
    Volume change        fraction:       0.535648
    Volume change        max-change:     0.025000

Component 0 [CO2]
    Reinsertion (CBMC)   all:              330957
    Reinsertion (CBMC)   total:            330957
    Reinsertion (CBMC)   constructed:      286210
    Reinsertion (CBMC)   accepted:           3276
    Reinsertion (CBMC)   fraction:       0.009899
    Reinsertion (CBMC)   max-change:     0.000000

    Translation          all:              331681
    Translation          total:            110298     110101     111282
    Translation          constructed:      110298     110101     111282
    Translation          accepted:          57331      57541      57442
    Translation          fraction:       0.519783   0.522620   0.516184
    Translation          max-change:     0.604444   0.600000   0.615385

    Rotation             all:              330910
    Rotation             total:            110040     110408     110462
    Rotation             constructed:      110040     110408     110462
    Rotation             accepted:          58022      58990      67787
    Rotation             fraction:       0.527281   0.534291   0.613668
    Rotation             max-change:     0.606667   0.608696   0.460526



Production run counting of the MC moves summed over systems and components
===============================================================================

Volume change                          6452 (0.6452 [%])
Reinsertion (CBMC)                   330957 (33.0957 [%])
Translation                          331681 (33.1681 [%])
Rotation                             330910 (33.0910 [%])

Production count MC-steps:          1000000 [-]
               All summed:          1000000 [-]
               difference:                0 [-]


Production run CPU timings of the MC moves
===============================================================================

Component 0 CO2

Rotation                             46.951907 [s]
    Ewald                            18.618968 [s]
    ExternalField-Molecule            0.011973 [s]
    Framework-Molecule                0.011108 [s]
    Molecule-Molecule                26.615960 [s]
    Overhead                          1.693898 [s]

Reinsertion (CBMC)                  191.012196 [s]
    Ewald                            16.370627 [s]
    NonEwald                        174.328106 [s]
    Overhead                          0.313463 [s]

Translation                          47.654659 [s]
    Ewald                            19.293555 [s]
    ExternalField-Molecule            0.011003 [s]
    Framework-Molecule                0.020033 [s]
    Molecule-Molecule                26.782452 [s]
    Overhead                          1.547616 [s]



Volume change                         42.570806 [s]
    Ewald                             14.504376 [s]
    NonEwald                          26.256410 [s]
    Tail                               1.563939 [s]

Property sampling                     0.281728 [s]
Energy/pressure sampling:             6.550469 [s]


Production run CPU timings of the MC moves summed over systems and components
===============================================================================


Translation                          47.654659 [s]
    Ewald                            19.293555 [s]
    ExternalField-Molecule            0.011003 [s]
    Framework-Molecule                0.020033 [s]
    Molecule-Molecule                26.782452 [s]
    Overhead                          1.547616 [s]

Rotation                             46.951907 [s]
    Ewald                            18.618968 [s]
    ExternalField-Molecule            0.011973 [s]
    Framework-Molecule                0.011108 [s]
    Molecule-Molecule                26.615960 [s]
    Overhead                          1.693898 [s]

Volume change                        42.570806 [s]
    Ewald                            14.504376 [s]
    NonEwald                         26.256410 [s]
    Tail                              1.563939 [s]
    Overhead                          0.246081 [s]

Reinsertion (CBMC)                  191.012196 [s]
    Ewald                            16.370627 [s]
    NonEwald                        174.328106 [s]
    Overhead                          0.313463 [s]

Property sampling:                    0.281728 [s]
Energy/pressure sampling:             6.550469 [s]

Production simulation time:         335.792665 [s]
                All summed:         335.021765 [s]
                  Overhead:           0.770900 [s]


Initalization simulation time:       64.434900 [s]
Equilibration simulation time:        0.000000 [s]
Production simulation time:         335.792665 [s]
Total simulation time:              400.227565 [s]


Energy averages and statistics:
===============================================================================

Framework-molecule energy:
-------------------------------------------------------------------------------



Framework-molecule energy contributions per energy type:
-------------------------------------------------------------------------------



Inter-molecular energy:
-------------------------------------------------------------------------------

    Inter-molecular energy/kʙ 0-0 [CO2-CO2]:
    ---------------------------------------------------------------------------
        Block[  0] -3.212401e+05
        Block[  1] -3.126866e+05
        Block[  2] -3.120317e+05
        Block[  3] -3.199779e+05
        Block[  4] -3.099950e+05
        -----------------------------------------------------------------------
        Average  -3.151863e+05 +/-  6.292322e+03 [K]



Inter-molecular energy contributions per energy type:
-------------------------------------------------------------------------------

    Van der Waals energy/kʙ 0-0 [CO2-CO2]:
    ---------------------------------------------------------------------------
        Block[  0] -2.311090e+05
        Block[  1] -2.246899e+05
        Block[  2] -2.246855e+05
        Block[  3] -2.292847e+05
        Block[  4] -2.219002e+05
        -----------------------------------------------------------------------
        Average  -2.263339e+05 +/-  4.669379e+03 [K]

    VDW Tail-Correction energy/kʙ 0-0 [CO2-CO2]:
    ---------------------------------------------------------------------------
        Block[  0] -7.313020e+03
        Block[  1] -7.145969e+03
        Block[  2] -7.138455e+03
        Block[  3] -7.259745e+03
        Block[  4] -7.064050e+03
        -----------------------------------------------------------------------
        Average  -7.184247e+03 +/-  1.245986e+02 [K]

    Coulomb Real energy/kʙ 0-0 [CO2-CO2]:
    ---------------------------------------------------------------------------
        Block[  0] -7.210947e+04
        Block[  1] -7.038095e+04
        Block[  2] -6.972718e+04
        Block[  3] -7.274934e+04
        Block[  4] -7.071651e+04
        -----------------------------------------------------------------------
        Average  -7.113669e+04 +/-  1.555717e+03 [K]

    Coulomb Fourier energy/kʙ 0-0 [CO2-CO2]:
    ---------------------------------------------------------------------------
        Block[  0] -1.070864e+04
        Block[  1] -1.046979e+04
        Block[  2] -1.048061e+04
        Block[  3] -1.068408e+04
        Block[  4] -1.031420e+04
        -----------------------------------------------------------------------
        Average  -1.053146e+04 +/-  2.042580e+02 [K]


Total energy/kʙ
-------------------------------------------------------------------------------
    Block[  0] -3.212401e+05
    Block[  1] -3.126866e+05
    Block[  2] -3.120317e+05
    Block[  3] -3.199779e+05
    Block[  4] -3.099950e+05
    ---------------------------------------------------------------------------
    Average  -3.151863e+05 +/-  6.292322e+03 [K]

Pressure averages and statistics:
===============================================================================

Average pressure tensor: 
-------------------------------------------------------------------------------
 1.3256e+02  3.7107e+01 -6.5924e+00 +/- 6.1688e+01 1.2994e+01 5.1831e+01 [bar]
 3.7107e+01  1.4784e+02  1.4328e+01 +/- 1.2994e+01 9.7555e+01 2.5419e+01 [bar]
-6.5924e+00  1.4328e+01  1.3060e+02 +/- 5.1831e+01 2.5419e+01 6.8072e+01 [bar]

    Block[  0]  5.232856e+07
    Block[  1]  5.111920e+07
    Block[  2]  5.105623e+07
    Block[  3]  5.199655e+07
    Block[  4]  5.060859e+07
    ---------------------------------------------------------------------------
    Ideal gas pressure   5.142183e+07 +/-  5.337917e-02 [Pa]
                         5.142183e+02 +/-  8.863826e+00 [bar]


    Block[  0] -3.837429e+07
    Block[  1] -3.619386e+07
    Block[  2] -3.854754e+07
    Block[  3] -3.654960e+07
    Block[  4] -3.894362e+07
    ---------------------------------------------------------------------------
    Excess pressure  -3.772178e+07 +/-  1.559146e+06 [Pa]
                     -3.772178e+02 +/-  1.559146e+01 [bar]


    Block[  0]  1.395427e+07
    Block[  1]  1.492534e+07
    Block[  2]  1.250870e+07
    Block[  3]  1.544694e+07
    Block[  4]  1.166497e+07
    ---------------------------------------------------------------------------
    Pressure average   1.370004e+07 +/-  1.980368e+06 [Pa]
                       1.370004e+02 +/-  1.980368e+01 [bar]


Enthalpy of adsorption
===============================================================================

No fluctuating components present.


Densities
===============================================================================

Component 0 (CO2)
    Block[  0] 200
    Block[  1] 200
    Block[  2] 200
    Block[  3] 200
    Block[  4] 200
    -----------------------------------------------------------------------
    Density average   2.000000e+02 +/-  0.000000e+00 [molecules]
    Density average   1.489786e-02 +/-  2.568015e-04 [molec/A^3]
    Density average   1.088463e+03 +/-  1.876236e+01 [kg.m⁻³]

