Compiler and run-time data
===============================================================================
RASPA 3.0.4

Random seed: 1233230596

Compiled as a 64-bits application
Compiler: gcc Ubuntu Clang 18.1.3 (1ubuntu1)
Compile Date = Mar 15 2025, Compile Time = 19:39:45

2025-06-03 09:35:50.124396
Simulation started on Tue, Jun 03
The start time was 09:35:00

Hostname:    c062
OS type:     Linux on x86_64
OS release:  6.8.0-58-generic
OS version:  #60-Ubuntu SMP PREEMPT_DYNAMIC Fri Mar 14 18:29:48 UTC 2025


Mutual consistent basic set of units:
===============================================================================

Unit of temperature: 1 [K]
Unit of length:      1e-10 [m]
Unit of time:        1e-12 [s]
Unit of mass:        1.6605402e-27 [kg]
Unit of charge:      1.60217733e-19 [C/particle]


Boltzmann constant (internal units):          0.8314464919307584 [-]
represents conversion from energy (internal units) to temperature (in Kelvin)

Derived units and their conversion factors:
===============================================================================

Unit of energy:                           1.6605402000000002e-23 [J]
Unit of energy:                           10.000008872307538 [J.mol⁻¹]
Unit of velocity:                         100 [m.s⁻¹]
Unit of force:                            1.6605402000000002e-13 [N]
Unit of diffusion:                        1.0000000000000002e-08 [m².s⁻¹]
Unit of acceleration:                     1.0000000000000002e-08 [m².s⁻¹]
Unit of torque:                           1.6605402000000002e-23 [N.m]
Unit of pressure:                         16605402 [Pa]
Unit of volume:                           1e-30 [m³]
Unit of density:                          1660.5402 [kg.m⁻³]
Unit of dynamic viscosity:                1.6605401999999997e-05 [N.s.m⁻²]
Unit of enthalpy:                         1.6605402000000002e-23 [J]
Unit of polarizability:                   1.5458657349975198e-35 [-]
Unit of Coulomb potential:                167101.08000665612 [K]
Unit of dielectric constant:              1.5458657349975193e-05 [s².C².kg⁻¹.m⁻³]
Unit of dipole moment:                    1.60217733e-29 [C.m]
Unit of Debye:                            4.803206799099162 [C.m]
Unit of electric potential:               0.00010364272224473431 [V]
Unit of electric field:                   1036427.222447343 [V.m⁻¹]
Unit of isothermal compressibility:       6.02213665167516e-08 [Pa⁻¹]
Unit of heat capacity:                    10.000008872307538 [J.mol⁻¹.K⁻¹]
Unit of volumetric expansion coefficient: 1 [K⁻¹]


Internal conversion factors:
===============================================================================

Energy (internal units) to Kelvin:      1.202724284692786 [-]
Kelvin to energy (internal units):      0.8314457542157567 [-]


System definitions
===============================================================================

Temperature:          250 [K]
Beta:                 0.0048108928702210625 [-]
Pressure:             1.6e+07 [Pa]
Helium void fraction: 1 [-]

Box:      30.00000   0.00000   0.00000
           0.00000  30.00000   0.00000
           0.00000   0.00000  30.00000
Lengths:  30.00000  30.00000  30.00000
Angles:   90.00000  90.00000  90.00000
Rectangular boundary conditions



Property measurement settings
===============================================================================




Pseudo-atoms
===============================================================================

  0 - C_co2    framework-atom: false
  1 - O_co2    framework-atom: false

  0 - C_co2    mass: 12.00000, charge:  0.70000
  1 - O_co2    mass: 15.99940, charge: -0.35000

  0 - C_co2    polarizability:  0.00000
  1 - O_co2    polarizability:  0.00000

  0 - J. J. Potoff et al., AIChE J. 2001, 47, 1676–1682.
  1 - J. J. Potoff et al., AIChE J. 2001, 47, 1676–1682.

Force field status
===============================================================================

Cutoff Framework-Molecule VDW:  10.00000 [Å]
Cutoff Molecule-Molecule VDW:   10.00000 [Å]
Cutoff Coulomb:                 10.00000 [Å]

Overlap-criteria VDW:           1.000000e+05 [K]

C_co2    - C_co2    Lennard-Jones p₀/kʙ:  27.00000 [K], p₁:  2.80000 [Å]
                                  shift:   0.00000 [K], tailcorrections: true
C_co2    - O_co2    Lennard-Jones p₀/kʙ:  46.18441 [K], p₁:  2.92500 [Å]
                                  shift:   0.00000 [K], tailcorrections: true
O_co2    - O_co2    Lennard-Jones p₀/kʙ:  79.00000 [K], p₁:  3.05000 [Å]
                                  shift:   0.00000 [K], tailcorrections: true

Ewald precision: 1e-06
Ewald alpha: 0.32079885109097883
Ewald k-vectors: 10 10 10


Component definitions
===============================================================================

Component 0 [CO2]

    Type: Adsorbate

    Critical temperature:  304.1282 [K]
    Critical pressure:     7377300 [Pa]
    Acentric factor:       0.22394 [-]

    Mol-fraction:                 1 [-]
    Swappable:                   false

    Mass:                         43.9988 [-]
    Bulk fluid density:           0 [-]
    Compressibility:              0 [-]
    Excess molecules:             0 [-]

    Number Of Atoms:    3
    CBMC starting bead: 0
      0: O_co2  position  0.00000 -0.00000  1.16000, charge -0.35000
      1: C_co2  position  0.00000 -0.00000  0.00000, charge  0.70000
      2: O_co2  position  0.00000 -0.00000 -1.16000, charge -0.35000
    Diagonalized inertia-vector:      43.05758528 43.05758528 0.00000000
    Translational degrees of freedom: 3
    Rotational degrees of freedom:    2
    Shape of the molecule is: 'Linear'
    Net-charge:        0.00000000 [e]

    Move probabilities:
    Translation:                   0.331126 [-]
    Random translation:            0.000000 [-]
    Rotation:                      0.331126 [-]
    Random rotation:               0.000000 [-]
    Volume change:                 0.006623 [-]
    Reinsertion (CBMC):            0.331126 [-]
    Identity change (CBMC):        0.000000 [-]
    Swap:                          0.000000 [-]
    Swap (CBMC):                   0.000000 [-]
    Swap (CFCMC):                  0.000000 [-]
    Swap (CB/CFCMC):               0.000000 [-]
    Gibbs volume:                  0.000000 [-]
    Gibbs swap (CBMC):             0.000000 [-]
    Gibbs swap (CFCMC):            0.000000 [-]
    Widom:                         0.000000 [-]
    Widom (CFCMC):                 0.000000 [-]
    Widom (CB/CFCMC):              0.000000 [-]
    Parallel tempering:            0.000000 [-]
    Hybrid MC:                     0.000000 [-]

    number of blocking-pockets: 0

    number of bonds: 0





Number of pseudo-atoms
===============================================================================

Component   0 (CO2)
-------------------------------------------------------------------------------
    index   0 (C_co2): 150 atoms
    index   1 (O_co2): 300 atoms

Total number of pseudo-atoms:
-------------------------------------------------------------------------------
    index   0 (C_co2): 150 atoms
    index   1 (O_co2): 300 atoms




Energy status Recomputed from scratch
===============================================================================

Total potential energy/kʙ       -4.667017e+04 [K]
    external field VDW/kʙ        0.000000e+00 [K]
    external field Real/kʙ       0.000000e+00 [K]
    framework-molecule VDW/kʙ    0.000000e+00 [K]
    framework-molecule Real/kʙ   0.000000e+00 [K]
    molecule-molecule VDW/kʙ    -3.201442e+04 [K]
    molecule-molecule Real/kʙ   -1.032970e+04 [K]
    Van der Waals (Tail)/kʙ     -2.673791e+03 [K]
    Ewald Fourier/kʙ             2.014403e+04 [K]
    Ewald self/kʙ               -3.334385e+06 [K]
    Ewald exclusion/kʙ           3.312589e+06 [K]
    intra VDW/kʙ                 0.000000e+00 [K]
    intra Coulombic/kʙ           0.000000e+00 [K]
    polarization/kʙ              0.000000e+00 [K]
    dU/dlambda VDW/kʙ            0.000000e+00 [K]
    dU/dlambda Real/kʙ           0.000000e+00 [K]
    dU/dlambda Ewald/kʙ          0.000000e+00 [K]





Initialization: Current cycle: 0 out of 1000
===============================================================================

Box:      30.00000   0.00000   0.00000
           0.00000  30.00000   0.00000
           0.00000   0.00000  30.00000
Lengths:  30.00000  30.00000  30.00000
Angles:   90.00000  90.00000  90.00000
Rectangular boundary conditions

net charge:   0.00000000

component   0 (CO2) lambda:  0 occupancy:  1 (1.000000)
    net charge:   0.00000000 [e]

Amount of molecules per component :
-------------------------------------------------------------------------------
Component 0 (CO2)
    molecules:         1.500000e+02 molecules
    number density:    5.555556e-03 molec/A^3
    density:           4.058984e+02 kg/m^3

Total potential energy/kʙ       -7.940153e+04 [K]
-------------------------------------------------------------------------------
    external field VDW/kʙ        0.000000e+00 [K]
    external field Real/kʙ       0.000000e+00 [K]
    framework-molecule VDW/kʙ    0.000000e+00 [K]
    framework-molecule Real/kʙ   0.000000e+00 [K]
    molecule-molecule VDW/kʙ    -6.478512e+04 [K]
    molecule-molecule Real/kʙ   -8.866442e+03 [K]
    Van der Waals (Tail)/kʙ     -2.673791e+03 [K]
    Ewald Fourier/kʙ             1.872011e+04 [K]
    Ewald self/kʙ               -3.334385e+06 [K]
    Ewald exclusion/kʙ           3.312589e+06 [K]
    intra VDW/kʙ                 0.000000e+00 [K]
    intra Coulombic/kʙ           0.000000e+00 [K]
    polarization/kʙ              0.000000e+00 [K]
    dU/dlambda VDW/kʙ            0.000000e+00 [K]
    dU/dlambda Real/kʙ           0.000000e+00 [K]
    dU/dlambda Ewald/kʙ          0.000000e+00 [K]


Initialization: Current cycle: 100 out of 1000
===============================================================================

Box:      26.14226   0.00000   0.00000
           0.00000  26.14226   0.00000
           0.00000   0.00000  26.14226
Lengths:  26.14226  26.14226  26.14226
Angles:   90.00000  90.00000  90.00000
Rectangular boundary conditions

net charge:   0.00000000

component   0 (CO2) lambda:  0 occupancy:  1 (1.000000)
    net charge:   0.00000000 [e]

Amount of molecules per component :
-------------------------------------------------------------------------------
Component 0 (CO2)
    molecules:         1.500000e+02 molecules
    number density:    8.395801e-03 molec/A^3
    density:           6.134116e+02 kg/m^3

Total potential energy/kʙ       -1.536583e+05 [K]
-------------------------------------------------------------------------------
    external field VDW/kʙ        0.000000e+00 [K]
    external field Real/kʙ       0.000000e+00 [K]
    framework-molecule VDW/kʙ    0.000000e+00 [K]
    framework-molecule Real/kʙ   0.000000e+00 [K]
    molecule-molecule VDW/kʙ    -1.053257e+05 [K]
    molecule-molecule Real/kʙ   -3.579323e+04 [K]
    Van der Waals (Tail)/kʙ     -4.040751e+03 [K]
    Ewald Fourier/kʙ             1.329772e+04 [K]
    Ewald self/kʙ               -3.334385e+06 [K]
    Ewald exclusion/kʙ           3.312589e+06 [K]
    intra VDW/kʙ                 0.000000e+00 [K]
    intra Coulombic/kʙ           0.000000e+00 [K]
    polarization/kʙ              0.000000e+00 [K]
    dU/dlambda VDW/kʙ            0.000000e+00 [K]
    dU/dlambda Real/kʙ           0.000000e+00 [K]
    dU/dlambda Ewald/kʙ          0.000000e+00 [K]


Initialization: Current cycle: 200 out of 1000
===============================================================================

Box:      24.39457   0.00000   0.00000
           0.00000  24.39457   0.00000
           0.00000   0.00000  24.39457
Lengths:  24.39457  24.39457  24.39457
Angles:   90.00000  90.00000  90.00000
Rectangular boundary conditions

net charge:   0.00000000

component   0 (CO2) lambda:  0 occupancy:  1 (1.000000)
    net charge:   0.00000000 [e]

Amount of molecules per component :
-------------------------------------------------------------------------------
Component 0 (CO2)
    molecules:         1.500000e+02 molecules
    number density:    1.033265e-02 molec/A^3
    density:           7.549208e+02 kg/m^3

Total potential energy/kʙ       -1.577808e+05 [K]
-------------------------------------------------------------------------------
    external field VDW/kʙ        0.000000e+00 [K]
    external field Real/kʙ       0.000000e+00 [K]
    framework-molecule VDW/kʙ    0.000000e+00 [K]
    framework-molecule Real/kʙ   0.000000e+00 [K]
    molecule-molecule VDW/kʙ    -1.141356e+05 [K]
    molecule-molecule Real/kʙ   -2.965322e+04 [K]
    Van der Waals (Tail)/kʙ     -4.972920e+03 [K]
    Ewald Fourier/kʙ             1.277718e+04 [K]
    Ewald self/kʙ               -3.334385e+06 [K]
    Ewald exclusion/kʙ           3.312589e+06 [K]
    intra VDW/kʙ                 0.000000e+00 [K]
    intra Coulombic/kʙ           0.000000e+00 [K]
    polarization/kʙ              0.000000e+00 [K]
    dU/dlambda VDW/kʙ            0.000000e+00 [K]
    dU/dlambda Real/kʙ           0.000000e+00 [K]
    dU/dlambda Ewald/kʙ          0.000000e+00 [K]


Initialization: Current cycle: 300 out of 1000
===============================================================================

Box:      22.87440   0.00000   0.00000
           0.00000  22.87440   0.00000
           0.00000   0.00000  22.87440
Lengths:  22.87440  22.87440  22.87440
Angles:   90.00000  90.00000  90.00000
Rectangular boundary conditions

net charge:   0.00000000

component   0 (CO2) lambda:  0 occupancy:  1 (1.000000)
    net charge:   0.00000000 [e]

Amount of molecules per component :
-------------------------------------------------------------------------------
Component 0 (CO2)
    molecules:         1.500000e+02 molecules
    number density:    1.253263e-02 molec/A^3
    density:           9.156556e+02 kg/m^3

Total potential energy/kʙ       -1.906483e+05 [K]
-------------------------------------------------------------------------------
    external field VDW/kʙ        0.000000e+00 [K]
    external field Real/kʙ       0.000000e+00 [K]
    framework-molecule VDW/kʙ    0.000000e+00 [K]
    framework-molecule Real/kʙ   0.000000e+00 [K]
    molecule-molecule VDW/kʙ    -1.387160e+05 [K]
    molecule-molecule Real/kʙ   -3.641968e+04 [K]
    Van der Waals (Tail)/kʙ     -6.031735e+03 [K]
    Ewald Fourier/kʙ             1.231545e+04 [K]
    Ewald self/kʙ               -3.334385e+06 [K]
    Ewald exclusion/kʙ           3.312589e+06 [K]
    intra VDW/kʙ                 0.000000e+00 [K]
    intra Coulombic/kʙ           0.000000e+00 [K]
    polarization/kʙ              0.000000e+00 [K]
    dU/dlambda VDW/kʙ            0.000000e+00 [K]
    dU/dlambda Real/kʙ           0.000000e+00 [K]
    dU/dlambda Ewald/kʙ          0.000000e+00 [K]


Initialization: Current cycle: 400 out of 1000
===============================================================================

Box:      22.14483   0.00000   0.00000
           0.00000  22.14483   0.00000
           0.00000   0.00000  22.14483
Lengths:  22.14483  22.14483  22.14483
Angles:   90.00000  90.00000  90.00000
Rectangular boundary conditions

net charge:   0.00000000

component   0 (CO2) lambda:  0 occupancy:  1 (1.000000)
    net charge:   0.00000000 [e]

Amount of molecules per component :
-------------------------------------------------------------------------------
Component 0 (CO2)
    molecules:         1.500000e+02 molecules
    number density:    1.381256e-02 molec/A^3
    density:           1.009169e+03 kg/m^3

Total potential energy/kʙ       -2.108084e+05 [K]
-------------------------------------------------------------------------------
    external field VDW/kʙ        0.000000e+00 [K]
    external field Real/kʙ       0.000000e+00 [K]
    framework-molecule VDW/kʙ    0.000000e+00 [K]
    framework-molecule Real/kʙ   0.000000e+00 [K]
    molecule-molecule VDW/kʙ    -1.508747e+05 [K]
    molecule-molecule Real/kʙ   -4.278961e+04 [K]
    Van der Waals (Tail)/kʙ     -6.647742e+03 [K]
    Ewald Fourier/kʙ             1.129992e+04 [K]
    Ewald self/kʙ               -3.334385e+06 [K]
    Ewald exclusion/kʙ           3.312589e+06 [K]
    intra VDW/kʙ                 0.000000e+00 [K]
    intra Coulombic/kʙ           0.000000e+00 [K]
    polarization/kʙ              0.000000e+00 [K]
    dU/dlambda VDW/kʙ            0.000000e+00 [K]
    dU/dlambda Real/kʙ           0.000000e+00 [K]
    dU/dlambda Ewald/kʙ          0.000000e+00 [K]


Initialization: Current cycle: 500 out of 1000
===============================================================================

Box:      21.83306   0.00000   0.00000
           0.00000  21.83306   0.00000
           0.00000   0.00000  21.83306
Lengths:  21.83306  21.83306  21.83306
Angles:   90.00000  90.00000  90.00000
Rectangular boundary conditions

net charge:   0.00000000

component   0 (CO2) lambda:  0 occupancy:  1 (1.000000)
    net charge:   0.00000000 [e]

Amount of molecules per component :
-------------------------------------------------------------------------------
Component 0 (CO2)
    molecules:         1.500000e+02 molecules
    number density:    1.441277e-02 molec/A^3
    density:           1.053021e+03 kg/m^3

Total potential energy/kʙ       -2.292663e+05 [K]
-------------------------------------------------------------------------------
    external field VDW/kʙ        0.000000e+00 [K]
    external field Real/kʙ       0.000000e+00 [K]
    framework-molecule VDW/kʙ    0.000000e+00 [K]
    framework-molecule Real/kʙ   0.000000e+00 [K]
    molecule-molecule VDW/kʙ    -1.594787e+05 [K]
    molecule-molecule Real/kʙ   -5.109487e+04 [K]
    Van der Waals (Tail)/kʙ     -6.936611e+03 [K]
    Ewald Fourier/kʙ             1.004024e+04 [K]
    Ewald self/kʙ               -3.334385e+06 [K]
    Ewald exclusion/kʙ           3.312589e+06 [K]
    intra VDW/kʙ                 0.000000e+00 [K]
    intra Coulombic/kʙ           0.000000e+00 [K]
    polarization/kʙ              0.000000e+00 [K]
    dU/dlambda VDW/kʙ            0.000000e+00 [K]
    dU/dlambda Real/kʙ           0.000000e+00 [K]
    dU/dlambda Ewald/kʙ          0.000000e+00 [K]


Initialization: Current cycle: 600 out of 1000
===============================================================================

Box:      21.57159   0.00000   0.00000
           0.00000  21.57159   0.00000
           0.00000   0.00000  21.57159
Lengths:  21.57159  21.57159  21.57159
Angles:   90.00000  90.00000  90.00000
Rectangular boundary conditions

net charge:   0.00000000

component   0 (CO2) lambda:  0 occupancy:  1 (1.000000)
    net charge:   0.00000000 [e]

Amount of molecules per component :
-------------------------------------------------------------------------------
Component 0 (CO2)
    molecules:         1.500000e+02 molecules
    number density:    1.494325e-02 molec/A^3
    density:           1.091779e+03 kg/m^3

Total potential energy/kʙ       -2.360722e+05 [K]
-------------------------------------------------------------------------------
    external field VDW/kʙ        0.000000e+00 [K]
    external field Real/kʙ       0.000000e+00 [K]
    framework-molecule VDW/kʙ    0.000000e+00 [K]
    framework-molecule Real/kʙ   0.000000e+00 [K]
    molecule-molecule VDW/kʙ    -1.665959e+05 [K]
    molecule-molecule Real/kʙ   -5.115487e+04 [K]
    Van der Waals (Tail)/kʙ     -7.191923e+03 [K]
    Ewald Fourier/kʙ             1.066686e+04 [K]
    Ewald self/kʙ               -3.334385e+06 [K]
    Ewald exclusion/kʙ           3.312589e+06 [K]
    intra VDW/kʙ                 0.000000e+00 [K]
    intra Coulombic/kʙ           0.000000e+00 [K]
    polarization/kʙ              0.000000e+00 [K]
    dU/dlambda VDW/kʙ            0.000000e+00 [K]
    dU/dlambda Real/kʙ           0.000000e+00 [K]
    dU/dlambda Ewald/kʙ          0.000000e+00 [K]


Initialization: Current cycle: 700 out of 1000
===============================================================================

Box:      21.68649   0.00000   0.00000
           0.00000  21.68649   0.00000
           0.00000   0.00000  21.68649
Lengths:  21.68649  21.68649  21.68649
Angles:   90.00000  90.00000  90.00000
Rectangular boundary conditions

net charge:   0.00000000

component   0 (CO2) lambda:  0 occupancy:  1 (1.000000)
    net charge:   0.00000000 [e]

Amount of molecules per component :
-------------------------------------------------------------------------------
Component 0 (CO2)
    molecules:         1.500000e+02 molecules
    number density:    1.470698e-02 molec/A^3
    density:           1.074517e+03 kg/m^3

Total potential energy/kʙ       -2.262020e+05 [K]
-------------------------------------------------------------------------------
    external field VDW/kʙ        0.000000e+00 [K]
    external field Real/kʙ       0.000000e+00 [K]
    framework-molecule VDW/kʙ    0.000000e+00 [K]
    framework-molecule Real/kʙ   0.000000e+00 [K]
    molecule-molecule VDW/kʙ    -1.655831e+05 [K]
    molecule-molecule Real/kʙ   -4.246998e+04 [K]
    Van der Waals (Tail)/kʙ     -7.078208e+03 [K]
    Ewald Fourier/kʙ             1.072556e+04 [K]
    Ewald self/kʙ               -3.334385e+06 [K]
    Ewald exclusion/kʙ           3.312589e+06 [K]
    intra VDW/kʙ                 0.000000e+00 [K]
    intra Coulombic/kʙ           0.000000e+00 [K]
    polarization/kʙ              0.000000e+00 [K]
    dU/dlambda VDW/kʙ            0.000000e+00 [K]
    dU/dlambda Real/kʙ           0.000000e+00 [K]
    dU/dlambda Ewald/kʙ          0.000000e+00 [K]


Initialization: Current cycle: 800 out of 1000
===============================================================================

Box:      21.60622   0.00000   0.00000
           0.00000  21.60622   0.00000
           0.00000   0.00000  21.60622
Lengths:  21.60622  21.60622  21.60622
Angles:   90.00000  90.00000  90.00000
Rectangular boundary conditions

net charge:   0.00000000

component   0 (CO2) lambda:  0 occupancy:  1 (1.000000)
    net charge:   0.00000000 [e]

Amount of molecules per component :
-------------------------------------------------------------------------------
Component 0 (CO2)
    molecules:         1.500000e+02 molecules
    number density:    1.487151e-02 molec/A^3
    density:           1.086538e+03 kg/m^3

Total potential energy/kʙ       -2.352844e+05 [K]
-------------------------------------------------------------------------------
    external field VDW/kʙ        0.000000e+00 [K]
    external field Real/kʙ       0.000000e+00 [K]
    framework-molecule VDW/kʙ    0.000000e+00 [K]
    framework-molecule Real/kʙ   0.000000e+00 [K]
    molecule-molecule VDW/kʙ    -1.713381e+05 [K]
    molecule-molecule Real/kʙ   -4.656169e+04 [K]
    Van der Waals (Tail)/kʙ     -7.157395e+03 [K]
    Ewald Fourier/kʙ             1.156912e+04 [K]
    Ewald self/kʙ               -3.334385e+06 [K]
    Ewald exclusion/kʙ           3.312589e+06 [K]
    intra VDW/kʙ                 0.000000e+00 [K]
    intra Coulombic/kʙ           0.000000e+00 [K]
    polarization/kʙ              0.000000e+00 [K]
    dU/dlambda VDW/kʙ            0.000000e+00 [K]
    dU/dlambda Real/kʙ           0.000000e+00 [K]
    dU/dlambda Ewald/kʙ          0.000000e+00 [K]


Initialization: Current cycle: 900 out of 1000
===============================================================================

Box:      21.95653   0.00000   0.00000
           0.00000  21.95653   0.00000
           0.00000   0.00000  21.95653
Lengths:  21.95653  21.95653  21.95653
Angles:   90.00000  90.00000  90.00000
Rectangular boundary conditions

net charge:   0.00000000

component   0 (CO2) lambda:  0 occupancy:  1 (1.000000)
    net charge:   0.00000000 [e]

Amount of molecules per component :
-------------------------------------------------------------------------------
Component 0 (CO2)
    molecules:         1.500000e+02 molecules
    number density:    1.417098e-02 molec/A^3
    density:           1.035356e+03 kg/m^3

Total potential energy/kʙ       -2.159195e+05 [K]
-------------------------------------------------------------------------------
    external field VDW/kʙ        0.000000e+00 [K]
    external field Real/kʙ       0.000000e+00 [K]
    framework-molecule VDW/kʙ    0.000000e+00 [K]
    framework-molecule Real/kʙ   0.000000e+00 [K]
    molecule-molecule VDW/kʙ    -1.588866e+05 [K]
    molecule-molecule Real/kʙ   -3.986429e+04 [K]
    Van der Waals (Tail)/kʙ     -6.820244e+03 [K]
    Ewald Fourier/kʙ             1.144787e+04 [K]
    Ewald self/kʙ               -3.334385e+06 [K]
    Ewald exclusion/kʙ           3.312589e+06 [K]
    intra VDW/kʙ                 0.000000e+00 [K]
    intra Coulombic/kʙ           0.000000e+00 [K]
    polarization/kʙ              0.000000e+00 [K]
    dU/dlambda VDW/kʙ            0.000000e+00 [K]
    dU/dlambda Real/kʙ           0.000000e+00 [K]
    dU/dlambda Ewald/kʙ          0.000000e+00 [K]


Current cycle: 0 out of 5000
===============================================================================

Box:      21.90520   0.00000   0.00000  Average:  21.90520   0.00000   0.00000
           0.00000  21.90520   0.00000             0.00000  21.90520   0.00000
           0.00000   0.00000  21.90520             0.00000   0.00000  21.90520
Lengths:  21.90520  21.90520  21.90520  Average:  21.90520  21.90520  21.90520
Angles:   90.00000  90.00000  90.00000  Average:  90.00000  90.00000  90.00000
Rectangular boundary conditions

net charge:   0.00000000

component 0 (CO2) lambda:  0 occupancy:  1 (1.000000)
    net charge:   0.00000000 [e]

Amount of molecules per component :
-------------------------------------------------------------------------------
Component 0 (CO2)
    molecules:      1.500000e+02 molecules  (1.500000e+02 +/- 0.000000e+00)
    number density: 1.427085e-02 molec./A^3 (1.427085e-02 +/- 0.000000e+00)
    density:        1.042652e+03 kg/m^3     (1.042652e+03 +/- 0.000000e+00)

Average pressure tensor: 
-------------------------------------------------------------------------------
 4.9258e+02  0.0000e+00  0.0000e+00 +/- 0.0000e+00 0.0000e+00 0.0000e+00 [bar]
 0.0000e+00  4.9258e+02  0.0000e+00 +/- 0.0000e+00 0.0000e+00 0.0000e+00 [bar]
 0.0000e+00  0.0000e+00  4.9258e+02 +/- 0.0000e+00 0.0000e+00 0.0000e+00 [bar]
Ideal-gas pressure:   4.925762e+02 +/ 0.000000e+00 [bar]
Excess pressure:      0.000000e+00 +/ 0.000000e+00 [bar]
Pressure:             4.925762e+02 +/ 0.000000e+00 [bar]

Total potential energy/kʙ  -2.260203e+05 (-2.260203e+05 +/- 0.000000e+00) [K]
-------------------------------------------------------------------------------
ExternalField-molecule
    Van der Waals/kʙ        0.000000e+00 ( 0.000000e+00 +/- 0.000000e+00) [K]
Framework-molecule
    Van der Waals/kʙ        0.000000e+00 ( 0.000000e+00 +/- 0.000000e+00) [K]
    Van der Waals (Tail)/kʙ 0.000000e+00 ( 0.000000e+00 +/- 0.000000e+00) [K]
    Coulombic Real/kʙ       0.000000e+00 ( 0.000000e+00 +/- 0.000000e+00) [K]
    Coulombic Fourier/kʙ    0.000000e+00 ( 0.000000e+00 +/- 0.000000e+00) [K]
Molecule-molecule
    Van der Waals/kʙ       -1.616729e+05 (-1.616729e+05 +/- 0.000000e+00) [K]
    Van der Waals (Tail)/kʙ-6.868306e+03 (-6.868306e+03 +/- 0.000000e+00) [K]
    Coulombic Real/kʙ      -4.575783e+04 (-4.575783e+04 +/- 0.000000e+00) [K]
    Coulombic Fourier/kʙ   -1.172124e+04 (-1.172124e+04 +/- 0.000000e+00) [K]
    Molecule Intra/kʙ       0.000000e+00 ( 0.000000e+00 +/- 0.000000e+00) [K]

Current cycle: 100 out of 5000
===============================================================================

Box:      21.74049   0.00000   0.00000  Average:  21.85336   0.00000   0.00000
           0.00000  21.74049   0.00000             0.00000  21.85336   0.00000
           0.00000   0.00000  21.74049             0.00000   0.00000  21.85336
Lengths:  21.74049  21.74049  21.74049  Average:  21.85336  21.85336  21.85336
Angles:   90.00000  90.00000  90.00000  Average:  90.00000  90.00000  90.00000
Rectangular boundary conditions

net charge:   0.00000000

component 0 (CO2) lambda:  0 occupancy:  1 (1.000000)
    net charge:   0.00000000 [e]

Amount of molecules per component :
-------------------------------------------------------------------------------
Component 0 (CO2)
    molecules:      1.500000e+02 molecules  (1.500000e+02 +/- 0.000000e+00)
    number density: 1.459767e-02 molec./A^3 (1.437468e-02 +/- 0.000000e+00)
    density:        1.066531e+03 kg/m^3     (1.050238e+03 +/- 0.000000e+00)

Average pressure tensor: 
-------------------------------------------------------------------------------
 3.5956e+02 -7.1430e+01 -3.7987e+01 +/- 0.0000e+00 0.0000e+00 0.0000e+00 [bar]
-7.1430e+01 -2.7095e+02  1.5857e+02 +/- 0.0000e+00 0.0000e+00 0.0000e+00 [bar]
-3.7987e+01  1.5857e+02  4.1140e+02 +/- 0.0000e+00 0.0000e+00 0.0000e+00 [bar]
Ideal-gas pressure:   4.961600e+02 +/ 0.000000e+00 [bar]
Excess pressure:     -3.294922e+02 +/ 0.000000e+00 [bar]
Pressure:             1.666678e+02 +/ 0.000000e+00 [bar]

Total potential energy/kʙ  -2.282423e+05 (-2.230212e+05 +/- 0.000000e+00) [K]
-------------------------------------------------------------------------------
ExternalField-molecule
    Van der Waals/kʙ        0.000000e+00 ( 0.000000e+00 +/- 0.000000e+00) [K]
Framework-molecule
    Van der Waals/kʙ        0.000000e+00 ( 0.000000e+00 +/- 0.000000e+00) [K]
    Van der Waals (Tail)/kʙ 0.000000e+00 ( 0.000000e+00 +/- 0.000000e+00) [K]
    Coulombic Real/kʙ       0.000000e+00 ( 0.000000e+00 +/- 0.000000e+00) [K]
    Coulombic Fourier/kʙ    0.000000e+00 ( 0.000000e+00 +/- 0.000000e+00) [K]
Molecule-molecule
    Van der Waals/kʙ       -1.655665e+05 (-1.603434e+05 +/- 0.000000e+00) [K]
    Van der Waals (Tail)/kʙ-7.025601e+03 (-6.907109e+03 +/- 0.000000e+00) [K]
    Coulombic Real/kʙ      -4.493162e+04 (-4.459361e+04 +/- 0.000000e+00) [K]
    Coulombic Fourier/kʙ   -1.071867e+04 (-1.117709e+04 +/- 0.000000e+00) [K]
    Molecule Intra/kʙ       0.000000e+00 ( 0.000000e+00 +/- 0.000000e+00) [K]

Current cycle: 200 out of 5000
===============================================================================

Box:      21.74009   0.00000   0.00000  Average:  21.79335   0.00000   0.00000
           0.00000  21.74009   0.00000             0.00000  21.79335   0.00000
           0.00000   0.00000  21.74009             0.00000   0.00000  21.79335
Lengths:  21.74009  21.74009  21.74009  Average:  21.79335  21.79335  21.79335
Angles:   90.00000  90.00000  90.00000  Average:  90.00000  90.00000  90.00000
Rectangular boundary conditions

net charge:   0.00000000

component 0 (CO2) lambda:  0 occupancy:  1 (1.000000)
    net charge:   0.00000000 [e]

Amount of molecules per component :
-------------------------------------------------------------------------------
Component 0 (CO2)
    molecules:      1.500000e+02 molecules  (1.500000e+02 +/- 0.000000e+00)
    number density: 1.459847e-02 molec./A^3 (1.449426e-02 +/- 0.000000e+00)
    density:        1.066589e+03 kg/m^3     (1.058975e+03 +/- 0.000000e+00)

Average pressure tensor: 
-------------------------------------------------------------------------------
 2.5500e+02 -2.0286e+01 -6.4997e+01 +/- 0.0000e+00 0.0000e+00 0.0000e+00 [bar]
-2.0286e+01 -2.4055e+02  7.4630e+01 +/- 0.0000e+00 0.0000e+00 0.0000e+00 [bar]
-6.4997e+01  7.4630e+01  3.9105e+02 +/- 0.0000e+00 0.0000e+00 0.0000e+00 [bar]
Ideal-gas pressure:   5.002875e+02 +/ 0.000000e+00 [bar]
Excess pressure:     -3.651223e+02 +/ 0.000000e+00 [bar]
Pressure:             1.351652e+02 +/ 0.000000e+00 [bar]

Total potential energy/kʙ  -2.286890e+05 (-2.257371e+05 +/- 0.000000e+00) [K]
-------------------------------------------------------------------------------
ExternalField-molecule
    Van der Waals/kʙ        0.000000e+00 ( 0.000000e+00 +/- 0.000000e+00) [K]
Framework-molecule
    Van der Waals/kʙ        0.000000e+00 ( 0.000000e+00 +/- 0.000000e+00) [K]
    Van der Waals (Tail)/kʙ 0.000000e+00 ( 0.000000e+00 +/- 0.000000e+00) [K]
    Coulombic Real/kʙ       0.000000e+00 ( 0.000000e+00 +/- 0.000000e+00) [K]
    Coulombic Fourier/kʙ    0.000000e+00 ( 0.000000e+00 +/- 0.000000e+00) [K]
Molecule-molecule
    Van der Waals/kʙ       -1.605198e+05 (-1.622171e+05 +/- 0.000000e+00) [K]
    Van der Waals (Tail)/kʙ-7.025987e+03 (-6.964473e+03 +/- 0.000000e+00) [K]
    Coulombic Real/kʙ      -4.882767e+04 (-4.522451e+04 +/- 0.000000e+00) [K]
    Coulombic Fourier/kʙ   -1.231555e+04 (-1.133104e+04 +/- 0.000000e+00) [K]
    Molecule Intra/kʙ       0.000000e+00 ( 0.000000e+00 +/- 0.000000e+00) [K]

Current cycle: 300 out of 5000
===============================================================================

Box:      21.69992   0.00000   0.00000  Average:  21.73261   0.00000   0.00000
           0.00000  21.69992   0.00000             0.00000  21.73261   0.00000
           0.00000   0.00000  21.69992             0.00000   0.00000  21.73261
Lengths:  21.69992  21.69992  21.69992  Average:  21.73261  21.73261  21.73261
Angles:   90.00000  90.00000  90.00000  Average:  90.00000  90.00000  90.00000
Rectangular boundary conditions

net charge:   0.00000000

component 0 (CO2) lambda:  0 occupancy:  1 (1.000000)
    net charge:   0.00000000 [e]

Amount of molecules per component :
-------------------------------------------------------------------------------
Component 0 (CO2)
    molecules:      1.500000e+02 molecules  (1.500000e+02 +/- 0.000000e+00)
    number density: 1.467968e-02 molec./A^3 (1.461715e-02 +/- 0.000000e+00)
    density:        1.072523e+03 kg/m^3     (1.067954e+03 +/- 0.000000e+00)

Average pressure tensor: 
-------------------------------------------------------------------------------
 2.6634e+02  1.2324e+01 -5.4122e+01 +/- 0.0000e+00 0.0000e+00 0.0000e+00 [bar]
 1.2324e+01 -1.0855e+02  1.9769e+01 +/- 0.0000e+00 0.0000e+00 0.0000e+00 [bar]
-5.4122e+01  1.9769e+01  2.7727e+02 +/- 0.0000e+00 0.0000e+00 0.0000e+00 [bar]
Ideal-gas pressure:   5.045294e+02 +/ 0.000000e+00 [bar]
Excess pressure:     -3.595112e+02 +/ 0.000000e+00 [bar]
Pressure:             1.450182e+02 +/ 0.000000e+00 [bar]

Total potential energy/kʙ  -2.236398e+05 (-2.285407e+05 +/- 0.000000e+00) [K]
-------------------------------------------------------------------------------
ExternalField-molecule
    Van der Waals/kʙ        0.000000e+00 ( 0.000000e+00 +/- 0.000000e+00) [K]
Framework-molecule
    Van der Waals/kʙ        0.000000e+00 ( 0.000000e+00 +/- 0.000000e+00) [K]
    Van der Waals (Tail)/kʙ 0.000000e+00 ( 0.000000e+00 +/- 0.000000e+00) [K]
    Coulombic Real/kʙ       0.000000e+00 ( 0.000000e+00 +/- 0.000000e+00) [K]
    Coulombic Fourier/kʙ    0.000000e+00 ( 0.000000e+00 +/- 0.000000e+00) [K]
Molecule-molecule
    Van der Waals/kʙ       -1.623860e+05 (-1.634732e+05 +/- 0.000000e+00) [K]
    Van der Waals (Tail)/kʙ-7.065072e+03 (-7.032393e+03 +/- 0.000000e+00) [K]
    Coulombic Real/kʙ      -4.326523e+04 (-4.647557e+04 +/- 0.000000e+00) [K]
    Coulombic Fourier/kʙ   -1.092342e+04 (-1.155954e+04 +/- 0.000000e+00) [K]
    Molecule Intra/kʙ       0.000000e+00 ( 0.000000e+00 +/- 0.000000e+00) [K]

Current cycle: 400 out of 5000
===============================================================================

Box:      21.85763   0.00000   0.00000  Average:  21.73626   0.00000   0.00000
           0.00000  21.85763   0.00000             0.00000  21.73626   0.00000
           0.00000   0.00000  21.85763             0.00000   0.00000  21.73626
Lengths:  21.85763  21.85763  21.85763  Average:  21.73626  21.73626  21.73626
Angles:   90.00000  90.00000  90.00000  Average:  90.00000  90.00000  90.00000
Rectangular boundary conditions

net charge:   0.00000000

component 0 (CO2) lambda:  0 occupancy:  1 (1.000000)
    net charge:   0.00000000 [e]

Amount of molecules per component :
-------------------------------------------------------------------------------
Component 0 (CO2)
    molecules:      1.500000e+02 molecules  (1.500000e+02 +/- 0.000000e+00)
    number density: 1.436422e-02 molec./A^3 (1.460948e-02 +/- 0.000000e+00)
    density:        1.049475e+03 kg/m^3     (1.067394e+03 +/- 0.000000e+00)

Average pressure tensor: 
-------------------------------------------------------------------------------
 2.3315e+02 -2.2194e+01 -1.9863e+01 +/- 0.0000e+00 0.0000e+00 0.0000e+00 [bar]
-2.2194e+01  1.8414e+01 -1.9912e+01 +/- 0.0000e+00 0.0000e+00 0.0000e+00 [bar]
-1.9863e+01 -1.9912e+01  1.9887e+02 +/- 0.0000e+00 0.0000e+00 0.0000e+00 [bar]
Ideal-gas pressure:   5.042647e+02 +/ 0.000000e+00 [bar]
Excess pressure:     -3.541181e+02 +/ 0.000000e+00 [bar]
Pressure:             1.501465e+02 +/ 0.000000e+00 [bar]

Total potential energy/kʙ  -2.267605e+05 (-2.282096e+05 +/- 0.000000e+00) [K]
-------------------------------------------------------------------------------
ExternalField-molecule
    Van der Waals/kʙ        0.000000e+00 ( 0.000000e+00 +/- 0.000000e+00) [K]
Framework-molecule
    Van der Waals/kʙ        0.000000e+00 ( 0.000000e+00 +/- 0.000000e+00) [K]
    Van der Waals (Tail)/kʙ 0.000000e+00 ( 0.000000e+00 +/- 0.000000e+00) [K]
    Coulombic Real/kʙ       0.000000e+00 ( 0.000000e+00 +/- 0.000000e+00) [K]
    Coulombic Fourier/kʙ    0.000000e+00 ( 0.000000e+00 +/- 0.000000e+00) [K]
Molecule-molecule
    Van der Waals/kʙ       -1.635911e+05 (-1.635769e+05 +/- 0.000000e+00) [K]
    Van der Waals (Tail)/kʙ-6.913246e+03 (-7.029730e+03 +/- 0.000000e+00) [K]
    Coulombic Real/kʙ      -4.529171e+04 (-4.619280e+04 +/- 0.000000e+00) [K]
    Coulombic Fourier/kʙ   -1.096443e+04 (-1.141019e+04 +/- 0.000000e+00) [K]
    Molecule Intra/kʙ       0.000000e+00 ( 0.000000e+00 +/- 0.000000e+00) [K]

Current cycle: 500 out of 5000
===============================================================================

Box:      21.78619   0.00000   0.00000  Average:  21.73819   0.00000   0.00000
           0.00000  21.78619   0.00000             0.00000  21.73819   0.00000
           0.00000   0.00000  21.78619             0.00000   0.00000  21.73819
Lengths:  21.78619  21.78619  21.78619  Average:  21.73819  21.73819  21.73819
Angles:   90.00000  90.00000  90.00000  Average:  90.00000  90.00000  90.00000
Rectangular boundary conditions

net charge:   0.00000000

component 0 (CO2) lambda:  0 occupancy:  1 (1.000000)
    net charge:   0.00000000 [e]

Amount of molecules per component :
-------------------------------------------------------------------------------
Component 0 (CO2)
    molecules:      1.500000e+02 molecules  (1.500000e+02 +/- 0.000000e+00)
    number density: 1.450600e-02 molec./A^3 (1.460549e-02 +/- 0.000000e+00)
    density:        1.059833e+03 kg/m^3     (1.067102e+03 +/- 0.000000e+00)

Average pressure tensor: 
-------------------------------------------------------------------------------
 2.2514e+02 -4.2772e+01 -1.5186e+01 +/- 0.0000e+00 0.0000e+00 0.0000e+00 [bar]
-4.2772e+01  8.7479e+01 -8.3520e+00 +/- 0.0000e+00 0.0000e+00 0.0000e+00 [bar]
-1.5186e+01 -8.3520e+00  1.3631e+02 +/- 0.0000e+00 0.0000e+00 0.0000e+00 [bar]
Ideal-gas pressure:   5.041269e+02 +/ 0.000000e+00 [bar]
Excess pressure:     -3.544811e+02 +/ 0.000000e+00 [bar]
Pressure:             1.496458e+02 +/ 0.000000e+00 [bar]

Total potential energy/kʙ  -2.266968e+05 (-2.282436e+05 +/- 0.000000e+00) [K]
-------------------------------------------------------------------------------
ExternalField-molecule
    Van der Waals/kʙ        0.000000e+00 ( 0.000000e+00 +/- 0.000000e+00) [K]
Framework-molecule
    Van der Waals/kʙ        0.000000e+00 ( 0.000000e+00 +/- 0.000000e+00) [K]
    Van der Waals (Tail)/kʙ 0.000000e+00 ( 0.000000e+00 +/- 0.000000e+00) [K]
    Coulombic Real/kʙ       0.000000e+00 ( 0.000000e+00 +/- 0.000000e+00) [K]
    Coulombic Fourier/kʙ    0.000000e+00 ( 0.000000e+00 +/- 0.000000e+00) [K]
Molecule-molecule
    Van der Waals/kʙ       -1.632216e+05 (-1.633926e+05 +/- 0.000000e+00) [K]
    Van der Waals (Tail)/kʙ-6.981482e+03 (-7.027774e+03 +/- 0.000000e+00) [K]
    Coulombic Real/kʙ      -4.506453e+04 (-4.642988e+04 +/- 0.000000e+00) [K]
    Coulombic Fourier/kʙ   -1.142920e+04 (-1.139329e+04 +/- 0.000000e+00) [K]
    Molecule Intra/kʙ       0.000000e+00 ( 0.000000e+00 +/- 0.000000e+00) [K]

Current cycle: 600 out of 5000
===============================================================================

Box:      21.42823   0.00000   0.00000  Average:  21.76157   0.00000   0.00000
           0.00000  21.42823   0.00000             0.00000  21.76157   0.00000
           0.00000   0.00000  21.42823             0.00000   0.00000  21.76157
Lengths:  21.42823  21.42823  21.42823  Average:  21.76157  21.76157  21.76157
Angles:   90.00000  90.00000  90.00000  Average:  90.00000  90.00000  90.00000
Rectangular boundary conditions

net charge:   0.00000000

component 0 (CO2) lambda:  0 occupancy:  1 (1.000000)
    net charge:   0.00000000 [e]

Amount of molecules per component :
-------------------------------------------------------------------------------
Component 0 (CO2)
    molecules:      1.500000e+02 molecules  (1.500000e+02 +/- 0.000000e+00)
    number density: 1.524518e-02 molec./A^3 (1.455905e-02 +/- 0.000000e+00)
    density:        1.113839e+03 kg/m^3     (1.063709e+03 +/- 0.000000e+00)

Average pressure tensor: 
-------------------------------------------------------------------------------
 2.6678e+02 -5.3136e+01 -3.3093e+01 +/- 0.0000e+00 0.0000e+00 0.0000e+00 [bar]
-5.3136e+01  1.4736e+02 -3.2524e+01 +/- 0.0000e+00 0.0000e+00 0.0000e+00 [bar]
-3.3093e+01 -3.2524e+01  1.1128e+02 +/- 0.0000e+00 0.0000e+00 0.0000e+00 [bar]
Ideal-gas pressure:   5.025240e+02 +/ 0.000000e+00 [bar]
Excess pressure:     -3.273810e+02 +/ 0.000000e+00 [bar]
Pressure:             1.751430e+02 +/ 0.000000e+00 [bar]

Total potential energy/kʙ  -2.328821e+05 (-2.272954e+05 +/- 0.000000e+00) [K]
-------------------------------------------------------------------------------
ExternalField-molecule
    Van der Waals/kʙ        0.000000e+00 ( 0.000000e+00 +/- 0.000000e+00) [K]
Framework-molecule
    Van der Waals/kʙ        0.000000e+00 ( 0.000000e+00 +/- 0.000000e+00) [K]
    Van der Waals (Tail)/kʙ 0.000000e+00 ( 0.000000e+00 +/- 0.000000e+00) [K]
    Coulombic Real/kʙ       0.000000e+00 ( 0.000000e+00 +/- 0.000000e+00) [K]
    Coulombic Fourier/kʙ    0.000000e+00 ( 0.000000e+00 +/- 0.000000e+00) [K]
Molecule-molecule
    Van der Waals/kʙ       -1.644982e+05 (-1.626830e+05 +/- 0.000000e+00) [K]
    Van der Waals (Tail)/kʙ-7.337236e+03 (-7.013398e+03 +/- 0.000000e+00) [K]
    Coulombic Real/kʙ      -4.865035e+04 (-4.619523e+04 +/- 0.000000e+00) [K]
    Coulombic Fourier/kʙ   -1.239628e+04 (-1.140384e+04 +/- 0.000000e+00) [K]
    Molecule Intra/kʙ       0.000000e+00 ( 0.000000e+00 +/- 0.000000e+00) [K]

Current cycle: 700 out of 5000
===============================================================================

Box:      21.64585   0.00000   0.00000  Average:  21.74923   0.00000   0.00000
           0.00000  21.64585   0.00000             0.00000  21.74923   0.00000
           0.00000   0.00000  21.64585             0.00000   0.00000  21.74923
Lengths:  21.64585  21.64585  21.64585  Average:  21.74923  21.74923  21.74923
Angles:   90.00000  90.00000  90.00000  Average:  90.00000  90.00000  90.00000
Rectangular boundary conditions

net charge:   0.00000000

component 0 (CO2) lambda:  0 occupancy:  1 (1.000000)
    net charge:   0.00000000 [e]

Amount of molecules per component :
-------------------------------------------------------------------------------
Component 0 (CO2)
    molecules:      1.500000e+02 molecules  (1.500000e+02 +/- 0.000000e+00)
    number density: 1.478998e-02 molec./A^3 (1.458384e-02 +/- 0.000000e+00)
    density:        1.080581e+03 kg/m^3     (1.065520e+03 +/- 0.000000e+00)

Average pressure tensor: 
-------------------------------------------------------------------------------
 2.6165e+02 -4.7257e+01 -1.9027e+01 +/- 0.0000e+00 0.0000e+00 0.0000e+00 [bar]
-4.7257e+01  1.8674e+02 -2.4138e+01 +/- 0.0000e+00 0.0000e+00 0.0000e+00 [bar]
-1.9027e+01 -2.4138e+01  1.3149e+02 +/- 0.0000e+00 0.0000e+00 0.0000e+00 [bar]
Ideal-gas pressure:   5.033797e+02 +/ 0.000000e+00 [bar]
Excess pressure:     -3.100879e+02 +/ 0.000000e+00 [bar]
Pressure:             1.932918e+02 +/ 0.000000e+00 [bar]

Total potential energy/kʙ  -2.300606e+05 (-2.281476e+05 +/- 0.000000e+00) [K]
-------------------------------------------------------------------------------
ExternalField-molecule
    Van der Waals/kʙ        0.000000e+00 ( 0.000000e+00 +/- 0.000000e+00) [K]
Framework-molecule
    Van der Waals/kʙ        0.000000e+00 ( 0.000000e+00 +/- 0.000000e+00) [K]
    Van der Waals (Tail)/kʙ 0.000000e+00 ( 0.000000e+00 +/- 0.000000e+00) [K]
    Coulombic Real/kʙ       0.000000e+00 ( 0.000000e+00 +/- 0.000000e+00) [K]
    Coulombic Fourier/kʙ    0.000000e+00 ( 0.000000e+00 +/- 0.000000e+00) [K]
Molecule-molecule
    Van der Waals/kʙ       -1.600474e+05 (-1.629324e+05 +/- 0.000000e+00) [K]
    Van der Waals (Tail)/kʙ-7.118155e+03 (-7.026294e+03 +/- 0.000000e+00) [K]
    Coulombic Real/kʙ      -5.077738e+04 (-4.670904e+04 +/- 0.000000e+00) [K]
    Coulombic Fourier/kʙ   -1.211768e+04 (-1.147990e+04 +/- 0.000000e+00) [K]
    Molecule Intra/kʙ       0.000000e+00 ( 0.000000e+00 +/- 0.000000e+00) [K]

Current cycle: 800 out of 5000
===============================================================================

Box:      21.59244   0.00000   0.00000  Average:  21.74054   0.00000   0.00000
           0.00000  21.59244   0.00000             0.00000  21.74054   0.00000
           0.00000   0.00000  21.59244             0.00000   0.00000  21.74054
Lengths:  21.59244  21.59244  21.59244  Average:  21.74054  21.74054  21.74054
Angles:   90.00000  90.00000  90.00000  Average:  90.00000  90.00000  90.00000
Rectangular boundary conditions

net charge:   0.00000000

component 0 (CO2) lambda:  0 occupancy:  1 (1.000000)
    net charge:   0.00000000 [e]

Amount of molecules per component :
-------------------------------------------------------------------------------
Component 0 (CO2)
    molecules:      1.500000e+02 molecules  (1.500000e+02 +/- 0.000000e+00)
    number density: 1.490000e-02 molec./A^3 (1.460107e-02 +/- 0.000000e+00)
    density:        1.088619e+03 kg/m^3     (1.066779e+03 +/- 0.000000e+00)

Average pressure tensor: 
-------------------------------------------------------------------------------
 2.7696e+02 -7.1143e+01 -2.4809e+01 +/- 0.0000e+00 0.0000e+00 0.0000e+00 [bar]
-7.1143e+01  1.9087e+02 -2.7044e+01 +/- 0.0000e+00 0.0000e+00 0.0000e+00 [bar]
-2.4809e+01 -2.7044e+01  1.3659e+02 +/- 0.0000e+00 0.0000e+00 0.0000e+00 [bar]
Ideal-gas pressure:   5.039742e+02 +/ 0.000000e+00 [bar]
Excess pressure:     -3.025030e+02 +/ 0.000000e+00 [bar]
Pressure:             2.014712e+02 +/ 0.000000e+00 [bar]

Total potential energy/kʙ  -2.371323e+05 (-2.291059e+05 +/- 0.000000e+00) [K]
-------------------------------------------------------------------------------
ExternalField-molecule
    Van der Waals/kʙ        0.000000e+00 ( 0.000000e+00 +/- 0.000000e+00) [K]
Framework-molecule
    Van der Waals/kʙ        0.000000e+00 ( 0.000000e+00 +/- 0.000000e+00) [K]
    Van der Waals (Tail)/kʙ 0.000000e+00 ( 0.000000e+00 +/- 0.000000e+00) [K]
    Coulombic Real/kʙ       0.000000e+00 ( 0.000000e+00 +/- 0.000000e+00) [K]
    Coulombic Fourier/kʙ    0.000000e+00 ( 0.000000e+00 +/- 0.000000e+00) [K]
Molecule-molecule
    Van der Waals/kʙ       -1.658348e+05 (-1.630957e+05 +/- 0.000000e+00) [K]
    Van der Waals (Tail)/kʙ-7.171106e+03 (-7.035432e+03 +/- 0.000000e+00) [K]
    Coulombic Real/kʙ      -5.198457e+04 (-4.740629e+04 +/- 0.000000e+00) [K]
    Coulombic Fourier/kʙ   -1.214176e+04 (-1.156850e+04 +/- 0.000000e+00) [K]
    Molecule Intra/kʙ       0.000000e+00 ( 0.000000e+00 +/- 0.000000e+00) [K]

Current cycle: 900 out of 5000
===============================================================================

Box:      21.66302   0.00000   0.00000  Average:  21.72281   0.00000   0.00000
           0.00000  21.66302   0.00000             0.00000  21.72281   0.00000
           0.00000   0.00000  21.66302             0.00000   0.00000  21.72281
Lengths:  21.66302  21.66302  21.66302  Average:  21.72281  21.72281  21.72281
Angles:   90.00000  90.00000  90.00000  Average:  90.00000  90.00000  90.00000
Rectangular boundary conditions

net charge:   0.00000000

component 0 (CO2) lambda:  0 occupancy:  1 (1.000000)
    net charge:   0.00000000 [e]

Amount of molecules per component :
-------------------------------------------------------------------------------
Component 0 (CO2)
    molecules:      1.500000e+02 molecules  (1.500000e+02 +/- 0.000000e+00)
    number density: 1.475484e-02 molec./A^3 (1.463718e-02 +/- 0.000000e+00)
    density:        1.078014e+03 kg/m^3     (1.069418e+03 +/- 0.000000e+00)

Average pressure tensor: 
-------------------------------------------------------------------------------
 2.6799e+02 -9.6725e+01 -1.9517e+01 +/- 0.0000e+00 0.0000e+00 0.0000e+00 [bar]
-9.6725e+01  1.9315e+02 -4.6422e+01 +/- 0.0000e+00 0.0000e+00 0.0000e+00 [bar]
-1.9517e+01 -4.6422e+01  1.4766e+02 +/- 0.0000e+00 0.0000e+00 0.0000e+00 [bar]
Ideal-gas pressure:   5.052208e+02 +/ 0.000000e+00 [bar]
Excess pressure:     -3.022855e+02 +/ 0.000000e+00 [bar]
Pressure:             2.029353e+02 +/ 0.000000e+00 [bar]

Total potential energy/kʙ  -2.327910e+05 (-2.298185e+05 +/- 0.000000e+00) [K]
-------------------------------------------------------------------------------
ExternalField-molecule
    Van der Waals/kʙ        0.000000e+00 ( 0.000000e+00 +/- 0.000000e+00) [K]
Framework-molecule
    Van der Waals/kʙ        0.000000e+00 ( 0.000000e+00 +/- 0.000000e+00) [K]
    Van der Waals (Tail)/kʙ 0.000000e+00 ( 0.000000e+00 +/- 0.000000e+00) [K]
    Coulombic Real/kʙ       0.000000e+00 ( 0.000000e+00 +/- 0.000000e+00) [K]
    Coulombic Fourier/kʙ    0.000000e+00 ( 0.000000e+00 +/- 0.000000e+00) [K]
Molecule-molecule
    Van der Waals/kʙ       -1.646317e+05 (-1.635158e+05 +/- 0.000000e+00) [K]
    Van der Waals (Tail)/kʙ-7.101243e+03 (-7.049240e+03 +/- 0.000000e+00) [K]
    Coulombic Real/kʙ      -4.885743e+04 (-4.764900e+04 +/- 0.000000e+00) [K]
    Coulombic Fourier/kʙ   -1.220070e+04 (-1.160448e+04 +/- 0.000000e+00) [K]
    Molecule Intra/kʙ       0.000000e+00 ( 0.000000e+00 +/- 0.000000e+00) [K]

Current cycle: 1000 out of 5000
===============================================================================

Box:      21.82480   0.00000   0.00000  Average:  21.71507   0.00000   0.00000
           0.00000  21.82480   0.00000             0.00000  21.71507   0.00000
           0.00000   0.00000  21.82480             0.00000   0.00000  21.71507
Lengths:  21.82480  21.82480  21.82480  Average:  21.71507  21.71507  21.71507
Angles:   90.00000  90.00000  90.00000  Average:  90.00000  90.00000  90.00000
Rectangular boundary conditions

net charge:   0.00000000

component 0 (CO2) lambda:  0 occupancy:  1 (1.000000)
    net charge:   0.00000000 [e]

Amount of molecules per component :
-------------------------------------------------------------------------------
Component 0 (CO2)
    molecules:      1.500000e+02 molecules  (1.500000e+02 +/- 0.000000e+00)
    number density: 1.442913e-02 molec./A^3 (1.465269e-02 +/- 0.000000e+00)
    density:        1.054217e+03 kg/m^3     (1.070550e+03 +/- 0.000000e+00)

Average pressure tensor: 
-------------------------------------------------------------------------------
 2.7981e+02 -1.0900e+02 -1.4865e+00 +/- 0.0000e+00 0.0000e+00 0.0000e+00 [bar]
-1.0900e+02  1.8124e+02 -6.0367e+01 +/- 0.0000e+00 0.0000e+00 0.0000e+00 [bar]
-1.4865e+00 -6.0367e+01  1.3267e+02 +/- 0.0000e+00 0.0000e+00 0.0000e+00 [bar]
Ideal-gas pressure:   5.057559e+02 +/ 0.000000e+00 [bar]
Excess pressure:     -3.078484e+02 +/ 0.000000e+00 [bar]
Pressure:             1.979075e+02 +/ 0.000000e+00 [bar]

Total potential energy/kʙ  -2.272735e+05 (-2.304020e+05 +/- 0.000000e+00) [K]
-------------------------------------------------------------------------------
ExternalField-molecule
    Van der Waals/kʙ        0.000000e+00 ( 0.000000e+00 +/- 0.000000e+00) [K]
Framework-molecule
    Van der Waals/kʙ        0.000000e+00 ( 0.000000e+00 +/- 0.000000e+00) [K]
    Van der Waals (Tail)/kʙ 0.000000e+00 ( 0.000000e+00 +/- 0.000000e+00) [K]
    Coulombic Real/kʙ       0.000000e+00 ( 0.000000e+00 +/- 0.000000e+00) [K]
    Coulombic Fourier/kʙ    0.000000e+00 ( 0.000000e+00 +/- 0.000000e+00) [K]
Molecule-molecule
    Van der Waals/kʙ       -1.660334e+05 (-1.638081e+05 +/- 0.000000e+00) [K]
    Van der Waals (Tail)/kʙ-6.944487e+03 (-7.054755e+03 +/- 0.000000e+00) [K]
    Coulombic Real/kʙ      -4.333478e+04 (-4.785341e+04 +/- 0.000000e+00) [K]
    Coulombic Fourier/kʙ   -1.096076e+04 (-1.168578e+04 +/- 0.000000e+00) [K]
    Molecule Intra/kʙ       0.000000e+00 ( 0.000000e+00 +/- 0.000000e+00) [K]

Current cycle: 1100 out of 5000
===============================================================================

Box:      21.64814   0.00000   0.00000  Average:  21.72156   0.00000   0.00000
           0.00000  21.64814   0.00000             0.00000  21.72156   0.00000
           0.00000   0.00000  21.64814             0.00000   0.00000  21.72156
Lengths:  21.64814  21.64814  21.64814  Average:  21.72156  21.72156  21.72156
Angles:   90.00000  90.00000  90.00000  Average:  90.00000  90.00000  90.00000
Rectangular boundary conditions

net charge:   0.00000000

component 0 (CO2) lambda:  0 occupancy:  1 (1.000000)
    net charge:   0.00000000 [e]

Amount of molecules per component :
-------------------------------------------------------------------------------
Component 0 (CO2)
    molecules:      1.500000e+02 molecules  (1.500000e+02 +/- 0.000000e+00)
    number density: 1.478528e-02 molec./A^3 (1.463937e-02 +/- 0.000000e+00)
    density:        1.080238e+03 kg/m^3     (1.069577e+03 +/- 0.000000e+00)

Average pressure tensor: 
-------------------------------------------------------------------------------
 2.8388e+02 -8.1798e+01  2.2168e+00 +/- 0.0000e+00 0.0000e+00 0.0000e+00 [bar]
-8.1798e+01  1.8253e+02 -6.3035e+01 +/- 0.0000e+00 0.0000e+00 0.0000e+00 [bar]
 2.2168e+00 -6.3035e+01  1.3273e+02 +/- 0.0000e+00 0.0000e+00 0.0000e+00 [bar]
Ideal-gas pressure:   5.052961e+02 +/ 0.000000e+00 [bar]
Excess pressure:     -3.055821e+02 +/ 0.000000e+00 [bar]
Pressure:             1.997140e+02 +/ 0.000000e+00 [bar]

Total potential energy/kʙ  -2.269457e+05 (-2.300355e+05 +/- 0.000000e+00) [K]
-------------------------------------------------------------------------------
ExternalField-molecule
    Van der Waals/kʙ        0.000000e+00 ( 0.000000e+00 +/- 0.000000e+00) [K]
Framework-molecule
    Van der Waals/kʙ        0.000000e+00 ( 0.000000e+00 +/- 0.000000e+00) [K]
    Van der Waals (Tail)/kʙ 0.000000e+00 ( 0.000000e+00 +/- 0.000000e+00) [K]
    Coulombic Real/kʙ       0.000000e+00 ( 0.000000e+00 +/- 0.000000e+00) [K]
    Coulombic Fourier/kʙ    0.000000e+00 ( 0.000000e+00 +/- 0.000000e+00) [K]
Molecule-molecule
    Van der Waals/kʙ       -1.661330e+05 (-1.637395e+05 +/- 0.000000e+00) [K]
    Van der Waals (Tail)/kʙ-7.115896e+03 (-7.049572e+03 +/- 0.000000e+00) [K]
    Coulombic Real/kʙ      -4.320346e+04 (-4.759149e+04 +/- 0.000000e+00) [K]
    Coulombic Fourier/kʙ   -1.049336e+04 (-1.165490e+04 +/- 0.000000e+00) [K]
    Molecule Intra/kʙ       0.000000e+00 ( 0.000000e+00 +/- 0.000000e+00) [K]

Current cycle: 1200 out of 5000
===============================================================================

Box:      21.78894   0.00000   0.00000  Average:  21.72744   0.00000   0.00000
           0.00000  21.78894   0.00000             0.00000  21.72744   0.00000
           0.00000   0.00000  21.78894             0.00000   0.00000  21.72744
Lengths:  21.78894  21.78894  21.78894  Average:  21.72744  21.72744  21.72744
Angles:   90.00000  90.00000  90.00000  Average:  90.00000  90.00000  90.00000
Rectangular boundary conditions

net charge:   0.00000000

component 0 (CO2) lambda:  0 occupancy:  1 (1.000000)
    net charge:   0.00000000 [e]

Amount of molecules per component :
-------------------------------------------------------------------------------
Component 0 (CO2)
    molecules:      1.500000e+02 molecules  (1.500000e+02 +/- 0.000000e+00)
    number density: 1.450050e-02 molec./A^3 (1.462745e-02 +/- 0.000000e+00)
    density:        1.059431e+03 kg/m^3     (1.068707e+03 +/- 0.000000e+00)

Average pressure tensor: 
-------------------------------------------------------------------------------
 2.5982e+02 -6.8603e+01  1.2568e+01 +/- 0.0000e+00 0.0000e+00 0.0000e+00 [bar]
-6.8603e+01  1.5997e+02 -6.4465e+01 +/- 0.0000e+00 0.0000e+00 0.0000e+00 [bar]
 1.2568e+01 -6.4465e+01  1.1029e+02 +/- 0.0000e+00 0.0000e+00 0.0000e+00 [bar]
Ideal-gas pressure:   5.048850e+02 +/ 0.000000e+00 [bar]
Excess pressure:     -3.281893e+02 +/ 0.000000e+00 [bar]
Pressure:             1.766956e+02 +/ 0.000000e+00 [bar]

Total potential energy/kʙ  -2.330198e+05 (-2.297180e+05 +/- 0.000000e+00) [K]
-------------------------------------------------------------------------------
ExternalField-molecule
    Van der Waals/kʙ        0.000000e+00 ( 0.000000e+00 +/- 0.000000e+00) [K]
Framework-molecule
    Van der Waals/kʙ        0.000000e+00 ( 0.000000e+00 +/- 0.000000e+00) [K]
    Van der Waals (Tail)/kʙ 0.000000e+00 ( 0.000000e+00 +/- 0.000000e+00) [K]
    Coulombic Real/kʙ       0.000000e+00 ( 0.000000e+00 +/- 0.000000e+00) [K]
    Coulombic Fourier/kʙ    0.000000e+00 ( 0.000000e+00 +/- 0.000000e+00) [K]
Molecule-molecule
    Van der Waals/kʙ       -1.617445e+05 (-1.638465e+05 +/- 0.000000e+00) [K]
    Van der Waals (Tail)/kʙ-6.978833e+03 (-7.041637e+03 +/- 0.000000e+00) [K]
    Coulombic Real/kʙ      -5.143746e+04 (-4.715733e+04 +/- 0.000000e+00) [K]
    Coulombic Fourier/kʙ   -1.285908e+04 (-1.167250e+04 +/- 0.000000e+00) [K]
    Molecule Intra/kʙ       0.000000e+00 ( 0.000000e+00 +/- 0.000000e+00) [K]

Current cycle: 1300 out of 5000
===============================================================================

Box:      21.87315   0.00000   0.00000  Average:  21.73547   0.00000   0.00000
           0.00000  21.87315   0.00000             0.00000  21.73547   0.00000
           0.00000   0.00000  21.87315             0.00000   0.00000  21.73547
Lengths:  21.87315  21.87315  21.87315  Average:  21.73547  21.73547  21.73547
Angles:   90.00000  90.00000  90.00000  Average:  90.00000  90.00000  90.00000
Rectangular boundary conditions

net charge:   0.00000000

component 0 (CO2) lambda:  0 occupancy:  1 (1.000000)
    net charge:   0.00000000 [e]

Amount of molecules per component :
-------------------------------------------------------------------------------
Component 0 (CO2)
    molecules:      1.500000e+02 molecules  (1.500000e+02 +/- 0.000000e+00)
    number density: 1.433367e-02 molec./A^3 (1.461127e-02 +/- 0.000000e+00)
    density:        1.047243e+03 kg/m^3     (1.067525e+03 +/- 0.000000e+00)

Average pressure tensor: 
-------------------------------------------------------------------------------
 2.3959e+02 -5.8163e+01 -2.7059e+00 +/- 0.0000e+00 0.0000e+00 0.0000e+00 [bar]
-5.8163e+01  1.4133e+02 -6.6856e+01 +/- 0.0000e+00 0.0000e+00 0.0000e+00 [bar]
-2.7059e+00 -6.6856e+01  1.3539e+02 +/- 0.0000e+00 0.0000e+00 0.0000e+00 [bar]
Ideal-gas pressure:   5.043264e+02 +/ 0.000000e+00 [bar]
Excess pressure:     -3.322245e+02 +/ 0.000000e+00 [bar]
Pressure:             1.721019e+02 +/ 0.000000e+00 [bar]

Total potential energy/kʙ  -2.205794e+05 (-2.294330e+05 +/- 0.000000e+00) [K]
-------------------------------------------------------------------------------
ExternalField-molecule
    Van der Waals/kʙ        0.000000e+00 ( 0.000000e+00 +/- 0.000000e+00) [K]
Framework-molecule
    Van der Waals/kʙ        0.000000e+00 ( 0.000000e+00 +/- 0.000000e+00) [K]
    Van der Waals (Tail)/kʙ 0.000000e+00 ( 0.000000e+00 +/- 0.000000e+00) [K]
    Coulombic Real/kʙ       0.000000e+00 ( 0.000000e+00 +/- 0.000000e+00) [K]
    Coulombic Fourier/kʙ    0.000000e+00 ( 0.000000e+00 +/- 0.000000e+00) [K]
Molecule-molecule
    Van der Waals/kʙ       -1.609185e+05 (-1.636965e+05 +/- 0.000000e+00) [K]
    Van der Waals (Tail)/kʙ-6.898544e+03 (-7.032000e+03 +/- 0.000000e+00) [K]
    Coulombic Real/kʙ      -4.258280e+04 (-4.705918e+04 +/- 0.000000e+00) [K]
    Coulombic Fourier/kʙ   -1.017953e+04 (-1.164530e+04 +/- 0.000000e+00) [K]
    Molecule Intra/kʙ       0.000000e+00 ( 0.000000e+00 +/- 0.000000e+00) [K]

Current cycle: 1400 out of 5000
===============================================================================

Box:      21.70200   0.00000   0.00000  Average:  21.74139   0.00000   0.00000
           0.00000  21.70200   0.00000             0.00000  21.74139   0.00000
           0.00000   0.00000  21.70200             0.00000   0.00000  21.74139
Lengths:  21.70200  21.70200  21.70200  Average:  21.74139  21.74139  21.74139
Angles:   90.00000  90.00000  90.00000  Average:  90.00000  90.00000  90.00000
Rectangular boundary conditions

net charge:   0.00000000

component 0 (CO2) lambda:  0 occupancy:  1 (1.000000)
    net charge:   0.00000000 [e]

Amount of molecules per component :
-------------------------------------------------------------------------------
Component 0 (CO2)
    molecules:      1.500000e+02 molecules  (1.500000e+02 +/- 0.000000e+00)
    number density: 1.467547e-02 molec./A^3 (1.459927e-02 +/- 0.000000e+00)
    density:        1.072215e+03 kg/m^3     (1.066648e+03 +/- 0.000000e+00)

Average pressure tensor: 
-------------------------------------------------------------------------------
 2.2710e+02 -4.5292e+01 -3.3760e+00 +/- 0.0000e+00 0.0000e+00 0.0000e+00 [bar]
-4.5292e+01  1.3863e+02 -7.7700e+01 +/- 0.0000e+00 0.0000e+00 0.0000e+00 [bar]
-3.3760e+00 -7.7700e+01  1.4558e+02 +/- 0.0000e+00 0.0000e+00 0.0000e+00 [bar]
Ideal-gas pressure:   5.039122e+02 +/ 0.000000e+00 [bar]
Excess pressure:     -3.334749e+02 +/ 0.000000e+00 [bar]
Pressure:             1.704374e+02 +/ 0.000000e+00 [bar]

Total potential energy/kʙ  -2.378211e+05 (-2.293169e+05 +/- 0.000000e+00) [K]
-------------------------------------------------------------------------------
ExternalField-molecule
    Van der Waals/kʙ        0.000000e+00 ( 0.000000e+00 +/- 0.000000e+00) [K]
Framework-molecule
    Van der Waals/kʙ        0.000000e+00 ( 0.000000e+00 +/- 0.000000e+00) [K]
    Van der Waals (Tail)/kʙ 0.000000e+00 ( 0.000000e+00 +/- 0.000000e+00) [K]
    Coulombic Real/kʙ       0.000000e+00 ( 0.000000e+00 +/- 0.000000e+00) [K]
    Coulombic Fourier/kʙ    0.000000e+00 ( 0.000000e+00 +/- 0.000000e+00) [K]
Molecule-molecule
    Van der Waals/kʙ       -1.647828e+05 (-1.636323e+05 +/- 0.000000e+00) [K]
    Van der Waals (Tail)/kʙ-7.063046e+03 (-7.026507e+03 +/- 0.000000e+00) [K]
    Coulombic Real/kʙ      -5.323008e+04 (-4.702095e+04 +/- 0.000000e+00) [K]
    Coulombic Fourier/kʙ   -1.274521e+04 (-1.163713e+04 +/- 0.000000e+00) [K]
    Molecule Intra/kʙ       0.000000e+00 ( 0.000000e+00 +/- 0.000000e+00) [K]

Current cycle: 1500 out of 5000
===============================================================================

Box:      21.87064   0.00000   0.00000  Average:  21.74176   0.00000   0.00000
           0.00000  21.87064   0.00000             0.00000  21.74176   0.00000
           0.00000   0.00000  21.87064             0.00000   0.00000  21.74176
Lengths:  21.87064  21.87064  21.87064  Average:  21.74176  21.74176  21.74176
Angles:   90.00000  90.00000  90.00000  Average:  90.00000  90.00000  90.00000
Rectangular boundary conditions

net charge:   0.00000000

component 0 (CO2) lambda:  0 occupancy:  1 (1.000000)
    net charge:   0.00000000 [e]

Amount of molecules per component :
-------------------------------------------------------------------------------
Component 0 (CO2)
    molecules:      1.500000e+02 molecules  (1.500000e+02 +/- 0.000000e+00)
    number density: 1.433860e-02 molec./A^3 (1.459834e-02 +/- 0.000000e+00)
    density:        1.047603e+03 kg/m^3     (1.066579e+03 +/- 0.000000e+00)

Average pressure tensor: 
-------------------------------------------------------------------------------
 2.0844e+02 -4.5336e+01 -7.8527e+00 +/- 0.0000e+00 0.0000e+00 0.0000e+00 [bar]
-4.5336e+01  1.4626e+02 -7.0274e+01 +/- 0.0000e+00 0.0000e+00 0.0000e+00 [bar]
-7.8527e+00 -7.0274e+01  1.4368e+02 +/- 0.0000e+00 0.0000e+00 0.0000e+00 [bar]
Ideal-gas pressure:   5.038800e+02 +/ 0.000000e+00 [bar]
Excess pressure:     -3.377548e+02 +/ 0.000000e+00 [bar]
Pressure:             1.661251e+02 +/ 0.000000e+00 [bar]

Total potential energy/kʙ  -2.259906e+05 (-2.293025e+05 +/- 0.000000e+00) [K]
-------------------------------------------------------------------------------
ExternalField-molecule
    Van der Waals/kʙ        0.000000e+00 ( 0.000000e+00 +/- 0.000000e+00) [K]
Framework-molecule
    Van der Waals/kʙ        0.000000e+00 ( 0.000000e+00 +/- 0.000000e+00) [K]
    Van der Waals (Tail)/kʙ 0.000000e+00 ( 0.000000e+00 +/- 0.000000e+00) [K]
    Coulombic Real/kʙ       0.000000e+00 ( 0.000000e+00 +/- 0.000000e+00) [K]
    Coulombic Fourier/kʙ    0.000000e+00 ( 0.000000e+00 +/- 0.000000e+00) [K]
Molecule-molecule
    Van der Waals/kʙ       -1.613820e+05 (-1.636520e+05 +/- 0.000000e+00) [K]
    Van der Waals (Tail)/kʙ-6.900916e+03 (-7.025390e+03 +/- 0.000000e+00) [K]
    Coulombic Real/kʙ      -4.574045e+04 (-4.699591e+04 +/- 0.000000e+00) [K]
    Coulombic Fourier/kʙ   -1.196723e+04 (-1.162921e+04 +/- 0.000000e+00) [K]
    Molecule Intra/kʙ       0.000000e+00 ( 0.000000e+00 +/- 0.000000e+00) [K]

Current cycle: 1600 out of 5000
===============================================================================

Box:      21.68995   0.00000   0.00000  Average:  21.73999   0.00000   0.00000
           0.00000  21.68995   0.00000             0.00000  21.73999   0.00000
           0.00000   0.00000  21.68995             0.00000   0.00000  21.73999
Lengths:  21.68995  21.68995  21.68995  Average:  21.73999  21.73999  21.73999
Angles:   90.00000  90.00000  90.00000  Average:  90.00000  90.00000  90.00000
Rectangular boundary conditions

net charge:   0.00000000

component 0 (CO2) lambda:  0 occupancy:  1 (1.000000)
    net charge:   0.00000000 [e]

Amount of molecules per component :
-------------------------------------------------------------------------------
Component 0 (CO2)
    molecules:      1.500000e+02 molecules  (1.500000e+02 +/- 0.000000e+00)
    number density: 1.469995e-02 molec./A^3 (1.460182e-02 +/- 0.000000e+00)
    density:        1.074003e+03 kg/m^3     (1.066834e+03 +/- 0.000000e+00)

Average pressure tensor: 
-------------------------------------------------------------------------------
 2.0068e+02 -3.3165e+01 -1.3336e+01 +/- 0.0000e+00 0.0000e+00 0.0000e+00 [bar]
-3.3165e+01  1.4915e+02 -6.6763e+01 +/- 0.0000e+00 0.0000e+00 0.0000e+00 [bar]
-1.3336e+01 -6.6763e+01  1.5185e+02 +/- 0.0000e+00 0.0000e+00 0.0000e+00 [bar]
Ideal-gas pressure:   5.040001e+02 +/ 0.000000e+00 [bar]
Excess pressure:     -3.367728e+02 +/ 0.000000e+00 [bar]
Pressure:             1.672273e+02 +/ 0.000000e+00 [bar]

Total potential energy/kʙ  -2.348794e+05 (-2.293848e+05 +/- 0.000000e+00) [K]
-------------------------------------------------------------------------------
ExternalField-molecule
    Van der Waals/kʙ        0.000000e+00 ( 0.000000e+00 +/- 0.000000e+00) [K]
Framework-molecule
    Van der Waals/kʙ        0.000000e+00 ( 0.000000e+00 +/- 0.000000e+00) [K]
    Van der Waals (Tail)/kʙ 0.000000e+00 ( 0.000000e+00 +/- 0.000000e+00) [K]
    Coulombic Real/kʙ       0.000000e+00 ( 0.000000e+00 +/- 0.000000e+00) [K]
    Coulombic Fourier/kʙ    0.000000e+00 ( 0.000000e+00 +/- 0.000000e+00) [K]
Molecule-molecule
    Van der Waals/kʙ       -1.657665e+05 (-1.636544e+05 +/- 0.000000e+00) [K]
    Van der Waals (Tail)/kʙ-7.074826e+03 (-7.028411e+03 +/- 0.000000e+00) [K]
    Coulombic Real/kʙ      -5.014866e+04 (-4.704296e+04 +/- 0.000000e+00) [K]
    Coulombic Fourier/kʙ   -1.188942e+04 (-1.165904e+04 +/- 0.000000e+00) [K]
    Molecule Intra/kʙ       0.000000e+00 ( 0.000000e+00 +/- 0.000000e+00) [K]

Current cycle: 1700 out of 5000
===============================================================================

Box:      21.76496   0.00000   0.00000  Average:  21.73476   0.00000   0.00000
           0.00000  21.76496   0.00000             0.00000  21.73476   0.00000
           0.00000   0.00000  21.76496             0.00000   0.00000  21.73476
Lengths:  21.76496  21.76496  21.76496  Average:  21.73476  21.73476  21.73476
Angles:   90.00000  90.00000  90.00000  Average:  90.00000  90.00000  90.00000
Rectangular boundary conditions

net charge:   0.00000000

component 0 (CO2) lambda:  0 occupancy:  1 (1.000000)
    net charge:   0.00000000 [e]

Amount of molecules per component :
-------------------------------------------------------------------------------
Component 0 (CO2)
    molecules:      1.500000e+02 molecules  (1.500000e+02 +/- 0.000000e+00)
    number density: 1.454848e-02 molec./A^3 (1.461238e-02 +/- 0.000000e+00)
    density:        1.062937e+03 kg/m^3     (1.067605e+03 +/- 0.000000e+00)

Average pressure tensor: 
-------------------------------------------------------------------------------
 1.9579e+02 -3.8475e+01 -4.8533e+00 +/- 0.0000e+00 0.0000e+00 0.0000e+00 [bar]
-3.8475e+01  1.4379e+02 -5.0124e+01 +/- 0.0000e+00 0.0000e+00 0.0000e+00 [bar]
-4.8533e+00 -5.0124e+01  1.7332e+02 +/- 0.0000e+00 0.0000e+00 0.0000e+00 [bar]
Ideal-gas pressure:   5.043647e+02 +/ 0.000000e+00 [bar]
Excess pressure:     -3.333974e+02 +/ 0.000000e+00 [bar]
Pressure:             1.709672e+02 +/ 0.000000e+00 [bar]

Total potential energy/kʙ  -2.278914e+05 (-2.296093e+05 +/- 0.000000e+00) [K]
-------------------------------------------------------------------------------
ExternalField-molecule
    Van der Waals/kʙ        0.000000e+00 ( 0.000000e+00 +/- 0.000000e+00) [K]
Framework-molecule
    Van der Waals/kʙ        0.000000e+00 ( 0.000000e+00 +/- 0.000000e+00) [K]
    Van der Waals (Tail)/kʙ 0.000000e+00 ( 0.000000e+00 +/- 0.000000e+00) [K]
    Coulombic Real/kʙ       0.000000e+00 ( 0.000000e+00 +/- 0.000000e+00) [K]
    Coulombic Fourier/kʙ    0.000000e+00 ( 0.000000e+00 +/- 0.000000e+00) [K]
Molecule-molecule
    Van der Waals/kʙ       -1.619968e+05 (-1.637162e+05 +/- 0.000000e+00) [K]
    Van der Waals (Tail)/kʙ-7.001927e+03 (-7.034401e+03 +/- 0.000000e+00) [K]
    Coulombic Real/kʙ      -4.658495e+04 (-4.716908e+04 +/- 0.000000e+00) [K]
    Coulombic Fourier/kʙ   -1.230774e+04 (-1.168966e+04 +/- 0.000000e+00) [K]
    Molecule Intra/kʙ       0.000000e+00 ( 0.000000e+00 +/- 0.000000e+00) [K]

Current cycle: 1800 out of 5000
===============================================================================

Box:      21.95765   0.00000   0.00000  Average:  21.74014   0.00000   0.00000
           0.00000  21.95765   0.00000             0.00000  21.74014   0.00000
           0.00000   0.00000  21.95765             0.00000   0.00000  21.74014
Lengths:  21.95765  21.95765  21.95765  Average:  21.74014  21.74014  21.74014
Angles:   90.00000  90.00000  90.00000  Average:  90.00000  90.00000  90.00000
Rectangular boundary conditions

net charge:   0.00000000

component 0 (CO2) lambda:  0 occupancy:  1 (1.000000)
    net charge:   0.00000000 [e]

Amount of molecules per component :
-------------------------------------------------------------------------------
Component 0 (CO2)
    molecules:      1.500000e+02 molecules  (1.500000e+02 +/- 0.000000e+00)
    number density: 1.416882e-02 molec./A^3 (1.460176e-02 +/- 0.000000e+00)
    density:        1.035198e+03 kg/m^3     (1.066829e+03 +/- 0.000000e+00)

Average pressure tensor: 
-------------------------------------------------------------------------------
 1.8802e+02 -3.2343e+01  7.2129e+00 +/- 0.0000e+00 0.0000e+00 0.0000e+00 [bar]
-3.2343e+01  1.4096e+02 -5.1368e+01 +/- 0.0000e+00 0.0000e+00 0.0000e+00 [bar]
 7.2129e+00 -5.1368e+01  1.9075e+02 +/- 0.0000e+00 0.0000e+00 0.0000e+00 [bar]
Ideal-gas pressure:   5.039980e+02 +/ 0.000000e+00 [bar]
Excess pressure:     -3.307582e+02 +/ 0.000000e+00 [bar]
Pressure:             1.732398e+02 +/ 0.000000e+00 [bar]

Total potential energy/kʙ  -2.290023e+05 (-2.294936e+05 +/- 0.000000e+00) [K]
-------------------------------------------------------------------------------
ExternalField-molecule
    Van der Waals/kʙ        0.000000e+00 ( 0.000000e+00 +/- 0.000000e+00) [K]
Framework-molecule
    Van der Waals/kʙ        0.000000e+00 ( 0.000000e+00 +/- 0.000000e+00) [K]
    Van der Waals (Tail)/kʙ 0.000000e+00 ( 0.000000e+00 +/- 0.000000e+00) [K]
    Coulombic Real/kʙ       0.000000e+00 ( 0.000000e+00 +/- 0.000000e+00) [K]
    Coulombic Fourier/kʙ    0.000000e+00 ( 0.000000e+00 +/- 0.000000e+00) [K]
Molecule-molecule
    Van der Waals/kʙ       -1.603494e+05 (-1.635325e+05 +/- 0.000000e+00) [K]
    Van der Waals (Tail)/kʙ-6.819204e+03 (-7.028858e+03 +/- 0.000000e+00) [K]
    Coulombic Real/kʙ      -5.034956e+04 (-4.723741e+04 +/- 0.000000e+00) [K]
    Coulombic Fourier/kʙ   -1.148417e+04 (-1.169483e+04 +/- 0.000000e+00) [K]
    Molecule Intra/kʙ       0.000000e+00 ( 0.000000e+00 +/- 0.000000e+00) [K]

Current cycle: 1900 out of 5000
===============================================================================

Box:      21.74219   0.00000   0.00000  Average:  21.74474   0.00000   0.00000
           0.00000  21.74219   0.00000             0.00000  21.74474   0.00000
           0.00000   0.00000  21.74219             0.00000   0.00000  21.74474
Lengths:  21.74219  21.74219  21.74219  Average:  21.74474  21.74474  21.74474
Angles:   90.00000  90.00000  90.00000  Average:  90.00000  90.00000  90.00000
Rectangular boundary conditions

net charge:   0.00000000

component 0 (CO2) lambda:  0 occupancy:  1 (1.000000)
    net charge:   0.00000000 [e]

Amount of molecules per component :
-------------------------------------------------------------------------------
Component 0 (CO2)
    molecules:      1.500000e+02 molecules  (1.500000e+02 +/- 0.000000e+00)
    number density: 1.459424e-02 molec./A^3 (1.459254e-02 +/- 0.000000e+00)
    density:        1.066281e+03 kg/m^3     (1.066156e+03 +/- 0.000000e+00)

Average pressure tensor: 
-------------------------------------------------------------------------------
 1.9307e+02 -2.9972e+01  9.4288e+00 +/- 0.0000e+00 0.0000e+00 0.0000e+00 [bar]
-2.9972e+01  1.3381e+02 -4.3085e+01 +/- 0.0000e+00 0.0000e+00 0.0000e+00 [bar]
 9.4288e+00 -4.3085e+01  1.7479e+02 +/- 0.0000e+00 0.0000e+00 0.0000e+00 [bar]
Ideal-gas pressure:   5.036798e+02 +/ 0.000000e+00 [bar]
Excess pressure:     -3.364526e+02 +/ 0.000000e+00 [bar]
Pressure:             1.672272e+02 +/ 0.000000e+00 [bar]

Total potential energy/kʙ  -2.316803e+05 (-2.293852e+05 +/- 0.000000e+00) [K]
-------------------------------------------------------------------------------
ExternalField-molecule
    Van der Waals/kʙ        0.000000e+00 ( 0.000000e+00 +/- 0.000000e+00) [K]
Framework-molecule
    Van der Waals/kʙ        0.000000e+00 ( 0.000000e+00 +/- 0.000000e+00) [K]
    Van der Waals (Tail)/kʙ 0.000000e+00 ( 0.000000e+00 +/- 0.000000e+00) [K]
    Coulombic Real/kʙ       0.000000e+00 ( 0.000000e+00 +/- 0.000000e+00) [K]
    Coulombic Fourier/kʙ    0.000000e+00 ( 0.000000e+00 +/- 0.000000e+00) [K]
Molecule-molecule
    Van der Waals/kʙ       -1.672607e+05 (-1.634089e+05 +/- 0.000000e+00) [K]
    Van der Waals (Tail)/kʙ-7.023953e+03 (-7.023838e+03 +/- 0.000000e+00) [K]
    Coulombic Real/kʙ      -4.581199e+04 (-4.725033e+04 +/- 0.000000e+00) [K]
    Coulombic Fourier/kʙ   -1.158369e+04 (-1.170217e+04 +/- 0.000000e+00) [K]
    Molecule Intra/kʙ       0.000000e+00 ( 0.000000e+00 +/- 0.000000e+00) [K]

Current cycle: 2000 out of 5000
===============================================================================

Box:      21.79648   0.00000   0.00000  Average:  21.74478   0.00000   0.00000
           0.00000  21.79648   0.00000             0.00000  21.74478   0.00000
           0.00000   0.00000  21.79648             0.00000   0.00000  21.74478
Lengths:  21.79648  21.79648  21.79648  Average:  21.74478  21.74478  21.74478
Angles:   90.00000  90.00000  90.00000  Average:  90.00000  90.00000  90.00000
Rectangular boundary conditions

net charge:   0.00000000

component 0 (CO2) lambda:  0 occupancy:  1 (1.000000)
    net charge:   0.00000000 [e]

Amount of molecules per component :
-------------------------------------------------------------------------------
Component 0 (CO2)
    molecules:      1.500000e+02 molecules  (1.500000e+02 +/- 0.000000e+00)
    number density: 1.448545e-02 molec./A^3 (1.459233e-02 +/- 0.000000e+00)
    density:        1.058332e+03 kg/m^3     (1.066141e+03 +/- 0.000000e+00)

Average pressure tensor: 
-------------------------------------------------------------------------------
 2.0562e+02 -4.1074e+01  1.3616e+01 +/- 0.0000e+00 0.0000e+00 0.0000e+00 [bar]
-4.1074e+01  1.3960e+02 -3.0090e+01 +/- 0.0000e+00 0.0000e+00 0.0000e+00 [bar]
 1.3616e+01 -3.0090e+01  1.6349e+02 +/- 0.0000e+00 0.0000e+00 0.0000e+00 [bar]
Ideal-gas pressure:   5.036728e+02 +/ 0.000000e+00 [bar]
Excess pressure:     -3.341006e+02 +/ 0.000000e+00 [bar]
Pressure:             1.695722e+02 +/ 0.000000e+00 [bar]

Total potential energy/kʙ  -2.255244e+05 (-2.293823e+05 +/- 0.000000e+00) [K]
-------------------------------------------------------------------------------
ExternalField-molecule
    Van der Waals/kʙ        0.000000e+00 ( 0.000000e+00 +/- 0.000000e+00) [K]
Framework-molecule
    Van der Waals/kʙ        0.000000e+00 ( 0.000000e+00 +/- 0.000000e+00) [K]
    Van der Waals (Tail)/kʙ 0.000000e+00 ( 0.000000e+00 +/- 0.000000e+00) [K]
    Coulombic Real/kʙ       0.000000e+00 ( 0.000000e+00 +/- 0.000000e+00) [K]
    Coulombic Fourier/kʙ    0.000000e+00 ( 0.000000e+00 +/- 0.000000e+00) [K]
Molecule-molecule
    Van der Waals/kʙ       -1.616632e+05 (-1.634752e+05 +/- 0.000000e+00) [K]
    Van der Waals (Tail)/kʙ-6.971590e+03 (-7.023113e+03 +/- 0.000000e+00) [K]
    Coulombic Real/kʙ      -4.569476e+04 (-4.719851e+04 +/- 0.000000e+00) [K]
    Coulombic Fourier/kʙ   -1.119481e+04 (-1.168550e+04 +/- 0.000000e+00) [K]
    Molecule Intra/kʙ       0.000000e+00 ( 0.000000e+00 +/- 0.000000e+00) [K]

Current cycle: 2100 out of 5000
===============================================================================

Box:      21.79986   0.00000   0.00000  Average:  21.74535   0.00000   0.00000
           0.00000  21.79986   0.00000             0.00000  21.74535   0.00000
           0.00000   0.00000  21.79986             0.00000   0.00000  21.74535
Lengths:  21.79986  21.79986  21.79986  Average:  21.74535  21.74535  21.74535
Angles:   90.00000  90.00000  90.00000  Average:  90.00000  90.00000  90.00000
Rectangular boundary conditions

net charge:   0.00000000

component 0 (CO2) lambda:  0 occupancy:  1 (1.000000)
    net charge:   0.00000000 [e]

Amount of molecules per component :
-------------------------------------------------------------------------------
Component 0 (CO2)
    molecules:      1.500000e+02 molecules  (1.500000e+02 +/- 0.000000e+00)
    number density: 1.447871e-02 molec./A^3 (1.459109e-02 +/- 0.000000e+00)
    density:        1.057839e+03 kg/m^3     (1.066050e+03 +/- 0.000000e+00)

Average pressure tensor: 
-------------------------------------------------------------------------------
 2.2597e+02 -3.2951e+01  2.8164e+01 +/- 0.0000e+00 0.0000e+00 0.0000e+00 [bar]
-3.2951e+01  1.2144e+02 -2.8222e+01 +/- 0.0000e+00 0.0000e+00 0.0000e+00 [bar]
 2.8164e+01 -2.8222e+01  1.6344e+02 +/- 0.0000e+00 0.0000e+00 0.0000e+00 [bar]
Ideal-gas pressure:   5.036300e+02 +/ 0.000000e+00 [bar]
Excess pressure:     -3.333469e+02 +/ 0.000000e+00 [bar]
Pressure:             1.702830e+02 +/ 0.000000e+00 [bar]

Total potential energy/kʙ  -2.233725e+05 (-2.294796e+05 +/- 0.000000e+00) [K]
-------------------------------------------------------------------------------
ExternalField-molecule
    Van der Waals/kʙ        0.000000e+00 ( 0.000000e+00 +/- 0.000000e+00) [K]
Framework-molecule
    Van der Waals/kʙ        0.000000e+00 ( 0.000000e+00 +/- 0.000000e+00) [K]
    Van der Waals (Tail)/kʙ 0.000000e+00 ( 0.000000e+00 +/- 0.000000e+00) [K]
[...]
    Coulombic Fourier/kʙ    0.000000e+00 ( 0.000000e+00 +/- 0.000000e+00) [K]
Molecule-molecule
    Van der Waals/kʙ       -1.628142e+05 (-1.650351e+05 +/- 1.977704e+03) [K]
    Van der Waals (Tail)/kʙ-7.012383e+03 (-7.075333e+03 +/- 7.543176e+01) [K]
    Coulombic Real/kʙ      -4.793556e+04 (-4.795353e+04 +/- 1.171837e+03) [K]
    Coulombic Fourier/kʙ   -1.226668e+04 (-1.167165e+04 +/- 1.791685e+02) [K]
    Molecule Intra/kʙ       0.000000e+00 ( 0.000000e+00 +/- 0.000000e+00) [K]

Current cycle: 4700 out of 5000
===============================================================================

Box:      21.65259   0.00000   0.00000  Average:  21.69256   0.00000   0.00000
           0.00000  21.65259   0.00000             0.00000  21.69256   0.00000
           0.00000   0.00000  21.65259             0.00000   0.00000  21.69256
Lengths:  21.65259  21.65259  21.65259  Average:  21.69256  21.69256  21.69256
Angles:   90.00000  90.00000  90.00000  Average:  90.00000  90.00000  90.00000
Rectangular boundary conditions

net charge:   0.00000000

component 0 (CO2) lambda:  0 occupancy:  1 (1.000000)
    net charge:   0.00000000 [e]

Amount of molecules per component :
-------------------------------------------------------------------------------
Component 0 (CO2)
    molecules:      1.500000e+02 molecules  (1.500000e+02 +/- 0.000000e+00)
    number density: 1.477617e-02 molec./A^3 (1.469979e-02 +/- 1.462044e-04)
    density:        1.079573e+03 kg/m^3     (1.073991e+03 +/- 1.068195e+01)

Average pressure tensor: 
-------------------------------------------------------------------------------
 1.8367e+02 -1.4834e+01  1.3020e+01 +/- 1.2265e+02 8.8774e+01 5.1579e+01 [bar]
-1.4834e+01  1.2081e+02 -2.1906e+01 +/- 8.8774e+01 8.5151e+01 8.0414e+01 [bar]
 1.3020e+01 -2.1906e+01  1.4632e+02 +/- 5.1579e+01 8.0414e+01 3.5579e+01 [bar]
Ideal-gas pressure:   5.073816e+02 +/ 5.046430e+00 [bar]
Excess pressure:     -3.571157e+02 +/ 6.410747e+01 [bar]
Pressure:             1.502659e+02 +/ 6.422555e+01 [bar]

Total potential energy/kʙ  -2.324418e+05 (-2.317200e+05 +/- 3.035054e+03) [K]
-------------------------------------------------------------------------------
ExternalField-molecule
    Van der Waals/kʙ        0.000000e+00 ( 0.000000e+00 +/- 0.000000e+00) [K]
Framework-molecule
    Van der Waals/kʙ        0.000000e+00 ( 0.000000e+00 +/- 0.000000e+00) [K]
    Van der Waals (Tail)/kʙ 0.000000e+00 ( 0.000000e+00 +/- 0.000000e+00) [K]
    Coulombic Real/kʙ       0.000000e+00 ( 0.000000e+00 +/- 0.000000e+00) [K]
    Coulombic Fourier/kʙ    0.000000e+00 ( 0.000000e+00 +/- 0.000000e+00) [K]
Molecule-molecule
    Van der Waals/kʙ       -1.660379e+05 (-1.650363e+05 +/- 1.926965e+03) [K]
    Van der Waals (Tail)/kʙ-7.111512e+03 (-7.075229e+03 +/- 7.503220e+01) [K]
    Coulombic Real/kʙ      -4.671301e+04 (-4.794048e+04 +/- 1.169049e+03) [K]
    Coulombic Fourier/kʙ   -1.257931e+04 (-1.166800e+04 +/- 1.703006e+02) [K]
    Molecule Intra/kʙ       0.000000e+00 ( 0.000000e+00 +/- 0.000000e+00) [K]

Current cycle: 4800 out of 5000
===============================================================================

Box:      21.57292   0.00000   0.00000  Average:  21.68924   0.00000   0.00000
           0.00000  21.57292   0.00000             0.00000  21.68924   0.00000
           0.00000   0.00000  21.57292             0.00000   0.00000  21.68924
Lengths:  21.57292  21.57292  21.57292  Average:  21.68924  21.68924  21.68924
Angles:   90.00000  90.00000  90.00000  Average:  90.00000  90.00000  90.00000
Rectangular boundary conditions

net charge:   0.00000000

component 0 (CO2) lambda:  0 occupancy:  1 (1.000000)
    net charge:   0.00000000 [e]

Amount of molecules per component :
-------------------------------------------------------------------------------
Component 0 (CO2)
    molecules:      1.500000e+02 molecules  (1.500000e+02 +/- 0.000000e+00)
    number density: 1.494047e-02 molec./A^3 (1.470656e-02 +/- 1.517234e-04)
    density:        1.091576e+03 kg/m^3     (1.074487e+03 +/- 1.108517e+01)

Average pressure tensor: 
-------------------------------------------------------------------------------
 1.8237e+02 -1.1091e+01  1.1385e+01 +/- 1.2255e+02 9.2860e+01 5.2554e+01 [bar]
-1.1091e+01  1.1908e+02 -1.9760e+01 +/- 9.2860e+01 8.2981e+01 7.9782e+01 [bar]
 1.1385e+01 -1.9760e+01  1.5291e+02 +/- 5.2554e+01 7.9782e+01 3.3472e+01 [bar]
Ideal-gas pressure:   5.076156e+02 +/ 5.236925e+00 [bar]
Excess pressure:     -3.561647e+02 +/ 5.865075e+01 [bar]
Pressure:             1.514509e+02 +/ 5.854972e+01 [bar]

Total potential energy/kʙ  -2.322899e+05 (-2.318083e+05 +/- 3.091321e+03) [K]
-------------------------------------------------------------------------------
ExternalField-molecule
    Van der Waals/kʙ        0.000000e+00 ( 0.000000e+00 +/- 0.000000e+00) [K]
Framework-molecule
    Van der Waals/kʙ        0.000000e+00 ( 0.000000e+00 +/- 0.000000e+00) [K]
    Van der Waals (Tail)/kʙ 0.000000e+00 ( 0.000000e+00 +/- 0.000000e+00) [K]
    Coulombic Real/kʙ       0.000000e+00 ( 0.000000e+00 +/- 0.000000e+00) [K]
    Coulombic Fourier/kʙ    0.000000e+00 ( 0.000000e+00 +/- 0.000000e+00) [K]
Molecule-molecule
    Van der Waals/kʙ       -1.654005e+05 (-1.651227e+05 +/- 2.018105e+03) [K]
    Van der Waals (Tail)/kʙ-7.190584e+03 (-7.078499e+03 +/- 7.715183e+01) [K]
    Coulombic Real/kʙ      -4.732974e+04 (-4.793709e+04 +/- 1.168828e+03) [K]
    Coulombic Fourier/kʙ   -1.236915e+04 (-1.167004e+04 +/- 1.458594e+02) [K]
    Molecule Intra/kʙ       0.000000e+00 ( 0.000000e+00 +/- 0.000000e+00) [K]

Current cycle: 4900 out of 5000
===============================================================================

Box:      21.64251   0.00000   0.00000  Average:  21.68623   0.00000   0.00000
           0.00000  21.64251   0.00000             0.00000  21.68623   0.00000
           0.00000   0.00000  21.64251             0.00000   0.00000  21.68623
Lengths:  21.64251  21.64251  21.64251  Average:  21.68623  21.68623  21.68623
Angles:   90.00000  90.00000  90.00000  Average:  90.00000  90.00000  90.00000
Rectangular boundary conditions

net charge:   0.00000000

component 0 (CO2) lambda:  0 occupancy:  1 (1.000000)
    net charge:   0.00000000 [e]

Amount of molecules per component :
-------------------------------------------------------------------------------
Component 0 (CO2)
    molecules:      1.500000e+02 molecules  (1.500000e+02 +/- 0.000000e+00)
    number density: 1.479682e-02 molec./A^3 (1.471268e-02 +/- 1.569317e-04)
    density:        1.081081e+03 kg/m^3     (1.074934e+03 +/- 1.146570e+01)

Average pressure tensor: 
-------------------------------------------------------------------------------
 1.8755e+02 -1.1284e+01  1.1193e+01 +/- 1.1730e+02 8.9568e+01 5.0313e+01 [bar]
-1.1284e+01  1.1505e+02 -2.1007e+01 +/- 8.9568e+01 8.7635e+01 7.0667e+01 [bar]
 1.1193e+01 -2.1007e+01  1.5729e+02 +/- 5.0313e+01 7.0667e+01 3.8621e+01 [bar]
Ideal-gas pressure:   5.078266e+02 +/ 5.416695e+00 [bar]
Excess pressure:     -3.545276e+02 +/ 5.372071e+01 [bar]
Pressure:             1.532991e+02 +/ 5.366962e+01 [bar]

Total potential energy/kʙ  -2.331582e+05 (-2.318321e+05 +/- 3.087563e+03) [K]
-------------------------------------------------------------------------------
ExternalField-molecule
    Van der Waals/kʙ        0.000000e+00 ( 0.000000e+00 +/- 0.000000e+00) [K]
Framework-molecule
    Van der Waals/kʙ        0.000000e+00 ( 0.000000e+00 +/- 0.000000e+00) [K]
    Van der Waals (Tail)/kʙ 0.000000e+00 ( 0.000000e+00 +/- 0.000000e+00) [K]
    Coulombic Real/kʙ       0.000000e+00 ( 0.000000e+00 +/- 0.000000e+00) [K]
    Coulombic Fourier/kʙ    0.000000e+00 ( 0.000000e+00 +/- 0.000000e+00) [K]
Molecule-molecule
    Van der Waals/kʙ       -1.699684e+05 (-1.651825e+05 +/- 2.061836e+03) [K]
    Van der Waals (Tail)/kʙ-7.121447e+03 (-7.081054e+03 +/- 7.892183e+01) [K]
    Coulombic Real/kʙ      -4.447348e+04 (-4.790039e+04 +/- 1.173010e+03) [K]
    Coulombic Fourier/kʙ   -1.159487e+04 (-1.166813e+04 +/- 1.384348e+02) [K]
    Molecule Intra/kʙ       0.000000e+00 ( 0.000000e+00 +/- 0.000000e+00) [K]


Energy statistics             |  Energy [K]   | Recomputed [K]|  Drift [K]    |
===============================================================================
Total potential energy/kʙ     | -2.364413e+05 | -2.364413e+05 | -9.702639e-10 |
    external field VDW/kʙ     |  0.000000e+00 |  0.000000e+00 |  0.000000e+00 |
    external field Real/kʙ    |  0.000000e+00 |  0.000000e+00 |  0.000000e+00 |
    framework-molecule VDW/kʙ |  0.000000e+00 |  0.000000e+00 |  0.000000e+00 |
    framework-molecule Real/kʙ|  0.000000e+00 |  0.000000e+00 |  0.000000e+00 |
    molecule-molecule VDW/kʙ  | -1.699735e+05 | -1.699735e+05 | -1.120124e-09 |
    molecule-molecule Real/kʙ | -4.732859e+04 | -4.732859e+04 |  1.225136e-10 |
    Van der Waals (Tail)/kʙ   | -7.148728e+03 | -7.148728e+03 |  0.000000e+00 |
    Ewald Fourier/kʙ          |  9.805817e+03 |  9.805817e+03 |  2.734678e-11 |
    Ewald self/kʙ             | -3.334385e+06 | -3.334385e+06 |  0.000000e+00 |
    Ewald exclusion/kʙ        |  3.312589e+06 |  3.312589e+06 |  0.000000e+00 |
    intra VDW/kʙ              |  0.000000e+00 |  0.000000e+00 |  0.000000e+00 |
    intra Coulombic/kʙ        |  0.000000e+00 |  0.000000e+00 |  0.000000e+00 |
    polarization/kʙ           |  0.000000e+00 |  0.000000e+00 |  0.000000e+00 |
    dU/dlambda VDW/kʙ         |  0.000000e+00 |  0.000000e+00 |  0.000000e+00 |
    dU/dlambda Real/kʙ        |  0.000000e+00 |  0.000000e+00 |  0.000000e+00 |
    dU/dlambda Ewald/kʙ       |  0.000000e+00 |  0.000000e+00 |  0.000000e+00 |
-------------------------------------------------------------------------------


Monte-Carlo moves statistics
===============================================================================

    Volume change        all:                5046
    Volume change        total:              5046
    Volume change        constructed:        5046
    Volume change        accepted:           2932
    Volume change        fraction:       0.581054
    Volume change        max-change:     0.025000

Component 0 [CO2]
    Reinsertion (CBMC)   all:              248234
    Reinsertion (CBMC)   total:            248234
    Reinsertion (CBMC)   constructed:      218635
    Reinsertion (CBMC)   accepted:           3103
    Reinsertion (CBMC)   fraction:       0.012500
    Reinsertion (CBMC)   max-change:     0.000000

    Translation          all:              249248
    Translation          total:             83160      83197      82891
    Translation          constructed:       83160      83196      82891
    Translation          accepted:          42811      35540      40130
    Translation          fraction:       0.514803   0.427179   0.484130
    Translation          max-change:     0.625000   0.818182   0.684211

    Rotation             all:              247472
    Rotation             total:             82303      82563      82606
    Rotation             constructed:       82303      82563      82603
    Rotation             accepted:          45599      40073      34596
    Rotation             fraction:       0.554038   0.485363   0.418807
    Rotation             max-change:     0.571429   0.730435   0.862745



Production run counting of the MC moves summed over systems and components
===============================================================================

Volume change                          5046 (0.6728 [%])
Reinsertion (CBMC)                   248234 (33.0979 [%])
Translation                          249248 (33.2331 [%])
Rotation                             247472 (32.9963 [%])

Production count MC-steps:           750000 [-]
               All summed:           750000 [-]
               difference:                0 [-]


Production run CPU timings of the MC moves
===============================================================================

Component 0 CO2

Rotation                             35.196787 [s]
    Ewald                            18.753662 [s]
    ExternalField-Molecule            0.008592 [s]
    Framework-Molecule                0.008823 [s]
    Molecule-Molecule                14.929509 [s]
    Overhead                          1.496201 [s]

Reinsertion (CBMC)                  117.586902 [s]
    Ewald                            17.842969 [s]
    NonEwald                         99.488033 [s]
    Overhead                          0.255900 [s]

Translation                          35.414644 [s]
    Ewald                            18.815520 [s]
    ExternalField-Molecule            0.008220 [s]
    Framework-Molecule                0.015600 [s]
    Molecule-Molecule                15.104527 [s]
    Overhead                          1.470777 [s]



Volume change                         23.334975 [s]
    Ewald                             11.051085 [s]
    NonEwald                          11.471040 [s]
    Tail                               0.645627 [s]

Property sampling                     0.258260 [s]
Energy/pressure sampling:             5.205717 [s]


Production run CPU timings of the MC moves summed over systems and components
===============================================================================


Translation                          35.414644 [s]
    Ewald                            18.815520 [s]
    ExternalField-Molecule            0.008220 [s]
    Framework-Molecule                0.015600 [s]
    Molecule-Molecule                15.104527 [s]
    Overhead                          1.470777 [s]

Rotation                             35.196787 [s]
    Ewald                            18.753662 [s]
    ExternalField-Molecule            0.008592 [s]
    Framework-Molecule                0.008823 [s]
    Molecule-Molecule                14.929509 [s]
    Overhead                          1.496201 [s]

Volume change                        23.334975 [s]
    Ewald                            11.051085 [s]
    NonEwald                         11.471040 [s]
    Tail                              0.645627 [s]
    Overhead                          0.167223 [s]

Reinsertion (CBMC)                  117.586902 [s]
    Ewald                            17.842969 [s]
    NonEwald                         99.488033 [s]
    Overhead                          0.255900 [s]

Property sampling:                    0.258260 [s]
Energy/pressure sampling:             5.205717 [s]

Production simulation time:         217.558527 [s]
                All summed:         216.997285 [s]
                  Overhead:           0.561242 [s]


Initalization simulation time:       40.361676 [s]
Equilibration simulation time:        0.000000 [s]
Production simulation time:         217.558527 [s]
Total simulation time:              257.920203 [s]


Energy averages and statistics:
===============================================================================

Framework-molecule energy:
-------------------------------------------------------------------------------



Framework-molecule energy contributions per energy type:
-------------------------------------------------------------------------------



Inter-molecular energy:
-------------------------------------------------------------------------------

    Inter-molecular energy/kʙ 0-0 [CO2-CO2]:
    ---------------------------------------------------------------------------
        Block[  0] -2.304333e+05
        Block[  1] -2.283699e+05
        Block[  2] -2.347537e+05
        Block[  3] -2.325879e+05
        Block[  4] -2.330741e+05
        -----------------------------------------------------------------------
        Average  -2.318438e+05 +/-  3.078245e+03 [K]



Inter-molecular energy contributions per energy type:
-------------------------------------------------------------------------------

    Van der Waals energy/kʙ 0-0 [CO2-CO2]:
    ---------------------------------------------------------------------------
        Block[  0] -1.637858e+05
        Block[  1] -1.631827e+05
        Block[  2] -1.667144e+05
        Block[  3] -1.655874e+05
        Block[  4] -1.669143e+05
        -----------------------------------------------------------------------
        Average  -1.652369e+05 +/-  2.099953e+03 [K]

    VDW Tail-Correction energy/kʙ 0-0 [CO2-CO2]:
    ---------------------------------------------------------------------------
        Block[  0] -7.055858e+03
        Block[  1] -6.990883e+03
        Block[  2] -7.157083e+03
        Block[  3] -7.083860e+03
        Block[  4] -7.126613e+03
        -----------------------------------------------------------------------
        Average  -7.082859e+03 +/-  8.000734e+01 [K]

    Coulomb Real energy/kʙ 0-0 [CO2-CO2]:
    ---------------------------------------------------------------------------
        Block[  0] -4.789860e+04
        Block[  1] -4.651347e+04
        Block[  2] -4.914517e+04
        Block[  3] -4.817726e+04
        Block[  4] -4.756491e+04
        -----------------------------------------------------------------------
        Average  -4.785988e+04 +/-  1.186564e+03 [K]

    Coulomb Fourier energy/kʙ 0-0 [CO2-CO2]:
    ---------------------------------------------------------------------------
        Block[  0] -1.169303e+04
        Block[  1] -1.168287e+04
        Block[  2] -1.173709e+04
        Block[  3] -1.173940e+04
        Block[  4] -1.146823e+04
        -----------------------------------------------------------------------
        Average  -1.166412e+04 +/-  1.395665e+02 [K]


Total energy/kʙ
-------------------------------------------------------------------------------
    Block[  0] -2.304333e+05
    Block[  1] -2.283699e+05
    Block[  2] -2.347537e+05
    Block[  3] -2.325879e+05
    Block[  4] -2.330741e+05
    ---------------------------------------------------------------------------
    Average  -2.318438e+05 +/-  3.078245e+03 [K]

Pressure averages and statistics:
===============================================================================

Average pressure tensor: 
-------------------------------------------------------------------------------
 1.8480e+02 -1.1372e+01  1.0033e+01 +/- 1.1854e+02 8.7317e+01 5.0535e+01 [bar]
-1.1372e+01  1.1109e+02 -2.3173e+01 +/- 8.7317e+01 9.1808e+01 6.1624e+01 [bar]
 1.0033e+01 -2.3173e+01  1.6503e+02 +/- 5.0535e+01 6.1624e+01 5.2131e+01 [bar]

    Block[  0]  5.057637e+07
    Block[  1]  5.015856e+07
    Block[  2]  5.124243e+07
    Block[  3]  5.084970e+07
    Block[  4]  5.115243e+07
    ---------------------------------------------------------------------------
    Ideal gas pressure   5.079590e+07 +/-  3.309453e-02 [Pa]
                         5.079590e+02 +/-  5.495480e+00 [bar]


    Block[  0] -3.078399e+07
    Block[  1] -3.602955e+07
    Block[  2] -3.141818e+07
    Block[  3] -3.980354e+07
    Block[  4] -3.912461e+07
    ---------------------------------------------------------------------------
    Excess pressure  -3.543197e+07 +/-  5.223660e+06 [Pa]
                     -3.543197e+02 +/-  5.223660e+01 [bar]


    Block[  0]  1.979238e+07
    Block[  1]  1.412901e+07
    Block[  2]  1.982425e+07
    Block[  3]  1.104616e+07
    Block[  4]  1.202782e+07
    ---------------------------------------------------------------------------
    Pressure average   1.536392e+07 +/-  5.223138e+06 [Pa]
                       1.536392e+02 +/-  5.223138e+01 [bar]


Enthalpy of adsorption
===============================================================================

No fluctuating components present.


Densities
===============================================================================

Component 0 (CO2)
    Block[  0] 150
    Block[  1] 150
    Block[  2] 150
    Block[  3] 150
    Block[  4] 150
    -----------------------------------------------------------------------
    Density average   1.500000e+02 +/-  0.000000e+00 [molecules]
    Density average   1.471651e-02 +/-  1.592142e-04 [molec/A^3]
    Density average   1.075214e+03 +/-  1.163246e+01 [kg.m⁻³]

