Compiler and run-time data
===============================================================================
RASPA 3.0.4

Random seed: 226960473

Compiled as a 64-bits application
Compiler: gcc Ubuntu Clang 18.1.3 (1ubuntu1)
Compile Date = Mar 15 2025, Compile Time = 19:39:45

2025-06-02 12:33:28.184408
Simulation started on Mon, Jun 02
The start time was 12:33:00

Hostname:    c061
OS type:     Linux on x86_64
OS release:  6.8.0-58-generic
OS version:  #60-Ubuntu SMP PREEMPT_DYNAMIC Fri Mar 14 18:29:48 UTC 2025


Mutual consistent basic set of units:
===============================================================================

Unit of temperature: 1 [K]
Unit of length:      1e-10 [m]
Unit of time:        1e-12 [s]
Unit of mass:        1.6605402e-27 [kg]
Unit of charge:      1.60217733e-19 [C/particle]


Boltzmann constant (internal units):          0.8314464919307584 [-]
represents conversion from energy (internal units) to temperature (in Kelvin)

Derived units and their conversion factors:
===============================================================================

Unit of energy:                           1.6605402000000002e-23 [J]
Unit of energy:                           10.000008872307538 [J.mol⁻¹]
Unit of velocity:                         100 [m.s⁻¹]
Unit of force:                            1.6605402000000002e-13 [N]
Unit of diffusion:                        1.0000000000000002e-08 [m².s⁻¹]
Unit of acceleration:                     1.0000000000000002e-08 [m².s⁻¹]
Unit of torque:                           1.6605402000000002e-23 [N.m]
Unit of pressure:                         16605402 [Pa]
Unit of volume:                           1e-30 [m³]
Unit of density:                          1660.5402 [kg.m⁻³]
Unit of dynamic viscosity:                1.6605401999999997e-05 [N.s.m⁻²]
Unit of enthalpy:                         1.6605402000000002e-23 [J]
Unit of polarizability:                   1.5458657349975198e-35 [-]
Unit of Coulomb potential:                167101.08000665612 [K]
Unit of dielectric constant:              1.5458657349975193e-05 [s².C².kg⁻¹.m⁻³]
Unit of dipole moment:                    1.60217733e-29 [C.m]
Unit of Debye:                            4.803206799099162 [C.m]
Unit of electric potential:               0.00010364272224473431 [V]
Unit of electric field:                   1036427.222447343 [V.m⁻¹]
Unit of isothermal compressibility:       6.02213665167516e-08 [Pa⁻¹]
Unit of heat capacity:                    10.000008872307538 [J.mol⁻¹.K⁻¹]
Unit of volumetric expansion coefficient: 1 [K⁻¹]


Internal conversion factors:
===============================================================================

Energy (internal units) to Kelvin:      1.202724284692786 [-]
Kelvin to energy (internal units):      0.8314457542157567 [-]


System definitions
===============================================================================

Temperature:          250 [K]
Beta:                 0.0048108928702210625 [-]
Pressure:             1.2e+07 [Pa]
Helium void fraction: 1 [-]

Box:      30.00000   0.00000   0.00000
           0.00000  30.00000   0.00000
           0.00000   0.00000  30.00000
Lengths:  30.00000  30.00000  30.00000
Angles:   90.00000  90.00000  90.00000
Rectangular boundary conditions



Property measurement settings
===============================================================================




Pseudo-atoms
===============================================================================

  0 - C_co2    framework-atom: false
  1 - O_co2    framework-atom: false

  0 - C_co2    mass: 12.00000, charge:  0.70000
  1 - O_co2    mass: 15.99940, charge: -0.35000

  0 - C_co2    polarizability:  0.00000
  1 - O_co2    polarizability:  0.00000

  0 - J. J. Potoff et al., AIChE J. 2001, 47, 1676–1682.
  1 - J. J. Potoff et al., AIChE J. 2001, 47, 1676–1682.

Force field status
===============================================================================

Cutoff Framework-Molecule VDW:  12.00000 [Å]
Cutoff Molecule-Molecule VDW:   12.00000 [Å]
Cutoff Coulomb:                 12.00000 [Å]

Overlap-criteria VDW:           1.000000e+05 [K]

C_co2    - C_co2    Lennard-Jones p₀/kʙ:  27.00000 [K], p₁:  2.80000 [Å]
                                  shift:   0.00000 [K], tailcorrections: true
C_co2    - O_co2    Lennard-Jones p₀/kʙ:  46.18441 [K], p₁:  2.92500 [Å]
                                  shift:   0.00000 [K], tailcorrections: true
O_co2    - O_co2    Lennard-Jones p₀/kʙ:  79.00000 [K], p₁:  3.05000 [Å]
                                  shift:   0.00000 [K], tailcorrections: true

Ewald precision: 1e-06
Ewald alpha: 0.26505830360350674
Ewald k-vectors: 8 8 8


Component definitions
===============================================================================

Component 0 [CO2]

    Type: Adsorbate

    Critical temperature:  304.1282 [K]
    Critical pressure:     7377300 [Pa]
    Acentric factor:       0.22394 [-]

    Mol-fraction:                 1 [-]
    Swappable:                   false

    Mass:                         43.9988 [-]
    Bulk fluid density:           0 [-]
    Compressibility:              0 [-]
    Excess molecules:             0 [-]

    Number Of Atoms:    3
    CBMC starting bead: 0
      0: O_co2  position  0.00000 -0.00000  1.16000, charge -0.35000
      1: C_co2  position  0.00000 -0.00000  0.00000, charge  0.70000
      2: O_co2  position  0.00000 -0.00000 -1.16000, charge -0.35000
    Diagonalized inertia-vector:      43.05758528 43.05758528 0.00000000
    Translational degrees of freedom: 3
    Rotational degrees of freedom:    2
    Shape of the molecule is: 'Linear'
    Net-charge:        0.00000000 [e]

    Move probabilities:
    Translation:                   0.331126 [-]
    Random translation:            0.000000 [-]
    Rotation:                      0.331126 [-]
    Random rotation:               0.000000 [-]
    Volume change:                 0.006623 [-]
    Reinsertion (CBMC):            0.331126 [-]
    Identity change (CBMC):        0.000000 [-]
    Swap:                          0.000000 [-]
    Swap (CBMC):                   0.000000 [-]
    Swap (CFCMC):                  0.000000 [-]
    Swap (CB/CFCMC):               0.000000 [-]
    Gibbs volume:                  0.000000 [-]
    Gibbs swap (CBMC):             0.000000 [-]
    Gibbs swap (CFCMC):            0.000000 [-]
    Widom:                         0.000000 [-]
    Widom (CFCMC):                 0.000000 [-]
    Widom (CB/CFCMC):              0.000000 [-]
    Parallel tempering:            0.000000 [-]
    Hybrid MC:                     0.000000 [-]

    number of blocking-pockets: 0

    number of bonds: 0





Number of pseudo-atoms
===============================================================================

Component   0 (CO2)
-------------------------------------------------------------------------------
    index   0 (C_co2): 250 atoms
    index   1 (O_co2): 500 atoms

Total number of pseudo-atoms:
-------------------------------------------------------------------------------
    index   0 (C_co2): 250 atoms
    index   1 (O_co2): 500 atoms




Energy status Recomputed from scratch
===============================================================================

Total potential energy/kʙ       -6.393731e+04 [K]
    external field VDW/kʙ        0.000000e+00 [K]
    external field Real/kʙ       0.000000e+00 [K]
    framework-molecule VDW/kʙ    0.000000e+00 [K]
    framework-molecule Real/kʙ   0.000000e+00 [K]
    molecule-molecule VDW/kʙ    -3.215269e+04 [K]
    molecule-molecule Real/kʙ   -2.621884e+04 [K]
    Van der Waals (Tail)/kʙ     -4.298852e+03 [K]
    Ewald Fourier/kʙ             1.343448e+04 [K]
    Ewald self/kʙ               -4.591696e+06 [K]
    Ewald exclusion/kʙ           4.576994e+06 [K]
    intra VDW/kʙ                 0.000000e+00 [K]
    intra Coulombic/kʙ           0.000000e+00 [K]
    polarization/kʙ              0.000000e+00 [K]
    dU/dlambda VDW/kʙ            0.000000e+00 [K]
    dU/dlambda Real/kʙ           0.000000e+00 [K]
    dU/dlambda Ewald/kʙ          0.000000e+00 [K]





Initialization: Current cycle: 0 out of 1000
===============================================================================

Box:      30.89461   0.00000   0.00000
           0.00000  30.89461   0.00000
           0.00000   0.00000  30.89461
Lengths:  30.89461  30.89461  30.89461
Angles:   90.00000  90.00000  90.00000
Rectangular boundary conditions

net charge:   0.00000000

component   0 (CO2) lambda:  0 occupancy:  1 (1.000000)
    net charge:   0.00000000 [e]

Amount of molecules per component :
-------------------------------------------------------------------------------
Component 0 (CO2)
    molecules:         2.500000e+02 molecules
    number density:    8.477969e-03 molec/A^3
    density:           6.194149e+02 kg/m^3

Total potential energy/kʙ       -1.752693e+05 [K]
-------------------------------------------------------------------------------
    external field VDW/kʙ        0.000000e+00 [K]
    external field Real/kʙ       0.000000e+00 [K]
    framework-molecule VDW/kʙ    0.000000e+00 [K]
    framework-molecule Real/kʙ   0.000000e+00 [K]
    molecule-molecule VDW/kʙ    -1.412913e+05 [K]
    molecule-molecule Real/kʙ   -2.691557e+04 [K]
    Van der Waals (Tail)/kʙ     -3.936117e+03 [K]
    Ewald Fourier/kʙ             1.157507e+04 [K]
    Ewald self/kʙ               -4.591696e+06 [K]
    Ewald exclusion/kʙ           4.576994e+06 [K]
    intra VDW/kʙ                 0.000000e+00 [K]
    intra Coulombic/kʙ           0.000000e+00 [K]
    polarization/kʙ              0.000000e+00 [K]
    dU/dlambda VDW/kʙ            0.000000e+00 [K]
    dU/dlambda Real/kʙ           0.000000e+00 [K]
    dU/dlambda Ewald/kʙ          0.000000e+00 [K]


Initialization: Current cycle: 100 out of 1000
===============================================================================

Box:      28.85066   0.00000   0.00000
           0.00000  28.85066   0.00000
           0.00000   0.00000  28.85066
Lengths:  28.85066  28.85066  28.85066
Angles:   90.00000  90.00000  90.00000
Rectangular boundary conditions

net charge:   0.00000000

component   0 (CO2) lambda:  0 occupancy:  1 (1.000000)
    net charge:   0.00000000 [e]

Amount of molecules per component :
-------------------------------------------------------------------------------
Component 0 (CO2)
    molecules:         2.500000e+02 molecules
    number density:    1.041052e-02 molec/A^3
    density:           7.606107e+02 kg/m^3

Total potential energy/kʙ       -2.827100e+05 [K]
-------------------------------------------------------------------------------
    external field VDW/kʙ        0.000000e+00 [K]
    external field Real/kʙ       0.000000e+00 [K]
    framework-molecule VDW/kʙ    0.000000e+00 [K]
    framework-molecule Real/kʙ   0.000000e+00 [K]
    molecule-molecule VDW/kʙ    -2.084606e+05 [K]
    molecule-molecule Real/kʙ   -6.310798e+04 [K]
    Van der Waals (Tail)/kʙ     -4.833356e+03 [K]
    Ewald Fourier/kʙ             8.393338e+03 [K]
    Ewald self/kʙ               -4.591696e+06 [K]
    Ewald exclusion/kʙ           4.576994e+06 [K]
    intra VDW/kʙ                 0.000000e+00 [K]
    intra Coulombic/kʙ           0.000000e+00 [K]
    polarization/kʙ              0.000000e+00 [K]
    dU/dlambda VDW/kʙ            0.000000e+00 [K]
    dU/dlambda Real/kʙ           0.000000e+00 [K]
    dU/dlambda Ewald/kʙ          0.000000e+00 [K]


Initialization: Current cycle: 200 out of 1000
===============================================================================

Box:      27.48617   0.00000   0.00000
           0.00000  27.48617   0.00000
           0.00000   0.00000  27.48617
Lengths:  27.48617  27.48617  27.48617
Angles:   90.00000  90.00000  90.00000
Rectangular boundary conditions

net charge:   0.00000000

component   0 (CO2) lambda:  0 occupancy:  1 (1.000000)
    net charge:   0.00000000 [e]

Amount of molecules per component :
-------------------------------------------------------------------------------
Component 0 (CO2)
    molecules:         2.500000e+02 molecules
    number density:    1.203919e-02 molec/A^3
    density:           8.796042e+02 kg/m^3

Total potential energy/kʙ       -3.242682e+05 [K]
-------------------------------------------------------------------------------
    external field VDW/kʙ        0.000000e+00 [K]
    external field Real/kʙ       0.000000e+00 [K]
    framework-molecule VDW/kʙ    0.000000e+00 [K]
    framework-molecule Real/kʙ   0.000000e+00 [K]
    molecule-molecule VDW/kʙ    -2.376987e+05 [K]
    molecule-molecule Real/kʙ   -7.372019e+04 [K]
    Van der Waals (Tail)/kʙ     -5.589509e+03 [K]
    Ewald Fourier/kʙ             7.441587e+03 [K]
    Ewald self/kʙ               -4.591696e+06 [K]
    Ewald exclusion/kʙ           4.576994e+06 [K]
    intra VDW/kʙ                 0.000000e+00 [K]
    intra Coulombic/kʙ           0.000000e+00 [K]
    polarization/kʙ              0.000000e+00 [K]
    dU/dlambda VDW/kʙ            0.000000e+00 [K]
    dU/dlambda Real/kʙ           0.000000e+00 [K]
    dU/dlambda Ewald/kʙ          0.000000e+00 [K]


Initialization: Current cycle: 300 out of 1000
===============================================================================

Box:      26.45185   0.00000   0.00000
           0.00000  26.45185   0.00000
           0.00000   0.00000  26.45185
Lengths:  26.45185  26.45185  26.45185
Angles:   90.00000  90.00000  90.00000
Rectangular boundary conditions

net charge:   0.00000000

component   0 (CO2) lambda:  0 occupancy:  1 (1.000000)
    net charge:   0.00000000 [e]

Amount of molecules per component :
-------------------------------------------------------------------------------
Component 0 (CO2)
    molecules:         2.500000e+02 molecules
    number density:    1.350741e-02 molec/A^3
    density:           9.868742e+02 kg/m^3

Total potential energy/kʙ       -3.572643e+05 [K]
-------------------------------------------------------------------------------
    external field VDW/kʙ        0.000000e+00 [K]
    external field Real/kʙ       0.000000e+00 [K]
    framework-molecule VDW/kʙ    0.000000e+00 [K]
    framework-molecule Real/kʙ   0.000000e+00 [K]
    molecule-molecule VDW/kʙ    -2.553284e+05 [K]
    molecule-molecule Real/kʙ   -8.757487e+04 [K]
    Van der Waals (Tail)/kʙ     -6.271164e+03 [K]
    Ewald Fourier/kʙ             6.611563e+03 [K]
    Ewald self/kʙ               -4.591696e+06 [K]
    Ewald exclusion/kʙ           4.576994e+06 [K]
    intra VDW/kʙ                 0.000000e+00 [K]
    intra Coulombic/kʙ           0.000000e+00 [K]
    polarization/kʙ              0.000000e+00 [K]
    dU/dlambda VDW/kʙ            0.000000e+00 [K]
    dU/dlambda Real/kʙ           0.000000e+00 [K]
    dU/dlambda Ewald/kʙ          0.000000e+00 [K]


Initialization: Current cycle: 400 out of 1000
===============================================================================

Box:      26.28665   0.00000   0.00000
           0.00000  26.28665   0.00000
           0.00000   0.00000  26.28665
Lengths:  26.28665  26.28665  26.28665
Angles:   90.00000  90.00000  90.00000
Rectangular boundary conditions

net charge:   0.00000000

component   0 (CO2) lambda:  0 occupancy:  1 (1.000000)
    net charge:   0.00000000 [e]

Amount of molecules per component :
-------------------------------------------------------------------------------
Component 0 (CO2)
    molecules:         2.500000e+02 molecules
    number density:    1.376368e-02 molec/A^3
    density:           1.005598e+03 kg/m^3

Total potential energy/kʙ       -3.589307e+05 [K]
-------------------------------------------------------------------------------
    external field VDW/kʙ        0.000000e+00 [K]
    external field Real/kʙ       0.000000e+00 [K]
    framework-molecule VDW/kʙ    0.000000e+00 [K]
    framework-molecule Real/kʙ   0.000000e+00 [K]
    molecule-molecule VDW/kʙ    -2.603620e+05 [K]
    molecule-molecule Real/kʙ   -8.345843e+04 [K]
    Van der Waals (Tail)/kʙ     -6.390144e+03 [K]
    Ewald Fourier/kʙ             5.981353e+03 [K]
    Ewald self/kʙ               -4.591696e+06 [K]
    Ewald exclusion/kʙ           4.576994e+06 [K]
    intra VDW/kʙ                 0.000000e+00 [K]
    intra Coulombic/kʙ           0.000000e+00 [K]
    polarization/kʙ              0.000000e+00 [K]
    dU/dlambda VDW/kʙ            0.000000e+00 [K]
    dU/dlambda Real/kʙ           0.000000e+00 [K]
    dU/dlambda Ewald/kʙ          0.000000e+00 [K]


Initialization: Current cycle: 500 out of 1000
===============================================================================

Box:      26.16142   0.00000   0.00000
           0.00000  26.16142   0.00000
           0.00000   0.00000  26.16142
Lengths:  26.16142  26.16142  26.16142
Angles:   90.00000  90.00000  90.00000
Rectangular boundary conditions

net charge:   0.00000000

component   0 (CO2) lambda:  0 occupancy:  1 (1.000000)
    net charge:   0.00000000 [e]

Amount of molecules per component :
-------------------------------------------------------------------------------
Component 0 (CO2)
    molecules:         2.500000e+02 molecules
    number density:    1.396228e-02 molec/A^3
    density:           1.020108e+03 kg/m^3

Total potential energy/kʙ       -3.710568e+05 [K]
-------------------------------------------------------------------------------
    external field VDW/kʙ        0.000000e+00 [K]
    external field Real/kʙ       0.000000e+00 [K]
    framework-molecule VDW/kʙ    0.000000e+00 [K]
    framework-molecule Real/kʙ   0.000000e+00 [K]
    molecule-molecule VDW/kʙ    -2.643682e+05 [K]
    molecule-molecule Real/kʙ   -9.212357e+04 [K]
    Van der Waals (Tail)/kʙ     -6.482349e+03 [K]
    Ewald Fourier/kʙ             6.618694e+03 [K]
    Ewald self/kʙ               -4.591696e+06 [K]
    Ewald exclusion/kʙ           4.576994e+06 [K]
    intra VDW/kʙ                 0.000000e+00 [K]
    intra Coulombic/kʙ           0.000000e+00 [K]
    polarization/kʙ              0.000000e+00 [K]
    dU/dlambda VDW/kʙ            0.000000e+00 [K]
    dU/dlambda Real/kʙ           0.000000e+00 [K]
    dU/dlambda Ewald/kʙ          0.000000e+00 [K]


Initialization: Current cycle: 600 out of 1000
===============================================================================

Box:      25.67818   0.00000   0.00000
           0.00000  25.67818   0.00000
           0.00000   0.00000  25.67818
Lengths:  25.67818  25.67818  25.67818
Angles:   90.00000  90.00000  90.00000
Rectangular boundary conditions

net charge:   0.00000000

component   0 (CO2) lambda:  0 occupancy:  1 (1.000000)
    net charge:   0.00000000 [e]

Amount of molecules per component :
-------------------------------------------------------------------------------
Component 0 (CO2)
    molecules:         2.500000e+02 molecules
    number density:    1.476547e-02 molec/A^3
    density:           1.078791e+03 kg/m^3

Total potential energy/kʙ       -3.791190e+05 [K]
-------------------------------------------------------------------------------
    external field VDW/kʙ        0.000000e+00 [K]
    external field Real/kʙ       0.000000e+00 [K]
    framework-molecule VDW/kʙ    0.000000e+00 [K]
    framework-molecule Real/kʙ   0.000000e+00 [K]
    molecule-molecule VDW/kʙ    -2.752111e+05 [K]
    molecule-molecule Real/kʙ   -8.842786e+04 [K]
    Van der Waals (Tail)/kʙ     -6.855254e+03 [K]
    Ewald Fourier/kʙ             6.076584e+03 [K]
    Ewald self/kʙ               -4.591696e+06 [K]
    Ewald exclusion/kʙ           4.576994e+06 [K]
    intra VDW/kʙ                 0.000000e+00 [K]
    intra Coulombic/kʙ           0.000000e+00 [K]
    polarization/kʙ              0.000000e+00 [K]
    dU/dlambda VDW/kʙ            0.000000e+00 [K]
    dU/dlambda Real/kʙ           0.000000e+00 [K]
    dU/dlambda Ewald/kʙ          0.000000e+00 [K]


Initialization: Current cycle: 700 out of 1000
===============================================================================

Box:      25.83092   0.00000   0.00000
           0.00000  25.83092   0.00000
           0.00000   0.00000  25.83092
Lengths:  25.83092  25.83092  25.83092
Angles:   90.00000  90.00000  90.00000
Rectangular boundary conditions

net charge:   0.00000000

component   0 (CO2) lambda:  0 occupancy:  1 (1.000000)
    net charge:   0.00000000 [e]

Amount of molecules per component :
-------------------------------------------------------------------------------
Component 0 (CO2)
    molecules:         2.500000e+02 molecules
    number density:    1.450510e-02 molec/A^3
    density:           1.059767e+03 kg/m^3

Total potential energy/kʙ       -3.779615e+05 [K]
-------------------------------------------------------------------------------
    external field VDW/kʙ        0.000000e+00 [K]
    external field Real/kʙ       0.000000e+00 [K]
    framework-molecule VDW/kʙ    0.000000e+00 [K]
    framework-molecule Real/kʙ   0.000000e+00 [K]
    molecule-molecule VDW/kʙ    -2.795861e+05 [K]
    molecule-molecule Real/kʙ   -8.322121e+04 [K]
    Van der Waals (Tail)/kʙ     -6.734368e+03 [K]
    Ewald Fourier/kʙ             6.281678e+03 [K]
    Ewald self/kʙ               -4.591696e+06 [K]
    Ewald exclusion/kʙ           4.576994e+06 [K]
    intra VDW/kʙ                 0.000000e+00 [K]
    intra Coulombic/kʙ           0.000000e+00 [K]
    polarization/kʙ              0.000000e+00 [K]
    dU/dlambda VDW/kʙ            0.000000e+00 [K]
    dU/dlambda Real/kʙ           0.000000e+00 [K]
    dU/dlambda Ewald/kʙ          0.000000e+00 [K]


Initialization: Current cycle: 800 out of 1000
===============================================================================

Box:      26.03551   0.00000   0.00000
           0.00000  26.03551   0.00000
           0.00000   0.00000  26.03551
Lengths:  26.03551  26.03551  26.03551
Angles:   90.00000  90.00000  90.00000
Rectangular boundary conditions

net charge:   0.00000000

component   0 (CO2) lambda:  0 occupancy:  1 (1.000000)
    net charge:   0.00000000 [e]

Amount of molecules per component :
-------------------------------------------------------------------------------
Component 0 (CO2)
    molecules:         2.500000e+02 molecules
    number density:    1.416582e-02 molec/A^3
    density:           1.034979e+03 kg/m^3

Total potential energy/kʙ       -3.676969e+05 [K]
-------------------------------------------------------------------------------
    external field VDW/kʙ        0.000000e+00 [K]
    external field Real/kʙ       0.000000e+00 [K]
    framework-molecule VDW/kʙ    0.000000e+00 [K]
    framework-molecule Real/kʙ   0.000000e+00 [K]
    molecule-molecule VDW/kʙ    -2.677489e+05 [K]
    molecule-molecule Real/kʙ   -8.439975e+04 [K]
    Van der Waals (Tail)/kʙ     -6.576849e+03 [K]
    Ewald Fourier/kʙ             5.730013e+03 [K]
    Ewald self/kʙ               -4.591696e+06 [K]
    Ewald exclusion/kʙ           4.576994e+06 [K]
    intra VDW/kʙ                 0.000000e+00 [K]
    intra Coulombic/kʙ           0.000000e+00 [K]
    polarization/kʙ              0.000000e+00 [K]
    dU/dlambda VDW/kʙ            0.000000e+00 [K]
    dU/dlambda Real/kʙ           0.000000e+00 [K]
    dU/dlambda Ewald/kʙ          0.000000e+00 [K]


Initialization: Current cycle: 900 out of 1000
===============================================================================

Box:      25.92148   0.00000   0.00000
           0.00000  25.92148   0.00000
           0.00000   0.00000  25.92148
Lengths:  25.92148  25.92148  25.92148
Angles:   90.00000  90.00000  90.00000
Rectangular boundary conditions

net charge:   0.00000000

component   0 (CO2) lambda:  0 occupancy:  1 (1.000000)
    net charge:   0.00000000 [e]

Amount of molecules per component :
-------------------------------------------------------------------------------
Component 0 (CO2)
    molecules:         2.500000e+02 molecules
    number density:    1.435359e-02 molec/A^3
    density:           1.048698e+03 kg/m^3

Total potential energy/kʙ       -3.773626e+05 [K]
-------------------------------------------------------------------------------
    external field VDW/kʙ        0.000000e+00 [K]
    external field Real/kʙ       0.000000e+00 [K]
    framework-molecule VDW/kʙ    0.000000e+00 [K]
    framework-molecule Real/kʙ   0.000000e+00 [K]
    molecule-molecule VDW/kʙ    -2.733330e+05 [K]
    molecule-molecule Real/kʙ   -8.837821e+04 [K]
    Van der Waals (Tail)/kʙ     -6.664025e+03 [K]
    Ewald Fourier/kʙ             5.714030e+03 [K]
    Ewald self/kʙ               -4.591696e+06 [K]
    Ewald exclusion/kʙ           4.576994e+06 [K]
    intra VDW/kʙ                 0.000000e+00 [K]
    intra Coulombic/kʙ           0.000000e+00 [K]
    polarization/kʙ              0.000000e+00 [K]
    dU/dlambda VDW/kʙ            0.000000e+00 [K]
    dU/dlambda Real/kʙ           0.000000e+00 [K]
    dU/dlambda Ewald/kʙ          0.000000e+00 [K]


Current cycle: 0 out of 5000
===============================================================================

Box:      26.08851   0.00000   0.00000  Average:  26.08851   0.00000   0.00000
           0.00000  26.08851   0.00000             0.00000  26.08851   0.00000
           0.00000   0.00000  26.08851             0.00000   0.00000  26.08851
Lengths:  26.08851  26.08851  26.08851  Average:  26.08851  26.08851  26.08851
Angles:   90.00000  90.00000  90.00000  Average:  90.00000  90.00000  90.00000
Rectangular boundary conditions

net charge:   0.00000000

component 0 (CO2) lambda:  0 occupancy:  1 (1.000000)
    net charge:   0.00000000 [e]

Amount of molecules per component :
-------------------------------------------------------------------------------
Component 0 (CO2)
    molecules:      2.500000e+02 molecules  (2.500000e+02 +/- 0.000000e+00)
    number density: 1.407966e-02 molec./A^3 (1.407966e-02 +/- 0.000000e+00)
    density:        1.028684e+03 kg/m^3     (1.028684e+03 +/- 0.000000e+00)

Average pressure tensor: 
-------------------------------------------------------------------------------
 4.8598e+02  0.0000e+00  0.0000e+00 +/- 0.0000e+00 0.0000e+00 0.0000e+00 [bar]
 0.0000e+00  4.8598e+02  0.0000e+00 +/- 0.0000e+00 0.0000e+00 0.0000e+00 [bar]
 0.0000e+00  0.0000e+00  4.8598e+02 +/- 0.0000e+00 0.0000e+00 0.0000e+00 [bar]
Ideal-gas pressure:   4.859773e+02 +/ 0.000000e+00 [bar]
Excess pressure:      0.000000e+00 +/ 0.000000e+00 [bar]
Pressure:             4.859773e+02 +/ 0.000000e+00 [bar]

Total potential energy/kʙ  -3.685071e+05 (-3.685071e+05 +/- 0.000000e+00) [K]
-------------------------------------------------------------------------------
ExternalField-molecule
    Van der Waals/kʙ        0.000000e+00 ( 0.000000e+00 +/- 0.000000e+00) [K]
Framework-molecule
    Van der Waals/kʙ        0.000000e+00 ( 0.000000e+00 +/- 0.000000e+00) [K]
    Van der Waals (Tail)/kʙ 0.000000e+00 ( 0.000000e+00 +/- 0.000000e+00) [K]
    Coulombic Real/kʙ       0.000000e+00 ( 0.000000e+00 +/- 0.000000e+00) [K]
    Coulombic Fourier/kʙ    0.000000e+00 ( 0.000000e+00 +/- 0.000000e+00) [K]
Molecule-molecule
    Van der Waals/kʙ       -2.687445e+05 (-2.687445e+05 +/- 0.000000e+00) [K]
    Van der Waals (Tail)/kʙ-6.536849e+03 (-6.536849e+03 +/- 0.000000e+00) [K]
    Coulombic Real/kʙ      -8.465666e+04 (-8.465666e+04 +/- 0.000000e+00) [K]
    Coulombic Fourier/kʙ   -8.569021e+03 (-8.569021e+03 +/- 0.000000e+00) [K]
    Molecule Intra/kʙ       0.000000e+00 ( 0.000000e+00 +/- 0.000000e+00) [K]

Current cycle: 100 out of 5000
===============================================================================

Box:      25.76998   0.00000   0.00000  Average:  25.86843   0.00000   0.00000
           0.00000  25.76998   0.00000             0.00000  25.86843   0.00000
           0.00000   0.00000  25.76998             0.00000   0.00000  25.86843
Lengths:  25.76998  25.76998  25.76998  Average:  25.86843  25.86843  25.86843
Angles:   90.00000  90.00000  90.00000  Average:  90.00000  90.00000  90.00000
Rectangular boundary conditions

net charge:   0.00000000

component 0 (CO2) lambda:  0 occupancy:  1 (1.000000)
    net charge:   0.00000000 [e]

Amount of molecules per component :
-------------------------------------------------------------------------------
Component 0 (CO2)
    molecules:      2.500000e+02 molecules  (2.500000e+02 +/- 0.000000e+00)
    number density: 1.460823e-02 molec./A^3 (1.444437e-02 +/- 0.000000e+00)
    density:        1.067302e+03 kg/m^3     (1.055330e+03 +/- 0.000000e+00)

Average pressure tensor: 
-------------------------------------------------------------------------------
-1.3957e+02  8.9073e+01  5.7626e+00 +/- 0.0000e+00 0.0000e+00 0.0000e+00 [bar]
 8.9073e+01  1.4056e+02  1.4561e+02 +/- 0.0000e+00 0.0000e+00 0.0000e+00 [bar]
 5.7626e+00  1.4561e+02  2.4747e+02 +/- 0.0000e+00 0.0000e+00 0.0000e+00 [bar]
Ideal-gas pressure:   4.985656e+02 +/ 0.000000e+00 [bar]
Excess pressure:     -4.157466e+02 +/ 0.000000e+00 [bar]
Pressure:             8.281900e+01 +/ 0.000000e+00 [bar]

Total potential energy/kʙ  -3.847832e+05 (-3.775962e+05 +/- 0.000000e+00) [K]
-------------------------------------------------------------------------------
ExternalField-molecule
    Van der Waals/kʙ        0.000000e+00 ( 0.000000e+00 +/- 0.000000e+00) [K]
Framework-molecule
    Van der Waals/kʙ        0.000000e+00 ( 0.000000e+00 +/- 0.000000e+00) [K]
    Van der Waals (Tail)/kʙ 0.000000e+00 ( 0.000000e+00 +/- 0.000000e+00) [K]
    Coulombic Real/kʙ       0.000000e+00 ( 0.000000e+00 +/- 0.000000e+00) [K]
    Coulombic Fourier/kʙ    0.000000e+00 ( 0.000000e+00 +/- 0.000000e+00) [K]
Molecule-molecule
    Van der Waals/kʙ       -2.798341e+05 (-2.761002e+05 +/- 0.000000e+00) [K]
    Van der Waals (Tail)/kʙ-6.782251e+03 (-6.696353e+03 +/- 0.000000e+00) [K]
    Coulombic Real/kʙ      -8.930575e+04 (-8.621731e+04 +/- 0.000000e+00) [K]
    Coulombic Fourier/kʙ   -8.861026e+03 (-8.582281e+03 +/- 0.000000e+00) [K]
    Molecule Intra/kʙ       0.000000e+00 ( 0.000000e+00 +/- 0.000000e+00) [K]

Current cycle: 200 out of 5000
===============================================================================

Box:      25.36478   0.00000   0.00000  Average:  25.78008   0.00000   0.00000
           0.00000  25.36478   0.00000             0.00000  25.78008   0.00000
           0.00000   0.00000  25.36478             0.00000   0.00000  25.78008
Lengths:  25.36478  25.36478  25.36478  Average:  25.78008  25.78008  25.78008
Angles:   90.00000  90.00000  90.00000  Average:  90.00000  90.00000  90.00000
Rectangular boundary conditions

net charge:   0.00000000

component 0 (CO2) lambda:  0 occupancy:  1 (1.000000)
    net charge:   0.00000000 [e]

Amount of molecules per component :
-------------------------------------------------------------------------------
Component 0 (CO2)
    molecules:      2.500000e+02 molecules  (2.500000e+02 +/- 0.000000e+00)
    number density: 1.531957e-02 molec./A^3 (1.459396e-02 +/- 0.000000e+00)
    density:        1.119274e+03 kg/m^3     (1.066260e+03 +/- 0.000000e+00)

Average pressure tensor: 
-------------------------------------------------------------------------------
-2.7193e+01  5.5491e+01 -3.6063e+01 +/- 0.0000e+00 0.0000e+00 0.0000e+00 [bar]
 5.5491e+01  1.2585e+02  1.1552e+02 +/- 0.0000e+00 0.0000e+00 0.0000e+00 [bar]
-3.6063e+01  1.1552e+02  7.1541e+01 +/- 0.0000e+00 0.0000e+00 0.0000e+00 [bar]
Ideal-gas pressure:   5.037289e+02 +/ 0.000000e+00 [bar]
Excess pressure:     -4.469950e+02 +/ 0.000000e+00 [bar]
Pressure:             5.673395e+01 +/ 0.000000e+00 [bar]

Total potential energy/kʙ  -4.002141e+05 (-3.834475e+05 +/- 0.000000e+00) [K]
-------------------------------------------------------------------------------
ExternalField-molecule
    Van der Waals/kʙ        0.000000e+00 ( 0.000000e+00 +/- 0.000000e+00) [K]
Framework-molecule
    Van der Waals/kʙ        0.000000e+00 ( 0.000000e+00 +/- 0.000000e+00) [K]
    Van der Waals (Tail)/kʙ 0.000000e+00 ( 0.000000e+00 +/- 0.000000e+00) [K]
    Coulombic Real/kʙ       0.000000e+00 ( 0.000000e+00 +/- 0.000000e+00) [K]
    Coulombic Fourier/kʙ    0.000000e+00 ( 0.000000e+00 +/- 0.000000e+00) [K]
Molecule-molecule
    Van der Waals/kʙ       -2.915190e+05 (-2.795217e+05 +/- 0.000000e+00) [K]
    Van der Waals (Tail)/kʙ-7.112509e+03 (-6.770928e+03 +/- 0.000000e+00) [K]
    Coulombic Real/kʙ      -9.262238e+04 (-8.859539e+04 +/- 0.000000e+00) [K]
    Coulombic Fourier/kʙ   -8.960270e+03 (-8.559517e+03 +/- 0.000000e+00) [K]
    Molecule Intra/kʙ       0.000000e+00 ( 0.000000e+00 +/- 0.000000e+00) [K]

Current cycle: 300 out of 5000
===============================================================================

Box:      25.68421   0.00000   0.00000  Average:  25.71178   0.00000   0.00000
           0.00000  25.68421   0.00000             0.00000  25.71178   0.00000
           0.00000   0.00000  25.68421             0.00000   0.00000  25.71178
Lengths:  25.68421  25.68421  25.68421  Average:  25.71178  25.71178  25.71178
Angles:   90.00000  90.00000  90.00000  Average:  90.00000  90.00000  90.00000
Rectangular boundary conditions

net charge:   0.00000000

component 0 (CO2) lambda:  0 occupancy:  1 (1.000000)
    net charge:   0.00000000 [e]

Amount of molecules per component :
-------------------------------------------------------------------------------
Component 0 (CO2)
    molecules:      2.500000e+02 molecules  (2.500000e+02 +/- 0.000000e+00)
    number density: 1.475508e-02 molec./A^3 (1.471156e-02 +/- 0.000000e+00)
    density:        1.078031e+03 kg/m^3     (1.074852e+03 +/- 0.000000e+00)

Average pressure tensor: 
-------------------------------------------------------------------------------
 1.3031e+01  5.0432e+01 -2.2201e+01 +/- 0.0000e+00 0.0000e+00 0.0000e+00 [bar]
 5.0432e+01  1.0967e+02  8.9060e+01 +/- 0.0000e+00 0.0000e+00 0.0000e+00 [bar]
-2.2201e+01  8.9060e+01  1.2390e+02 +/- 0.0000e+00 0.0000e+00 0.0000e+00 [bar]
Ideal-gas pressure:   5.077879e+02 +/ 0.000000e+00 [bar]
Excess pressure:     -4.255885e+02 +/ 0.000000e+00 [bar]
Pressure:             8.219937e+01 +/ 0.000000e+00 [bar]

Total potential energy/kʙ  -3.880188e+05 (-3.863312e+05 +/- 0.000000e+00) [K]
-------------------------------------------------------------------------------
ExternalField-molecule
    Van der Waals/kʙ        0.000000e+00 ( 0.000000e+00 +/- 0.000000e+00) [K]
Framework-molecule
    Van der Waals/kʙ        0.000000e+00 ( 0.000000e+00 +/- 0.000000e+00) [K]
    Van der Waals (Tail)/kʙ 0.000000e+00 ( 0.000000e+00 +/- 0.000000e+00) [K]
    Coulombic Real/kʙ       0.000000e+00 ( 0.000000e+00 +/- 0.000000e+00) [K]
    Coulombic Fourier/kʙ    0.000000e+00 ( 0.000000e+00 +/- 0.000000e+00) [K]
Molecule-molecule
    Van der Waals/kʙ       -2.830536e+05 (-2.816885e+05 +/- 0.000000e+00) [K]
    Van der Waals (Tail)/kʙ-6.850428e+03 (-6.818304e+03 +/- 0.000000e+00) [K]
    Coulombic Real/kʙ      -8.991084e+04 (-8.919893e+04 +/- 0.000000e+00) [K]
    Coulombic Fourier/kʙ   -8.203955e+03 (-8.625502e+03 +/- 0.000000e+00) [K]
    Molecule Intra/kʙ       0.000000e+00 ( 0.000000e+00 +/- 0.000000e+00) [K]

Current cycle: 400 out of 5000
===============================================================================

Box:      25.89918   0.00000   0.00000  Average:  25.74206   0.00000   0.00000
           0.00000  25.89918   0.00000             0.00000  25.74206   0.00000
           0.00000   0.00000  25.89918             0.00000   0.00000  25.74206
Lengths:  25.89918  25.89918  25.89918  Average:  25.74206  25.74206  25.74206
Angles:   90.00000  90.00000  90.00000  Average:  90.00000  90.00000  90.00000
Rectangular boundary conditions

net charge:   0.00000000

component 0 (CO2) lambda:  0 occupancy:  1 (1.000000)
    net charge:   0.00000000 [e]

Amount of molecules per component :
-------------------------------------------------------------------------------
Component 0 (CO2)
    molecules:      2.500000e+02 molecules  (2.500000e+02 +/- 0.000000e+00)
    number density: 1.439070e-02 molec./A^3 (1.465987e-02 +/- 0.000000e+00)
    density:        1.051409e+03 kg/m^3     (1.071075e+03 +/- 0.000000e+00)

Average pressure tensor: 
-------------------------------------------------------------------------------
 9.8072e+01  2.9944e+01 -1.8251e+01 +/- 0.0000e+00 0.0000e+00 0.0000e+00 [bar]
 2.9944e+01  1.0661e+02  7.7142e+01 +/- 0.0000e+00 0.0000e+00 0.0000e+00 [bar]
-1.8251e+01  7.7142e+01  1.0163e+02 +/- 0.0000e+00 0.0000e+00 0.0000e+00 [bar]
Ideal-gas pressure:   5.060039e+02 +/ 0.000000e+00 [bar]
Excess pressure:     -4.039001e+02 +/ 0.000000e+00 [bar]
Pressure:             1.021038e+02 +/ 0.000000e+00 [bar]

Total potential energy/kʙ  -3.851063e+05 (-3.852865e+05 +/- 0.000000e+00) [K]
-------------------------------------------------------------------------------
ExternalField-molecule
    Van der Waals/kʙ        0.000000e+00 ( 0.000000e+00 +/- 0.000000e+00) [K]
Framework-molecule
    Van der Waals/kʙ        0.000000e+00 ( 0.000000e+00 +/- 0.000000e+00) [K]
    Van der Waals (Tail)/kʙ 0.000000e+00 ( 0.000000e+00 +/- 0.000000e+00) [K]
    Coulombic Real/kʙ       0.000000e+00 ( 0.000000e+00 +/- 0.000000e+00) [K]
    Coulombic Fourier/kʙ    0.000000e+00 ( 0.000000e+00 +/- 0.000000e+00) [K]
Molecule-molecule
    Van der Waals/kʙ       -2.738515e+05 (-2.804231e+05 +/- 0.000000e+00) [K]
    Van der Waals (Tail)/kʙ-6.681255e+03 (-6.795277e+03 +/- 0.000000e+00) [K]
    Coulombic Real/kʙ      -9.543521e+04 (-8.944117e+04 +/- 0.000000e+00) [K]
    Coulombic Fourier/kʙ   -9.138339e+03 (-8.626936e+03 +/- 0.000000e+00) [K]
    Molecule Intra/kʙ       0.000000e+00 ( 0.000000e+00 +/- 0.000000e+00) [K]

Current cycle: 500 out of 5000
===============================================================================

Box:      25.81210   0.00000   0.00000  Average:  25.77075   0.00000   0.00000
           0.00000  25.81210   0.00000             0.00000  25.77075   0.00000
           0.00000   0.00000  25.81210             0.00000   0.00000  25.77075
Lengths:  25.81210  25.81210  25.81210  Average:  25.77075  25.77075  25.77075
Angles:   90.00000  90.00000  90.00000  Average:  90.00000  90.00000  90.00000
Rectangular boundary conditions

net charge:   0.00000000

component 0 (CO2) lambda:  0 occupancy:  1 (1.000000)
    net charge:   0.00000000 [e]

Amount of molecules per component :
-------------------------------------------------------------------------------
Component 0 (CO2)
    molecules:      2.500000e+02 molecules  (2.500000e+02 +/- 0.000000e+00)
    number density: 1.453683e-02 molec./A^3 (1.461077e-02 +/- 0.000000e+00)
    density:        1.062086e+03 kg/m^3     (1.067488e+03 +/- 0.000000e+00)

Average pressure tensor: 
-------------------------------------------------------------------------------
 1.4415e+02  3.5319e+01 -1.5076e+01 +/- 0.0000e+00 0.0000e+00 0.0000e+00 [bar]
 3.5319e+01  1.0505e+02  6.8799e+01 +/- 0.0000e+00 0.0000e+00 0.0000e+00 [bar]
-1.5076e+01  6.8799e+01  6.8684e+01 +/- 0.0000e+00 0.0000e+00 0.0000e+00 [bar]
Ideal-gas pressure:   5.043090e+02 +/ 0.000000e+00 [bar]
Excess pressure:     -3.983485e+02 +/ 0.000000e+00 [bar]
Pressure:             1.059606e+02 +/ 0.000000e+00 [bar]

Total potential energy/kʙ  -3.945007e+05 (-3.854694e+05 +/- 0.000000e+00) [K]
-------------------------------------------------------------------------------
ExternalField-molecule
    Van der Waals/kʙ        0.000000e+00 ( 0.000000e+00 +/- 0.000000e+00) [K]
Framework-molecule
    Van der Waals/kʙ        0.000000e+00 ( 0.000000e+00 +/- 0.000000e+00) [K]
    Van der Waals (Tail)/kʙ 0.000000e+00 ( 0.000000e+00 +/- 0.000000e+00) [K]
    Coulombic Real/kʙ       0.000000e+00 ( 0.000000e+00 +/- 0.000000e+00) [K]
    Coulombic Fourier/kʙ    0.000000e+00 ( 0.000000e+00 +/- 0.000000e+00) [K]
Molecule-molecule
    Van der Waals/kʙ       -2.841129e+05 (-2.798890e+05 +/- 0.000000e+00) [K]
    Van der Waals (Tail)/kʙ-6.749103e+03 (-6.778601e+03 +/- 0.000000e+00) [K]
    Coulombic Real/kʙ      -9.525056e+04 (-9.020904e+04 +/- 0.000000e+00) [K]
    Coulombic Fourier/kʙ   -8.388080e+03 (-8.592790e+03 +/- 0.000000e+00) [K]
    Molecule Intra/kʙ       0.000000e+00 ( 0.000000e+00 +/- 0.000000e+00) [K]

Current cycle: 600 out of 5000
===============================================================================

Box:      25.52070   0.00000   0.00000  Average:  25.73902   0.00000   0.00000
           0.00000  25.52070   0.00000             0.00000  25.73902   0.00000
           0.00000   0.00000  25.52070             0.00000   0.00000  25.73902
Lengths:  25.52070  25.52070  25.52070  Average:  25.73902  25.73902  25.73902
Angles:   90.00000  90.00000  90.00000  Average:  90.00000  90.00000  90.00000
Rectangular boundary conditions

net charge:   0.00000000

component 0 (CO2) lambda:  0 occupancy:  1 (1.000000)
    net charge:   0.00000000 [e]

Amount of molecules per component :
-------------------------------------------------------------------------------
Component 0 (CO2)
    molecules:      2.500000e+02 molecules  (2.500000e+02 +/- 0.000000e+00)
    number density: 1.504051e-02 molec./A^3 (1.466516e-02 +/- 0.000000e+00)
    density:        1.098885e+03 kg/m^3     (1.071462e+03 +/- 0.000000e+00)

Average pressure tensor: 
-------------------------------------------------------------------------------
 1.2035e+02  3.5328e+01 -8.4045e+00 +/- 0.0000e+00 0.0000e+00 0.0000e+00 [bar]
 3.5328e+01  9.3155e+01  6.2332e+01 +/- 0.0000e+00 0.0000e+00 0.0000e+00 [bar]
-8.4045e+00  6.2332e+01  1.0851e+02 +/- 0.0000e+00 0.0000e+00 0.0000e+00 [bar]
Ideal-gas pressure:   5.061865e+02 +/ 0.000000e+00 [bar]
Excess pressure:     -3.988460e+02 +/ 0.000000e+00 [bar]
Pressure:             1.073405e+02 +/ 0.000000e+00 [bar]

Total potential energy/kʙ  -4.012074e+05 (-3.871604e+05 +/- 0.000000e+00) [K]
-------------------------------------------------------------------------------
ExternalField-molecule
    Van der Waals/kʙ        0.000000e+00 ( 0.000000e+00 +/- 0.000000e+00) [K]
Framework-molecule
    Van der Waals/kʙ        0.000000e+00 ( 0.000000e+00 +/- 0.000000e+00) [K]
    Van der Waals (Tail)/kʙ 0.000000e+00 ( 0.000000e+00 +/- 0.000000e+00) [K]
    Coulombic Real/kʙ       0.000000e+00 ( 0.000000e+00 +/- 0.000000e+00) [K]
    Coulombic Fourier/kʙ    0.000000e+00 ( 0.000000e+00 +/- 0.000000e+00) [K]
Molecule-molecule
    Van der Waals/kʙ       -2.971091e+05 (-2.811325e+05 +/- 0.000000e+00) [K]
    Van der Waals (Tail)/kʙ-6.982946e+03 (-6.802359e+03 +/- 0.000000e+00) [K]
    Coulombic Real/kʙ      -8.871836e+04 (-9.060967e+04 +/- 0.000000e+00) [K]
    Coulombic Fourier/kʙ   -8.397017e+03 (-8.615876e+03 +/- 0.000000e+00) [K]
    Molecule Intra/kʙ       0.000000e+00 ( 0.000000e+00 +/- 0.000000e+00) [K]

Current cycle: 700 out of 5000
===============================================================================

Box:      25.68339   0.00000   0.00000  Average:  25.71511   0.00000   0.00000
           0.00000  25.68339   0.00000             0.00000  25.71511   0.00000
           0.00000   0.00000  25.68339             0.00000   0.00000  25.71511
Lengths:  25.68339  25.68339  25.68339  Average:  25.71511  25.71511  25.71511
Angles:   90.00000  90.00000  90.00000  Average:  90.00000  90.00000  90.00000
Rectangular boundary conditions

net charge:   0.00000000

component 0 (CO2) lambda:  0 occupancy:  1 (1.000000)
    net charge:   0.00000000 [e]

Amount of molecules per component :
-------------------------------------------------------------------------------
Component 0 (CO2)
    molecules:      2.500000e+02 molecules  (2.500000e+02 +/- 0.000000e+00)
    number density: 1.475648e-02 molec./A^3 (1.470624e-02 +/- 0.000000e+00)
    density:        1.078134e+03 kg/m^3     (1.074463e+03 +/- 0.000000e+00)

Average pressure tensor: 
-------------------------------------------------------------------------------
 1.0638e+02  3.3983e+01 -2.2328e+01 +/- 0.0000e+00 0.0000e+00 0.0000e+00 [bar]
 3.3983e+01  1.2247e+02  4.6230e+01 +/- 0.0000e+00 0.0000e+00 0.0000e+00 [bar]
-2.2328e+01  4.6230e+01  8.1408e+01 +/- 0.0000e+00 0.0000e+00 0.0000e+00 [bar]
Ideal-gas pressure:   5.076044e+02 +/ 0.000000e+00 [bar]
Excess pressure:     -4.041876e+02 +/ 0.000000e+00 [bar]
Pressure:             1.034168e+02 +/ 0.000000e+00 [bar]

Total potential energy/kʙ  -3.917562e+05 (-3.880396e+05 +/- 0.000000e+00) [K]
-------------------------------------------------------------------------------
ExternalField-molecule
    Van der Waals/kʙ        0.000000e+00 ( 0.000000e+00 +/- 0.000000e+00) [K]
Framework-molecule
    Van der Waals/kʙ        0.000000e+00 ( 0.000000e+00 +/- 0.000000e+00) [K]
    Van der Waals (Tail)/kʙ 0.000000e+00 ( 0.000000e+00 +/- 0.000000e+00) [K]
    Coulombic Real/kʙ       0.000000e+00 ( 0.000000e+00 +/- 0.000000e+00) [K]
    Coulombic Fourier/kʙ    0.000000e+00 ( 0.000000e+00 +/- 0.000000e+00) [K]
Molecule-molecule
    Van der Waals/kʙ       -2.828026e+05 (-2.817141e+05 +/- 0.000000e+00) [K]
    Van der Waals (Tail)/kʙ-6.851080e+03 (-6.817485e+03 +/- 0.000000e+00) [K]
    Coulombic Real/kʙ      -9.347844e+04 (-9.091990e+04 +/- 0.000000e+00) [K]
    Coulombic Fourier/kʙ   -8.624107e+03 (-8.588095e+03 +/- 0.000000e+00) [K]
    Molecule Intra/kʙ       0.000000e+00 ( 0.000000e+00 +/- 0.000000e+00) [K]

Current cycle: 800 out of 5000
===============================================================================

Box:      25.49715   0.00000   0.00000  Average:  25.70160   0.00000   0.00000
           0.00000  25.49715   0.00000             0.00000  25.70160   0.00000
           0.00000   0.00000  25.49715             0.00000   0.00000  25.70160
Lengths:  25.49715  25.49715  25.49715  Average:  25.70160  25.70160  25.70160
Angles:   90.00000  90.00000  90.00000  Average:  90.00000  90.00000  90.00000
Rectangular boundary conditions

net charge:   0.00000000

component 0 (CO2) lambda:  0 occupancy:  1 (1.000000)
    net charge:   0.00000000 [e]

Amount of molecules per component :
-------------------------------------------------------------------------------
Component 0 (CO2)
    molecules:      2.500000e+02 molecules  (2.500000e+02 +/- 0.000000e+00)
    number density: 1.508221e-02 molec./A^3 (1.472920e-02 +/- 0.000000e+00)
    density:        1.101932e+03 kg/m^3     (1.076141e+03 +/- 0.000000e+00)

Average pressure tensor: 
-------------------------------------------------------------------------------
 8.6380e+01  1.4719e+01 -1.8158e+01 +/- 0.0000e+00 0.0000e+00 0.0000e+00 [bar]
 1.4719e+01  1.1083e+02  6.2527e+01 +/- 0.0000e+00 0.0000e+00 0.0000e+00 [bar]
-1.8158e+01  6.2527e+01  7.4919e+01 +/- 0.0000e+00 0.0000e+00 0.0000e+00 [bar]
Ideal-gas pressure:   5.083969e+02 +/ 0.000000e+00 [bar]
Excess pressure:     -4.176863e+02 +/ 0.000000e+00 [bar]
Pressure:             9.071058e+01 +/ 0.000000e+00 [bar]

Total potential energy/kʙ  -3.957747e+05 (-3.884006e+05 +/- 0.000000e+00) [K]
-------------------------------------------------------------------------------
ExternalField-molecule
    Van der Waals/kʙ        0.000000e+00 ( 0.000000e+00 +/- 0.000000e+00) [K]
Framework-molecule
    Van der Waals/kʙ        0.000000e+00 ( 0.000000e+00 +/- 0.000000e+00) [K]
    Van der Waals (Tail)/kʙ 0.000000e+00 ( 0.000000e+00 +/- 0.000000e+00) [K]
    Coulombic Real/kʙ       0.000000e+00 ( 0.000000e+00 +/- 0.000000e+00) [K]
    Coulombic Fourier/kʙ    0.000000e+00 ( 0.000000e+00 +/- 0.000000e+00) [K]
Molecule-molecule
    Van der Waals/kʙ       -2.841942e+05 (-2.820997e+05 +/- 0.000000e+00) [K]
    Van der Waals (Tail)/kʙ-7.002309e+03 (-6.828295e+03 +/- 0.000000e+00) [K]
    Coulombic Real/kʙ      -9.584797e+04 (-9.088894e+04 +/- 0.000000e+00) [K]
    Coulombic Fourier/kʙ   -8.730243e+03 (-8.583637e+03 +/- 0.000000e+00) [K]
    Molecule Intra/kʙ       0.000000e+00 ( 0.000000e+00 +/- 0.000000e+00) [K]

Current cycle: 900 out of 5000
===============================================================================

Box:      25.42880   0.00000   0.00000  Average:  25.67264   0.00000   0.00000
           0.00000  25.42880   0.00000             0.00000  25.67264   0.00000
           0.00000   0.00000  25.42880             0.00000   0.00000  25.67264
Lengths:  25.42880  25.42880  25.42880  Average:  25.67264  25.67264  25.67264
Angles:   90.00000  90.00000  90.00000  Average:  90.00000  90.00000  90.00000
Rectangular boundary conditions

net charge:   0.00000000

component 0 (CO2) lambda:  0 occupancy:  1 (1.000000)
    net charge:   0.00000000 [e]

Amount of molecules per component :
-------------------------------------------------------------------------------
Component 0 (CO2)
    molecules:      2.500000e+02 molecules  (2.500000e+02 +/- 0.000000e+00)
    number density: 1.520415e-02 molec./A^3 (1.477971e-02 +/- 0.000000e+00)
    density:        1.110841e+03 kg/m^3     (1.079831e+03 +/- 0.000000e+00)

Average pressure tensor: 
-------------------------------------------------------------------------------
 9.3063e+01  2.3805e+01 -9.2722e+00 +/- 0.0000e+00 0.0000e+00 0.0000e+00 [bar]
 2.3805e+01  1.0303e+02  6.6630e+01 +/- 0.0000e+00 0.0000e+00 0.0000e+00 [bar]
-9.2722e+00  6.6630e+01  7.9627e+01 +/- 0.0000e+00 0.0000e+00 0.0000e+00 [bar]
Ideal-gas pressure:   5.101403e+02 +/ 0.000000e+00 [bar]
Excess pressure:     -4.182341e+02 +/ 0.000000e+00 [bar]
Pressure:             9.190620e+01 +/ 0.000000e+00 [bar]

Total potential energy/kʙ  -4.072422e+05 (-3.902076e+05 +/- 0.000000e+00) [K]
-------------------------------------------------------------------------------
ExternalField-molecule
    Van der Waals/kʙ        0.000000e+00 ( 0.000000e+00 +/- 0.000000e+00) [K]
Framework-molecule
    Van der Waals/kʙ        0.000000e+00 ( 0.000000e+00 +/- 0.000000e+00) [K]
    Van der Waals (Tail)/kʙ 0.000000e+00 ( 0.000000e+00 +/- 0.000000e+00) [K]
    Coulombic Real/kʙ       0.000000e+00 ( 0.000000e+00 +/- 0.000000e+00) [K]
    Coulombic Fourier/kʙ    0.000000e+00 ( 0.000000e+00 +/- 0.000000e+00) [K]
Molecule-molecule
    Van der Waals/kʙ       -2.898641e+05 (-2.830647e+05 +/- 0.000000e+00) [K]
    Van der Waals (Tail)/kʙ-7.058923e+03 (-6.851714e+03 +/- 0.000000e+00) [K]
    Coulombic Real/kʙ      -1.007628e+05 (-9.166803e+04 +/- 0.000000e+00) [K]
    Coulombic Fourier/kʙ   -9.556500e+03 (-8.623209e+03 +/- 0.000000e+00) [K]
    Molecule Intra/kʙ       0.000000e+00 ( 0.000000e+00 +/- 0.000000e+00) [K]

Current cycle: 1000 out of 5000
===============================================================================

Box:      25.59241   0.00000   0.00000  Average:  25.65529   0.00000   0.00000
           0.00000  25.59241   0.00000             0.00000  25.65529   0.00000
           0.00000   0.00000  25.59241             0.00000   0.00000  25.65529
Lengths:  25.59241  25.59241  25.59241  Average:  25.65529  25.65529  25.65529
Angles:   90.00000  90.00000  90.00000  Average:  90.00000  90.00000  90.00000
Rectangular boundary conditions

net charge:   0.00000000

component 0 (CO2) lambda:  0 occupancy:  1 (1.000000)
    net charge:   0.00000000 [e]

Amount of molecules per component :
-------------------------------------------------------------------------------
Component 0 (CO2)
    molecules:      2.500000e+02 molecules  (2.500000e+02 +/- 0.000000e+00)
    number density: 1.491442e-02 molec./A^3 (1.480971e-02 +/- 0.000000e+00)
    density:        1.089673e+03 kg/m^3     (1.082023e+03 +/- 0.000000e+00)

Average pressure tensor: 
-------------------------------------------------------------------------------
 1.0045e+02  1.5786e+01  1.4350e+00 +/- 0.0000e+00 0.0000e+00 0.0000e+00 [bar]
 1.5786e+01  9.4821e+01  7.1844e+01 +/- 0.0000e+00 0.0000e+00 0.0000e+00 [bar]
 1.4350e+00  7.1844e+01  7.8797e+01 +/- 0.0000e+00 0.0000e+00 0.0000e+00 [bar]
Ideal-gas pressure:   5.111759e+02 +/ 0.000000e+00 [bar]
Excess pressure:     -4.198210e+02 +/ 0.000000e+00 [bar]
Pressure:             9.135488e+01 +/ 0.000000e+00 [bar]

Total potential energy/kʙ  -4.015703e+05 (-3.913207e+05 +/- 0.000000e+00) [K]
-------------------------------------------------------------------------------
ExternalField-molecule
    Van der Waals/kʙ        0.000000e+00 ( 0.000000e+00 +/- 0.000000e+00) [K]
Framework-molecule
    Van der Waals/kʙ        0.000000e+00 ( 0.000000e+00 +/- 0.000000e+00) [K]
    Van der Waals (Tail)/kʙ 0.000000e+00 ( 0.000000e+00 +/- 0.000000e+00) [K]
    Coulombic Real/kʙ       0.000000e+00 ( 0.000000e+00 +/- 0.000000e+00) [K]
    Coulombic Fourier/kʙ    0.000000e+00 ( 0.000000e+00 +/- 0.000000e+00) [K]
Molecule-molecule
    Van der Waals/kʙ       -2.914964e+05 (-2.836526e+05 +/- 0.000000e+00) [K]
    Van der Waals (Tail)/kʙ-6.924408e+03 (-6.865434e+03 +/- 0.000000e+00) [K]
    Coulombic Real/kʙ      -9.400922e+04 (-9.211996e+04 +/- 0.000000e+00) [K]
    Coulombic Fourier/kʙ   -9.140253e+03 (-8.682756e+03 +/- 0.000000e+00) [K]
    Molecule Intra/kʙ       0.000000e+00 ( 0.000000e+00 +/- 0.000000e+00) [K]

Current cycle: 1100 out of 5000
===============================================================================

Box:      25.51885   0.00000   0.00000  Average:  25.65021   0.00000   0.00000
           0.00000  25.51885   0.00000             0.00000  25.65021   0.00000
           0.00000   0.00000  25.51885             0.00000   0.00000  25.65021
Lengths:  25.51885  25.51885  25.51885  Average:  25.65021  25.65021  25.65021
Angles:   90.00000  90.00000  90.00000  Average:  90.00000  90.00000  90.00000
Rectangular boundary conditions

net charge:   0.00000000

component 0 (CO2) lambda:  0 occupancy:  1 (1.000000)
    net charge:   0.00000000 [e]

Amount of molecules per component :
-------------------------------------------------------------------------------
Component 0 (CO2)
    molecules:      2.500000e+02 molecules  (2.500000e+02 +/- 0.000000e+00)
    number density: 1.504377e-02 molec./A^3 (1.481819e-02 +/- 0.000000e+00)
    density:        1.099123e+03 kg/m^3     (1.082642e+03 +/- 0.000000e+00)

Average pressure tensor: 
-------------------------------------------------------------------------------
 9.9236e+01  3.2488e+01  5.5857e-01 +/- 0.0000e+00 0.0000e+00 0.0000e+00 [bar]
 3.2488e+01  8.4878e+01  7.0851e+01 +/- 0.0000e+00 0.0000e+00 0.0000e+00 [bar]
 5.5857e-01  7.0851e+01  8.9473e+01 +/- 0.0000e+00 0.0000e+00 0.0000e+00 [bar]
Ideal-gas pressure:   5.114685e+02 +/ 0.000000e+00 [bar]
Excess pressure:     -4.202730e+02 +/ 0.000000e+00 [bar]
Pressure:             9.119551e+01 +/ 0.000000e+00 [bar]

Total potential energy/kʙ  -3.951816e+05 (-3.915469e+05 +/- 0.000000e+00) [K]
-------------------------------------------------------------------------------
ExternalField-molecule
    Van der Waals/kʙ        0.000000e+00 ( 0.000000e+00 +/- 0.000000e+00) [K]
Framework-molecule
    Van der Waals/kʙ        0.000000e+00 ( 0.000000e+00 +/- 0.000000e+00) [K]
    Van der Waals (Tail)/kʙ 0.000000e+00 ( 0.000000e+00 +/- 0.000000e+00) [K]
    Coulombic Real/kʙ       0.000000e+00 ( 0.000000e+00 +/- 0.000000e+00) [K]
    Coulombic Fourier/kʙ    0.000000e+00 ( 0.000000e+00 +/- 0.000000e+00) [K]
Molecule-molecule
    Van der Waals/kʙ       -2.849764e+05 (-2.836889e+05 +/- 0.000000e+00) [K]
    Van der Waals (Tail)/kʙ-6.984459e+03 (-6.871342e+03 +/- 0.000000e+00) [K]
    Coulombic Real/kʙ      -9.425220e+04 (-9.225748e+04 +/- 0.000000e+00) [K]
    Coulombic Fourier/kʙ   -8.968540e+03 (-8.729186e+03 +/- 0.000000e+00) [K]
    Molecule Intra/kʙ       0.000000e+00 ( 0.000000e+00 +/- 0.000000e+00) [K]

Current cycle: 1200 out of 5000
===============================================================================

Box:      25.43898   0.00000   0.00000  Average:  25.63651   0.00000   0.00000
           0.00000  25.43898   0.00000             0.00000  25.63651   0.00000
           0.00000   0.00000  25.43898             0.00000   0.00000  25.63651
Lengths:  25.43898  25.43898  25.43898  Average:  25.63651  25.63651  25.63651
Angles:   90.00000  90.00000  90.00000  Average:  90.00000  90.00000  90.00000
Rectangular boundary conditions

net charge:   0.00000000

component 0 (CO2) lambda:  0 occupancy:  1 (1.000000)
    net charge:   0.00000000 [e]

Amount of molecules per component :
-------------------------------------------------------------------------------
Component 0 (CO2)
    molecules:      2.500000e+02 molecules  (2.500000e+02 +/- 0.000000e+00)
    number density: 1.518591e-02 molec./A^3 (1.484199e-02 +/- 0.000000e+00)
    density:        1.109509e+03 kg/m^3     (1.084381e+03 +/- 0.000000e+00)

Average pressure tensor: 
-------------------------------------------------------------------------------
 1.0474e+02  3.4789e+01  1.4937e+01 +/- 0.0000e+00 0.0000e+00 0.0000e+00 [bar]
 3.4789e+01  7.5354e+01  6.8790e+01 +/- 0.0000e+00 0.0000e+00 0.0000e+00 [bar]
 1.4937e+01  6.8790e+01  9.4244e+01 +/- 0.0000e+00 0.0000e+00 0.0000e+00 [bar]
Ideal-gas pressure:   5.122898e+02 +/ 0.000000e+00 [bar]
Excess pressure:     -4.208447e+02 +/ 0.000000e+00 [bar]
Pressure:             9.144516e+01 +/ 0.000000e+00 [bar]

Total potential energy/kʙ  -4.027097e+05 (-3.921237e+05 +/- 0.000000e+00) [K]
-------------------------------------------------------------------------------
ExternalField-molecule
    Van der Waals/kʙ        0.000000e+00 ( 0.000000e+00 +/- 0.000000e+00) [K]
Framework-molecule
    Van der Waals/kʙ        0.000000e+00 ( 0.000000e+00 +/- 0.000000e+00) [K]
    Van der Waals (Tail)/kʙ 0.000000e+00 ( 0.000000e+00 +/- 0.000000e+00) [K]
    Coulombic Real/kʙ       0.000000e+00 ( 0.000000e+00 +/- 0.000000e+00) [K]
    Coulombic Fourier/kʙ    0.000000e+00 ( 0.000000e+00 +/- 0.000000e+00) [K]
Molecule-molecule
    Van der Waals/kʙ       -2.883019e+05 (-2.841895e+05 +/- 0.000000e+00) [K]
    Van der Waals (Tail)/kʙ-7.050455e+03 (-6.883032e+03 +/- 0.000000e+00) [K]
    Coulombic Real/kʙ      -9.824980e+04 (-9.231858e+04 +/- 0.000000e+00) [K]
    Coulombic Fourier/kʙ   -9.107530e+03 (-8.732633e+03 +/- 0.000000e+00) [K]
    Molecule Intra/kʙ       0.000000e+00 ( 0.000000e+00 +/- 0.000000e+00) [K]

Current cycle: 1300 out of 5000
===============================================================================

Box:      25.63132   0.00000   0.00000  Average:  25.62111   0.00000   0.00000
           0.00000  25.63132   0.00000             0.00000  25.62111   0.00000
           0.00000   0.00000  25.63132             0.00000   0.00000  25.62111
Lengths:  25.63132  25.63132  25.63132  Average:  25.62111  25.62111  25.62111
Angles:   90.00000  90.00000  90.00000  Average:  90.00000  90.00000  90.00000
Rectangular boundary conditions

net charge:   0.00000000

component 0 (CO2) lambda:  0 occupancy:  1 (1.000000)
    net charge:   0.00000000 [e]

Amount of molecules per component :
-------------------------------------------------------------------------------
Component 0 (CO2)
    molecules:      2.500000e+02 molecules  (2.500000e+02 +/- 0.000000e+00)
    number density: 1.484660e-02 molec./A^3 (1.486888e-02 +/- 0.000000e+00)
    density:        1.084718e+03 kg/m^3     (1.086346e+03 +/- 0.000000e+00)

Average pressure tensor: 
-------------------------------------------------------------------------------
 1.2730e+02  2.9077e+01  1.9103e+01 +/- 0.0000e+00 0.0000e+00 0.0000e+00 [bar]
 2.9077e+01  6.8669e+01  5.6283e+01 +/- 0.0000e+00 0.0000e+00 0.0000e+00 [bar]
 1.9103e+01  5.6283e+01  7.6499e+01 +/- 0.0000e+00 0.0000e+00 0.0000e+00 [bar]
Ideal-gas pressure:   5.132181e+02 +/ 0.000000e+00 [bar]
Excess pressure:     -4.223955e+02 +/ 0.000000e+00 [bar]
Pressure:             9.082259e+01 +/ 0.000000e+00 [bar]

Total potential energy/kʙ  -3.920905e+05 (-3.928186e+05 +/- 0.000000e+00) [K]
-------------------------------------------------------------------------------
ExternalField-molecule
    Van der Waals/kʙ        0.000000e+00 ( 0.000000e+00 +/- 0.000000e+00) [K]
Framework-molecule
    Van der Waals/kʙ        0.000000e+00 ( 0.000000e+00 +/- 0.000000e+00) [K]
    Van der Waals (Tail)/kʙ 0.000000e+00 ( 0.000000e+00 +/- 0.000000e+00) [K]
    Coulombic Real/kʙ       0.000000e+00 ( 0.000000e+00 +/- 0.000000e+00) [K]
    Coulombic Fourier/kʙ    0.000000e+00 ( 0.000000e+00 +/- 0.000000e+00) [K]
Molecule-molecule
    Van der Waals/kʙ       -2.862533e+05 (-2.846175e+05 +/- 0.000000e+00) [K]
    Van der Waals (Tail)/kʙ-6.892921e+03 (-6.893695e+03 +/- 0.000000e+00) [K]
    Coulombic Real/kʙ      -8.983877e+04 (-9.253357e+04 +/- 0.000000e+00) [K]
    Coulombic Fourier/kʙ   -9.105556e+03 (-8.773888e+03 +/- 0.000000e+00) [K]
    Molecule Intra/kʙ       0.000000e+00 ( 0.000000e+00 +/- 0.000000e+00) [K]

Current cycle: 1400 out of 5000
===============================================================================

Box:      25.49241   0.00000   0.00000  Average:  25.61753   0.00000   0.00000
           0.00000  25.49241   0.00000             0.00000  25.61753   0.00000
           0.00000   0.00000  25.49241             0.00000   0.00000  25.61753
Lengths:  25.49241  25.49241  25.49241  Average:  25.61753  25.61753  25.61753
Angles:   90.00000  90.00000  90.00000  Average:  90.00000  90.00000  90.00000
Rectangular boundary conditions

net charge:   0.00000000

component 0 (CO2) lambda:  0 occupancy:  1 (1.000000)
    net charge:   0.00000000 [e]

Amount of molecules per component :
-------------------------------------------------------------------------------
Component 0 (CO2)
    molecules:      2.500000e+02 molecules  (2.500000e+02 +/- 0.000000e+00)
    number density: 1.509062e-02 molec./A^3 (1.487487e-02 +/- 0.000000e+00)
    density:        1.102547e+03 kg/m^3     (1.086783e+03 +/- 0.000000e+00)

Average pressure tensor: 
-------------------------------------------------------------------------------
 1.3725e+02  2.1110e+01  1.8194e+01 +/- 0.0000e+00 0.0000e+00 0.0000e+00 [bar]
 2.1110e+01  7.0236e+01  5.1897e+01 +/- 0.0000e+00 0.0000e+00 0.0000e+00 [bar]
 1.8194e+01  5.1897e+01  7.7914e+01 +/- 0.0000e+00 0.0000e+00 0.0000e+00 [bar]
Ideal-gas pressure:   5.134247e+02 +/ 0.000000e+00 [bar]
Excess pressure:     -4.182919e+02 +/ 0.000000e+00 [bar]
Pressure:             9.513282e+01 +/ 0.000000e+00 [bar]

Total potential energy/kʙ  -3.949353e+05 (-3.930026e+05 +/- 0.000000e+00) [K]
-------------------------------------------------------------------------------
ExternalField-molecule
    Van der Waals/kʙ        0.000000e+00 ( 0.000000e+00 +/- 0.000000e+00) [K]
Framework-molecule
    Van der Waals/kʙ        0.000000e+00 ( 0.000000e+00 +/- 0.000000e+00) [K]
    Van der Waals (Tail)/kʙ 0.000000e+00 ( 0.000000e+00 +/- 0.000000e+00) [K]
    Coulombic Real/kʙ       0.000000e+00 ( 0.000000e+00 +/- 0.000000e+00) [K]
    Coulombic Fourier/kʙ    0.000000e+00 ( 0.000000e+00 +/- 0.000000e+00) [K]
Molecule-molecule
    Van der Waals/kʙ       -2.823072e+05 (-2.844655e+05 +/- 0.000000e+00) [K]
    Van der Waals (Tail)/kʙ-7.006213e+03 (-6.897352e+03 +/- 0.000000e+00) [K]
    Coulombic Real/kʙ      -9.625198e+04 (-9.284140e+04 +/- 0.000000e+00) [K]
    Coulombic Fourier/kʙ   -9.369881e+03 (-8.798261e+03 +/- 0.000000e+00) [K]
    Molecule Intra/kʙ       0.000000e+00 ( 0.000000e+00 +/- 0.000000e+00) [K]

Current cycle: 1500 out of 5000
===============================================================================

Box:      25.33558   0.00000   0.00000  Average:  25.60407   0.00000   0.00000
           0.00000  25.33558   0.00000             0.00000  25.60407   0.00000
           0.00000   0.00000  25.33558             0.00000   0.00000  25.60407
Lengths:  25.33558  25.33558  25.33558  Average:  25.60407  25.60407  25.60407
Angles:   90.00000  90.00000  90.00000  Average:  90.00000  90.00000  90.00000
Rectangular boundary conditions

net charge:   0.00000000

component 0 (CO2) lambda:  0 occupancy:  1 (1.000000)
    net charge:   0.00000000 [e]

Amount of molecules per component :
-------------------------------------------------------------------------------
Component 0 (CO2)
    molecules:      2.500000e+02 molecules  (2.500000e+02 +/- 0.000000e+00)
    number density: 1.537261e-02 molec./A^3 (1.489846e-02 +/- 0.000000e+00)
    density:        1.123149e+03 kg/m^3     (1.088507e+03 +/- 0.000000e+00)

Average pressure tensor: 
-------------------------------------------------------------------------------
 1.2644e+02  1.5165e+01  2.3432e+01 +/- 0.0000e+00 0.0000e+00 0.0000e+00 [bar]
 1.5165e+01  8.0824e+01  4.5417e+01 +/- 0.0000e+00 0.0000e+00 0.0000e+00 [bar]
 2.3432e+01  4.5417e+01  8.8556e+01 +/- 0.0000e+00 0.0000e+00 0.0000e+00 [bar]
Ideal-gas pressure:   5.142389e+02 +/ 0.000000e+00 [bar]
Excess pressure:     -4.156335e+02 +/ 0.000000e+00 [bar]
Pressure:             9.860545e+01 +/ 0.000000e+00 [bar]

Total potential energy/kʙ  -4.021408e+05 (-3.935691e+05 +/- 0.000000e+00) [K]
-------------------------------------------------------------------------------
ExternalField-molecule
    Van der Waals/kʙ        0.000000e+00 ( 0.000000e+00 +/- 0.000000e+00) [K]
Framework-molecule
    Van der Waals/kʙ        0.000000e+00 ( 0.000000e+00 +/- 0.000000e+00) [K]
    Van der Waals (Tail)/kʙ 0.000000e+00 ( 0.000000e+00 +/- 0.000000e+00) [K]
    Coulombic Real/kʙ       0.000000e+00 ( 0.000000e+00 +/- 0.000000e+00) [K]
    Coulombic Fourier/kʙ    0.000000e+00 ( 0.000000e+00 +/- 0.000000e+00) [K]
Molecule-molecule
    Van der Waals/kʙ       -2.949266e+05 (-2.850470e+05 +/- 0.000000e+00) [K]
    Van der Waals (Tail)/kʙ-7.137132e+03 (-6.909183e+03 +/- 0.000000e+00) [K]
    Coulombic Real/kʙ      -9.200008e+04 (-9.281486e+04 +/- 0.000000e+00) [K]
    Coulombic Fourier/kʙ   -8.076955e+03 (-8.798116e+03 +/- 0.000000e+00) [K]
    Molecule Intra/kʙ       0.000000e+00 ( 0.000000e+00 +/- 0.000000e+00) [K]

Current cycle: 1600 out of 5000
===============================================================================

Box:      25.50182   0.00000   0.00000  Average:  25.60357   0.00000   0.00000
           0.00000  25.50182   0.00000             0.00000  25.60357   0.00000
           0.00000   0.00000  25.50182             0.00000   0.00000  25.60357
Lengths:  25.50182  25.50182  25.50182  Average:  25.60357  25.60357  25.60357
Angles:   90.00000  90.00000  90.00000  Average:  90.00000  90.00000  90.00000
Rectangular boundary conditions

net charge:   0.00000000

component 0 (CO2) lambda:  0 occupancy:  1 (1.000000)
    net charge:   0.00000000 [e]

Amount of molecules per component :
-------------------------------------------------------------------------------
Component 0 (CO2)
    molecules:      2.500000e+02 molecules  (2.500000e+02 +/- 0.000000e+00)
    number density: 1.507393e-02 molec./A^3 (1.489909e-02 +/- 0.000000e+00)
    density:        1.101327e+03 kg/m^3     (1.088553e+03 +/- 0.000000e+00)

Average pressure tensor: 
-------------------------------------------------------------------------------
 1.2077e+02  1.4867e+01  1.8327e+01 +/- 0.0000e+00 0.0000e+00 0.0000e+00 [bar]
 1.4867e+01  8.5075e+01  3.9296e+01 +/- 0.0000e+00 0.0000e+00 0.0000e+00 [bar]
 1.8327e+01  3.9296e+01  9.0975e+01 +/- 0.0000e+00 0.0000e+00 0.0000e+00 [bar]
Ideal-gas pressure:   5.142610e+02 +/ 0.000000e+00 [bar]
Excess pressure:     -4.153198e+02 +/ 0.000000e+00 [bar]
Pressure:             9.894114e+01 +/ 0.000000e+00 [bar]

Total potential energy/kʙ  -3.969301e+05 (-3.935448e+05 +/- 0.000000e+00) [K]
-------------------------------------------------------------------------------
ExternalField-molecule
    Van der Waals/kʙ        0.000000e+00 ( 0.000000e+00 +/- 0.000000e+00) [K]
Framework-molecule
    Van der Waals/kʙ        0.000000e+00 ( 0.000000e+00 +/- 0.000000e+00) [K]
    Van der Waals (Tail)/kʙ 0.000000e+00 ( 0.000000e+00 +/- 0.000000e+00) [K]
    Coulombic Real/kʙ       0.000000e+00 ( 0.000000e+00 +/- 0.000000e+00) [K]
    Coulombic Fourier/kʙ    0.000000e+00 ( 0.000000e+00 +/- 0.000000e+00) [K]
Molecule-molecule
    Van der Waals/kʙ       -2.895931e+05 (-2.852501e+05 +/- 0.000000e+00) [K]
    Van der Waals (Tail)/kʙ-6.998465e+03 (-6.910265e+03 +/- 0.000000e+00) [K]
    Coulombic Real/kʙ      -9.155017e+04 (-9.261321e+04 +/- 0.000000e+00) [K]
    Coulombic Fourier/kʙ   -8.788393e+03 (-8.771245e+03 +/- 0.000000e+00) [K]
    Molecule Intra/kʙ       0.000000e+00 ( 0.000000e+00 +/- 0.000000e+00) [K]

Current cycle: 1700 out of 5000
===============================================================================

Box:      25.50815   0.00000   0.00000  Average:  25.59995   0.00000   0.00000
           0.00000  25.50815   0.00000             0.00000  25.59995   0.00000
           0.00000   0.00000  25.50815             0.00000   0.00000  25.59995
Lengths:  25.50815  25.50815  25.50815  Average:  25.59995  25.59995  25.59995
Angles:   90.00000  90.00000  90.00000  Average:  90.00000  90.00000  90.00000
Rectangular boundary conditions

net charge:   0.00000000

component 0 (CO2) lambda:  0 occupancy:  1 (1.000000)
    net charge:   0.00000000 [e]

Amount of molecules per component :
-------------------------------------------------------------------------------
Component 0 (CO2)
    molecules:      2.500000e+02 molecules  (2.500000e+02 +/- 0.000000e+00)
    number density: 1.506271e-02 molec./A^3 (1.490526e-02 +/- 0.000000e+00)
    density:        1.100508e+03 kg/m^3     (1.089004e+03 +/- 0.000000e+00)

Average pressure tensor: 
-------------------------------------------------------------------------------
 1.2723e+02  8.1187e+00  8.3451e+00 +/- 0.0000e+00 0.0000e+00 0.0000e+00 [bar]
 8.1187e+00  6.6118e+01  4.2655e+01 +/- 0.0000e+00 0.0000e+00 0.0000e+00 [bar]
 8.3451e+00  4.2655e+01  9.5213e+01 +/- 0.0000e+00 0.0000e+00 0.0000e+00 [bar]
Ideal-gas pressure:   5.144737e+02 +/ 0.000000e+00 [bar]
Excess pressure:     -4.182883e+02 +/ 0.000000e+00 [bar]
Pressure:             9.618544e+01 +/ 0.000000e+00 [bar]

Total potential energy/kʙ  -3.922853e+05 (-3.936217e+05 +/- 0.000000e+00) [K]
-------------------------------------------------------------------------------
ExternalField-molecule
    Van der Waals/kʙ        0.000000e+00 ( 0.000000e+00 +/- 0.000000e+00) [K]
Framework-molecule
    Van der Waals/kʙ        0.000000e+00 ( 0.000000e+00 +/- 0.000000e+00) [K]
    Van der Waals (Tail)/kʙ 0.000000e+00 ( 0.000000e+00 +/- 0.000000e+00) [K]
    Coulombic Real/kʙ       0.000000e+00 ( 0.000000e+00 +/- 0.000000e+00) [K]
    Coulombic Fourier/kʙ    0.000000e+00 ( 0.000000e+00 +/- 0.000000e+00) [K]
Molecule-molecule
    Van der Waals/kʙ       -2.835152e+05 (-2.854105e+05 +/- 0.000000e+00) [K]
    Van der Waals (Tail)/kʙ-6.993256e+03 (-6.912850e+03 +/- 0.000000e+00) [K]
    Coulombic Real/kʙ      -9.273866e+04 (-9.252446e+04 +/- 0.000000e+00) [K]
    Coulombic Fourier/kʙ   -9.038193e+03 (-8.773865e+03 +/- 0.000000e+00) [K]
    Molecule Intra/kʙ       0.000000e+00 ( 0.000000e+00 +/- 0.000000e+00) [K]

Current cycle: 1800 out of 5000
===============================================================================

Box:      25.90548   0.00000   0.00000  Average:  25.60335   0.00000   0.00000
           0.00000  25.90548   0.00000             0.00000  25.60335   0.00000
           0.00000   0.00000  25.90548             0.00000   0.00000  25.60335
Lengths:  25.90548  25.90548  25.90548  Average:  25.60335  25.60335  25.60335
Angles:   90.00000  90.00000  90.00000  Average:  90.00000  90.00000  90.00000
Rectangular boundary conditions

net charge:   0.00000000

component 0 (CO2) lambda:  0 occupancy:  1 (1.000000)
    net charge:   0.00000000 [e]

Amount of molecules per component :
-------------------------------------------------------------------------------
Component 0 (CO2)
    molecules:      2.500000e+02 molecules  (2.500000e+02 +/- 0.000000e+00)
    number density: 1.438020e-02 molec./A^3 (1.489920e-02 +/- 0.000000e+00)
    density:        1.050642e+03 kg/m^3     (1.088561e+03 +/- 0.000000e+00)

Average pressure tensor: 
-------------------------------------------------------------------------------
 1.2607e+02  3.0876e+00  8.3871e-01 +/- 0.0000e+00 0.0000e+00 0.0000e+00 [bar]
 3.0876e+00  7.6868e+01  3.9021e+01 +/- 0.0000e+00 0.0000e+00 0.0000e+00 [bar]
 8.3871e-01  3.9021e+01  1.0630e+02 +/- 0.0000e+00 0.0000e+00 0.0000e+00 [bar]
Ideal-gas pressure:   5.142645e+02 +/ 0.000000e+00 [bar]
Excess pressure:     -4.111833e+02 +/ 0.000000e+00 [bar]
Pressure:             1.030812e+02 +/ 0.000000e+00 [bar]

Total potential energy/kʙ  -3.770734e+05 (-3.933043e+05 +/- 0.000000e+00) [K]
-------------------------------------------------------------------------------
ExternalField-molecule
    Van der Waals/kʙ        0.000000e+00 ( 0.000000e+00 +/- 0.000000e+00) [K]
Framework-molecule
    Van der Waals/kʙ        0.000000e+00 ( 0.000000e+00 +/- 0.000000e+00) [K]
    Van der Waals (Tail)/kʙ 0.000000e+00 ( 0.000000e+00 +/- 0.000000e+00) [K]
    Coulombic Real/kʙ       0.000000e+00 ( 0.000000e+00 +/- 0.000000e+00) [K]
    Coulombic Fourier/kʙ    0.000000e+00 ( 0.000000e+00 +/- 0.000000e+00) [K]
Molecule-molecule
    Van der Waals/kʙ       -2.773703e+05 (-2.852040e+05 +/- 0.000000e+00) [K]
    Van der Waals (Tail)/kʙ-6.676381e+03 (-6.909987e+03 +/- 0.000000e+00) [K]
    Coulombic Real/kʙ      -8.509219e+04 (-9.241931e+04 +/- 0.000000e+00) [K]
    Coulombic Fourier/kʙ   -7.934503e+03 (-8.771049e+03 +/- 0.000000e+00) [K]
    Molecule Intra/kʙ       0.000000e+00 ( 0.000000e+00 +/- 0.000000e+00) [K]

Current cycle: 1900 out of 5000
===============================================================================

Box:      25.86243   0.00000   0.00000  Average:  25.61298   0.00000   0.00000
           0.00000  25.86243   0.00000             0.00000  25.61298   0.00000
           0.00000   0.00000  25.86243             0.00000   0.00000  25.61298
Lengths:  25.86243  25.86243  25.86243  Average:  25.61298  25.61298  25.61298
Angles:   90.00000  90.00000  90.00000  Average:  90.00000  90.00000  90.00000
Rectangular boundary conditions

net charge:   0.00000000

component 0 (CO2) lambda:  0 occupancy:  1 (1.000000)
    net charge:   0.00000000 [e]

Amount of molecules per component :
-------------------------------------------------------------------------------
Component 0 (CO2)
    molecules:      2.500000e+02 molecules  (2.500000e+02 +/- 0.000000e+00)
    number density: 1.445213e-02 molec./A^3 (1.488249e-02 +/- 0.000000e+00)
    density:        1.055897e+03 kg/m^3     (1.087340e+03 +/- 0.000000e+00)

Average pressure tensor: 
-------------------------------------------------------------------------------
 1.2340e+02 -1.2183e+00  2.6187e+00 +/- 0.0000e+00 0.0000e+00 0.0000e+00 [bar]
-1.2183e+00  8.8721e+01  3.0474e+01 +/- 0.0000e+00 0.0000e+00 0.0000e+00 [bar]
 2.6187e+00  3.0474e+01  1.0423e+02 +/- 0.0000e+00 0.0000e+00 0.0000e+00 [bar]
Ideal-gas pressure:   5.136879e+02 +/ 0.000000e+00 [bar]
Excess pressure:     -4.082379e+02 +/ 0.000000e+00 [bar]
Pressure:             1.054501e+02 +/ 0.000000e+00 [bar]

Total potential energy/kʙ  -3.773751e+05 (-3.928060e+05 +/- 0.000000e+00) [K]
-------------------------------------------------------------------------------
ExternalField-molecule
    Van der Waals/kʙ        0.000000e+00 ( 0.000000e+00 +/- 0.000000e+00) [K]
Framework-molecule
    Van der Waals/kʙ        0.000000e+00 ( 0.000000e+00 +/- 0.000000e+00) [K]
    Van der Waals (Tail)/kʙ 0.000000e+00 ( 0.000000e+00 +/- 0.000000e+00) [K]
    Coulombic Real/kʙ       0.000000e+00 ( 0.000000e+00 +/- 0.000000e+00) [K]
    Coulombic Fourier/kʙ    0.000000e+00 ( 0.000000e+00 +/- 0.000000e+00) [K]
Molecule-molecule
    Van der Waals/kʙ       -2.764109e+05 (-2.847819e+05 +/- 0.000000e+00) [K]
    Van der Waals (Tail)/kʙ-6.709777e+03 (-6.903590e+03 +/- 0.000000e+00) [K]
    Coulombic Real/kʙ      -8.588920e+04 (-9.237307e+04 +/- 0.000000e+00) [K]
    Coulombic Fourier/kʙ   -8.365257e+03 (-8.747452e+03 +/- 0.000000e+00) [K]
    Molecule Intra/kʙ       0.000000e+00 ( 0.000000e+00 +/- 0.000000e+00) [K]

Current cycle: 2000 out of 5000
===============================================================================

Box:      25.74517   0.00000   0.00000  Average:  25.61920   0.00000   0.00000
           0.00000  25.74517   0.00000             0.00000  25.61920   0.00000
           0.00000   0.00000  25.74517             0.00000   0.00000  25.61920
Lengths:  25.74517  25.74517  25.74517  Average:  25.61920  25.61920  25.61920
Angles:   90.00000  90.00000  90.00000  Average:  90.00000  90.00000  90.00000
Rectangular boundary conditions

net charge:   0.00000000

component 0 (CO2) lambda:  0 occupancy:  1 (1.000000)
    net charge:   0.00000000 [e]

Amount of molecules per component :
-------------------------------------------------------------------------------
Component 0 (CO2)
    molecules:      2.500000e+02 molecules  (2.500000e+02 +/- 0.000000e+00)
    number density: 1.465051e-02 molec./A^3 (1.487165e-02 +/- 0.000000e+00)
    density:        1.070392e+03 kg/m^3     (1.086548e+03 +/- 0.000000e+00)

Average pressure tensor: 
-------------------------------------------------------------------------------
 1.1871e+02  1.9372e-02 -1.9435e-01 +/- 0.0000e+00 0.0000e+00 0.0000e+00 [bar]
 1.9372e-02  9.8580e+01  2.7737e+01 +/- 0.0000e+00 0.0000e+00 0.0000e+00 [bar]
-1.9435e-01  2.7737e+01  1.1130e+02 +/- 0.0000e+00 0.0000e+00 0.0000e+00 [bar]
Ideal-gas pressure:   5.133137e+02 +/ 0.000000e+00 [bar]
Excess pressure:     -4.037854e+02 +/ 0.000000e+00 [bar]
Pressure:             1.095283e+02 +/ 0.000000e+00 [bar]

Total potential energy/kʙ  -3.893391e+05 (-3.922060e+05 +/- 0.000000e+00) [K]
-------------------------------------------------------------------------------
ExternalField-molecule
    Van der Waals/kʙ        0.000000e+00 ( 0.000000e+00 +/- 0.000000e+00) [K]
Framework-molecule
    Van der Waals/kʙ        0.000000e+00 ( 0.000000e+00 +/- 0.000000e+00) [K]
    Van der Waals (Tail)/kʙ 0.000000e+00 ( 0.000000e+00 +/- 0.000000e+00) [K]
    Coulombic Real/kʙ       0.000000e+00 ( 0.000000e+00 +/- 0.000000e+00) [K]
    Coulombic Fourier/kʙ    0.000000e+00 ( 0.000000e+00 +/- 0.000000e+00) [K]
Molecule-molecule
    Van der Waals/kʙ       -2.835151e+05 (-2.844934e+05 +/- 0.000000e+00) [K]
    Van der Waals (Tail)/kʙ-6.801881e+03 (-6.898800e+03 +/- 0.000000e+00) [K]
    Coulombic Real/kʙ      -9.000861e+04 (-9.206035e+04 +/- 0.000000e+00) [K]
    Coulombic Fourier/kʙ   -9.013509e+03 (-8.753402e+03 +/- 0.000000e+00) [K]
    Molecule Intra/kʙ       0.000000e+00 ( 0.000000e+00 +/- 0.000000e+00) [K]

Current cycle: 2100 out of 5000
===============================================================================

Box:      25.98981   0.00000   0.00000  Average:  25.62791   0.00000   0.00000
           0.00000  25.98981   0.00000             0.00000  25.62791   0.00000
           0.00000   0.00000  25.98981             0.00000   0.00000  25.62791
Lengths:  25.98981  25.98981  25.98981  Average:  25.62791  25.62791  25.62791
Angles:   90.00000  90.00000  90.00000  Average:  90.00000  90.00000  90.00000
Rectangular boundary conditions

net charge:   0.00000000

component 0 (CO2) lambda:  0 occupancy:  1 (1.000000)
    net charge:   0.00000000 [e]

Amount of molecules per component :
-------------------------------------------------------------------------------
Component 0 (CO2)
    molecules:      2.500000e+02 molecules  (2.500000e+02 +/- 0.000000e+00)
    number density: 1.424067e-02 molec./A^3 (1.485660e-02 +/- 0.000000e+00)
    density:        1.040448e+03 kg/m^3     (1.085449e+03 +/- 0.000000e+00)

Average pressure tensor: 
-------------------------------------------------------------------------------
 1.2477e+02 -9.2165e+00 -7.8621e+00 +/- 0.0000e+00 0.0000e+00 0.0000e+00 [bar]
-9.2165e+00  9.0405e+01  2.5051e+01 +/- 0.0000e+00 0.0000e+00 0.0000e+00 [bar]
-7.8621e+00  2.5051e+01  1.0262e+02 +/- 0.0000e+00 0.0000e+00 0.0000e+00 [bar]
Ideal-gas pressure:   5.127944e+02 +/ 0.000000e+00 [bar]
Excess pressure:     -4.068613e+02 +/ 0.000000e+00 [bar]
Pressure:             1.059330e+02 +/ 0.000000e+00 [bar]

Total potential energy/kʙ  -3.780537e+05 (-3.916851e+05 +/- 0.000000e+00) [K]
-------------------------------------------------------------------------------
ExternalField-molecule
    Van der Waals/kʙ        0.000000e+00 ( 0.000000e+00 +/- 0.000000e+00) [K]
Framework-molecule
    Van der Waals/kʙ        0.000000e+00 ( 0.000000e+00 +/- 0.000000e+00) [K]
    Van der Waals (Tail)/kʙ 0.000000e+00 ( 0.000000e+00 +/- 0.000000e+00) [K]
[...]
    Coulombic Fourier/kʙ    0.000000e+00 ( 0.000000e+00 +/- 0.000000e+00) [K]
Molecule-molecule
    Van der Waals/kʙ       -2.859947e+05 (-2.821653e+05 +/- 5.360747e+03) [K]
    Van der Waals (Tail)/kʙ-6.796880e+03 (-6.856259e+03 +/- 1.131293e+02) [K]
    Coulombic Real/kʙ      -9.434487e+04 (-9.171912e+04 +/- 9.226285e+02) [K]
    Coulombic Fourier/kʙ   -8.725581e+03 (-8.674084e+03 +/- 1.504710e+02) [K]
    Molecule Intra/kʙ       0.000000e+00 ( 0.000000e+00 +/- 0.000000e+00) [K]

Current cycle: 4700 out of 5000
===============================================================================

Box:      26.02861   0.00000   0.00000  Average:  25.67912   0.00000   0.00000
           0.00000  26.02861   0.00000             0.00000  25.67912   0.00000
           0.00000   0.00000  26.02861             0.00000   0.00000  25.67912
Lengths:  26.02861  26.02861  26.02861  Average:  25.67912  25.67912  25.67912
Angles:   90.00000  90.00000  90.00000  Average:  90.00000  90.00000  90.00000
Rectangular boundary conditions

net charge:   0.00000000

component 0 (CO2) lambda:  0 occupancy:  1 (1.000000)
    net charge:   0.00000000 [e]

Amount of molecules per component :
-------------------------------------------------------------------------------
Component 0 (CO2)
    molecules:      2.500000e+02 molecules  (2.500000e+02 +/- 3.944933e-14)
    number density: 1.417708e-02 molec./A^3 (1.476877e-02 +/- 2.471990e-04)
    density:        1.035802e+03 kg/m^3     (1.079032e+03 +/- 1.806078e+01)

Average pressure tensor: 
-------------------------------------------------------------------------------
 1.2813e+02 -6.2415e+00 -4.7400e-01 +/- 4.3071e+01 3.9872e+01 4.0688e+01 [bar]
-6.2415e+00  8.7421e+01  2.6132e+01 +/- 3.9872e+01 3.1769e+01 6.7111e+01 [bar]
-4.7400e-01  2.6132e+01  1.3033e+02 +/- 4.0688e+01 6.7111e+01 6.0232e+01 [bar]
Ideal-gas pressure:   5.097626e+02 +/ 8.532385e+00 [bar]
Excess pressure:     -3.944679e+02 +/ 2.074640e+01 [bar]
Pressure:             1.152948e+02 +/ 1.789876e+01 [bar]

Total potential energy/kʙ  -3.637831e+05 (-3.892441e+05 +/- 6.384007e+03) [K]
-------------------------------------------------------------------------------
ExternalField-molecule
    Van der Waals/kʙ        0.000000e+00 ( 0.000000e+00 +/- 0.000000e+00) [K]
Framework-molecule
    Van der Waals/kʙ        0.000000e+00 ( 0.000000e+00 +/- 0.000000e+00) [K]
    Van der Waals (Tail)/kʙ 0.000000e+00 ( 0.000000e+00 +/- 0.000000e+00) [K]
    Coulombic Real/kʙ       0.000000e+00 ( 0.000000e+00 +/- 0.000000e+00) [K]
    Coulombic Fourier/kʙ    0.000000e+00 ( 0.000000e+00 +/- 0.000000e+00) [K]
Molecule-molecule
    Van der Waals/kʙ       -2.673736e+05 (-2.820794e+05 +/- 5.356934e+03) [K]
    Van der Waals (Tail)/kʙ-6.582079e+03 (-6.854862e+03 +/- 1.129367e+02) [K]
    Coulombic Real/kʙ      -8.148464e+04 (-9.163804e+04 +/- 1.069409e+03) [K]
    Coulombic Fourier/kʙ   -8.342799e+03 (-8.671840e+03 +/- 1.458023e+02) [K]
    Molecule Intra/kʙ       0.000000e+00 ( 0.000000e+00 +/- 0.000000e+00) [K]

Current cycle: 4800 out of 5000
===============================================================================

Box:      25.63352   0.00000   0.00000  Average:  25.68261   0.00000   0.00000
           0.00000  25.63352   0.00000             0.00000  25.68261   0.00000
           0.00000   0.00000  25.63352             0.00000   0.00000  25.68261
Lengths:  25.63352  25.63352  25.63352  Average:  25.68261  25.68261  25.68261
Angles:   90.00000  90.00000  90.00000  Average:  90.00000  90.00000  90.00000
Rectangular boundary conditions

net charge:   0.00000000

component 0 (CO2) lambda:  0 occupancy:  1 (1.000000)
    net charge:   0.00000000 [e]

Amount of molecules per component :
-------------------------------------------------------------------------------
Component 0 (CO2)
    molecules:      2.500000e+02 molecules  (2.500000e+02 +/- 0.000000e+00)
    number density: 1.484278e-02 molec./A^3 (1.476280e-02 +/- 2.481550e-04)
    density:        1.084439e+03 kg/m^3     (1.078595e+03 +/- 1.813063e+01)

Average pressure tensor: 
-------------------------------------------------------------------------------
 1.3120e+02 -3.8465e+00  1.0733e+00 +/- 3.3849e+01 4.2339e+01 4.2204e+01 [bar]
-3.8465e+00  9.0480e+01  2.5620e+01 +/- 4.2339e+01 2.4442e+01 6.3196e+01 [bar]
 1.0733e+00  2.5620e+01  1.2846e+02 +/- 4.2204e+01 6.3196e+01 5.0430e+01 [bar]
Ideal-gas pressure:   5.095566e+02 +/ 8.565383e+00 [bar]
Excess pressure:     -3.928432e+02 +/ 2.117816e+01 [bar]
Pressure:             1.167134e+02 +/ 1.822653e+01 [bar]

Total potential energy/kʙ  -3.936845e+05 (-3.890290e+05 +/- 6.492774e+03) [K]
-------------------------------------------------------------------------------
ExternalField-molecule
    Van der Waals/kʙ        0.000000e+00 ( 0.000000e+00 +/- 0.000000e+00) [K]
Framework-molecule
    Van der Waals/kʙ        0.000000e+00 ( 0.000000e+00 +/- 0.000000e+00) [K]
    Van der Waals (Tail)/kʙ 0.000000e+00 ( 0.000000e+00 +/- 0.000000e+00) [K]
    Coulombic Real/kʙ       0.000000e+00 ( 0.000000e+00 +/- 0.000000e+00) [K]
    Coulombic Fourier/kʙ    0.000000e+00 ( 0.000000e+00 +/- 0.000000e+00) [K]
Molecule-molecule
    Van der Waals/kʙ       -2.836854e+05 (-2.819798e+05 +/- 5.373110e+03) [K]
    Van der Waals (Tail)/kʙ-6.891144e+03 (-6.852769e+03 +/- 1.131162e+02) [K]
    Coulombic Real/kʙ      -9.394400e+04 (-9.152702e+04 +/- 1.283869e+03) [K]
    Coulombic Fourier/kʙ   -9.163933e+03 (-8.669363e+03 +/- 1.430752e+02) [K]
    Molecule Intra/kʙ       0.000000e+00 ( 0.000000e+00 +/- 0.000000e+00) [K]

Current cycle: 4900 out of 5000
===============================================================================

Box:      25.83339   0.00000   0.00000  Average:  25.68184   0.00000   0.00000
           0.00000  25.83339   0.00000             0.00000  25.68184   0.00000
           0.00000   0.00000  25.83339             0.00000   0.00000  25.68184
Lengths:  25.83339  25.83339  25.83339  Average:  25.68184  25.68184  25.68184
Angles:   90.00000  90.00000  90.00000  Average:  90.00000  90.00000  90.00000
Rectangular boundary conditions

net charge:   0.00000000

component 0 (CO2) lambda:  0 occupancy:  1 (1.000000)
    net charge:   0.00000000 [e]

Amount of molecules per component :
-------------------------------------------------------------------------------
Component 0 (CO2)
    molecules:      2.500000e+02 molecules  (2.500000e+02 +/- 0.000000e+00)
    number density: 1.450093e-02 molec./A^3 (1.476405e-02 +/- 2.477080e-04)
    density:        1.059463e+03 kg/m^3     (1.078687e+03 +/- 1.809797e+01)

Average pressure tensor: 
-------------------------------------------------------------------------------
 1.3232e+02 -3.0578e+00  3.1224e+00 +/- 3.1294e+01 4.2618e+01 4.4627e+01 [bar]
-3.0578e+00  9.1808e+01  2.5973e+01 +/- 4.2618e+01 2.2898e+01 6.1849e+01 [bar]
 3.1224e+00  2.5973e+01  1.3134e+02 +/- 4.4627e+01 6.1849e+01 5.4404e+01 [bar]
Ideal-gas pressure:   5.095997e+02 +/ 8.549954e+00 [bar]
Excess pressure:     -3.911105e+02 +/ 2.267612e+01 [bar]
Pressure:             1.184892e+02 +/ 1.985154e+01 [bar]

Total potential energy/kʙ  -3.919308e+05 (-3.890762e+05 +/- 6.437424e+03) [K]
-------------------------------------------------------------------------------
ExternalField-molecule
    Van der Waals/kʙ        0.000000e+00 ( 0.000000e+00 +/- 0.000000e+00) [K]
Framework-molecule
    Van der Waals/kʙ        0.000000e+00 ( 0.000000e+00 +/- 0.000000e+00) [K]
    Van der Waals (Tail)/kʙ 0.000000e+00 ( 0.000000e+00 +/- 0.000000e+00) [K]
    Coulombic Real/kʙ       0.000000e+00 ( 0.000000e+00 +/- 0.000000e+00) [K]
    Coulombic Fourier/kʙ    0.000000e+00 ( 0.000000e+00 +/- 0.000000e+00) [K]
Molecule-molecule
    Van der Waals/kʙ       -2.844617e+05 (-2.820088e+05 +/- 5.364361e+03) [K]
    Van der Waals (Tail)/kʙ-6.732435e+03 (-6.853463e+03 +/- 1.129963e+02) [K]
    Coulombic Real/kʙ      -9.131813e+04 (-9.154439e+04 +/- 1.169661e+03) [K]
    Coulombic Fourier/kʙ   -9.418585e+03 (-8.669504e+03 +/- 1.427303e+02) [K]
    Molecule Intra/kʙ       0.000000e+00 ( 0.000000e+00 +/- 0.000000e+00) [K]


Energy statistics             |  Energy [K]   | Recomputed [K]|  Drift [K]    |
===============================================================================
Total potential energy/kʙ     | -3.737894e+05 | -3.737894e+05 |  3.590086e-09 |
    external field VDW/kʙ     |  0.000000e+00 |  0.000000e+00 |  0.000000e+00 |
    external field Real/kʙ    |  0.000000e+00 |  0.000000e+00 |  0.000000e+00 |
    framework-molecule VDW/kʙ |  0.000000e+00 |  0.000000e+00 |  0.000000e+00 |
    framework-molecule Real/kʙ|  0.000000e+00 |  0.000000e+00 |  0.000000e+00 |
    molecule-molecule VDW/kʙ  | -2.780221e+05 | -2.780221e+05 |  2.660295e-09 |
    molecule-molecule Real/kʙ | -8.054418e+04 | -8.054418e+04 |  9.451049e-10 |
    Van der Waals (Tail)/kʙ   | -6.696400e+03 | -6.696400e+03 |  0.000000e+00 |
    Ewald Fourier/kʙ          |  6.174649e+03 |  6.174649e+03 | -1.531420e-11 |
    Ewald self/kʙ             | -4.591696e+06 | -4.591696e+06 |  0.000000e+00 |
    Ewald exclusion/kʙ        |  4.576994e+06 |  4.576994e+06 |  0.000000e+00 |
    intra VDW/kʙ              |  0.000000e+00 |  0.000000e+00 |  0.000000e+00 |
    intra Coulombic/kʙ        |  0.000000e+00 |  0.000000e+00 |  0.000000e+00 |
    polarization/kʙ           |  0.000000e+00 |  0.000000e+00 |  0.000000e+00 |
    dU/dlambda VDW/kʙ         |  0.000000e+00 |  0.000000e+00 |  0.000000e+00 |
    dU/dlambda Real/kʙ        |  0.000000e+00 |  0.000000e+00 |  0.000000e+00 |
    dU/dlambda Ewald/kʙ       |  0.000000e+00 |  0.000000e+00 |  0.000000e+00 |
-------------------------------------------------------------------------------


Monte-Carlo moves statistics
===============================================================================

    Volume change        all:                8193
    Volume change        total:              8193
    Volume change        constructed:        8193
    Volume change        accepted:           2163
    Volume change        fraction:       0.264006
    Volume change        max-change:     0.050000

Component 0 [CO2]
    Reinsertion (CBMC)   all:              414148
    Reinsertion (CBMC)   total:            414148
    Reinsertion (CBMC)   constructed:      361976
    Reinsertion (CBMC)   accepted:           4530
    Reinsertion (CBMC)   fraction:       0.010938
    Reinsertion (CBMC)   max-change:     0.000000

    Translation          all:              413801
    Translation          total:            137964     137703     138134
    Translation          constructed:      135849     137677     138134
    Translation          accepted:          37575      49870      75960
    Translation          fraction:       0.272354   0.362156   0.549901
    Translation          max-change:     1.375000   0.997980   0.560000

    Rotation             all:              413858
    Rotation             total:            138312     137892     137654
    Rotation             constructed:      138312     137891     137623
    Rotation             accepted:          77985      65007      53053
    Rotation             fraction:       0.563834   0.471434   0.385408
    Rotation             max-change:     0.551724   0.739496   0.993789



Production run counting of the MC moves summed over systems and components
===============================================================================

Volume change                          8193 (0.6554 [%])
Reinsertion (CBMC)                   414148 (33.1318 [%])
Translation                          413801 (33.1041 [%])
Rotation                             413858 (33.1086 [%])

Production count MC-steps:          1250000 [-]
               All summed:          1250000 [-]
               difference:                0 [-]


Production run CPU timings of the MC moves
===============================================================================

Component 0 CO2

Rotation                             62.828714 [s]
    Ewald                            16.951325 [s]
    ExternalField-Molecule            0.014300 [s]
    Framework-Molecule                0.018180 [s]
    Molecule-Molecule                44.416471 [s]
    Overhead                          1.428438 [s]

Reinsertion (CBMC)                  294.113010 [s]
    Ewald                            14.711648 [s]
    NonEwald                        279.018007 [s]
    Overhead                          0.383355 [s]

Translation                          61.015249 [s]
    Ewald                            16.903618 [s]
    ExternalField-Molecule            0.012820 [s]
    Framework-Molecule                0.024987 [s]
    Molecule-Molecule                42.826593 [s]
    Overhead                          1.247231 [s]



Volume change                         71.282290 [s]
    Ewald                             15.123125 [s]
    NonEwald                          53.454760 [s]
    Tail                               2.425948 [s]

Property sampling                     0.300333 [s]
Energy/pressure sampling:             8.148179 [s]


Production run CPU timings of the MC moves summed over systems and components
===============================================================================


Translation                          61.015249 [s]
    Ewald                            16.903618 [s]
    ExternalField-Molecule            0.012820 [s]
    Framework-Molecule                0.024987 [s]
    Molecule-Molecule                42.826593 [s]
    Overhead                          1.247231 [s]

Rotation                             62.828714 [s]
    Ewald                            16.951325 [s]
    ExternalField-Molecule            0.014300 [s]
    Framework-Molecule                0.018180 [s]
    Molecule-Molecule                44.416471 [s]
    Overhead                          1.428438 [s]

Volume change                        71.282290 [s]
    Ewald                            15.123125 [s]
    NonEwald                         53.454760 [s]
    Tail                              2.425948 [s]
    Overhead                          0.278457 [s]

Reinsertion (CBMC)                  294.113010 [s]
    Ewald                            14.711648 [s]
    NonEwald                        279.018007 [s]
    Overhead                          0.383355 [s]

Property sampling:                    0.300333 [s]
Energy/pressure sampling:             8.148179 [s]

Production simulation time:         498.592134 [s]
                All summed:         497.687775 [s]
                  Overhead:           0.904359 [s]


Initalization simulation time:       97.826121 [s]
Equilibration simulation time:        0.000000 [s]
Production simulation time:         498.592134 [s]
Total simulation time:              596.418255 [s]


Energy averages and statistics:
===============================================================================

Framework-molecule energy:
-------------------------------------------------------------------------------



Framework-molecule energy contributions per energy type:
-------------------------------------------------------------------------------



Inter-molecular energy:
-------------------------------------------------------------------------------

    Inter-molecular energy/kʙ 0-0 [CO2-CO2]:
    ---------------------------------------------------------------------------
        Block[  0] -3.912182e+05
        Block[  1] -3.932224e+05
        Block[  2] -3.807205e+05
        Block[  3] -3.926906e+05
        Block[  4] -3.872492e+05
        -----------------------------------------------------------------------
        Average  -3.890202e+05 +/-  6.450344e+03 [K]



Inter-molecular energy contributions per energy type:
-------------------------------------------------------------------------------

    Van der Waals energy/kʙ 0-0 [CO2-CO2]:
    ---------------------------------------------------------------------------
        Block[  0] -2.835741e+05
        Block[  1] -2.854225e+05
        Block[  2] -2.747264e+05
        Block[  3] -2.847192e+05
        Block[  4] -2.814034e+05
        -----------------------------------------------------------------------
        Average  -2.819691e+05 +/-  5.370056e+03 [K]

    VDW Tail-Correction energy/kʙ 0-0 [CO2-CO2]:
    ---------------------------------------------------------------------------
        Block[  0] -6.864844e+03
        Block[  1] -6.933724e+03
        Block[  2] -6.703399e+03
        Block[  3] -6.916844e+03
        Block[  4] -6.847853e+03
        -----------------------------------------------------------------------
        Average  -6.853333e+03 +/-  1.129992e+02 [K]

    Coulomb Real energy/kʙ 0-0 [CO2-CO2]:
    ---------------------------------------------------------------------------
        Block[  0] -9.210107e+04
        Block[  1] -9.204015e+04
        Block[  2] -9.078170e+04
        Block[  3] -9.242145e+04
        Block[  4] -9.030685e+04
        -----------------------------------------------------------------------
        Average  -9.153024e+04 +/-  1.150805e+03 [K]

    Coulomb Fourier energy/kʙ 0-0 [CO2-CO2]:
    ---------------------------------------------------------------------------
        Block[  0] -8.678181e+03
        Block[  1] -8.826022e+03
        Block[  2] -8.509018e+03
        Block[  3] -8.633070e+03
        Block[  4] -8.691106e+03
        -----------------------------------------------------------------------
        Average  -8.667479e+03 +/-  1.416881e+02 [K]


Total energy/kʙ
-------------------------------------------------------------------------------
    Block[  0] -3.912182e+05
    Block[  1] -3.932224e+05
    Block[  2] -3.807205e+05
    Block[  3] -3.926906e+05
    Block[  4] -3.872492e+05
    ---------------------------------------------------------------------------
    Average  -3.890202e+05 +/-  6.450344e+03 [K]

Pressure averages and statistics:
===============================================================================

Average pressure tensor: 
-------------------------------------------------------------------------------
 1.3102e+02 -2.1822e+00  4.1949e+00 +/- 3.2447e+01 4.3016e+01 4.4925e+01 [bar]
-2.1822e+00  9.3041e+01  2.4842e+01 +/- 4.3016e+01 2.2392e+01 5.8802e+01 [bar]
 4.1949e+00  2.4842e+01  1.3180e+02 +/- 4.4925e+01 5.8802e+01 5.2494e+01 [bar]

    Block[  0]  5.111723e+07
    Block[  1]  5.154628e+07
    Block[  2]  4.981935e+07
    Block[  3]  5.143022e+07
    Block[  4]  5.085560e+07
    ---------------------------------------------------------------------------
    Ideal gas pressure   5.095373e+07 +/-  5.154463e-02 [Pa]
                         5.095373e+02 +/-  8.559193e+00 [bar]


    Block[  0] -4.200735e+07
    Block[  1] -3.883115e+07
    Block[  2] -3.739630e+07
    Block[  3] -3.943028e+07
    Block[  4] -3.779266e+07
    ---------------------------------------------------------------------------
    Excess pressure  -3.909155e+07 +/-  2.259111e+06 [Pa]
                     -3.909155e+02 +/-  2.259111e+01 [bar]


    Block[  0]  9.109872e+06
    Block[  1]  1.271513e+07
    Block[  2]  1.242305e+07
    Block[  3]  1.199994e+07
    Block[  4]  1.306293e+07
    ---------------------------------------------------------------------------
    Pressure average   1.186219e+07 +/-  1.970578e+06 [Pa]
                       1.186219e+02 +/-  1.970578e+01 [bar]


Enthalpy of adsorption
===============================================================================

No fluctuating components present.


Densities
===============================================================================

Component 0 (CO2)
    Block[  0] 250
    Block[  1] 250
    Block[  2] 250
    Block[  3] 250
    Block[  4] 250
    -----------------------------------------------------------------------
    Density average   2.500000e+02 +/-  0.000000e+00 [molecules]
    Density average   1.476224e-02 +/-  2.479757e-04 [molec/A^3]
    Density average   1.078555e+03 +/-  1.811753e+01 [kg.m⁻³]

