Compiler and run-time data
===============================================================================
RASPA 3.0.4

Random seed: 1666662854

Compiled as a 64-bits application
Compiler: gcc Ubuntu Clang 18.1.3 (1ubuntu1)
Compile Date = Mar 15 2025, Compile Time = 19:39:45

2025-06-02 12:33:28.181010
Simulation started on Mon, Jun 02
The start time was 12:33:00

Hostname:    c060
OS type:     Linux on x86_64
OS release:  6.8.0-58-generic
OS version:  #60-Ubuntu SMP PREEMPT_DYNAMIC Fri Mar 14 18:29:48 UTC 2025


Mutual consistent basic set of units:
===============================================================================

Unit of temperature: 1 [K]
Unit of length:      1e-10 [m]
Unit of time:        1e-12 [s]
Unit of mass:        1.6605402e-27 [kg]
Unit of charge:      1.60217733e-19 [C/particle]


Boltzmann constant (internal units):          0.8314464919307584 [-]
represents conversion from energy (internal units) to temperature (in Kelvin)

Derived units and their conversion factors:
===============================================================================

Unit of energy:                           1.6605402000000002e-23 [J]
Unit of energy:                           10.000008872307538 [J.mol⁻¹]
Unit of velocity:                         100 [m.s⁻¹]
Unit of force:                            1.6605402000000002e-13 [N]
Unit of diffusion:                        1.0000000000000002e-08 [m².s⁻¹]
Unit of acceleration:                     1.0000000000000002e-08 [m².s⁻¹]
Unit of torque:                           1.6605402000000002e-23 [N.m]
Unit of pressure:                         16605402 [Pa]
Unit of volume:                           1e-30 [m³]
Unit of density:                          1660.5402 [kg.m⁻³]
Unit of dynamic viscosity:                1.6605401999999997e-05 [N.s.m⁻²]
Unit of enthalpy:                         1.6605402000000002e-23 [J]
Unit of polarizability:                   1.5458657349975198e-35 [-]
Unit of Coulomb potential:                167101.08000665612 [K]
Unit of dielectric constant:              1.5458657349975193e-05 [s².C².kg⁻¹.m⁻³]
Unit of dipole moment:                    1.60217733e-29 [C.m]
Unit of Debye:                            4.803206799099162 [C.m]
Unit of electric potential:               0.00010364272224473431 [V]
Unit of electric field:                   1036427.222447343 [V.m⁻¹]
Unit of isothermal compressibility:       6.02213665167516e-08 [Pa⁻¹]
Unit of heat capacity:                    10.000008872307538 [J.mol⁻¹.K⁻¹]
Unit of volumetric expansion coefficient: 1 [K⁻¹]


Internal conversion factors:
===============================================================================

Energy (internal units) to Kelvin:      1.202724284692786 [-]
Kelvin to energy (internal units):      0.8314457542157567 [-]


System definitions
===============================================================================

Temperature:          250 [K]
Beta:                 0.0048108928702210625 [-]
Pressure:             8e+06 [Pa]
Helium void fraction: 1 [-]

Box:      30.00000   0.00000   0.00000
           0.00000  30.00000   0.00000
           0.00000   0.00000  30.00000
Lengths:  30.00000  30.00000  30.00000
Angles:   90.00000  90.00000  90.00000
Rectangular boundary conditions



Property measurement settings
===============================================================================




Pseudo-atoms
===============================================================================

  0 - C_co2    framework-atom: false
  1 - O_co2    framework-atom: false

  0 - C_co2    mass: 12.00000, charge:  0.70000
  1 - O_co2    mass: 15.99940, charge: -0.35000

  0 - C_co2    polarizability:  0.00000
  1 - O_co2    polarizability:  0.00000

  0 - J. J. Potoff et al., AIChE J. 2001, 47, 1676–1682.
  1 - J. J. Potoff et al., AIChE J. 2001, 47, 1676–1682.

Force field status
===============================================================================

Cutoff Framework-Molecule VDW:  12.00000 [Å]
Cutoff Molecule-Molecule VDW:   12.00000 [Å]
Cutoff Coulomb:                 12.00000 [Å]

Overlap-criteria VDW:           1.000000e+05 [K]

C_co2    - C_co2    Lennard-Jones p₀/kʙ:  27.00000 [K], p₁:  2.80000 [Å]
                                  shift:   0.00000 [K], tailcorrections: true
C_co2    - O_co2    Lennard-Jones p₀/kʙ:  46.18441 [K], p₁:  2.92500 [Å]
                                  shift:   0.00000 [K], tailcorrections: true
O_co2    - O_co2    Lennard-Jones p₀/kʙ:  79.00000 [K], p₁:  3.05000 [Å]
                                  shift:   0.00000 [K], tailcorrections: true

Ewald precision: 1e-06
Ewald alpha: 0.26505830360350674
Ewald k-vectors: 8 8 8


Component definitions
===============================================================================

Component 0 [CO2]

    Type: Adsorbate

    Critical temperature:  304.1282 [K]
    Critical pressure:     7377300 [Pa]
    Acentric factor:       0.22394 [-]

    Mol-fraction:                 1 [-]
    Swappable:                   false

    Mass:                         43.9988 [-]
    Bulk fluid density:           0 [-]
    Compressibility:              0 [-]
    Excess molecules:             0 [-]

    Number Of Atoms:    3
    CBMC starting bead: 0
      0: O_co2  position  0.00000 -0.00000  1.16000, charge -0.35000
      1: C_co2  position  0.00000 -0.00000  0.00000, charge  0.70000
      2: O_co2  position  0.00000 -0.00000 -1.16000, charge -0.35000
    Diagonalized inertia-vector:      43.05758528 43.05758528 0.00000000
    Translational degrees of freedom: 3
    Rotational degrees of freedom:    2
    Shape of the molecule is: 'Linear'
    Net-charge:        0.00000000 [e]

    Move probabilities:
    Translation:                   0.331126 [-]
    Random translation:            0.000000 [-]
    Rotation:                      0.331126 [-]
    Random rotation:               0.000000 [-]
    Volume change:                 0.006623 [-]
    Reinsertion (CBMC):            0.331126 [-]
    Identity change (CBMC):        0.000000 [-]
    Swap:                          0.000000 [-]
    Swap (CBMC):                   0.000000 [-]
    Swap (CFCMC):                  0.000000 [-]
    Swap (CB/CFCMC):               0.000000 [-]
    Gibbs volume:                  0.000000 [-]
    Gibbs swap (CBMC):             0.000000 [-]
    Gibbs swap (CFCMC):            0.000000 [-]
    Widom:                         0.000000 [-]
    Widom (CFCMC):                 0.000000 [-]
    Widom (CB/CFCMC):              0.000000 [-]
    Parallel tempering:            0.000000 [-]
    Hybrid MC:                     0.000000 [-]

    number of blocking-pockets: 0

    number of bonds: 0





Number of pseudo-atoms
===============================================================================

Component   0 (CO2)
-------------------------------------------------------------------------------
    index   0 (C_co2): 250 atoms
    index   1 (O_co2): 500 atoms

Total number of pseudo-atoms:
-------------------------------------------------------------------------------
    index   0 (C_co2): 250 atoms
    index   1 (O_co2): 500 atoms




Energy status Recomputed from scratch
===============================================================================

Total potential energy/kʙ       -6.393731e+04 [K]
    external field VDW/kʙ        0.000000e+00 [K]
    external field Real/kʙ       0.000000e+00 [K]
    framework-molecule VDW/kʙ    0.000000e+00 [K]
    framework-molecule Real/kʙ   0.000000e+00 [K]
    molecule-molecule VDW/kʙ    -3.215269e+04 [K]
    molecule-molecule Real/kʙ   -2.621884e+04 [K]
    Van der Waals (Tail)/kʙ     -4.298852e+03 [K]
    Ewald Fourier/kʙ             1.343448e+04 [K]
    Ewald self/kʙ               -4.591696e+06 [K]
    Ewald exclusion/kʙ           4.576994e+06 [K]
    intra VDW/kʙ                 0.000000e+00 [K]
    intra Coulombic/kʙ           0.000000e+00 [K]
    polarization/kʙ              0.000000e+00 [K]
    dU/dlambda VDW/kʙ            0.000000e+00 [K]
    dU/dlambda Real/kʙ           0.000000e+00 [K]
    dU/dlambda Ewald/kʙ          0.000000e+00 [K]





Initialization: Current cycle: 0 out of 1000
===============================================================================

Box:      31.59290   0.00000   0.00000
           0.00000  31.59290   0.00000
           0.00000   0.00000  31.59290
Lengths:  31.59290  31.59290  31.59290
Angles:   90.00000  90.00000  90.00000
Rectangular boundary conditions

net charge:   0.00000000

component   0 (CO2) lambda:  0 occupancy:  1 (1.000000)
    net charge:   0.00000000 [e]

Amount of molecules per component :
-------------------------------------------------------------------------------
Component 0 (CO2)
    molecules:         2.500000e+02 molecules
    number density:    7.928141e-03 molec/A^3
    density:           5.792435e+02 kg/m^3

Total potential energy/kʙ       -1.397834e+05 [K]
-------------------------------------------------------------------------------
    external field VDW/kʙ        0.000000e+00 [K]
    external field Real/kʙ       0.000000e+00 [K]
    framework-molecule VDW/kʙ    0.000000e+00 [K]
    framework-molecule Real/kʙ   0.000000e+00 [K]
    molecule-molecule VDW/kʙ    -1.133036e+05 [K]
    molecule-molecule Real/kʙ   -2.034738e+04 [K]
    Van der Waals (Tail)/kʙ     -3.680845e+03 [K]
    Ewald Fourier/kʙ             1.224982e+04 [K]
    Ewald self/kʙ               -4.591696e+06 [K]
    Ewald exclusion/kʙ           4.576994e+06 [K]
    intra VDW/kʙ                 0.000000e+00 [K]
    intra Coulombic/kʙ           0.000000e+00 [K]
    polarization/kʙ              0.000000e+00 [K]
    dU/dlambda VDW/kʙ            0.000000e+00 [K]
    dU/dlambda Real/kʙ           0.000000e+00 [K]
    dU/dlambda Ewald/kʙ          0.000000e+00 [K]


Initialization: Current cycle: 100 out of 1000
===============================================================================

Box:      29.33907   0.00000   0.00000
           0.00000  29.33907   0.00000
           0.00000   0.00000  29.33907
Lengths:  29.33907  29.33907  29.33907
Angles:   90.00000  90.00000  90.00000
Rectangular boundary conditions

net charge:   0.00000000

component   0 (CO2) lambda:  0 occupancy:  1 (1.000000)
    net charge:   0.00000000 [e]

Amount of molecules per component :
-------------------------------------------------------------------------------
Component 0 (CO2)
    molecules:         2.500000e+02 molecules
    number density:    9.899219e-03 molec/A^3
    density:           7.232539e+02 kg/m^3

Total potential energy/kʙ       -2.551264e+05 [K]
-------------------------------------------------------------------------------
    external field VDW/kʙ        0.000000e+00 [K]
    external field Real/kʙ       0.000000e+00 [K]
    framework-molecule VDW/kʙ    0.000000e+00 [K]
    framework-molecule Real/kʙ   0.000000e+00 [K]
    molecule-molecule VDW/kʙ    -1.894232e+05 [K]
    molecule-molecule Real/kʙ   -5.595221e+04 [K]
    Van der Waals (Tail)/kʙ     -4.595970e+03 [K]
    Ewald Fourier/kʙ             9.546407e+03 [K]
    Ewald self/kʙ               -4.591696e+06 [K]
    Ewald exclusion/kʙ           4.576994e+06 [K]
    intra VDW/kʙ                 0.000000e+00 [K]
    intra Coulombic/kʙ           0.000000e+00 [K]
    polarization/kʙ              0.000000e+00 [K]
    dU/dlambda VDW/kʙ            0.000000e+00 [K]
    dU/dlambda Real/kʙ           0.000000e+00 [K]
    dU/dlambda Ewald/kʙ          0.000000e+00 [K]


Initialization: Current cycle: 200 out of 1000
===============================================================================

Box:      27.67195   0.00000   0.00000
           0.00000  27.67195   0.00000
           0.00000   0.00000  27.67195
Lengths:  27.67195  27.67195  27.67195
Angles:   90.00000  90.00000  90.00000
Rectangular boundary conditions

net charge:   0.00000000

component   0 (CO2) lambda:  0 occupancy:  1 (1.000000)
    net charge:   0.00000000 [e]

Amount of molecules per component :
-------------------------------------------------------------------------------
Component 0 (CO2)
    molecules:         2.500000e+02 molecules
    number density:    1.179834e-02 molec/A^3
    density:           8.620068e+02 kg/m^3

Total potential energy/kʙ       -3.101224e+05 [K]
-------------------------------------------------------------------------------
    external field VDW/kʙ        0.000000e+00 [K]
    external field Real/kʙ       0.000000e+00 [K]
    framework-molecule VDW/kʙ    0.000000e+00 [K]
    framework-molecule Real/kʙ   0.000000e+00 [K]
    molecule-molecule VDW/kʙ    -2.275958e+05 [K]
    molecule-molecule Real/kʙ   -6.965553e+04 [K]
    Van der Waals (Tail)/kʙ     -5.477685e+03 [K]
    Ewald Fourier/kʙ             7.308017e+03 [K]
    Ewald self/kʙ               -4.591696e+06 [K]
    Ewald exclusion/kʙ           4.576994e+06 [K]
    intra VDW/kʙ                 0.000000e+00 [K]
    intra Coulombic/kʙ           0.000000e+00 [K]
    polarization/kʙ              0.000000e+00 [K]
    dU/dlambda VDW/kʙ            0.000000e+00 [K]
    dU/dlambda Real/kʙ           0.000000e+00 [K]
    dU/dlambda Ewald/kʙ          0.000000e+00 [K]


Initialization: Current cycle: 300 out of 1000
===============================================================================

Box:      26.95931   0.00000   0.00000
           0.00000  26.95931   0.00000
           0.00000   0.00000  26.95931
Lengths:  26.95931  26.95931  26.95931
Angles:   90.00000  90.00000  90.00000
Rectangular boundary conditions

net charge:   0.00000000

component   0 (CO2) lambda:  0 occupancy:  1 (1.000000)
    net charge:   0.00000000 [e]

Amount of molecules per component :
-------------------------------------------------------------------------------
Component 0 (CO2)
    molecules:         2.500000e+02 molecules
    number density:    1.275892e-02 molec/A^3
    density:           9.321883e+02 kg/m^3

Total potential energy/kʙ       -3.403401e+05 [K]
-------------------------------------------------------------------------------
    external field VDW/kʙ        0.000000e+00 [K]
    external field Real/kʙ       0.000000e+00 [K]
    framework-molecule VDW/kʙ    0.000000e+00 [K]
    framework-molecule Real/kʙ   0.000000e+00 [K]
    molecule-molecule VDW/kʙ    -2.450257e+05 [K]
    molecule-molecule Real/kʙ   -8.162061e+04 [K]
    Van der Waals (Tail)/kʙ     -5.923659e+03 [K]
    Ewald Fourier/kʙ             6.931273e+03 [K]
    Ewald self/kʙ               -4.591696e+06 [K]
    Ewald exclusion/kʙ           4.576994e+06 [K]
    intra VDW/kʙ                 0.000000e+00 [K]
    intra Coulombic/kʙ           0.000000e+00 [K]
    polarization/kʙ              0.000000e+00 [K]
    dU/dlambda VDW/kʙ            0.000000e+00 [K]
    dU/dlambda Real/kʙ           0.000000e+00 [K]
    dU/dlambda Ewald/kʙ          0.000000e+00 [K]


Initialization: Current cycle: 400 out of 1000
===============================================================================

Box:      26.50217   0.00000   0.00000
           0.00000  26.50217   0.00000
           0.00000   0.00000  26.50217
Lengths:  26.50217  26.50217  26.50217
Angles:   90.00000  90.00000  90.00000
Rectangular boundary conditions

net charge:   0.00000000

component   0 (CO2) lambda:  0 occupancy:  1 (1.000000)
    net charge:   0.00000000 [e]

Amount of molecules per component :
-------------------------------------------------------------------------------
Component 0 (CO2)
    molecules:         2.500000e+02 molecules
    number density:    1.343061e-02 molec/A^3
    density:           9.812634e+02 kg/m^3

Total potential energy/kʙ       -3.519466e+05 [K]
-------------------------------------------------------------------------------
    external field VDW/kʙ        0.000000e+00 [K]
    external field Real/kʙ       0.000000e+00 [K]
    framework-molecule VDW/kʙ    0.000000e+00 [K]
    framework-molecule Real/kʙ   0.000000e+00 [K]
    molecule-molecule VDW/kʙ    -2.575237e+05 [K]
    molecule-molecule Real/kʙ   -7.996614e+04 [K]
    Van der Waals (Tail)/kʙ     -6.235510e+03 [K]
    Ewald Fourier/kʙ             6.480156e+03 [K]
    Ewald self/kʙ               -4.591696e+06 [K]
    Ewald exclusion/kʙ           4.576994e+06 [K]
    intra VDW/kʙ                 0.000000e+00 [K]
    intra Coulombic/kʙ           0.000000e+00 [K]
    polarization/kʙ              0.000000e+00 [K]
    dU/dlambda VDW/kʙ            0.000000e+00 [K]
    dU/dlambda Real/kʙ           0.000000e+00 [K]
    dU/dlambda Ewald/kʙ          0.000000e+00 [K]


Initialization: Current cycle: 500 out of 1000
===============================================================================

Box:      26.08813   0.00000   0.00000
           0.00000  26.08813   0.00000
           0.00000   0.00000  26.08813
Lengths:  26.08813  26.08813  26.08813
Angles:   90.00000  90.00000  90.00000
Rectangular boundary conditions

net charge:   0.00000000

component   0 (CO2) lambda:  0 occupancy:  1 (1.000000)
    net charge:   0.00000000 [e]

Amount of molecules per component :
-------------------------------------------------------------------------------
Component 0 (CO2)
    molecules:         2.500000e+02 molecules
    number density:    1.408027e-02 molec/A^3
    density:           1.028729e+03 kg/m^3

Total potential energy/kʙ       -3.672354e+05 [K]
-------------------------------------------------------------------------------
    external field VDW/kʙ        0.000000e+00 [K]
    external field Real/kʙ       0.000000e+00 [K]
    framework-molecule VDW/kʙ    0.000000e+00 [K]
    framework-molecule Real/kʙ   0.000000e+00 [K]
    molecule-molecule VDW/kʙ    -2.650005e+05 [K]
    molecule-molecule Real/kʙ   -8.720219e+04 [K]
    Van der Waals (Tail)/kʙ     -6.537132e+03 [K]
    Ewald Fourier/kʙ             6.205783e+03 [K]
    Ewald self/kʙ               -4.591696e+06 [K]
    Ewald exclusion/kʙ           4.576994e+06 [K]
    intra VDW/kʙ                 0.000000e+00 [K]
    intra Coulombic/kʙ           0.000000e+00 [K]
    polarization/kʙ              0.000000e+00 [K]
    dU/dlambda VDW/kʙ            0.000000e+00 [K]
    dU/dlambda Real/kʙ           0.000000e+00 [K]
    dU/dlambda Ewald/kʙ          0.000000e+00 [K]


Initialization: Current cycle: 600 out of 1000
===============================================================================

Box:      26.06747   0.00000   0.00000
           0.00000  26.06747   0.00000
           0.00000   0.00000  26.06747
Lengths:  26.06747  26.06747  26.06747
Angles:   90.00000  90.00000  90.00000
Rectangular boundary conditions

net charge:   0.00000000

component   0 (CO2) lambda:  0 occupancy:  1 (1.000000)
    net charge:   0.00000000 [e]

Amount of molecules per component :
-------------------------------------------------------------------------------
Component 0 (CO2)
    molecules:         2.500000e+02 molecules
    number density:    1.411378e-02 molec/A^3
    density:           1.031177e+03 kg/m^3

Total potential energy/kʙ       -3.702228e+05 [K]
-------------------------------------------------------------------------------
    external field VDW/kʙ        0.000000e+00 [K]
    external field Real/kʙ       0.000000e+00 [K]
    framework-molecule VDW/kʙ    0.000000e+00 [K]
    framework-molecule Real/kʙ   0.000000e+00 [K]
    molecule-molecule VDW/kʙ    -2.678678e+05 [K]
    molecule-molecule Real/kʙ   -8.786865e+04 [K]
    Van der Waals (Tail)/kʙ     -6.552688e+03 [K]
    Ewald Fourier/kʙ             6.767742e+03 [K]
    Ewald self/kʙ               -4.591696e+06 [K]
    Ewald exclusion/kʙ           4.576994e+06 [K]
    intra VDW/kʙ                 0.000000e+00 [K]
    intra Coulombic/kʙ           0.000000e+00 [K]
    polarization/kʙ              0.000000e+00 [K]
    dU/dlambda VDW/kʙ            0.000000e+00 [K]
    dU/dlambda Real/kʙ           0.000000e+00 [K]
    dU/dlambda Ewald/kʙ          0.000000e+00 [K]


Initialization: Current cycle: 700 out of 1000
===============================================================================

Box:      25.80687   0.00000   0.00000
           0.00000  25.80687   0.00000
           0.00000   0.00000  25.80687
Lengths:  25.80687  25.80687  25.80687
Angles:   90.00000  90.00000  90.00000
Rectangular boundary conditions

net charge:   0.00000000

component   0 (CO2) lambda:  0 occupancy:  1 (1.000000)
    net charge:   0.00000000 [e]

Amount of molecules per component :
-------------------------------------------------------------------------------
Component 0 (CO2)
    molecules:         2.500000e+02 molecules
    number density:    1.454568e-02 molec/A^3
    density:           1.062732e+03 kg/m^3

Total potential energy/kʙ       -3.836506e+05 [K]
-------------------------------------------------------------------------------
    external field VDW/kʙ        0.000000e+00 [K]
    external field Real/kʙ       0.000000e+00 [K]
    framework-molecule VDW/kʙ    0.000000e+00 [K]
    framework-molecule Real/kʙ   0.000000e+00 [K]
    molecule-molecule VDW/kʙ    -2.798568e+05 [K]
    molecule-molecule Real/kʙ   -8.814561e+04 [K]
    Van der Waals (Tail)/kʙ     -6.753210e+03 [K]
    Ewald Fourier/kʙ             5.806488e+03 [K]
    Ewald self/kʙ               -4.591696e+06 [K]
    Ewald exclusion/kʙ           4.576994e+06 [K]
    intra VDW/kʙ                 0.000000e+00 [K]
    intra Coulombic/kʙ           0.000000e+00 [K]
    polarization/kʙ              0.000000e+00 [K]
    dU/dlambda VDW/kʙ            0.000000e+00 [K]
    dU/dlambda Real/kʙ           0.000000e+00 [K]
    dU/dlambda Ewald/kʙ          0.000000e+00 [K]


Initialization: Current cycle: 800 out of 1000
===============================================================================

Box:      26.09397   0.00000   0.00000
           0.00000  26.09397   0.00000
           0.00000   0.00000  26.09397
Lengths:  26.09397  26.09397  26.09397
Angles:   90.00000  90.00000  90.00000
Rectangular boundary conditions

net charge:   0.00000000

component   0 (CO2) lambda:  0 occupancy:  1 (1.000000)
    net charge:   0.00000000 [e]

Amount of molecules per component :
-------------------------------------------------------------------------------
Component 0 (CO2)
    molecules:         2.500000e+02 molecules
    number density:    1.407083e-02 molec/A^3
    density:           1.028039e+03 kg/m^3

Total potential energy/kʙ       -3.669716e+05 [K]
-------------------------------------------------------------------------------
    external field VDW/kʙ        0.000000e+00 [K]
    external field Real/kʙ       0.000000e+00 [K]
    framework-molecule VDW/kʙ    0.000000e+00 [K]
    framework-molecule Real/kʙ   0.000000e+00 [K]
    molecule-molecule VDW/kʙ    -2.654846e+05 [K]
    molecule-molecule Real/kʙ   -8.605909e+04 [K]
    Van der Waals (Tail)/kʙ     -6.532749e+03 [K]
    Ewald Fourier/kʙ             5.806291e+03 [K]
    Ewald self/kʙ               -4.591696e+06 [K]
    Ewald exclusion/kʙ           4.576994e+06 [K]
    intra VDW/kʙ                 0.000000e+00 [K]
    intra Coulombic/kʙ           0.000000e+00 [K]
    polarization/kʙ              0.000000e+00 [K]
    dU/dlambda VDW/kʙ            0.000000e+00 [K]
    dU/dlambda Real/kʙ           0.000000e+00 [K]
    dU/dlambda Ewald/kʙ          0.000000e+00 [K]


Initialization: Current cycle: 900 out of 1000
===============================================================================

Box:      25.96733   0.00000   0.00000
           0.00000  25.96733   0.00000
           0.00000   0.00000  25.96733
Lengths:  25.96733  25.96733  25.96733
Angles:   90.00000  90.00000  90.00000
Rectangular boundary conditions

net charge:   0.00000000

component   0 (CO2) lambda:  0 occupancy:  1 (1.000000)
    net charge:   0.00000000 [e]

Amount of molecules per component :
-------------------------------------------------------------------------------
Component 0 (CO2)
    molecules:         2.500000e+02 molecules
    number density:    1.427770e-02 molec/A^3
    density:           1.043153e+03 kg/m^3

Total potential energy/kʙ       -3.736934e+05 [K]
-------------------------------------------------------------------------------
    external field VDW/kʙ        0.000000e+00 [K]
    external field Real/kʙ       0.000000e+00 [K]
    framework-molecule VDW/kʙ    0.000000e+00 [K]
    framework-molecule Real/kʙ   0.000000e+00 [K]
    molecule-molecule VDW/kʙ    -2.767412e+05 [K]
    molecule-molecule Real/kʙ   -8.224949e+04 [K]
    Van der Waals (Tail)/kʙ     -6.628793e+03 [K]
    Ewald Fourier/kʙ             6.627501e+03 [K]
    Ewald self/kʙ               -4.591696e+06 [K]
    Ewald exclusion/kʙ           4.576994e+06 [K]
    intra VDW/kʙ                 0.000000e+00 [K]
    intra Coulombic/kʙ           0.000000e+00 [K]
    polarization/kʙ              0.000000e+00 [K]
    dU/dlambda VDW/kʙ            0.000000e+00 [K]
    dU/dlambda Real/kʙ           0.000000e+00 [K]
    dU/dlambda Ewald/kʙ          0.000000e+00 [K]


Current cycle: 0 out of 5000
===============================================================================

Box:      25.93108   0.00000   0.00000  Average:  25.93108   0.00000   0.00000
           0.00000  25.93108   0.00000             0.00000  25.93108   0.00000
           0.00000   0.00000  25.93108             0.00000   0.00000  25.93108
Lengths:  25.93108  25.93108  25.93108  Average:  25.93108  25.93108  25.93108
Angles:   90.00000  90.00000  90.00000  Average:  90.00000  90.00000  90.00000
Rectangular boundary conditions

net charge:   0.00000000

component 0 (CO2) lambda:  0 occupancy:  1 (1.000000)
    net charge:   0.00000000 [e]

Amount of molecules per component :
-------------------------------------------------------------------------------
Component 0 (CO2)
    molecules:      2.500000e+02 molecules  (2.500000e+02 +/- 0.000000e+00)
    number density: 1.433766e-02 molec./A^3 (1.433766e-02 +/- 0.000000e+00)
    density:        1.047534e+03 kg/m^3     (1.047534e+03 +/- 0.000000e+00)

Average pressure tensor: 
-------------------------------------------------------------------------------
 4.9488e+02  0.0000e+00  0.0000e+00 +/- 0.0000e+00 0.0000e+00 0.0000e+00 [bar]
 0.0000e+00  4.9488e+02  0.0000e+00 +/- 0.0000e+00 0.0000e+00 0.0000e+00 [bar]
 0.0000e+00  0.0000e+00  4.9488e+02 +/- 0.0000e+00 0.0000e+00 0.0000e+00 [bar]
Ideal-gas pressure:   4.948825e+02 +/ 0.000000e+00 [bar]
Excess pressure:      0.000000e+00 +/ 0.000000e+00 [bar]
Pressure:             4.948825e+02 +/ 0.000000e+00 [bar]

Total potential energy/kʙ  -3.793625e+05 (-3.793625e+05 +/- 0.000000e+00) [K]
-------------------------------------------------------------------------------
ExternalField-molecule
    Van der Waals/kʙ        0.000000e+00 ( 0.000000e+00 +/- 0.000000e+00) [K]
Framework-molecule
    Van der Waals/kʙ        0.000000e+00 ( 0.000000e+00 +/- 0.000000e+00) [K]
    Van der Waals (Tail)/kʙ 0.000000e+00 ( 0.000000e+00 +/- 0.000000e+00) [K]
    Coulombic Real/kʙ       0.000000e+00 ( 0.000000e+00 +/- 0.000000e+00) [K]
    Coulombic Fourier/kʙ    0.000000e+00 ( 0.000000e+00 +/- 0.000000e+00) [K]
Molecule-molecule
    Van der Waals/kʙ       -2.784914e+05 (-2.784914e+05 +/- 0.000000e+00) [K]
    Van der Waals (Tail)/kʙ-6.656633e+03 (-6.656633e+03 +/- 0.000000e+00) [K]
    Coulombic Real/kʙ      -8.618678e+04 (-8.618678e+04 +/- 0.000000e+00) [K]
    Coulombic Fourier/kʙ   -8.027669e+03 (-8.027669e+03 +/- 0.000000e+00) [K]
    Molecule Intra/kʙ       0.000000e+00 ( 0.000000e+00 +/- 0.000000e+00) [K]

Current cycle: 100 out of 5000
===============================================================================

Box:      25.88595   0.00000   0.00000  Average:  25.79636   0.00000   0.00000
           0.00000  25.88595   0.00000             0.00000  25.79636   0.00000
           0.00000   0.00000  25.88595             0.00000   0.00000  25.79636
Lengths:  25.88595  25.88595  25.88595  Average:  25.79636  25.79636  25.79636
Angles:   90.00000  90.00000  90.00000  Average:  90.00000  90.00000  90.00000
Rectangular boundary conditions

net charge:   0.00000000

component 0 (CO2) lambda:  0 occupancy:  1 (1.000000)
    net charge:   0.00000000 [e]

Amount of molecules per component :
-------------------------------------------------------------------------------
Component 0 (CO2)
    molecules:      2.500000e+02 molecules  (2.500000e+02 +/- 0.000000e+00)
    number density: 1.441277e-02 molec./A^3 (1.456409e-02 +/- 0.000000e+00)
    density:        1.053022e+03 kg/m^3     (1.064078e+03 +/- 0.000000e+00)

Average pressure tensor: 
-------------------------------------------------------------------------------
 1.4077e+02  1.2309e+02 -7.1503e+01 +/- 0.0000e+00 0.0000e+00 0.0000e+00 [bar]
 1.2309e+02  1.2563e+02  7.7820e+01 +/- 0.0000e+00 0.0000e+00 0.0000e+00 [bar]
-7.1503e+01  7.7820e+01 -6.8270e+01 +/- 0.0000e+00 0.0000e+00 0.0000e+00 [bar]
Ideal-gas pressure:   5.026980e+02 +/ 0.000000e+00 [bar]
Excess pressure:     -4.366571e+02 +/ 0.000000e+00 [bar]
Pressure:             6.604092e+01 +/ 0.000000e+00 [bar]

Total potential energy/kʙ  -3.868507e+05 (-3.898468e+05 +/- 0.000000e+00) [K]
-------------------------------------------------------------------------------
ExternalField-molecule
    Van der Waals/kʙ        0.000000e+00 ( 0.000000e+00 +/- 0.000000e+00) [K]
Framework-molecule
    Van der Waals/kʙ        0.000000e+00 ( 0.000000e+00 +/- 0.000000e+00) [K]
    Van der Waals (Tail)/kʙ 0.000000e+00 ( 0.000000e+00 +/- 0.000000e+00) [K]
    Coulombic Real/kʙ       0.000000e+00 ( 0.000000e+00 +/- 0.000000e+00) [K]
    Coulombic Fourier/kʙ    0.000000e+00 ( 0.000000e+00 +/- 0.000000e+00) [K]
Molecule-molecule
    Van der Waals/kʙ       -2.770836e+05 (-2.805085e+05 +/- 0.000000e+00) [K]
    Van der Waals (Tail)/kʙ-6.691504e+03 (-6.764462e+03 +/- 0.000000e+00) [K]
    Coulombic Real/kʙ      -9.442513e+04 (-9.433269e+04 +/- 0.000000e+00) [K]
    Coulombic Fourier/kʙ   -8.650542e+03 (-8.241152e+03 +/- 0.000000e+00) [K]
    Molecule Intra/kʙ       0.000000e+00 ( 0.000000e+00 +/- 0.000000e+00) [K]

Current cycle: 200 out of 5000
===============================================================================

Box:      25.64645   0.00000   0.00000  Average:  25.73879   0.00000   0.00000
           0.00000  25.64645   0.00000             0.00000  25.73879   0.00000
           0.00000   0.00000  25.64645             0.00000   0.00000  25.73879
Lengths:  25.64645  25.64645  25.64645  Average:  25.73879  25.73879  25.73879
Angles:   90.00000  90.00000  90.00000  Average:  90.00000  90.00000  90.00000
Rectangular boundary conditions

net charge:   0.00000000

component 0 (CO2) lambda:  0 occupancy:  1 (1.000000)
    net charge:   0.00000000 [e]

Amount of molecules per component :
-------------------------------------------------------------------------------
Component 0 (CO2)
    molecules:      2.500000e+02 molecules  (2.500000e+02 +/- 0.000000e+00)
    number density: 1.482034e-02 molec./A^3 (1.466329e-02 +/- 0.000000e+00)
    density:        1.082800e+03 kg/m^3     (1.071325e+03 +/- 0.000000e+00)

Average pressure tensor: 
-------------------------------------------------------------------------------
 1.7840e+02 -3.1255e+01 -1.4814e+02 +/- 0.0000e+00 0.0000e+00 0.0000e+00 [bar]
-3.1255e+01  1.1527e+02  1.4282e+02 +/- 0.0000e+00 0.0000e+00 0.0000e+00 [bar]
-1.4814e+02  1.4282e+02 -5.6692e+00 +/- 0.0000e+00 0.0000e+00 0.0000e+00 [bar]
Ideal-gas pressure:   5.061220e+02 +/ 0.000000e+00 [bar]
Excess pressure:     -4.101220e+02 +/ 0.000000e+00 [bar]
Pressure:             9.600003e+01 +/ 0.000000e+00 [bar]

Total potential energy/kʙ  -3.888987e+05 (-3.902038e+05 +/- 0.000000e+00) [K]
-------------------------------------------------------------------------------
ExternalField-molecule
    Van der Waals/kʙ        0.000000e+00 ( 0.000000e+00 +/- 0.000000e+00) [K]
Framework-molecule
    Van der Waals/kʙ        0.000000e+00 ( 0.000000e+00 +/- 0.000000e+00) [K]
    Van der Waals (Tail)/kʙ 0.000000e+00 ( 0.000000e+00 +/- 0.000000e+00) [K]
    Coulombic Real/kʙ       0.000000e+00 ( 0.000000e+00 +/- 0.000000e+00) [K]
    Coulombic Fourier/kʙ    0.000000e+00 ( 0.000000e+00 +/- 0.000000e+00) [K]
Molecule-molecule
    Van der Waals/kʙ       -2.827056e+05 (-2.812317e+05 +/- 0.000000e+00) [K]
    Van der Waals (Tail)/kʙ-6.880729e+03 (-6.817354e+03 +/- 0.000000e+00) [K]
    Coulombic Real/kʙ      -9.078412e+04 (-9.365075e+04 +/- 0.000000e+00) [K]
    Coulombic Fourier/kʙ   -8.528285e+03 (-8.504046e+03 +/- 0.000000e+00) [K]
    Molecule Intra/kʙ       0.000000e+00 ( 0.000000e+00 +/- 0.000000e+00) [K]

Current cycle: 300 out of 5000
===============================================================================

Box:      25.64803   0.00000   0.00000  Average:  25.67320   0.00000   0.00000
           0.00000  25.64803   0.00000             0.00000  25.67320   0.00000
           0.00000   0.00000  25.64803             0.00000   0.00000  25.67320
Lengths:  25.64803  25.64803  25.64803  Average:  25.67320  25.67320  25.67320
Angles:   90.00000  90.00000  90.00000  Average:  90.00000  90.00000  90.00000
Rectangular boundary conditions

net charge:   0.00000000

component 0 (CO2) lambda:  0 occupancy:  1 (1.000000)
    net charge:   0.00000000 [e]

Amount of molecules per component :
-------------------------------------------------------------------------------
Component 0 (CO2)
    molecules:      2.500000e+02 molecules  (2.500000e+02 +/- 0.000000e+00)
    number density: 1.481761e-02 molec./A^3 (1.477694e-02 +/- 0.000000e+00)
    density:        1.082600e+03 kg/m^3     (1.079629e+03 +/- 0.000000e+00)

Average pressure tensor: 
-------------------------------------------------------------------------------
 1.2482e+02 -1.5910e+01 -1.1217e+02 +/- 0.0000e+00 0.0000e+00 0.0000e+00 [bar]
-1.5910e+01  1.0784e+02  9.7786e+01 +/- 0.0000e+00 0.0000e+00 0.0000e+00 [bar]
-1.1217e+02  9.7786e+01  8.6515e+01 +/- 0.0000e+00 0.0000e+00 0.0000e+00 [bar]
Ideal-gas pressure:   5.100448e+02 +/ 0.000000e+00 [bar]
Excess pressure:     -4.036547e+02 +/ 0.000000e+00 [bar]
Pressure:             1.063901e+02 +/ 0.000000e+00 [bar]

Total potential energy/kʙ  -3.969658e+05 (-3.939858e+05 +/- 0.000000e+00) [K]
-------------------------------------------------------------------------------
ExternalField-molecule
    Van der Waals/kʙ        0.000000e+00 ( 0.000000e+00 +/- 0.000000e+00) [K]
Framework-molecule
    Van der Waals/kʙ        0.000000e+00 ( 0.000000e+00 +/- 0.000000e+00) [K]
    Van der Waals (Tail)/kʙ 0.000000e+00 ( 0.000000e+00 +/- 0.000000e+00) [K]
    Coulombic Real/kʙ       0.000000e+00 ( 0.000000e+00 +/- 0.000000e+00) [K]
    Coulombic Fourier/kʙ    0.000000e+00 ( 0.000000e+00 +/- 0.000000e+00) [K]
Molecule-molecule
    Van der Waals/kʙ       -2.810256e+05 (-2.830452e+05 +/- 0.000000e+00) [K]
    Van der Waals (Tail)/kʙ-6.879460e+03 (-6.865896e+03 +/- 0.000000e+00) [K]
    Coulombic Real/kʙ      -1.004988e+05 (-9.555007e+04 +/- 0.000000e+00) [K]
    Coulombic Fourier/kʙ   -8.561931e+03 (-8.524664e+03 +/- 0.000000e+00) [K]
    Molecule Intra/kʙ       0.000000e+00 ( 0.000000e+00 +/- 0.000000e+00) [K]

Current cycle: 400 out of 5000
===============================================================================

Box:      25.72186   0.00000   0.00000  Average:  25.67310   0.00000   0.00000
           0.00000  25.72186   0.00000             0.00000  25.67310   0.00000
           0.00000   0.00000  25.72186             0.00000   0.00000  25.67310
Lengths:  25.72186  25.72186  25.72186  Average:  25.67310  25.67310  25.67310
Angles:   90.00000  90.00000  90.00000  Average:  90.00000  90.00000  90.00000
Rectangular boundary conditions

net charge:   0.00000000

component 0 (CO2) lambda:  0 occupancy:  1 (1.000000)
    net charge:   0.00000000 [e]

Amount of molecules per component :
-------------------------------------------------------------------------------
Component 0 (CO2)
    molecules:      2.500000e+02 molecules  (2.500000e+02 +/- 0.000000e+00)
    number density: 1.469038e-02 molec./A^3 (1.477673e-02 +/- 0.000000e+00)
    density:        1.073304e+03 kg/m^3     (1.079613e+03 +/- 0.000000e+00)

Average pressure tensor: 
-------------------------------------------------------------------------------
 1.2088e+02 -6.6959e+00 -1.3426e+02 +/- 0.0000e+00 0.0000e+00 0.0000e+00 [bar]
-6.6959e+00  1.0395e+02  5.6166e+01 +/- 0.0000e+00 0.0000e+00 0.0000e+00 [bar]
-1.3426e+02  5.6166e+01  1.3903e+02 +/- 0.0000e+00 0.0000e+00 0.0000e+00 [bar]
Ideal-gas pressure:   5.100373e+02 +/ 0.000000e+00 [bar]
Excess pressure:     -3.887514e+02 +/ 0.000000e+00 [bar]
Pressure:             1.212859e+02 +/ 0.000000e+00 [bar]

Total potential energy/kʙ  -3.846995e+05 (-3.943211e+05 +/- 0.000000e+00) [K]
-------------------------------------------------------------------------------
ExternalField-molecule
    Van der Waals/kʙ        0.000000e+00 ( 0.000000e+00 +/- 0.000000e+00) [K]
Framework-molecule
    Van der Waals/kʙ        0.000000e+00 ( 0.000000e+00 +/- 0.000000e+00) [K]
    Van der Waals (Tail)/kʙ 0.000000e+00 ( 0.000000e+00 +/- 0.000000e+00) [K]
    Coulombic Real/kʙ       0.000000e+00 ( 0.000000e+00 +/- 0.000000e+00) [K]
    Coulombic Fourier/kʙ    0.000000e+00 ( 0.000000e+00 +/- 0.000000e+00) [K]
Molecule-molecule
    Van der Waals/kʙ       -2.810852e+05 (-2.827766e+05 +/- 0.000000e+00) [K]
    Van der Waals (Tail)/kʙ-6.820390e+03 (-6.865349e+03 +/- 0.000000e+00) [K]
    Coulombic Real/kʙ      -8.827232e+04 (-9.610361e+04 +/- 0.000000e+00) [K]
    Coulombic Fourier/kʙ   -8.521655e+03 (-8.575498e+03 +/- 0.000000e+00) [K]
    Molecule Intra/kʙ       0.000000e+00 ( 0.000000e+00 +/- 0.000000e+00) [K]

Current cycle: 500 out of 5000
===============================================================================

Box:      25.88245   0.00000   0.00000  Average:  25.69517   0.00000   0.00000
           0.00000  25.88245   0.00000             0.00000  25.69517   0.00000
           0.00000   0.00000  25.88245             0.00000   0.00000  25.69517
Lengths:  25.88245  25.88245  25.88245  Average:  25.69517  25.69517  25.69517
Angles:   90.00000  90.00000  90.00000  Average:  90.00000  90.00000  90.00000
Rectangular boundary conditions

net charge:   0.00000000

component 0 (CO2) lambda:  0 occupancy:  1 (1.000000)
    net charge:   0.00000000 [e]

Amount of molecules per component :
-------------------------------------------------------------------------------
Component 0 (CO2)
    molecules:      2.500000e+02 molecules  (2.500000e+02 +/- 0.000000e+00)
    number density: 1.441862e-02 molec./A^3 (1.473871e-02 +/- 0.000000e+00)
    density:        1.053449e+03 kg/m^3     (1.076835e+03 +/- 0.000000e+00)

Average pressure tensor: 
-------------------------------------------------------------------------------
 1.1959e+02  1.0540e+01 -9.1482e+01 +/- 0.0000e+00 0.0000e+00 0.0000e+00 [bar]
 1.0540e+01  7.2991e+01  2.1845e+01 +/- 0.0000e+00 0.0000e+00 0.0000e+00 [bar]
-9.1482e+01  2.1845e+01  1.4833e+02 +/- 0.0000e+00 0.0000e+00 0.0000e+00 [bar]
Ideal-gas pressure:   5.087251e+02 +/ 0.000000e+00 [bar]
Excess pressure:     -3.950892e+02 +/ 0.000000e+00 [bar]
Pressure:             1.136359e+02 +/ 0.000000e+00 [bar]

Total potential energy/kʙ  -3.712840e+05 (-3.920356e+05 +/- 0.000000e+00) [K]
-------------------------------------------------------------------------------
ExternalField-molecule
    Van der Waals/kʙ        0.000000e+00 ( 0.000000e+00 +/- 0.000000e+00) [K]
Framework-molecule
    Van der Waals/kʙ        0.000000e+00 ( 0.000000e+00 +/- 0.000000e+00) [K]
    Van der Waals (Tail)/kʙ 0.000000e+00 ( 0.000000e+00 +/- 0.000000e+00) [K]
    Coulombic Real/kʙ       0.000000e+00 ( 0.000000e+00 +/- 0.000000e+00) [K]
    Coulombic Fourier/kʙ    0.000000e+00 ( 0.000000e+00 +/- 0.000000e+00) [K]
Molecule-molecule
    Van der Waals/kʙ       -2.742035e+05 (-2.819118e+05 +/- 0.000000e+00) [K]
    Van der Waals (Tail)/kʙ-6.694220e+03 (-6.845649e+03 +/- 0.000000e+00) [K]
    Coulombic Real/kʙ      -8.236544e+04 (-9.475028e+04 +/- 0.000000e+00) [K]
    Coulombic Fourier/kʙ   -8.020847e+03 (-8.527847e+03 +/- 0.000000e+00) [K]
    Molecule Intra/kʙ       0.000000e+00 ( 0.000000e+00 +/- 0.000000e+00) [K]

Current cycle: 600 out of 5000
===============================================================================

Box:      25.75809   0.00000   0.00000  Average:  25.72141   0.00000   0.00000
           0.00000  25.75809   0.00000             0.00000  25.72141   0.00000
           0.00000   0.00000  25.75809             0.00000   0.00000  25.72141
Lengths:  25.75809  25.75809  25.75809  Average:  25.72141  25.72141  25.72141
Angles:   90.00000  90.00000  90.00000  Average:  90.00000  90.00000  90.00000
Rectangular boundary conditions

net charge:   0.00000000

component 0 (CO2) lambda:  0 occupancy:  1 (1.000000)
    net charge:   0.00000000 [e]

Amount of molecules per component :
-------------------------------------------------------------------------------
Component 0 (CO2)
    molecules:      2.500000e+02 molecules  (2.500000e+02 +/- 0.000000e+00)
    number density: 1.462847e-02 molec./A^3 (1.469394e-02 +/- 0.000000e+00)
    density:        1.068781e+03 kg/m^3     (1.073564e+03 +/- 0.000000e+00)

Average pressure tensor: 
-------------------------------------------------------------------------------
 9.3772e+01  1.8930e+01 -6.9198e+01 +/- 0.0000e+00 0.0000e+00 0.0000e+00 [bar]
 1.8930e+01  9.9352e+01  2.3516e+01 +/- 0.0000e+00 0.0000e+00 0.0000e+00 [bar]
-6.9198e+01  2.3516e+01  1.2468e+02 +/- 0.0000e+00 0.0000e+00 0.0000e+00 [bar]
Ideal-gas pressure:   5.071797e+02 +/ 0.000000e+00 [bar]
Excess pressure:     -4.012461e+02 +/ 0.000000e+00 [bar]
Pressure:             1.059337e+02 +/ 0.000000e+00 [bar]

Total potential energy/kʙ  -3.776241e+05 (-3.900806e+05 +/- 0.000000e+00) [K]
-------------------------------------------------------------------------------
ExternalField-molecule
    Van der Waals/kʙ        0.000000e+00 ( 0.000000e+00 +/- 0.000000e+00) [K]
Framework-molecule
    Van der Waals/kʙ        0.000000e+00 ( 0.000000e+00 +/- 0.000000e+00) [K]
    Van der Waals (Tail)/kʙ 0.000000e+00 ( 0.000000e+00 +/- 0.000000e+00) [K]
    Coulombic Real/kʙ       0.000000e+00 ( 0.000000e+00 +/- 0.000000e+00) [K]
    Coulombic Fourier/kʙ    0.000000e+00 ( 0.000000e+00 +/- 0.000000e+00) [K]
Molecule-molecule
    Van der Waals/kʙ       -2.740510e+05 (-2.810477e+05 +/- 0.000000e+00) [K]
    Van der Waals (Tail)/kʙ-6.791649e+03 (-6.825448e+03 +/- 0.000000e+00) [K]
    Coulombic Real/kʙ      -8.802966e+04 (-9.369987e+04 +/- 0.000000e+00) [K]
    Coulombic Fourier/kʙ   -8.751830e+03 (-8.507621e+03 +/- 0.000000e+00) [K]
    Molecule Intra/kʙ       0.000000e+00 ( 0.000000e+00 +/- 0.000000e+00) [K]

Current cycle: 700 out of 5000
===============================================================================

Box:      25.78917   0.00000   0.00000  Average:  25.72481   0.00000   0.00000
           0.00000  25.78917   0.00000             0.00000  25.72481   0.00000
           0.00000   0.00000  25.78917             0.00000   0.00000  25.72481
Lengths:  25.78917  25.78917  25.78917  Average:  25.72481  25.72481  25.72481
Angles:   90.00000  90.00000  90.00000  Average:  90.00000  90.00000  90.00000
Rectangular boundary conditions

net charge:   0.00000000

component 0 (CO2) lambda:  0 occupancy:  1 (1.000000)
    net charge:   0.00000000 [e]

Amount of molecules per component :
-------------------------------------------------------------------------------
Component 0 (CO2)
    molecules:      2.500000e+02 molecules  (2.500000e+02 +/- 0.000000e+00)
    number density: 1.457565e-02 molec./A^3 (1.468795e-02 +/- 0.000000e+00)
    density:        1.064922e+03 kg/m^3     (1.073127e+03 +/- 0.000000e+00)

Average pressure tensor: 
-------------------------------------------------------------------------------
 4.4869e+01  2.0150e+01 -5.0234e+01 +/- 0.0000e+00 0.0000e+00 0.0000e+00 [bar]
 2.0150e+01  8.2276e+01  1.5355e+01 +/- 0.0000e+00 0.0000e+00 0.0000e+00 [bar]
-5.0234e+01  1.5355e+01  1.2414e+02 +/- 0.0000e+00 0.0000e+00 0.0000e+00 [bar]
Ideal-gas pressure:   5.069732e+02 +/ 0.000000e+00 [bar]
Excess pressure:     -4.232118e+02 +/ 0.000000e+00 [bar]
Pressure:             8.376140e+01 +/ 0.000000e+00 [bar]

Total potential energy/kʙ  -3.936503e+05 (-3.899869e+05 +/- 0.000000e+00) [K]
-------------------------------------------------------------------------------
ExternalField-molecule
    Van der Waals/kʙ        0.000000e+00 ( 0.000000e+00 +/- 0.000000e+00) [K]
Framework-molecule
    Van der Waals/kʙ        0.000000e+00 ( 0.000000e+00 +/- 0.000000e+00) [K]
    Van der Waals (Tail)/kʙ 0.000000e+00 ( 0.000000e+00 +/- 0.000000e+00) [K]
    Coulombic Real/kʙ       0.000000e+00 ( 0.000000e+00 +/- 0.000000e+00) [K]
    Coulombic Fourier/kʙ    0.000000e+00 ( 0.000000e+00 +/- 0.000000e+00) [K]
Molecule-molecule
    Van der Waals/kʙ       -2.848675e+05 (-2.814141e+05 +/- 0.000000e+00) [K]
    Van der Waals (Tail)/kʙ-6.767125e+03 (-6.822017e+03 +/- 0.000000e+00) [K]
    Coulombic Real/kʙ      -9.349951e+04 (-9.319889e+04 +/- 0.000000e+00) [K]
    Coulombic Fourier/kʙ   -8.516161e+03 (-8.551830e+03 +/- 0.000000e+00) [K]
    Molecule Intra/kʙ       0.000000e+00 ( 0.000000e+00 +/- 0.000000e+00) [K]

Current cycle: 800 out of 5000
===============================================================================

Box:      25.44061   0.00000   0.00000  Average:  25.70695   0.00000   0.00000
           0.00000  25.44061   0.00000             0.00000  25.70695   0.00000
           0.00000   0.00000  25.44061             0.00000   0.00000  25.70695
Lengths:  25.44061  25.44061  25.44061  Average:  25.70695  25.70695  25.70695
Angles:   90.00000  90.00000  90.00000  Average:  90.00000  90.00000  90.00000
Rectangular boundary conditions

net charge:   0.00000000

component 0 (CO2) lambda:  0 occupancy:  1 (1.000000)
    net charge:   0.00000000 [e]

Amount of molecules per component :
-------------------------------------------------------------------------------
Component 0 (CO2)
    molecules:      2.500000e+02 molecules  (2.500000e+02 +/- 0.000000e+00)
    number density: 1.518299e-02 molec./A^3 (1.471886e-02 +/- 0.000000e+00)
    density:        1.109296e+03 kg/m^3     (1.075385e+03 +/- 0.000000e+00)

Average pressure tensor: 
-------------------------------------------------------------------------------
 3.2183e+01  2.3889e+01 -2.4652e+01 +/- 0.0000e+00 0.0000e+00 0.0000e+00 [bar]
 2.3889e+01  6.0620e+01 -3.7064e+00 +/- 0.0000e+00 0.0000e+00 0.0000e+00 [bar]
-2.4652e+01 -3.7064e+00  1.5457e+02 +/- 0.0000e+00 0.0000e+00 0.0000e+00 [bar]
Ideal-gas pressure:   5.080398e+02 +/ 0.000000e+00 [bar]
Excess pressure:     -4.255825e+02 +/ 0.000000e+00 [bar]
Pressure:             8.245735e+01 +/ 0.000000e+00 [bar]

Total potential energy/kʙ  -3.932544e+05 (-3.902352e+05 +/- 0.000000e+00) [K]
-------------------------------------------------------------------------------
ExternalField-molecule
    Van der Waals/kʙ        0.000000e+00 ( 0.000000e+00 +/- 0.000000e+00) [K]
Framework-molecule
    Van der Waals/kʙ        0.000000e+00 ( 0.000000e+00 +/- 0.000000e+00) [K]
    Van der Waals (Tail)/kʙ 0.000000e+00 ( 0.000000e+00 +/- 0.000000e+00) [K]
    Coulombic Real/kʙ       0.000000e+00 ( 0.000000e+00 +/- 0.000000e+00) [K]
    Coulombic Fourier/kʙ    0.000000e+00 ( 0.000000e+00 +/- 0.000000e+00) [K]
Molecule-molecule
    Van der Waals/kʙ       -2.882926e+05 (-2.818691e+05 +/- 0.000000e+00) [K]
    Van der Waals (Tail)/kʙ-7.049100e+03 (-6.838383e+03 +/- 0.000000e+00) [K]
    Coulombic Real/kʙ      -8.929011e+04 (-9.299893e+04 +/- 0.000000e+00) [K]
    Coulombic Fourier/kʙ   -8.622536e+03 (-8.528785e+03 +/- 0.000000e+00) [K]
    Molecule Intra/kʙ       0.000000e+00 ( 0.000000e+00 +/- 0.000000e+00) [K]

Current cycle: 900 out of 5000
===============================================================================

Box:      25.57078   0.00000   0.00000  Average:  25.69929   0.00000   0.00000
           0.00000  25.57078   0.00000             0.00000  25.69929   0.00000
           0.00000   0.00000  25.57078             0.00000   0.00000  25.69929
Lengths:  25.57078  25.57078  25.57078  Average:  25.69929  25.69929  25.69929
Angles:   90.00000  90.00000  90.00000  Average:  90.00000  90.00000  90.00000
Rectangular boundary conditions

net charge:   0.00000000

component 0 (CO2) lambda:  0 occupancy:  1 (1.000000)
    net charge:   0.00000000 [e]

Amount of molecules per component :
-------------------------------------------------------------------------------
Component 0 (CO2)
    molecules:      2.500000e+02 molecules  (2.500000e+02 +/- 0.000000e+00)
    number density: 1.495231e-02 molec./A^3 (1.473191e-02 +/- 0.000000e+00)
    density:        1.092441e+03 kg/m^3     (1.076339e+03 +/- 0.000000e+00)

Average pressure tensor: 
-------------------------------------------------------------------------------
 4.0132e+01  3.4568e+01 -3.0867e+01 +/- 0.0000e+00 0.0000e+00 0.0000e+00 [bar]
 3.4568e+01  5.5588e+01  4.2970e+00 +/- 0.0000e+00 0.0000e+00 0.0000e+00 [bar]
-3.0867e+01  4.2970e+00  1.6412e+02 +/- 0.0000e+00 0.0000e+00 0.0000e+00 [bar]
Ideal-gas pressure:   5.084904e+02 +/ 0.000000e+00 [bar]
Excess pressure:     -4.218785e+02 +/ 0.000000e+00 [bar]
Pressure:             8.661188e+01 +/ 0.000000e+00 [bar]

Total potential energy/kʙ  -3.942617e+05 (-3.900065e+05 +/- 0.000000e+00) [K]
-------------------------------------------------------------------------------
ExternalField-molecule
    Van der Waals/kʙ        0.000000e+00 ( 0.000000e+00 +/- 0.000000e+00) [K]
Framework-molecule
    Van der Waals/kʙ        0.000000e+00 ( 0.000000e+00 +/- 0.000000e+00) [K]
    Van der Waals (Tail)/kʙ 0.000000e+00 ( 0.000000e+00 +/- 0.000000e+00) [K]
    Coulombic Real/kʙ       0.000000e+00 ( 0.000000e+00 +/- 0.000000e+00) [K]
    Coulombic Fourier/kʙ    0.000000e+00 ( 0.000000e+00 +/- 0.000000e+00) [K]
Molecule-molecule
    Van der Waals/kʙ       -2.878640e+05 (-2.821711e+05 +/- 0.000000e+00) [K]
    Van der Waals (Tail)/kʙ-6.941997e+03 (-6.842261e+03 +/- 0.000000e+00) [K]
    Coulombic Real/kʙ      -9.046778e+04 (-9.243578e+04 +/- 0.000000e+00) [K]
    Coulombic Fourier/kʙ   -8.987926e+03 (-8.557328e+03 +/- 0.000000e+00) [K]
    Molecule Intra/kʙ       0.000000e+00 ( 0.000000e+00 +/- 0.000000e+00) [K]

Current cycle: 1000 out of 5000
===============================================================================

Box:      25.88006   0.00000   0.00000  Average:  25.70101   0.00000   0.00000
           0.00000  25.88006   0.00000             0.00000  25.70101   0.00000
           0.00000   0.00000  25.88006             0.00000   0.00000  25.70101
Lengths:  25.88006  25.88006  25.88006  Average:  25.70101  25.70101  25.70101
Angles:   90.00000  90.00000  90.00000  Average:  90.00000  90.00000  90.00000
Rectangular boundary conditions

net charge:   0.00000000

component 0 (CO2) lambda:  0 occupancy:  1 (1.000000)
    net charge:   0.00000000 [e]

Amount of molecules per component :
-------------------------------------------------------------------------------
Component 0 (CO2)
    molecules:      2.500000e+02 molecules  (2.500000e+02 +/- 0.000000e+00)
    number density: 1.442262e-02 molec./A^3 (1.472888e-02 +/- 0.000000e+00)
    density:        1.053741e+03 kg/m^3     (1.076117e+03 +/- 0.000000e+00)

Average pressure tensor: 
-------------------------------------------------------------------------------
 3.1459e+01  4.2975e+01 -4.2369e+01 +/- 0.0000e+00 0.0000e+00 0.0000e+00 [bar]
 4.2975e+01  3.7790e+01  5.8546e+00 +/- 0.0000e+00 0.0000e+00 0.0000e+00 [bar]
-4.2369e+01  5.8546e+00  1.7349e+02 +/- 0.0000e+00 0.0000e+00 0.0000e+00 [bar]
Ideal-gas pressure:   5.083858e+02 +/ 0.000000e+00 [bar]
Excess pressure:     -4.274717e+02 +/ 0.000000e+00 [bar]
Pressure:             8.091407e+01 +/ 0.000000e+00 [bar]

Total potential energy/kʙ  -3.813305e+05 (-3.894919e+05 +/- 0.000000e+00) [K]
-------------------------------------------------------------------------------
ExternalField-molecule
    Van der Waals/kʙ        0.000000e+00 ( 0.000000e+00 +/- 0.000000e+00) [K]
Framework-molecule
    Van der Waals/kʙ        0.000000e+00 ( 0.000000e+00 +/- 0.000000e+00) [K]
    Van der Waals (Tail)/kʙ 0.000000e+00 ( 0.000000e+00 +/- 0.000000e+00) [K]
    Coulombic Real/kʙ       0.000000e+00 ( 0.000000e+00 +/- 0.000000e+00) [K]
    Coulombic Fourier/kʙ    0.000000e+00 ( 0.000000e+00 +/- 0.000000e+00) [K]
Molecule-molecule
    Van der Waals/kʙ       -2.776844e+05 (-2.821714e+05 +/- 0.000000e+00) [K]
    Van der Waals (Tail)/kʙ-6.696076e+03 (-6.837522e+03 +/- 0.000000e+00) [K]
    Coulombic Real/kʙ      -8.948898e+04 (-9.196702e+04 +/- 0.000000e+00) [K]
    Coulombic Fourier/kʙ   -7.461007e+03 (-8.515913e+03 +/- 0.000000e+00) [K]
    Molecule Intra/kʙ       0.000000e+00 ( 0.000000e+00 +/- 0.000000e+00) [K]

Current cycle: 1100 out of 5000
===============================================================================

Box:      25.78185   0.00000   0.00000  Average:  25.71739   0.00000   0.00000
           0.00000  25.78185   0.00000             0.00000  25.71739   0.00000
           0.00000   0.00000  25.78185             0.00000   0.00000  25.71739
Lengths:  25.78185  25.78185  25.78185  Average:  25.71739  25.71739  25.71739
Angles:   90.00000  90.00000  90.00000  Average:  90.00000  90.00000  90.00000
Rectangular boundary conditions

net charge:   0.00000000

component 0 (CO2) lambda:  0 occupancy:  1 (1.000000)
    net charge:   0.00000000 [e]

Amount of molecules per component :
-------------------------------------------------------------------------------
Component 0 (CO2)
    molecules:      2.500000e+02 molecules  (2.500000e+02 +/- 0.000000e+00)
    number density: 1.458807e-02 molec./A^3 (1.470099e-02 +/- 0.000000e+00)
    density:        1.065829e+03 kg/m^3     (1.074079e+03 +/- 0.000000e+00)

Average pressure tensor: 
-------------------------------------------------------------------------------
 8.3719e+00  3.8702e+01 -3.1524e+01 +/- 0.0000e+00 0.0000e+00 0.0000e+00 [bar]
 3.8702e+01  4.1170e+01 -5.9902e+00 +/- 0.0000e+00 0.0000e+00 0.0000e+00 [bar]
-3.1524e+01 -5.9902e+00  1.6357e+02 +/- 0.0000e+00 0.0000e+00 0.0000e+00 [bar]
Ideal-gas pressure:   5.074230e+02 +/ 0.000000e+00 [bar]
Excess pressure:     -4.363858e+02 +/ 0.000000e+00 [bar]
Pressure:             7.103724e+01 +/ 0.000000e+00 [bar]

Total potential energy/kʙ  -3.886591e+05 (-3.890852e+05 +/- 0.000000e+00) [K]
-------------------------------------------------------------------------------
ExternalField-molecule
    Van der Waals/kʙ        0.000000e+00 ( 0.000000e+00 +/- 0.000000e+00) [K]
Framework-molecule
    Van der Waals/kʙ        0.000000e+00 ( 0.000000e+00 +/- 0.000000e+00) [K]
    Van der Waals (Tail)/kʙ 0.000000e+00 ( 0.000000e+00 +/- 0.000000e+00) [K]
    Coulombic Real/kʙ       0.000000e+00 ( 0.000000e+00 +/- 0.000000e+00) [K]
    Coulombic Fourier/kʙ    0.000000e+00 ( 0.000000e+00 +/- 0.000000e+00) [K]
Molecule-molecule
    Van der Waals/kʙ       -2.772725e+05 (-2.817311e+05 +/- 0.000000e+00) [K]
    Van der Waals (Tail)/kʙ-6.772891e+03 (-6.823970e+03 +/- 0.000000e+00) [K]
    Coulombic Real/kʙ      -9.591251e+04 (-9.201243e+04 +/- 0.000000e+00) [K]
    Coulombic Fourier/kʙ   -8.701139e+03 (-8.517731e+03 +/- 0.000000e+00) [K]
    Molecule Intra/kʙ       0.000000e+00 ( 0.000000e+00 +/- 0.000000e+00) [K]

Current cycle: 1200 out of 5000
===============================================================================

Box:      25.96348   0.00000   0.00000  Average:  25.72908   0.00000   0.00000
           0.00000  25.96348   0.00000             0.00000  25.72908   0.00000
           0.00000   0.00000  25.96348             0.00000   0.00000  25.72908
Lengths:  25.96348  25.96348  25.96348  Average:  25.72908  25.72908  25.72908
Angles:   90.00000  90.00000  90.00000  Average:  90.00000  90.00000  90.00000
Rectangular boundary conditions

net charge:   0.00000000

component 0 (CO2) lambda:  0 occupancy:  1 (1.000000)
    net charge:   0.00000000 [e]

Amount of molecules per component :
-------------------------------------------------------------------------------
Component 0 (CO2)
    molecules:      2.500000e+02 molecules  (2.500000e+02 +/- 0.000000e+00)
    number density: 1.428406e-02 molec./A^3 (1.468099e-02 +/- 0.000000e+00)
    density:        1.043618e+03 kg/m^3     (1.072618e+03 +/- 0.000000e+00)

Average pressure tensor: 
-------------------------------------------------------------------------------
 1.6453e+01  3.0316e+01 -1.3952e+01 +/- 0.0000e+00 0.0000e+00 0.0000e+00 [bar]
 3.0316e+01  4.0814e+01 -1.1799e+01 +/- 0.0000e+00 0.0000e+00 0.0000e+00 [bar]
-1.3952e+01 -1.1799e+01  1.5574e+02 +/- 0.0000e+00 0.0000e+00 0.0000e+00 [bar]
Ideal-gas pressure:   5.067329e+02 +/ 0.000000e+00 [bar]
Excess pressure:     -4.357288e+02 +/ 0.000000e+00 [bar]
Pressure:             7.100411e+01 +/ 0.000000e+00 [bar]

Total potential energy/kʙ  -3.804416e+05 (-3.885934e+05 +/- 0.000000e+00) [K]
-------------------------------------------------------------------------------
ExternalField-molecule
    Van der Waals/kʙ        0.000000e+00 ( 0.000000e+00 +/- 0.000000e+00) [K]
Framework-molecule
    Van der Waals/kʙ        0.000000e+00 ( 0.000000e+00 +/- 0.000000e+00) [K]
    Van der Waals (Tail)/kʙ 0.000000e+00 ( 0.000000e+00 +/- 0.000000e+00) [K]
    Coulombic Real/kʙ       0.000000e+00 ( 0.000000e+00 +/- 0.000000e+00) [K]
    Coulombic Fourier/kʙ    0.000000e+00 ( 0.000000e+00 +/- 0.000000e+00) [K]
Molecule-molecule
    Van der Waals/kʙ       -2.707464e+05 (-2.811369e+05 +/- 0.000000e+00) [K]
    Van der Waals (Tail)/kʙ-6.631744e+03 (-6.815318e+03 +/- 0.000000e+00) [K]
    Coulombic Real/kʙ      -9.440936e+04 (-9.212646e+04 +/- 0.000000e+00) [K]
    Coulombic Fourier/kʙ   -8.654089e+03 (-8.514709e+03 +/- 0.000000e+00) [K]
    Molecule Intra/kʙ       0.000000e+00 ( 0.000000e+00 +/- 0.000000e+00) [K]

Current cycle: 1300 out of 5000
===============================================================================

Box:      25.90609   0.00000   0.00000  Average:  25.74088   0.00000   0.00000
           0.00000  25.90609   0.00000             0.00000  25.74088   0.00000
           0.00000   0.00000  25.90609             0.00000   0.00000  25.74088
Lengths:  25.90609  25.90609  25.90609  Average:  25.74088  25.74088  25.74088
Angles:   90.00000  90.00000  90.00000  Average:  90.00000  90.00000  90.00000
Rectangular boundary conditions

net charge:   0.00000000

component 0 (CO2) lambda:  0 occupancy:  1 (1.000000)
    net charge:   0.00000000 [e]

Amount of molecules per component :
-------------------------------------------------------------------------------
Component 0 (CO2)
    molecules:      2.500000e+02 molecules  (2.500000e+02 +/- 0.000000e+00)
    number density: 1.437919e-02 molec./A^3 (1.466084e-02 +/- 0.000000e+00)
    density:        1.050568e+03 kg/m^3     (1.071146e+03 +/- 0.000000e+00)

Average pressure tensor: 
-------------------------------------------------------------------------------
 2.2255e+01  2.3525e+01 -1.9964e+01 +/- 0.0000e+00 0.0000e+00 0.0000e+00 [bar]
 2.3525e+01  4.6553e+01 -1.0885e+01 +/- 0.0000e+00 0.0000e+00 0.0000e+00 [bar]
-1.9964e+01 -1.0885e+01  1.3719e+02 +/- 0.0000e+00 0.0000e+00 0.0000e+00 [bar]
Ideal-gas pressure:   5.060375e+02 +/ 0.000000e+00 [bar]
Excess pressure:     -4.373725e+02 +/ 0.000000e+00 [bar]
Pressure:             6.866499e+01 +/ 0.000000e+00 [bar]

Total potential energy/kʙ  -3.884838e+05 (-3.882796e+05 +/- 0.000000e+00) [K]
-------------------------------------------------------------------------------
ExternalField-molecule
    Van der Waals/kʙ        0.000000e+00 ( 0.000000e+00 +/- 0.000000e+00) [K]
Framework-molecule
    Van der Waals/kʙ        0.000000e+00 ( 0.000000e+00 +/- 0.000000e+00) [K]
    Van der Waals (Tail)/kʙ 0.000000e+00 ( 0.000000e+00 +/- 0.000000e+00) [K]
    Coulombic Real/kʙ       0.000000e+00 ( 0.000000e+00 +/- 0.000000e+00) [K]
    Coulombic Fourier/kʙ    0.000000e+00 ( 0.000000e+00 +/- 0.000000e+00) [K]
Molecule-molecule
    Van der Waals/kʙ       -2.783278e+05 (-2.807251e+05 +/- 0.000000e+00) [K]
    Van der Waals (Tail)/kʙ-6.675914e+03 (-6.806154e+03 +/- 0.000000e+00) [K]
    Coulombic Real/kʙ      -9.496453e+04 (-9.222778e+04 +/- 0.000000e+00) [K]
    Coulombic Fourier/kʙ   -8.515558e+03 (-8.520533e+03 +/- 0.000000e+00) [K]
    Molecule Intra/kʙ       0.000000e+00 ( 0.000000e+00 +/- 0.000000e+00) [K]

Current cycle: 1400 out of 5000
===============================================================================

Box:      25.94452   0.00000   0.00000  Average:  25.75128   0.00000   0.00000
           0.00000  25.94452   0.00000             0.00000  25.75128   0.00000
           0.00000   0.00000  25.94452             0.00000   0.00000  25.75128
Lengths:  25.94452  25.94452  25.94452  Average:  25.75128  25.75128  25.75128
Angles:   90.00000  90.00000  90.00000  Average:  90.00000  90.00000  90.00000
Rectangular boundary conditions

net charge:   0.00000000

component 0 (CO2) lambda:  0 occupancy:  1 (1.000000)
    net charge:   0.00000000 [e]

Amount of molecules per component :
-------------------------------------------------------------------------------
Component 0 (CO2)
    molecules:      2.500000e+02 molecules  (2.500000e+02 +/- 0.000000e+00)
    number density: 1.431539e-02 molec./A^3 (1.464309e-02 +/- 0.000000e+00)
    density:        1.045907e+03 kg/m^3     (1.069849e+03 +/- 0.000000e+00)

Average pressure tensor: 
-------------------------------------------------------------------------------
 2.4334e+01  1.3989e+01 -2.5411e+01 +/- 0.0000e+00 0.0000e+00 0.0000e+00 [bar]
 1.3989e+01  3.6402e+01 -1.7160e+01 +/- 0.0000e+00 0.0000e+00 0.0000e+00 [bar]
-2.5411e+01 -1.7160e+01  1.4042e+02 +/- 0.0000e+00 0.0000e+00 0.0000e+00 [bar]
Ideal-gas pressure:   5.054248e+02 +/ 0.000000e+00 [bar]
Excess pressure:     -4.383742e+02 +/ 0.000000e+00 [bar]
Pressure:             6.705052e+01 +/ 0.000000e+00 [bar]

Total potential energy/kʙ  -3.770073e+05 (-3.877938e+05 +/- 0.000000e+00) [K]
-------------------------------------------------------------------------------
ExternalField-molecule
    Van der Waals/kʙ        0.000000e+00 ( 0.000000e+00 +/- 0.000000e+00) [K]
Framework-molecule
    Van der Waals/kʙ        0.000000e+00 ( 0.000000e+00 +/- 0.000000e+00) [K]
    Van der Waals (Tail)/kʙ 0.000000e+00 ( 0.000000e+00 +/- 0.000000e+00) [K]
    Coulombic Real/kʙ       0.000000e+00 ( 0.000000e+00 +/- 0.000000e+00) [K]
    Coulombic Fourier/kʙ    0.000000e+00 ( 0.000000e+00 +/- 0.000000e+00) [K]
Molecule-molecule
    Van der Waals/kʙ       -2.783024e+05 (-2.803961e+05 +/- 0.000000e+00) [K]
    Van der Waals (Tail)/kʙ-6.646294e+03 (-6.797734e+03 +/- 0.000000e+00) [K]
    Coulombic Real/kʙ      -8.374394e+04 (-9.206880e+04 +/- 0.000000e+00) [K]
    Coulombic Fourier/kʙ   -8.314665e+03 (-8.531141e+03 +/- 0.000000e+00) [K]
    Molecule Intra/kʙ       0.000000e+00 ( 0.000000e+00 +/- 0.000000e+00) [K]

Current cycle: 1500 out of 5000
===============================================================================

Box:      26.13203   0.00000   0.00000  Average:  25.77632   0.00000   0.00000
           0.00000  26.13203   0.00000             0.00000  25.77632   0.00000
           0.00000   0.00000  26.13203             0.00000   0.00000  25.77632
Lengths:  26.13203  26.13203  26.13203  Average:  25.77632  25.77632  25.77632
Angles:   90.00000  90.00000  90.00000  Average:  90.00000  90.00000  90.00000
Rectangular boundary conditions

net charge:   0.00000000

component 0 (CO2) lambda:  0 occupancy:  1 (1.000000)
    net charge:   0.00000000 [e]

Amount of molecules per component :
-------------------------------------------------------------------------------
Component 0 (CO2)
    molecules:      2.500000e+02 molecules  (2.500000e+02 +/- 0.000000e+00)
    number density: 1.400943e-02 molec./A^3 (1.460150e-02 +/- 0.000000e+00)
    density:        1.023553e+03 kg/m^3     (1.066811e+03 +/- 0.000000e+00)

Average pressure tensor: 
-------------------------------------------------------------------------------
 2.0709e+01  1.6170e+01 -2.1558e+01 +/- 0.0000e+00 0.0000e+00 0.0000e+00 [bar]
 1.6170e+01  3.4669e+01 -6.1810e+00 +/- 0.0000e+00 0.0000e+00 0.0000e+00 [bar]
-2.1558e+01 -6.1810e+00  1.3162e+02 +/- 0.0000e+00 0.0000e+00 0.0000e+00 [bar]
Ideal-gas pressure:   5.039893e+02 +/ 0.000000e+00 [bar]
Excess pressure:     -4.416571e+02 +/ 0.000000e+00 [bar]
Pressure:             6.233214e+01 +/ 0.000000e+00 [bar]

Total potential energy/kʙ  -3.613293e+05 (-3.865517e+05 +/- 0.000000e+00) [K]
-------------------------------------------------------------------------------
ExternalField-molecule
    Van der Waals/kʙ        0.000000e+00 ( 0.000000e+00 +/- 0.000000e+00) [K]
Framework-molecule
    Van der Waals/kʙ        0.000000e+00 ( 0.000000e+00 +/- 0.000000e+00) [K]
    Van der Waals (Tail)/kʙ 0.000000e+00 ( 0.000000e+00 +/- 0.000000e+00) [K]
    Coulombic Real/kʙ       0.000000e+00 ( 0.000000e+00 +/- 0.000000e+00) [K]
    Coulombic Fourier/kʙ    0.000000e+00 ( 0.000000e+00 +/- 0.000000e+00) [K]
Molecule-molecule
    Van der Waals/kʙ       -2.604029e+05 (-2.795871e+05 +/- 0.000000e+00) [K]
    Van der Waals (Tail)/kʙ-6.504242e+03 (-6.778359e+03 +/- 0.000000e+00) [K]
    Coulombic Real/kʙ      -8.599713e+04 (-9.169308e+04 +/- 0.000000e+00) [K]
    Coulombic Fourier/kʙ   -8.424995e+03 (-8.493221e+03 +/- 0.000000e+00) [K]
    Molecule Intra/kʙ       0.000000e+00 ( 0.000000e+00 +/- 0.000000e+00) [K]

Current cycle: 1600 out of 5000
===============================================================================

Box:      25.89659   0.00000   0.00000  Average:  25.78987   0.00000   0.00000
           0.00000  25.89659   0.00000             0.00000  25.78987   0.00000
           0.00000   0.00000  25.89659             0.00000   0.00000  25.78987
Lengths:  25.89659  25.89659  25.89659  Average:  25.78987  25.78987  25.78987
Angles:   90.00000  90.00000  90.00000  Average:  90.00000  90.00000  90.00000
Rectangular boundary conditions

net charge:   0.00000000

component 0 (CO2) lambda:  0 occupancy:  1 (1.000000)
    net charge:   0.00000000 [e]

Amount of molecules per component :
-------------------------------------------------------------------------------
Component 0 (CO2)
    molecules:      2.500000e+02 molecules  (2.500000e+02 +/- 0.000000e+00)
    number density: 1.439503e-02 molec./A^3 (1.457878e-02 +/- 0.000000e+00)
    density:        1.051725e+03 kg/m^3     (1.065150e+03 +/- 0.000000e+00)

Average pressure tensor: 
-------------------------------------------------------------------------------
 1.8242e+01  1.3476e+01 -1.3879e+01 +/- 0.0000e+00 0.0000e+00 0.0000e+00 [bar]
 1.3476e+01  5.0436e+01 -7.6970e+00 +/- 0.0000e+00 0.0000e+00 0.0000e+00 [bar]
-1.3879e+01 -7.6970e+00  1.2655e+02 +/- 0.0000e+00 0.0000e+00 0.0000e+00 [bar]
Ideal-gas pressure:   5.032048e+02 +/ 0.000000e+00 [bar]
Excess pressure:     -4.381299e+02 +/ 0.000000e+00 [bar]
Pressure:             6.507485e+01 +/ 0.000000e+00 [bar]

Total potential energy/kʙ  -3.756148e+05 (-3.857287e+05 +/- 0.000000e+00) [K]
-------------------------------------------------------------------------------
ExternalField-molecule
    Van der Waals/kʙ        0.000000e+00 ( 0.000000e+00 +/- 0.000000e+00) [K]
Framework-molecule
    Van der Waals/kʙ        0.000000e+00 ( 0.000000e+00 +/- 0.000000e+00) [K]
    Van der Waals (Tail)/kʙ 0.000000e+00 ( 0.000000e+00 +/- 0.000000e+00) [K]
    Coulombic Real/kʙ       0.000000e+00 ( 0.000000e+00 +/- 0.000000e+00) [K]
    Coulombic Fourier/kʙ    0.000000e+00 ( 0.000000e+00 +/- 0.000000e+00) [K]
Molecule-molecule
    Van der Waals/kʙ       -2.773735e+05 (-2.791347e+05 +/- 0.000000e+00) [K]
    Van der Waals (Tail)/kʙ-6.683265e+03 (-6.768743e+03 +/- 0.000000e+00) [K]
    Coulombic Real/kʙ      -8.401722e+04 (-9.134451e+04 +/- 0.000000e+00) [K]
    Coulombic Fourier/kʙ   -7.540818e+03 (-8.480800e+03 +/- 0.000000e+00) [K]
    Molecule Intra/kʙ       0.000000e+00 ( 0.000000e+00 +/- 0.000000e+00) [K]

Current cycle: 1700 out of 5000
===============================================================================

Box:      25.86337   0.00000   0.00000  Average:  25.79838   0.00000   0.00000
           0.00000  25.86337   0.00000             0.00000  25.79838   0.00000
           0.00000   0.00000  25.86337             0.00000   0.00000  25.79838
Lengths:  25.86337  25.86337  25.86337  Average:  25.79838  25.79838  25.79838
Angles:   90.00000  90.00000  90.00000  Average:  90.00000  90.00000  90.00000
Rectangular boundary conditions

net charge:   0.00000000

component 0 (CO2) lambda:  0 occupancy:  1 (1.000000)
    net charge:   0.00000000 [e]

Amount of molecules per component :
-------------------------------------------------------------------------------
Component 0 (CO2)
    molecules:      2.500000e+02 molecules  (2.500000e+02 +/- 0.000000e+00)
    number density: 1.445056e-02 molec./A^3 (1.456428e-02 +/- 0.000000e+00)
    density:        1.055783e+03 kg/m^3     (1.064091e+03 +/- 0.000000e+00)

Average pressure tensor: 
-------------------------------------------------------------------------------
 2.7190e+01  8.5874e+00 -1.1263e+01 +/- 0.0000e+00 0.0000e+00 0.0000e+00 [bar]
 8.5874e+00  5.6913e+01 -5.8444e+00 +/- 0.0000e+00 0.0000e+00 0.0000e+00 [bar]
-1.1263e+01 -5.8444e+00  1.2938e+02 +/- 0.0000e+00 0.0000e+00 0.0000e+00 [bar]
Ideal-gas pressure:   5.027044e+02 +/ 0.000000e+00 [bar]
Excess pressure:     -4.315439e+02 +/ 0.000000e+00 [bar]
Pressure:             7.116051e+01 +/ 0.000000e+00 [bar]

Total potential energy/kʙ  -3.818426e+05 (-3.852050e+05 +/- 0.000000e+00) [K]
-------------------------------------------------------------------------------
ExternalField-molecule
    Van der Waals/kʙ        0.000000e+00 ( 0.000000e+00 +/- 0.000000e+00) [K]
Framework-molecule
    Van der Waals/kʙ        0.000000e+00 ( 0.000000e+00 +/- 0.000000e+00) [K]
    Van der Waals (Tail)/kʙ 0.000000e+00 ( 0.000000e+00 +/- 0.000000e+00) [K]
    Coulombic Real/kʙ       0.000000e+00 ( 0.000000e+00 +/- 0.000000e+00) [K]
    Coulombic Fourier/kʙ    0.000000e+00 ( 0.000000e+00 +/- 0.000000e+00) [K]
Molecule-molecule
    Van der Waals/kʙ       -2.675245e+05 (-2.786552e+05 +/- 0.000000e+00) [K]
    Van der Waals (Tail)/kʙ-6.709049e+03 (-6.762323e+03 +/- 0.000000e+00) [K]
    Coulombic Real/kʙ      -9.896582e+04 (-9.132059e+04 +/- 0.000000e+00) [K]
    Coulombic Fourier/kʙ   -8.643320e+03 (-8.466928e+03 +/- 0.000000e+00) [K]
    Molecule Intra/kʙ       0.000000e+00 ( 0.000000e+00 +/- 0.000000e+00) [K]

Current cycle: 1800 out of 5000
===============================================================================

Box:      25.70041   0.00000   0.00000  Average:  25.79671   0.00000   0.00000
           0.00000  25.70041   0.00000             0.00000  25.79671   0.00000
           0.00000   0.00000  25.70041             0.00000   0.00000  25.79671
Lengths:  25.70041  25.70041  25.70041  Average:  25.79671  25.79671  25.79671
Angles:   90.00000  90.00000  90.00000  Average:  90.00000  90.00000  90.00000
Rectangular boundary conditions

net charge:   0.00000000

component 0 (CO2) lambda:  0 occupancy:  1 (1.000000)
    net charge:   0.00000000 [e]

Amount of molecules per component :
-------------------------------------------------------------------------------
Component 0 (CO2)
    molecules:      2.500000e+02 molecules  (2.500000e+02 +/- 0.000000e+00)
    number density: 1.472720e-02 molec./A^3 (1.456691e-02 +/- 0.000000e+00)
    density:        1.075994e+03 kg/m^3     (1.064283e+03 +/- 0.000000e+00)

Average pressure tensor: 
-------------------------------------------------------------------------------
 2.6882e+01  9.5006e+00 -1.3965e+01 +/- 0.0000e+00 0.0000e+00 0.0000e+00 [bar]
 9.5006e+00  6.8995e+01 -8.5216e+00 +/- 0.0000e+00 0.0000e+00 0.0000e+00 [bar]
-1.3965e+01 -8.5216e+00  1.1167e+02 +/- 0.0000e+00 0.0000e+00 0.0000e+00 [bar]
Ideal-gas pressure:   5.027952e+02 +/ 0.000000e+00 [bar]
Excess pressure:     -4.336120e+02 +/ 0.000000e+00 [bar]
Pressure:             6.918327e+01 +/ 0.000000e+00 [bar]

Total potential energy/kʙ  -4.021532e+05 (-3.856915e+05 +/- 0.000000e+00) [K]
-------------------------------------------------------------------------------
ExternalField-molecule
    Van der Waals/kʙ        0.000000e+00 ( 0.000000e+00 +/- 0.000000e+00) [K]
Framework-molecule
    Van der Waals/kʙ        0.000000e+00 ( 0.000000e+00 +/- 0.000000e+00) [K]
    Van der Waals (Tail)/kʙ 0.000000e+00 ( 0.000000e+00 +/- 0.000000e+00) [K]
    Coulombic Real/kʙ       0.000000e+00 ( 0.000000e+00 +/- 0.000000e+00) [K]
    Coulombic Fourier/kʙ    0.000000e+00 ( 0.000000e+00 +/- 0.000000e+00) [K]
Molecule-molecule
    Van der Waals/kʙ       -2.880997e+05 (-2.788130e+05 +/- 0.000000e+00) [K]
    Van der Waals (Tail)/kʙ-6.837483e+03 (-6.763727e+03 +/- 0.000000e+00) [K]
    Coulombic Real/kʙ      -9.879371e+04 (-9.163816e+04 +/- 0.000000e+00) [K]
    Coulombic Fourier/kʙ   -8.422283e+03 (-8.476652e+03 +/- 0.000000e+00) [K]
    Molecule Intra/kʙ       0.000000e+00 ( 0.000000e+00 +/- 0.000000e+00) [K]

Current cycle: 1900 out of 5000
===============================================================================

Box:      26.02480   0.00000   0.00000  Average:  25.79365   0.00000   0.00000
           0.00000  26.02480   0.00000             0.00000  25.79365   0.00000
           0.00000   0.00000  26.02480             0.00000   0.00000  25.79365
Lengths:  26.02480  26.02480  26.02480  Average:  25.79365  25.79365  25.79365
Angles:   90.00000  90.00000  90.00000  Average:  90.00000  90.00000  90.00000
Rectangular boundary conditions

net charge:   0.00000000

component 0 (CO2) lambda:  0 occupancy:  1 (1.000000)
    net charge:   0.00000000 [e]

Amount of molecules per component :
-------------------------------------------------------------------------------
Component 0 (CO2)
    molecules:      2.500000e+02 molecules  (2.500000e+02 +/- 0.000000e+00)
    number density: 1.418331e-02 molec./A^3 (1.457214e-02 +/- 0.000000e+00)
    density:        1.036257e+03 kg/m^3     (1.064666e+03 +/- 0.000000e+00)

Average pressure tensor: 
-------------------------------------------------------------------------------
 4.8657e+01  6.0944e+00 -3.4704e+00 +/- 0.0000e+00 0.0000e+00 0.0000e+00 [bar]
 6.0944e+00  8.2090e+01 -1.4899e+01 +/- 0.0000e+00 0.0000e+00 0.0000e+00 [bar]
-3.4704e+00 -1.4899e+01  1.0695e+02 +/- 0.0000e+00 0.0000e+00 0.0000e+00 [bar]
Ideal-gas pressure:   5.029759e+02 +/ 0.000000e+00 [bar]
Excess pressure:     -4.237426e+02 +/ 0.000000e+00 [bar]
Pressure:             7.923330e+01 +/ 0.000000e+00 [bar]

Total potential energy/kʙ  -3.758473e+05 (-3.859014e+05 +/- 0.000000e+00) [K]
-------------------------------------------------------------------------------
ExternalField-molecule
    Van der Waals/kʙ        0.000000e+00 ( 0.000000e+00 +/- 0.000000e+00) [K]
Framework-molecule
    Van der Waals/kʙ        0.000000e+00 ( 0.000000e+00 +/- 0.000000e+00) [K]
    Van der Waals (Tail)/kʙ 0.000000e+00 ( 0.000000e+00 +/- 0.000000e+00) [K]
    Coulombic Real/kʙ       0.000000e+00 ( 0.000000e+00 +/- 0.000000e+00) [K]
    Coulombic Fourier/kʙ    0.000000e+00 ( 0.000000e+00 +/- 0.000000e+00) [K]
Molecule-molecule
    Van der Waals/kʙ       -2.733504e+05 (-2.788305e+05 +/- 0.000000e+00) [K]
    Van der Waals (Tail)/kʙ-6.584971e+03 (-6.765152e+03 +/- 0.000000e+00) [K]
    Coulombic Real/kʙ      -8.790260e+04 (-9.184530e+04 +/- 0.000000e+00) [K]
    Coulombic Fourier/kʙ   -8.009272e+03 (-8.460454e+03 +/- 0.000000e+00) [K]
    Molecule Intra/kʙ       0.000000e+00 ( 0.000000e+00 +/- 0.000000e+00) [K]

Current cycle: 2000 out of 5000
===============================================================================

Box:      25.84147   0.00000   0.00000  Average:  25.80308   0.00000   0.00000
           0.00000  25.84147   0.00000             0.00000  25.80308   0.00000
           0.00000   0.00000  25.84147             0.00000   0.00000  25.80308
Lengths:  25.84147  25.84147  25.84147  Average:  25.80308  25.80308  25.80308
Angles:   90.00000  90.00000  90.00000  Average:  90.00000  90.00000  90.00000
Rectangular boundary conditions

net charge:   0.00000000

component 0 (CO2) lambda:  0 occupancy:  1 (1.000000)
    net charge:   0.00000000 [e]

Amount of molecules per component :
-------------------------------------------------------------------------------
Component 0 (CO2)
    molecules:      2.500000e+02 molecules  (2.500000e+02 +/- 0.000000e+00)
    number density: 1.448733e-02 molec./A^3 (1.455620e-02 +/- 0.000000e+00)
    density:        1.058469e+03 kg/m^3     (1.063501e+03 +/- 0.000000e+00)

Average pressure tensor: 
-------------------------------------------------------------------------------
 5.2347e+01 -3.1442e-01 -3.5150e+00 +/- 0.0000e+00 0.0000e+00 0.0000e+00 [bar]
-3.1442e-01  8.5231e+01 -1.8343e+01 +/- 0.0000e+00 0.0000e+00 0.0000e+00 [bar]
-3.5150e+00 -1.8343e+01  1.1167e+02 +/- 0.0000e+00 0.0000e+00 0.0000e+00 [bar]
Ideal-gas pressure:   5.024257e+02 +/ 0.000000e+00 [bar]
Excess pressure:     -4.193428e+02 +/ 0.000000e+00 [bar]
Pressure:             8.308292e+01 +/ 0.000000e+00 [bar]

Total potential energy/kʙ  -3.784324e+05 (-3.853172e+05 +/- 0.000000e+00) [K]
-------------------------------------------------------------------------------
ExternalField-molecule
    Van der Waals/kʙ        0.000000e+00 ( 0.000000e+00 +/- 0.000000e+00) [K]
Framework-molecule
    Van der Waals/kʙ        0.000000e+00 ( 0.000000e+00 +/- 0.000000e+00) [K]
    Van der Waals (Tail)/kʙ 0.000000e+00 ( 0.000000e+00 +/- 0.000000e+00) [K]
    Coulombic Real/kʙ       0.000000e+00 ( 0.000000e+00 +/- 0.000000e+00) [K]
    Coulombic Fourier/kʙ    0.000000e+00 ( 0.000000e+00 +/- 0.000000e+00) [K]
Molecule-molecule
    Van der Waals/kʙ       -2.735168e+05 (-2.784968e+05 +/- 0.000000e+00) [K]
    Van der Waals (Tail)/kʙ-6.726120e+03 (-6.758453e+03 +/- 0.000000e+00) [K]
    Coulombic Real/kʙ      -9.102098e+04 (-9.162075e+04 +/- 0.000000e+00) [K]
    Coulombic Fourier/kʙ   -7.168493e+03 (-8.441220e+03 +/- 0.000000e+00) [K]
    Molecule Intra/kʙ       0.000000e+00 ( 0.000000e+00 +/- 0.000000e+00) [K]

Current cycle: 2100 out of 5000
===============================================================================

Box:      25.99874   0.00000   0.00000  Average:  25.81106   0.00000   0.00000
           0.00000  25.99874   0.00000             0.00000  25.81106   0.00000
           0.00000   0.00000  25.99874             0.00000   0.00000  25.81106
Lengths:  25.99874  25.99874  25.99874  Average:  25.81106  25.81106  25.81106
Angles:   90.00000  90.00000  90.00000  Average:  90.00000  90.00000  90.00000
Rectangular boundary conditions

net charge:   0.00000000

component 0 (CO2) lambda:  0 occupancy:  1 (1.000000)
    net charge:   0.00000000 [e]

Amount of molecules per component :
-------------------------------------------------------------------------------
Component 0 (CO2)
    molecules:      2.500000e+02 molecules  (2.500000e+02 +/- 0.000000e+00)
    number density: 1.422600e-02 molec./A^3 (1.454274e-02 +/- 0.000000e+00)
    density:        1.039376e+03 kg/m^3     (1.062517e+03 +/- 0.000000e+00)

Average pressure tensor: 
-------------------------------------------------------------------------------
 5.2332e+01 -8.3576e-01  5.1879e+00 +/- 0.0000e+00 0.0000e+00 0.0000e+00 [bar]
-8.3576e-01  8.0525e+01 -1.1892e+01 +/- 0.0000e+00 0.0000e+00 0.0000e+00 [bar]
 5.1879e+00 -1.1892e+01  1.1205e+02 +/- 0.0000e+00 0.0000e+00 0.0000e+00 [bar]
Ideal-gas pressure:   5.019608e+02 +/ 0.000000e+00 [bar]
Excess pressure:     -4.203265e+02 +/ 0.000000e+00 [bar]
Pressure:             8.163434e+01 +/ 0.000000e+00 [bar]

Total potential energy/kʙ  -3.901636e+05 (-3.849042e+05 +/- 0.000000e+00) [K]
-------------------------------------------------------------------------------
ExternalField-molecule
    Van der Waals/kʙ        0.000000e+00 ( 0.000000e+00 +/- 0.000000e+00) [K]
Framework-molecule
    Van der Waals/kʙ        0.000000e+00 ( 0.000000e+00 +/- 0.000000e+00) [K]
    Van der Waals (Tail)/kʙ 0.000000e+00 ( 0.000000e+00 +/- 0.000000e+00) [K]
[...]
    Coulombic Fourier/kʙ    0.000000e+00 ( 0.000000e+00 +/- 0.000000e+00) [K]
Molecule-molecule
    Van der Waals/kʙ       -2.701557e+05 (-2.763030e+05 +/- 4.602516e+03) [K]
    Van der Waals (Tail)/kʙ-6.692595e+03 (-6.709380e+03 +/- 1.014922e+02) [K]
    Coulombic Real/kʙ      -9.121250e+04 (-9.069628e+04 +/- 1.792846e+03) [K]
    Coulombic Fourier/kʙ   -8.340543e+03 (-8.413051e+03 +/- 1.221754e+02) [K]
    Molecule Intra/kʙ       0.000000e+00 ( 0.000000e+00 +/- 0.000000e+00) [K]

Current cycle: 4700 out of 5000
===============================================================================

Box:      25.74054   0.00000   0.00000  Average:  25.86487   0.00000   0.00000
           0.00000  25.74054   0.00000             0.00000  25.86487   0.00000
           0.00000   0.00000  25.74054             0.00000   0.00000  25.86487
Lengths:  25.74054  25.74054  25.74054  Average:  25.86487  25.86487  25.86487
Angles:   90.00000  90.00000  90.00000  Average:  90.00000  90.00000  90.00000
Rectangular boundary conditions

net charge:   0.00000000

component 0 (CO2) lambda:  0 occupancy:  1 (1.000000)
    net charge:   0.00000000 [e]

Amount of molecules per component :
-------------------------------------------------------------------------------
Component 0 (CO2)
    molecules:      2.500000e+02 molecules  (2.500000e+02 +/- 3.944933e-14)
    number density: 1.465842e-02 molec./A^3 (1.445183e-02 +/- 2.093571e-04)
    density:        1.070969e+03 kg/m^3     (1.055876e+03 +/- 1.529599e+01)

Average pressure tensor: 
-------------------------------------------------------------------------------
 4.1827e+01  2.0753e+01  2.0478e+01 +/- 8.3996e+01 5.2829e+01 5.2095e+01 [bar]
 2.0753e+01  9.9694e+01  1.1275e+01 +/- 5.2829e+01 4.9291e+01 6.0570e+01 [bar]
 2.0478e+01  1.1275e+01  9.9835e+01 +/- 5.2095e+01 6.0570e+01 8.0093e+01 [bar]
Ideal-gas pressure:   4.988232e+02 +/ 7.226222e+00 [bar]
Excess pressure:     -4.183712e+02 +/ 1.609594e+01 [bar]
Pressure:             8.045204e+01 +/ 1.294785e+01 [bar]

Total potential energy/kʙ  -3.779538e+05 (-3.820453e+05 +/- 6.137855e+03) [K]
-------------------------------------------------------------------------------
ExternalField-molecule
    Van der Waals/kʙ        0.000000e+00 ( 0.000000e+00 +/- 0.000000e+00) [K]
Framework-molecule
    Van der Waals/kʙ        0.000000e+00 ( 0.000000e+00 +/- 0.000000e+00) [K]
    Van der Waals (Tail)/kʙ 0.000000e+00 ( 0.000000e+00 +/- 0.000000e+00) [K]
    Coulombic Real/kʙ       0.000000e+00 ( 0.000000e+00 +/- 0.000000e+00) [K]
    Coulombic Fourier/kʙ    0.000000e+00 ( 0.000000e+00 +/- 0.000000e+00) [K]
Molecule-molecule
    Van der Waals/kʙ       -2.760936e+05 (-2.763148e+05 +/- 4.405051e+03) [K]
    Van der Waals (Tail)/kʙ-6.805554e+03 (-6.710458e+03 +/- 9.562153e+01) [K]
    Coulombic Real/kʙ      -8.612307e+04 (-9.059421e+04 +/- 1.948970e+03) [K]
    Coulombic Fourier/kʙ   -8.931592e+03 (-8.425770e+03 +/- 1.108320e+02) [K]
    Molecule Intra/kʙ       0.000000e+00 ( 0.000000e+00 +/- 0.000000e+00) [K]

Current cycle: 4800 out of 5000
===============================================================================

Box:      25.98548   0.00000   0.00000  Average:  25.86748   0.00000   0.00000
           0.00000  25.98548   0.00000             0.00000  25.86748   0.00000
           0.00000   0.00000  25.98548             0.00000   0.00000  25.86748
Lengths:  25.98548  25.98548  25.98548  Average:  25.86748  25.86748  25.86748
Angles:   90.00000  90.00000  90.00000  Average:  90.00000  90.00000  90.00000
Rectangular boundary conditions

net charge:   0.00000000

component 0 (CO2) lambda:  0 occupancy:  1 (1.000000)
    net charge:   0.00000000 [e]

Amount of molecules per component :
-------------------------------------------------------------------------------
Component 0 (CO2)
    molecules:      2.500000e+02 molecules  (2.500000e+02 +/- 0.000000e+00)
    number density: 1.424781e-02 molec./A^3 (1.444745e-02 +/- 2.108159e-04)
    density:        1.040969e+03 kg/m^3     (1.055555e+03 +/- 1.540257e+01)

Average pressure tensor: 
-------------------------------------------------------------------------------
 4.5153e+01  2.1355e+01  2.2934e+01 +/- 8.7097e+01 5.3001e+01 5.4992e+01 [bar]
 2.1355e+01  1.0122e+02  9.5771e+00 +/- 5.3001e+01 4.7761e+01 5.3070e+01 [bar]
 2.2934e+01  9.5771e+00  9.7628e+01 +/- 5.4992e+01 5.3070e+01 8.1526e+01 [bar]
Ideal-gas pressure:   4.986719e+02 +/ 7.276577e+00 [bar]
Excess pressure:     -4.173386e+02 +/ 1.777454e+01 [bar]
Pressure:             8.133325e+01 +/ 1.442021e+01 [bar]

Total potential energy/kʙ  -3.695626e+05 (-3.818183e+05 +/- 6.346962e+03) [K]
-------------------------------------------------------------------------------
ExternalField-molecule
    Van der Waals/kʙ        0.000000e+00 ( 0.000000e+00 +/- 0.000000e+00) [K]
Framework-molecule
    Van der Waals/kʙ        0.000000e+00 ( 0.000000e+00 +/- 0.000000e+00) [K]
    Van der Waals (Tail)/kʙ 0.000000e+00 ( 0.000000e+00 +/- 0.000000e+00) [K]
    Coulombic Real/kʙ       0.000000e+00 ( 0.000000e+00 +/- 0.000000e+00) [K]
    Coulombic Fourier/kʙ    0.000000e+00 ( 0.000000e+00 +/- 0.000000e+00) [K]
Molecule-molecule
    Van der Waals/kʙ       -2.738819e+05 (-2.762070e+05 +/- 4.464801e+03) [K]
    Van der Waals (Tail)/kʙ-6.614914e+03 (-6.708400e+03 +/- 9.651374e+01) [K]
    Coulombic Real/kʙ      -8.014682e+04 (-9.047527e+04 +/- 2.132775e+03) [K]
    Coulombic Fourier/kʙ   -8.918994e+03 (-8.427618e+03 +/- 1.111091e+02) [K]
    Molecule Intra/kʙ       0.000000e+00 ( 0.000000e+00 +/- 0.000000e+00) [K]

Current cycle: 4900 out of 5000
===============================================================================

Box:      26.13714   0.00000   0.00000  Average:  25.87170   0.00000   0.00000
           0.00000  26.13714   0.00000             0.00000  25.87170   0.00000
           0.00000   0.00000  26.13714             0.00000   0.00000  25.87170
Lengths:  26.13714  26.13714  26.13714  Average:  25.87170  25.87170  25.87170
Angles:   90.00000  90.00000  90.00000  Average:  90.00000  90.00000  90.00000
Rectangular boundary conditions

net charge:   0.00000000

component 0 (CO2) lambda:  0 occupancy:  1 (1.000000)
    net charge:   0.00000000 [e]

Amount of molecules per component :
-------------------------------------------------------------------------------
Component 0 (CO2)
    molecules:      2.500000e+02 molecules  (2.500000e+02 +/- 0.000000e+00)
    number density: 1.400122e-02 molec./A^3 (1.444045e-02 +/- 2.166086e-04)
    density:        1.022953e+03 kg/m^3     (1.055044e+03 +/- 1.582580e+01)

Average pressure tensor: 
-------------------------------------------------------------------------------
 4.9170e+01  2.2384e+01  1.8285e+01 +/- 9.1604e+01 5.3479e+01 4.6930e+01 [bar]
 2.2384e+01  9.4627e+01  9.3457e+00 +/- 5.3479e+01 5.4287e+01 5.0562e+01 [bar]
 1.8285e+01  9.3457e+00  9.6353e+01 +/- 4.6930e+01 5.0562e+01 8.1995e+01 [bar]
Ideal-gas pressure:   4.984302e+02 +/ 7.476519e+00 [bar]
Excess pressure:     -4.183803e+02 +/ 1.383157e+01 [bar]
Pressure:             8.004987e+01 +/ 1.064299e+01 [bar]

Total potential energy/kʙ  -3.585353e+05 (-3.815198e+05 +/- 6.690594e+03) [K]
-------------------------------------------------------------------------------
ExternalField-molecule
    Van der Waals/kʙ        0.000000e+00 ( 0.000000e+00 +/- 0.000000e+00) [K]
Framework-molecule
    Van der Waals/kʙ        0.000000e+00 ( 0.000000e+00 +/- 0.000000e+00) [K]
    Van der Waals (Tail)/kʙ 0.000000e+00 ( 0.000000e+00 +/- 0.000000e+00) [K]
    Coulombic Real/kʙ       0.000000e+00 ( 0.000000e+00 +/- 0.000000e+00) [K]
    Coulombic Fourier/kʙ    0.000000e+00 ( 0.000000e+00 +/- 0.000000e+00) [K]
Molecule-molecule
    Van der Waals/kʙ       -2.605714e+05 (-2.760320e+05 +/- 4.631985e+03) [K]
    Van der Waals (Tail)/kʙ-6.500432e+03 (-6.705052e+03 +/- 9.938352e+01) [K]
    Coulombic Real/kʙ      -8.312545e+04 (-9.036081e+04 +/- 2.279724e+03) [K]
    Coulombic Fourier/kʙ   -8.337969e+03 (-8.421958e+03 +/- 1.112185e+02) [K]
    Molecule Intra/kʙ       0.000000e+00 ( 0.000000e+00 +/- 0.000000e+00) [K]


Energy statistics             |  Energy [K]   | Recomputed [K]|  Drift [K]    |
===============================================================================
Total potential energy/kʙ     | -3.795564e+05 | -3.795564e+05 |  7.375975e-09 |
    external field VDW/kʙ     |  0.000000e+00 |  0.000000e+00 |  0.000000e+00 |
    external field Real/kʙ    |  0.000000e+00 |  0.000000e+00 |  0.000000e+00 |
    framework-molecule VDW/kʙ |  0.000000e+00 |  0.000000e+00 |  0.000000e+00 |
    framework-molecule Real/kʙ|  0.000000e+00 |  0.000000e+00 |  0.000000e+00 |
    molecule-molecule VDW/kʙ  | -2.771929e+05 | -2.771929e+05 |  6.510722e-09 |
    molecule-molecule Real/kʙ | -8.646613e+04 | -8.646613e+04 |  8.750971e-10 |
    Van der Waals (Tail)/kʙ   | -6.834040e+03 | -6.834040e+03 |  0.000000e+00 |
    Ewald Fourier/kʙ          |  5.638105e+03 |  5.638105e+03 | -9.844842e-12 |
    Ewald self/kʙ             | -4.591696e+06 | -4.591696e+06 |  0.000000e+00 |
    Ewald exclusion/kʙ        |  4.576994e+06 |  4.576994e+06 |  0.000000e+00 |
    intra VDW/kʙ              |  0.000000e+00 |  0.000000e+00 |  0.000000e+00 |
    intra Coulombic/kʙ        |  0.000000e+00 |  0.000000e+00 |  0.000000e+00 |
    polarization/kʙ           |  0.000000e+00 |  0.000000e+00 |  0.000000e+00 |
    dU/dlambda VDW/kʙ         |  0.000000e+00 |  0.000000e+00 |  0.000000e+00 |
    dU/dlambda Real/kʙ        |  0.000000e+00 |  0.000000e+00 |  0.000000e+00 |
    dU/dlambda Ewald/kʙ       |  0.000000e+00 |  0.000000e+00 |  0.000000e+00 |
-------------------------------------------------------------------------------


Monte-Carlo moves statistics
===============================================================================

    Volume change        all:                8164
    Volume change        total:              8164
    Volume change        constructed:        8164
    Volume change        accepted:           1086
    Volume change        fraction:       0.133023
    Volume change        max-change:     0.100000

Component 0 [CO2]
    Reinsertion (CBMC)   all:              413825
    Reinsertion (CBMC)   total:            413825
    Reinsertion (CBMC)   constructed:      371513
    Reinsertion (CBMC)   accepted:           6432
    Reinsertion (CBMC)   fraction:       0.015543
    Reinsertion (CBMC)   max-change:     0.000000

    Translation          all:              414051
    Translation          total:            138160     138282     137609
    Translation          constructed:      138158     138282     137584
    Translation          accepted:          63685      63672      51751
    Translation          fraction:       0.460951   0.460450   0.376073
    Translation          max-change:     0.750000   0.750000   0.980645

    Rotation             all:              413960
    Rotation             total:            138069     137734     138157
    Rotation             constructed:      138069     137734     138145
    Rotation             accepted:          71760      71309      57330
    Rotation             fraction:       0.519740   0.517730   0.414963
    Rotation             max-change:     0.640000   0.655172   0.933782



Production run counting of the MC moves summed over systems and components
===============================================================================

Volume change                          8164 (0.6531 [%])
Reinsertion (CBMC)                   413825 (33.1060 [%])
Translation                          414051 (33.1241 [%])
Rotation                             413960 (33.1168 [%])

Production count MC-steps:          1250000 [-]
               All summed:          1250000 [-]
               difference:                0 [-]


Production run CPU timings of the MC moves
===============================================================================

Component 0 CO2

Rotation                             61.444197 [s]
    Ewald                            17.736584 [s]
    ExternalField-Molecule            0.016248 [s]
    Framework-Molecule                0.017420 [s]
    Molecule-Molecule                42.194184 [s]
    Overhead                          1.479761 [s]

Reinsertion (CBMC)                  297.943468 [s]
    Ewald                            15.042077 [s]
    NonEwald                        282.493945 [s]
    Overhead                          0.407446 [s]

Translation                          60.253487 [s]
    Ewald                            16.590273 [s]
    ExternalField-Molecule            0.018491 [s]
    Framework-Molecule                0.026467 [s]
    Molecule-Molecule                42.230513 [s]
    Overhead                          1.387743 [s]



Volume change                         72.347712 [s]
    Ewald                             15.216027 [s]
    NonEwald                          54.429760 [s]
    Tail                               2.428918 [s]

Property sampling                     0.307361 [s]
Energy/pressure sampling:             8.047956 [s]


Production run CPU timings of the MC moves summed over systems and components
===============================================================================


Translation                          60.253487 [s]
    Ewald                            16.590273 [s]
    ExternalField-Molecule            0.018491 [s]
    Framework-Molecule                0.026467 [s]
    Molecule-Molecule                42.230513 [s]
    Overhead                          1.387743 [s]

Rotation                             61.444197 [s]
    Ewald                            17.736584 [s]
    ExternalField-Molecule            0.016248 [s]
    Framework-Molecule                0.017420 [s]
    Molecule-Molecule                42.194184 [s]
    Overhead                          1.479761 [s]

Volume change                        72.347712 [s]
    Ewald                            15.216027 [s]
    NonEwald                         54.429760 [s]
    Tail                              2.428918 [s]
    Overhead                          0.273007 [s]

Reinsertion (CBMC)                  297.943468 [s]
    Ewald                            15.042077 [s]
    NonEwald                        282.493945 [s]
    Overhead                          0.407446 [s]

Property sampling:                    0.307361 [s]
Energy/pressure sampling:             8.047956 [s]

Production simulation time:         501.274027 [s]
                All summed:         500.344181 [s]
                  Overhead:           0.929846 [s]


Initalization simulation time:       96.709834 [s]
Equilibration simulation time:        0.000000 [s]
Production simulation time:         501.274027 [s]
Total simulation time:              597.983861 [s]


Energy averages and statistics:
===============================================================================

Framework-molecule energy:
-------------------------------------------------------------------------------



Framework-molecule energy contributions per energy type:
-------------------------------------------------------------------------------



Inter-molecular energy:
-------------------------------------------------------------------------------

    Inter-molecular energy/kʙ 0-0 [CO2-CO2]:
    ---------------------------------------------------------------------------
        Block[  0] -3.895735e+05
        Block[  1] -3.811298e+05
        Block[  2] -3.806716e+05
        Block[  3] -3.811591e+05
        Block[  4] -3.740565e+05
        -----------------------------------------------------------------------
        Average  -3.813181e+05 +/-  6.838250e+03 [K]



Inter-molecular energy contributions per energy type:
-------------------------------------------------------------------------------

    Van der Waals energy/kʙ 0-0 [CO2-CO2]:
    ---------------------------------------------------------------------------
        Block[  0] -2.822163e+05
        Block[  1] -2.748271e+05
        Block[  2] -2.750715e+05
        Block[  3] -2.755133e+05
        Block[  4] -2.721684e+05
        -----------------------------------------------------------------------
        Average  -2.759593e+05 +/-  4.636418e+03 [K]

    VDW Tail-Correction energy/kʙ 0-0 [CO2-CO2]:
    ---------------------------------------------------------------------------
        Block[  0] -6.838937e+03
        Block[  1] -6.678293e+03
        Block[  2] -6.675106e+03
        Block[  3] -6.698689e+03
        Block[  4] -6.630223e+03
        -----------------------------------------------------------------------
        Average  -6.704249e+03 +/-  9.848858e+01 [K]

    Coulomb Real energy/kʙ 0-0 [CO2-CO2]:
    ---------------------------------------------------------------------------
        Block[  0] -9.199180e+04
        Block[  1] -9.125570e+04
        Block[  2] -9.061561e+04
        Block[  3] -9.045118e+04
        Block[  4] -8.686414e+04
        -----------------------------------------------------------------------
        Average  -9.023569e+04 +/-  2.458168e+03 [K]

    Coulomb Fourier energy/kʙ 0-0 [CO2-CO2]:
    ---------------------------------------------------------------------------
        Block[  0] -8.526462e+03
        Block[  1] -8.368706e+03
        Block[  2] -8.309408e+03
        Block[  3] -8.496001e+03
        Block[  4] -8.393726e+03
        -----------------------------------------------------------------------
        Average  -8.418861e+03 +/-  1.121722e+02 [K]


Total energy/kʙ
-------------------------------------------------------------------------------
    Block[  0] -3.895735e+05
    Block[  1] -3.811298e+05
    Block[  2] -3.806716e+05
    Block[  3] -3.811591e+05
    Block[  4] -3.740565e+05
    ---------------------------------------------------------------------------
    Average  -3.813181e+05 +/-  6.838250e+03 [K]

Pressure averages and statistics:
===============================================================================

Average pressure tensor: 
-------------------------------------------------------------------------------
 5.0650e+01  2.1170e+01  1.6304e+01 +/- 9.0047e+01 5.2503e+01 4.5165e+01 [bar]
 2.1170e+01  9.1391e+01  9.8668e+00 +/- 5.2503e+01 5.7954e+01 4.9932e+01 [bar]
 1.6304e+01  9.8668e+00  9.7849e+01 +/- 4.5165e+01 4.9932e+01 8.0192e+01 [bar]

    Block[  0]  5.083963e+07
    Block[  1]  4.964574e+07
    Block[  2]  4.963698e+07
    Block[  3]  4.980101e+07
    Block[  4]  4.925940e+07
    ---------------------------------------------------------------------------
    Ideal gas pressure   4.983655e+07 +/-  4.449450e-02 [Pa]
                         4.983655e+02 +/-  7.388490e+00 [bar]


    Block[  0] -4.268772e+07
    Block[  1] -4.121490e+07
    Block[  2] -4.291923e+07
    Block[  3] -4.199971e+07
    Block[  4] -4.037948e+07
    ---------------------------------------------------------------------------
    Excess pressure  -4.184021e+07 +/-  1.306895e+06 [Pa]
                     -4.184021e+02 +/-  1.306895e+01 [bar]


    Block[  0]  8.151908e+06
    Block[  1]  8.430841e+06
    Block[  2]  6.717756e+06
    Block[  3]  7.801300e+06
    Block[  4]  8.879916e+06
    ---------------------------------------------------------------------------
    Pressure average   7.996344e+06 +/-  1.013623e+06 [Pa]
                       7.996344e+01 +/-  1.013623e+01 [bar]


Enthalpy of adsorption
===============================================================================

No fluctuating components present.


Densities
===============================================================================

Component 0 (CO2)
    Block[  0] 250
    Block[  1] 250
    Block[  2] 250
    Block[  3] 250
    Block[  4] 250
    -----------------------------------------------------------------------
    Density average   2.500000e+02 +/-  0.000000e+00 [molecules]
    Density average   1.443857e-02 +/-  2.140583e-04 [molec/A^3]
    Density average   1.054907e+03 +/-  1.563946e+01 [kg.m⁻³]

