Compiler and run-time data
===============================================================================
RASPA 3.0.4

Random seed: 1206915454

Compiled as a 64-bits application
Compiler: gcc Ubuntu Clang 18.1.3 (1ubuntu1)
Compile Date = Mar 15 2025, Compile Time = 19:39:45

2025-06-03 11:00:44.299539
Simulation started on Tue, Jun 03
The start time was 11:00:00

Hostname:    c108
OS type:     Linux on x86_64
OS release:  6.8.0-58-generic
OS version:  #60-Ubuntu SMP PREEMPT_DYNAMIC Fri Mar 14 18:29:48 UTC 2025


Mutual consistent basic set of units:
===============================================================================

Unit of temperature: 1 [K]
Unit of length:      1e-10 [m]
Unit of time:        1e-12 [s]
Unit of mass:        1.6605402e-27 [kg]
Unit of charge:      1.60217733e-19 [C/particle]


Boltzmann constant (internal units):          0.8314464919307584 [-]
represents conversion from energy (internal units) to temperature (in Kelvin)

Derived units and their conversion factors:
===============================================================================

Unit of energy:                           1.6605402000000002e-23 [J]
Unit of energy:                           10.000008872307538 [J.mol⁻¹]
Unit of velocity:                         100 [m.s⁻¹]
Unit of force:                            1.6605402000000002e-13 [N]
Unit of diffusion:                        1.0000000000000002e-08 [m².s⁻¹]
Unit of acceleration:                     1.0000000000000002e-08 [m².s⁻¹]
Unit of torque:                           1.6605402000000002e-23 [N.m]
Unit of pressure:                         16605402 [Pa]
Unit of volume:                           1e-30 [m³]
Unit of density:                          1660.5402 [kg.m⁻³]
Unit of dynamic viscosity:                1.6605401999999997e-05 [N.s.m⁻²]
Unit of enthalpy:                         1.6605402000000002e-23 [J]
Unit of polarizability:                   1.5458657349975198e-35 [-]
Unit of Coulomb potential:                167101.08000665612 [K]
Unit of dielectric constant:              1.5458657349975193e-05 [s².C².kg⁻¹.m⁻³]
Unit of dipole moment:                    1.60217733e-29 [C.m]
Unit of Debye:                            4.803206799099162 [C.m]
Unit of electric potential:               0.00010364272224473431 [V]
Unit of electric field:                   1036427.222447343 [V.m⁻¹]
Unit of isothermal compressibility:       6.02213665167516e-08 [Pa⁻¹]
Unit of heat capacity:                    10.000008872307538 [J.mol⁻¹.K⁻¹]
Unit of volumetric expansion coefficient: 1 [K⁻¹]


Internal conversion factors:
===============================================================================

Energy (internal units) to Kelvin:      1.202724284692786 [-]
Kelvin to energy (internal units):      0.8314457542157567 [-]


System definitions
===============================================================================

Temperature:          230 [K]
Beta:                 0.005229231380675068 [-]
Pressure:             0 [Pa]
Helium void fraction: 1 [-]

Box:      30.00000   0.00000   0.00000
           0.00000  30.00000   0.00000
           0.00000   0.00000  30.00000
Lengths:  30.00000  30.00000  30.00000
Angles:   90.00000  90.00000  90.00000
Rectangular boundary conditions



Property measurement settings
===============================================================================




Pseudo-atoms
===============================================================================

  0 - C_co2    framework-atom: false
  1 - O_co2    framework-atom: false

  0 - C_co2    mass: 12.00000, charge:  0.70000
  1 - O_co2    mass: 15.99940, charge: -0.35000

  0 - C_co2    polarizability:  0.00000
  1 - O_co2    polarizability:  0.00000

  0 - J. J. Potoff et al., AIChE J. 2001, 47, 1676–1682.
  1 - J. J. Potoff et al., AIChE J. 2001, 47, 1676–1682.

Force field status
===============================================================================

Cutoff Framework-Molecule VDW:  12.00000 [Å]
Cutoff Molecule-Molecule VDW:   12.00000 [Å]
Cutoff Coulomb:                 12.00000 [Å]

Overlap-criteria VDW:           1.000000e+05 [K]

C_co2    - C_co2    Lennard-Jones p₀/kʙ:  27.00000 [K], p₁:  2.80000 [Å]
                                  shift:   0.00000 [K], tailcorrections: true
C_co2    - O_co2    Lennard-Jones p₀/kʙ:  46.18441 [K], p₁:  2.92500 [Å]
                                  shift:   0.00000 [K], tailcorrections: true
O_co2    - O_co2    Lennard-Jones p₀/kʙ:  79.00000 [K], p₁:  3.05000 [Å]
                                  shift:   0.00000 [K], tailcorrections: true

Ewald precision: 1e-06
Ewald alpha: 0.26505830360350674
Ewald k-vectors: 8 8 8


Component definitions
===============================================================================

Component 0 [CO2]

    Type: Adsorbate

    Critical temperature:  304.1282 [K]
    Critical pressure:     7377300 [Pa]
    Acentric factor:       0.22394 [-]

    Mol-fraction:                 1 [-]
    Swappable:                   true

    Mass:                         43.9988 [-]
    Fugacity coefficient:         -nan [-]
    Bulk fluid density:           0 [-]
    Compressibility:              1 [-]
    Excess molecules:             0 [-]

    Number Of Atoms:    3
    CBMC starting bead: 0
      0: O_co2  position  0.00000 -0.00000  1.16000, charge -0.35000
      1: C_co2  position  0.00000 -0.00000  0.00000, charge  0.70000
      2: O_co2  position  0.00000 -0.00000 -1.16000, charge -0.35000
    Diagonalized inertia-vector:      43.05758528 43.05758528 0.00000000
    Translational degrees of freedom: 3
    Rotational degrees of freedom:    2
    Shape of the molecule is: 'Linear'
    Net-charge:        0.00000000 [e]

    Move probabilities:
    Translation:                   0.199203 [-]
    Random translation:            0.000000 [-]
    Rotation:                      0.199203 [-]
    Random rotation:               0.000000 [-]
    Volume change:                 0.000000 [-]
    Reinsertion (CBMC):            0.199203 [-]
    Identity change (CBMC):        0.000000 [-]
    Swap:                          0.000000 [-]
    Swap (CBMC):                   0.000000 [-]
    Swap (CFCMC):                  0.000000 [-]
    Swap (CB/CFCMC):               0.000000 [-]
    Gibbs volume:                  0.003984 [-]
    Gibbs swap (CBMC):             0.398406 [-]
    Gibbs swap (CFCMC):            0.000000 [-]
    Widom:                         0.000000 [-]
    Widom (CFCMC):                 0.000000 [-]
    Widom (CB/CFCMC):              0.000000 [-]
    Parallel tempering:            0.000000 [-]
    Hybrid MC:                     0.000000 [-]

    number of blocking-pockets: 0

    number of bonds: 0





Number of pseudo-atoms
===============================================================================

Component   0 (CO2)
-------------------------------------------------------------------------------
    index   0 (C_co2): 40 atoms
    index   1 (O_co2): 80 atoms

Total number of pseudo-atoms:
-------------------------------------------------------------------------------
    index   0 (C_co2): 40 atoms
    index   1 (O_co2): 80 atoms




Energy status Recomputed from scratch
===============================================================================

Total potential energy/kʙ       -5.881918e+03 [K]
    external field VDW/kʙ        0.000000e+00 [K]
    external field Real/kʙ       0.000000e+00 [K]
    framework-molecule VDW/kʙ    0.000000e+00 [K]
    framework-molecule Real/kʙ   0.000000e+00 [K]
    molecule-molecule VDW/kʙ    -4.635624e+03 [K]
    molecule-molecule Real/kʙ   -1.123125e+03 [K]
    Van der Waals (Tail)/kʙ     -1.100506e+02 [K]
    Ewald Fourier/kʙ             2.339107e+03 [K]
    Ewald self/kʙ               -7.346713e+05 [K]
    Ewald exclusion/kʙ           7.323191e+05 [K]
    intra VDW/kʙ                 0.000000e+00 [K]
    intra Coulombic/kʙ           0.000000e+00 [K]
    polarization/kʙ              0.000000e+00 [K]
    dU/dlambda VDW/kʙ            0.000000e+00 [K]
    dU/dlambda Real/kʙ           0.000000e+00 [K]
    dU/dlambda Ewald/kʙ          0.000000e+00 [K]





Initialization: Current cycle: 0 out of 2000
===============================================================================

Box:      30.00000   0.00000   0.00000
           0.00000  30.00000   0.00000
           0.00000   0.00000  30.00000
Lengths:  30.00000  30.00000  30.00000
Angles:   90.00000  90.00000  90.00000
Rectangular boundary conditions

net charge:   0.00000000

component   0 (CO2) lambda:  0 occupancy:  1 (1.000000)
    net charge:   0.00000000 [e]

Amount of molecules per component :
-------------------------------------------------------------------------------
Component 0 (CO2)
    molecules:         3.400000e+01 molecules
    number density:    1.259259e-03 molec/A^3
    density:           9.200364e+01 kg/m^3

Total potential energy/kʙ       -4.591701e+03 [K]
-------------------------------------------------------------------------------
    external field VDW/kʙ        0.000000e+00 [K]
    external field Real/kʙ       0.000000e+00 [K]
    framework-molecule VDW/kʙ    0.000000e+00 [K]
    framework-molecule Real/kʙ   0.000000e+00 [K]
    molecule-molecule VDW/kʙ    -3.511684e+03 [K]
    molecule-molecule Real/kʙ   -9.040513e+02 [K]
    Van der Waals (Tail)/kʙ     -7.951156e+01 [K]
    Ewald Fourier/kʙ             1.902938e+03 [K]
    Ewald self/kʙ               -6.244706e+05 [K]
    Ewald exclusion/kʙ           6.224712e+05 [K]
    intra VDW/kʙ                 0.000000e+00 [K]
    intra Coulombic/kʙ           0.000000e+00 [K]
    polarization/kʙ              0.000000e+00 [K]
    dU/dlambda VDW/kʙ            0.000000e+00 [K]
    dU/dlambda Real/kʙ           0.000000e+00 [K]
    dU/dlambda Ewald/kʙ          0.000000e+00 [K]


Initialization: Current cycle: 100 out of 2000
===============================================================================

Box:      31.13611   0.00000   0.00000
           0.00000  31.13611   0.00000
           0.00000   0.00000  31.13611
Lengths:  31.13611  31.13611  31.13611
Angles:   90.00000  90.00000  90.00000
Rectangular boundary conditions

net charge:   0.00000000

component   0 (CO2) lambda:  0 occupancy:  1 (1.000000)
    net charge:   0.00000000 [e]

Amount of molecules per component :
-------------------------------------------------------------------------------
Component 0 (CO2)
    molecules:         1.000000e+01 molecules
    number density:    3.312888e-04 molec/A^3
    density:           2.420453e+01 kg/m^3

Total potential energy/kʙ       -3.834221e+02 [K]
-------------------------------------------------------------------------------
    external field VDW/kʙ        0.000000e+00 [K]
    external field Real/kʙ       0.000000e+00 [K]
    framework-molecule VDW/kʙ    0.000000e+00 [K]
    framework-molecule Real/kʙ   0.000000e+00 [K]
    molecule-molecule VDW/kʙ    -2.480064e+02 [K]
    molecule-molecule Real/kʙ   -1.161202e+02 [K]
    Van der Waals (Tail)/kʙ     -6.152377e+00 [K]
    Ewald Fourier/kʙ             5.749133e+02 [K]
    Ewald self/kʙ               -1.836678e+05 [K]
    Ewald exclusion/kʙ           1.830798e+05 [K]
    intra VDW/kʙ                 0.000000e+00 [K]
    intra Coulombic/kʙ           0.000000e+00 [K]
    polarization/kʙ              0.000000e+00 [K]
    dU/dlambda VDW/kʙ            0.000000e+00 [K]
    dU/dlambda Real/kʙ           0.000000e+00 [K]
    dU/dlambda Ewald/kʙ          0.000000e+00 [K]


Initialization: Current cycle: 200 out of 2000
===============================================================================

Box:      31.89776   0.00000   0.00000
           0.00000  31.89776   0.00000
           0.00000   0.00000  31.89776
Lengths:  31.89776  31.89776  31.89776
Angles:   90.00000  90.00000  90.00000
Rectangular boundary conditions

net charge:   0.00000000

component   0 (CO2) lambda:  0 occupancy:  1 (1.000000)
    net charge:   0.00000000 [e]

Amount of molecules per component :
-------------------------------------------------------------------------------
Component 0 (CO2)
    molecules:         3.000000e+00 molecules
    number density:    9.243591e-05 molec/A^3
    density:           6.753526e+00 kg/m^3

Total potential energy/kʙ       -5.554728e+00 [K]
-------------------------------------------------------------------------------
    external field VDW/kʙ        0.000000e+00 [K]
    external field Real/kʙ       0.000000e+00 [K]
    framework-molecule VDW/kʙ    0.000000e+00 [K]
    framework-molecule Real/kʙ   0.000000e+00 [K]
    molecule-molecule VDW/kʙ    -4.047681e+00 [K]
    molecule-molecule Real/kʙ   -1.891017e-01 [K]
    Van der Waals (Tail)/kʙ     -5.149893e-01 [K]
    Ewald Fourier/kʙ             1.756140e+02 [K]
    Ewald self/kʙ               -5.510035e+04 [K]
    Ewald exclusion/kʙ           5.492393e+04 [K]
    intra VDW/kʙ                 0.000000e+00 [K]
    intra Coulombic/kʙ           0.000000e+00 [K]
    polarization/kʙ              0.000000e+00 [K]
    dU/dlambda VDW/kʙ            0.000000e+00 [K]
    dU/dlambda Real/kʙ           0.000000e+00 [K]
    dU/dlambda Ewald/kʙ          0.000000e+00 [K]


Initialization: Current cycle: 300 out of 2000
===============================================================================

Box:      32.41655   0.00000   0.00000
           0.00000  32.41655   0.00000
           0.00000   0.00000  32.41655
Lengths:  32.41655  32.41655  32.41655
Angles:   90.00000  90.00000  90.00000
Rectangular boundary conditions

net charge:   0.00000000

component   0 (CO2) lambda:  0 occupancy:  1 (1.000000)
    net charge:   0.00000000 [e]

Amount of molecules per component :
-------------------------------------------------------------------------------
Component 0 (CO2)
    molecules:         8.000000e+00 molecules
    number density:    2.348495e-04 molec/A^3
    density:           1.715850e+01 kg/m^3

Total potential energy/kʙ       -1.348367e+01 [K]
-------------------------------------------------------------------------------
    external field VDW/kʙ        0.000000e+00 [K]
    external field Real/kʙ       0.000000e+00 [K]
    framework-molecule VDW/kʙ    0.000000e+00 [K]
    framework-molecule Real/kʙ   0.000000e+00 [K]
    molecule-molecule VDW/kʙ    -1.079759e+01 [K]
    molecule-molecule Real/kʙ    4.573997e+00 [K]
    Van der Waals (Tail)/kʙ     -3.489119e+00 [K]
    Ewald Fourier/kʙ             4.666742e+02 [K]
    Ewald self/kʙ               -1.469343e+05 [K]
    Ewald exclusion/kʙ           1.464638e+05 [K]
    intra VDW/kʙ                 0.000000e+00 [K]
    intra Coulombic/kʙ           0.000000e+00 [K]
    polarization/kʙ              0.000000e+00 [K]
    dU/dlambda VDW/kʙ            0.000000e+00 [K]
    dU/dlambda Real/kʙ           0.000000e+00 [K]
    dU/dlambda Ewald/kʙ          0.000000e+00 [K]


Initialization: Current cycle: 400 out of 2000
===============================================================================

Box:      32.78848   0.00000   0.00000
           0.00000  32.78848   0.00000
           0.00000   0.00000  32.78848
Lengths:  32.78848  32.78848  32.78848
Angles:   90.00000  90.00000  90.00000
Rectangular boundary conditions

net charge:   0.00000000

component   0 (CO2) lambda:  0 occupancy:  1 (1.000000)
    net charge:   0.00000000 [e]

Amount of molecules per component :
-------------------------------------------------------------------------------
Component 0 (CO2)
    molecules:         5.000000e+00 molecules
    number density:    1.418424e-04 molec/A^3
    density:           1.036325e+01 kg/m^3

Total potential energy/kʙ       -3.908387e+01 [K]
-------------------------------------------------------------------------------
    external field VDW/kʙ        0.000000e+00 [K]
    external field Real/kʙ       0.000000e+00 [K]
    framework-molecule VDW/kʙ    0.000000e+00 [K]
    framework-molecule Real/kʙ   0.000000e+00 [K]
    molecule-molecule VDW/kʙ    -2.407760e+01 [K]
    molecule-molecule Real/kʙ    1.021212e+00 [K]
    Van der Waals (Tail)/kʙ     -1.317080e+00 [K]
    Ewald Fourier/kʙ             2.793178e+02 [K]
    Ewald self/kʙ               -9.183391e+04 [K]
    Ewald exclusion/kʙ           9.153988e+04 [K]
    intra VDW/kʙ                 0.000000e+00 [K]
    intra Coulombic/kʙ           0.000000e+00 [K]
    polarization/kʙ              0.000000e+00 [K]
    dU/dlambda VDW/kʙ            0.000000e+00 [K]
    dU/dlambda Real/kʙ           0.000000e+00 [K]
    dU/dlambda Ewald/kʙ          0.000000e+00 [K]


Initialization: Current cycle: 500 out of 2000
===============================================================================

Box:      33.16422   0.00000   0.00000
           0.00000  33.16422   0.00000
           0.00000   0.00000  33.16422
Lengths:  33.16422  33.16422  33.16422
Angles:   90.00000  90.00000  90.00000
Rectangular boundary conditions

net charge:   0.00000000

component   0 (CO2) lambda:  0 occupancy:  1 (1.000000)
    net charge:   0.00000000 [e]

Amount of molecules per component :
-------------------------------------------------------------------------------
Component 0 (CO2)
    molecules:         6.000000e+00 molecules
    number density:    1.644909e-04 molec/A^3
    density:           1.201798e+01 kg/m^3

Total potential energy/kʙ       -4.465113e+02 [K]
-------------------------------------------------------------------------------
    external field VDW/kʙ        0.000000e+00 [K]
    external field Real/kʙ       0.000000e+00 [K]
    framework-molecule VDW/kʙ    0.000000e+00 [K]
    framework-molecule Real/kʙ   0.000000e+00 [K]
    molecule-molecule VDW/kʙ    -2.141521e+02 [K]
    molecule-molecule Real/kʙ   -2.563674e+02 [K]
    Van der Waals (Tail)/kʙ     -1.832860e+00 [K]
    Ewald Fourier/kʙ             3.786748e+02 [K]
    Ewald self/kʙ               -1.102007e+05 [K]
    Ewald exclusion/kʙ           1.098479e+05 [K]
    intra VDW/kʙ                 0.000000e+00 [K]
    intra Coulombic/kʙ           0.000000e+00 [K]
    polarization/kʙ              0.000000e+00 [K]
    dU/dlambda VDW/kʙ            0.000000e+00 [K]
    dU/dlambda Real/kʙ           0.000000e+00 [K]
    dU/dlambda Ewald/kʙ          0.000000e+00 [K]


Initialization: Current cycle: 600 out of 2000
===============================================================================

Box:      33.42590   0.00000   0.00000
           0.00000  33.42590   0.00000
           0.00000   0.00000  33.42590
Lengths:  33.42590  33.42590  33.42590
Angles:   90.00000  90.00000  90.00000
Rectangular boundary conditions

net charge:   0.00000000

component   0 (CO2) lambda:  0 occupancy:  1 (1.000000)
    net charge:   0.00000000 [e]

Amount of molecules per component :
-------------------------------------------------------------------------------
Component 0 (CO2)
    molecules:         8.000000e+00 molecules
    number density:    2.142104e-04 molec/A^3
    density:           1.565058e+01 kg/m^3

Total potential energy/kʙ       -2.652567e+02 [K]
-------------------------------------------------------------------------------
    external field VDW/kʙ        0.000000e+00 [K]
    external field Real/kʙ       0.000000e+00 [K]
    framework-molecule VDW/kʙ    0.000000e+00 [K]
    framework-molecule Real/kʙ   0.000000e+00 [K]
    molecule-molecule VDW/kʙ    -2.465586e+02 [K]
    molecule-molecule Real/kʙ   -2.487766e+01 [K]
    Van der Waals (Tail)/kʙ     -3.182488e+00 [K]
    Ewald Fourier/kʙ             4.798071e+02 [K]
    Ewald self/kʙ               -1.469343e+05 [K]
    Ewald exclusion/kʙ           1.464638e+05 [K]
    intra VDW/kʙ                 0.000000e+00 [K]
    intra Coulombic/kʙ           0.000000e+00 [K]
    polarization/kʙ              0.000000e+00 [K]
    dU/dlambda VDW/kʙ            0.000000e+00 [K]
    dU/dlambda Real/kʙ           0.000000e+00 [K]
    dU/dlambda Ewald/kʙ          0.000000e+00 [K]


Initialization: Current cycle: 700 out of 2000
===============================================================================

Box:      33.42622   0.00000   0.00000
           0.00000  33.42622   0.00000
           0.00000   0.00000  33.42622
Lengths:  33.42622  33.42622  33.42622
Angles:   90.00000  90.00000  90.00000
Rectangular boundary conditions

net charge:   0.00000000

component   0 (CO2) lambda:  0 occupancy:  1 (1.000000)
    net charge:   0.00000000 [e]

Amount of molecules per component :
-------------------------------------------------------------------------------
Component 0 (CO2)
    molecules:         5.000000e+00 molecules
    number density:    1.338777e-04 molec/A^3
    density:           9.781334e+00 kg/m^3

Total potential energy/kʙ       -3.983218e+00 [K]
-------------------------------------------------------------------------------
    external field VDW/kʙ        0.000000e+00 [K]
    external field Real/kʙ       0.000000e+00 [K]
    framework-molecule VDW/kʙ    0.000000e+00 [K]
    framework-molecule Real/kʙ   0.000000e+00 [K]
    molecule-molecule VDW/kʙ    -2.786018e+01 [K]
    molecule-molecule Real/kʙ    1.107573e+01 [K]
    Van der Waals (Tail)/kʙ     -1.243124e+00 [K]
    Ewald Fourier/kʙ             3.080726e+02 [K]
    Ewald self/kʙ               -9.183391e+04 [K]
    Ewald exclusion/kʙ           9.153988e+04 [K]
    intra VDW/kʙ                 0.000000e+00 [K]
    intra Coulombic/kʙ           0.000000e+00 [K]
    polarization/kʙ              0.000000e+00 [K]
    dU/dlambda VDW/kʙ            0.000000e+00 [K]
    dU/dlambda Real/kʙ           0.000000e+00 [K]
    dU/dlambda Ewald/kʙ          0.000000e+00 [K]


Initialization: Current cycle: 800 out of 2000
===============================================================================

Box:      33.70804   0.00000   0.00000
           0.00000  33.70804   0.00000
           0.00000   0.00000  33.70804
Lengths:  33.70804  33.70804  33.70804
Angles:   90.00000  90.00000  90.00000
Rectangular boundary conditions

net charge:   0.00000000

component   0 (CO2) lambda:  0 occupancy:  1 (1.000000)
    net charge:   0.00000000 [e]

Amount of molecules per component :
-------------------------------------------------------------------------------
Component 0 (CO2)
    molecules:         9.000000e+00 molecules
    number density:    2.349860e-04 molec/A^3
    density:           1.716848e+01 kg/m^3

Total potential energy/kʙ       -2.992273e+02 [K]
-------------------------------------------------------------------------------
    external field VDW/kʙ        0.000000e+00 [K]
    external field Real/kʙ       0.000000e+00 [K]
    framework-molecule VDW/kʙ    0.000000e+00 [K]
    framework-molecule Real/kʙ   0.000000e+00 [K]
    molecule-molecule VDW/kʙ    -1.759711e+02 [K]
    molecule-molecule Real/kʙ   -9.325550e+01 [K]
    Van der Waals (Tail)/kʙ     -3.927542e+00 [K]
    Ewald Fourier/kʙ             5.031776e+02 [K]
    Ewald self/kʙ               -1.653010e+05 [K]
    Ewald exclusion/kʙ           1.647718e+05 [K]
    intra VDW/kʙ                 0.000000e+00 [K]
    intra Coulombic/kʙ           0.000000e+00 [K]
    polarization/kʙ              0.000000e+00 [K]
    dU/dlambda VDW/kʙ            0.000000e+00 [K]
    dU/dlambda Real/kʙ           0.000000e+00 [K]
    dU/dlambda Ewald/kʙ          0.000000e+00 [K]


Initialization: Current cycle: 900 out of 2000
===============================================================================

Box:      33.70803   0.00000   0.00000
           0.00000  33.70803   0.00000
           0.00000   0.00000  33.70803
Lengths:  33.70803  33.70803  33.70803
Angles:   90.00000  90.00000  90.00000
Rectangular boundary conditions

net charge:   0.00000000

component   0 (CO2) lambda:  0 occupancy:  1 (1.000000)
    net charge:   0.00000000 [e]

Amount of molecules per component :
-------------------------------------------------------------------------------
Component 0 (CO2)
    molecules:         1.100000e+01 molecules
    number density:    2.872055e-04 molec/A^3
    density:           2.098372e+01 kg/m^3

Total potential energy/kʙ       -4.032315e+01 [K]
-------------------------------------------------------------------------------
    external field VDW/kʙ        0.000000e+00 [K]
    external field Real/kʙ       0.000000e+00 [K]
    framework-molecule VDW/kʙ    0.000000e+00 [K]
    framework-molecule Real/kʙ   0.000000e+00 [K]
    molecule-molecule VDW/kʙ    -1.544320e+01 [K]
    molecule-molecule Real/kʙ   -2.909541e+00 [K]
    Van der Waals (Tail)/kʙ     -5.867074e+00 [K]
    Ewald Fourier/kʙ             6.307587e+02 [K]
    Ewald self/kʙ               -2.020346e+05 [K]
    Ewald exclusion/kʙ           2.013877e+05 [K]
    intra VDW/kʙ                 0.000000e+00 [K]
    intra Coulombic/kʙ           0.000000e+00 [K]
    polarization/kʙ              0.000000e+00 [K]
    dU/dlambda VDW/kʙ            0.000000e+00 [K]
    dU/dlambda Real/kʙ           0.000000e+00 [K]
    dU/dlambda Ewald/kʙ          0.000000e+00 [K]


Initialization: Current cycle: 1000 out of 2000
===============================================================================

Box:      33.83307   0.00000   0.00000
           0.00000  33.83307   0.00000
           0.00000   0.00000  33.83307
Lengths:  33.83307  33.83307  33.83307
Angles:   90.00000  90.00000  90.00000
Rectangular boundary conditions

net charge:   0.00000000

component   0 (CO2) lambda:  0 occupancy:  1 (1.000000)
    net charge:   0.00000000 [e]

Amount of molecules per component :
-------------------------------------------------------------------------------
Component 0 (CO2)
    molecules:         9.000000e+00 molecules
    number density:    2.323904e-04 molec/A^3
    density:           1.697884e+01 kg/m^3

Total potential energy/kʙ       -4.879850e+02 [K]
-------------------------------------------------------------------------------
    external field VDW/kʙ        0.000000e+00 [K]
    external field Real/kʙ       0.000000e+00 [K]
    framework-molecule VDW/kʙ    0.000000e+00 [K]
    framework-molecule Real/kʙ   0.000000e+00 [K]
    molecule-molecule VDW/kʙ    -3.197108e+02 [K]
    molecule-molecule Real/kʙ   -2.006078e+02 [K]
    Van der Waals (Tail)/kʙ     -3.884158e+00 [K]
    Ewald Fourier/kʙ             5.654686e+02 [K]
    Ewald self/kʙ               -1.653010e+05 [K]
    Ewald exclusion/kʙ           1.647718e+05 [K]
    intra VDW/kʙ                 0.000000e+00 [K]
    intra Coulombic/kʙ           0.000000e+00 [K]
    polarization/kʙ              0.000000e+00 [K]
    dU/dlambda VDW/kʙ            0.000000e+00 [K]
    dU/dlambda Real/kʙ           0.000000e+00 [K]
    dU/dlambda Ewald/kʙ          0.000000e+00 [K]


Initialization: Current cycle: 1100 out of 2000
===============================================================================

Box:      33.85987   0.00000   0.00000
           0.00000  33.85987   0.00000
           0.00000   0.00000  33.85987
Lengths:  33.85987  33.85987  33.85987
Angles:   90.00000  90.00000  90.00000
Rectangular boundary conditions

net charge:   0.00000000

component   0 (CO2) lambda:  0 occupancy:  1 (1.000000)
    net charge:   0.00000000 [e]

Amount of molecules per component :
-------------------------------------------------------------------------------
Component 0 (CO2)
    molecules:         1.900000e+01 molecules
    number density:    4.894383e-04 molec/A^3
    density:           3.575920e+01 kg/m^3

Total potential energy/kʙ       -1.995130e+03 [K]
-------------------------------------------------------------------------------
    external field VDW/kʙ        0.000000e+00 [K]
    external field Real/kʙ       0.000000e+00 [K]
    framework-molecule VDW/kʙ    0.000000e+00 [K]
    framework-molecule Real/kʙ   0.000000e+00 [K]
    molecule-molecule VDW/kʙ    -1.298148e+03 [K]
    molecule-molecule Real/kʙ   -6.856294e+02 [K]
    Van der Waals (Tail)/kʙ     -1.726982e+01 [K]
    Ewald Fourier/kʙ             1.123224e+03 [K]
    Ewald self/kʙ               -3.489689e+05 [K]
    Ewald exclusion/kʙ           3.478516e+05 [K]
    intra VDW/kʙ                 0.000000e+00 [K]
    intra Coulombic/kʙ           0.000000e+00 [K]
    polarization/kʙ              0.000000e+00 [K]
    dU/dlambda VDW/kʙ            0.000000e+00 [K]
    dU/dlambda Real/kʙ           0.000000e+00 [K]
    dU/dlambda Ewald/kʙ          0.000000e+00 [K]


Initialization: Current cycle: 1200 out of 2000
===============================================================================

Box:      33.83422   0.00000   0.00000
           0.00000  33.83422   0.00000
           0.00000   0.00000  33.83422
Lengths:  33.83422  33.83422  33.83422
Angles:   90.00000  90.00000  90.00000
Rectangular boundary conditions

net charge:   0.00000000

component   0 (CO2) lambda:  0 occupancy:  1 (1.000000)
    net charge:   0.00000000 [e]

Amount of molecules per component :
-------------------------------------------------------------------------------
Component 0 (CO2)
    molecules:         1.800000e+01 molecules
    number density:    4.647337e-04 molec/A^3
    density:           3.395424e+01 kg/m^3

Total potential energy/kʙ       -8.073069e+02 [K]
-------------------------------------------------------------------------------
    external field VDW/kʙ        0.000000e+00 [K]
    external field Real/kʙ       0.000000e+00 [K]
    framework-molecule VDW/kʙ    0.000000e+00 [K]
    framework-molecule Real/kʙ   0.000000e+00 [K]
    molecule-molecule VDW/kʙ    -5.656446e+02 [K]
    molecule-molecule Real/kʙ   -1.749312e+02 [K]
    Van der Waals (Tail)/kʙ     -1.553506e+01 [K]
    Ewald Fourier/kʙ             1.007306e+03 [K]
    Ewald self/kʙ               -3.306021e+05 [K]
    Ewald exclusion/kʙ           3.295436e+05 [K]
    intra VDW/kʙ                 0.000000e+00 [K]
    intra Coulombic/kʙ           0.000000e+00 [K]
    polarization/kʙ              0.000000e+00 [K]
    dU/dlambda VDW/kʙ            0.000000e+00 [K]
    dU/dlambda Real/kʙ           0.000000e+00 [K]
    dU/dlambda Ewald/kʙ          0.000000e+00 [K]


Initialization: Current cycle: 1300 out of 2000
===============================================================================

Box:      33.85217   0.00000   0.00000
           0.00000  33.85217   0.00000
           0.00000   0.00000  33.85217
Lengths:  33.85217  33.85217  33.85217
Angles:   90.00000  90.00000  90.00000
Rectangular boundary conditions

net charge:   0.00000000

component   0 (CO2) lambda:  0 occupancy:  1 (1.000000)
    net charge:   0.00000000 [e]

Amount of molecules per component :
-------------------------------------------------------------------------------
Component 0 (CO2)
    molecules:         1.100000e+01 molecules
    number density:    2.835522e-04 molec/A^3
    density:           2.071681e+01 kg/m^3

Total potential energy/kʙ       -1.005461e+03 [K]
-------------------------------------------------------------------------------
    external field VDW/kʙ        0.000000e+00 [K]
    external field Real/kʙ       0.000000e+00 [K]
    framework-molecule VDW/kʙ    0.000000e+00 [K]
    framework-molecule Real/kʙ   0.000000e+00 [K]
    molecule-molecule VDW/kʙ    -4.412638e+02 [K]
    molecule-molecule Real/kʙ   -6.029840e+02 [K]
    Van der Waals (Tail)/kʙ     -5.792445e+00 [K]
    Ewald Fourier/kʙ             6.914415e+02 [K]
    Ewald self/kʙ               -2.020346e+05 [K]
    Ewald exclusion/kʙ           2.013877e+05 [K]
    intra VDW/kʙ                 0.000000e+00 [K]
    intra Coulombic/kʙ           0.000000e+00 [K]
    polarization/kʙ              0.000000e+00 [K]
    dU/dlambda VDW/kʙ            0.000000e+00 [K]
    dU/dlambda Real/kʙ           0.000000e+00 [K]
    dU/dlambda Ewald/kʙ          0.000000e+00 [K]


Initialization: Current cycle: 1400 out of 2000
===============================================================================

Box:      33.93261   0.00000   0.00000
           0.00000  33.93261   0.00000
           0.00000   0.00000  33.93261
Lengths:  33.93261  33.93261  33.93261
Angles:   90.00000  90.00000  90.00000
Rectangular boundary conditions

net charge:   0.00000000

component   0 (CO2) lambda:  0 occupancy:  1 (1.000000)
    net charge:   0.00000000 [e]

Amount of molecules per component :
-------------------------------------------------------------------------------
Component 0 (CO2)
    molecules:         1.100000e+01 molecules
    number density:    2.815405e-04 molec/A^3
    density:           2.056983e+01 kg/m^3

Total potential energy/kʙ       -4.655330e+02 [K]
-------------------------------------------------------------------------------
    external field VDW/kʙ        0.000000e+00 [K]
    external field Real/kʙ       0.000000e+00 [K]
    framework-molecule VDW/kʙ    0.000000e+00 [K]
    framework-molecule Real/kʙ   0.000000e+00 [K]
    molecule-molecule VDW/kʙ    -2.669347e+02 [K]
    molecule-molecule Real/kʙ   -1.881447e+02 [K]
    Van der Waals (Tail)/kʙ     -5.751351e+00 [K]
    Ewald Fourier/kʙ             6.421598e+02 [K]
    Ewald self/kʙ               -2.020346e+05 [K]
    Ewald exclusion/kʙ           2.013877e+05 [K]
    intra VDW/kʙ                 0.000000e+00 [K]
    intra Coulombic/kʙ           0.000000e+00 [K]
    polarization/kʙ              0.000000e+00 [K]
    dU/dlambda VDW/kʙ            0.000000e+00 [K]
    dU/dlambda Real/kʙ           0.000000e+00 [K]
    dU/dlambda Ewald/kʙ          0.000000e+00 [K]


Initialization: Current cycle: 1500 out of 2000
===============================================================================

Box:      33.96605   0.00000   0.00000
           0.00000  33.96605   0.00000
           0.00000   0.00000  33.96605
Lengths:  33.96605  33.96605  33.96605
Angles:   90.00000  90.00000  90.00000
Rectangular boundary conditions

net charge:   0.00000000

component   0 (CO2) lambda:  0 occupancy:  1 (1.000000)
    net charge:   0.00000000 [e]

Amount of molecules per component :
-------------------------------------------------------------------------------
Component 0 (CO2)
    molecules:         1.400000e+01 molecules
    number density:    3.572670e-04 molec/A^3
    density:           2.610254e+01 kg/m^3

Total potential energy/kʙ       -1.158962e+03 [K]
-------------------------------------------------------------------------------
    external field VDW/kʙ        0.000000e+00 [K]
    external field Real/kʙ       0.000000e+00 [K]
    framework-molecule VDW/kʙ    0.000000e+00 [K]
    framework-molecule Real/kʙ   0.000000e+00 [K]
    molecule-molecule VDW/kʙ    -1.066369e+03 [K]
    molecule-molecule Real/kʙ   -6.523852e+01 [K]
    Van der Waals (Tail)/kʙ     -9.288748e+00 [K]
    Ewald Fourier/kʙ             8.052134e+02 [K]
    Ewald self/kʙ               -2.571349e+05 [K]
    Ewald exclusion/kʙ           2.563117e+05 [K]
    intra VDW/kʙ                 0.000000e+00 [K]
    intra Coulombic/kʙ           0.000000e+00 [K]
    polarization/kʙ              0.000000e+00 [K]
    dU/dlambda VDW/kʙ            0.000000e+00 [K]
    dU/dlambda Real/kʙ           0.000000e+00 [K]
    dU/dlambda Ewald/kʙ          0.000000e+00 [K]


Initialization: Current cycle: 1600 out of 2000
===============================================================================

Box:      33.92385   0.00000   0.00000
           0.00000  33.92385   0.00000
           0.00000   0.00000  33.92385
Lengths:  33.92385  33.92385  33.92385
Angles:   90.00000  90.00000  90.00000
Rectangular boundary conditions

net charge:   0.00000000

component   0 (CO2) lambda:  0 occupancy:  1 (1.000000)
    net charge:   0.00000000 [e]

Amount of molecules per component :
-------------------------------------------------------------------------------
Component 0 (CO2)
    molecules:         1.600000e+01 molecules
    number density:    4.098307e-04 molec/A^3
    density:           2.994293e+01 kg/m^3

Total potential energy/kʙ       -1.500187e+03 [K]
-------------------------------------------------------------------------------
    external field VDW/kʙ        0.000000e+00 [K]
    external field Real/kʙ       0.000000e+00 [K]
    framework-molecule VDW/kʙ    0.000000e+00 [K]
    framework-molecule Real/kʙ   0.000000e+00 [K]
    molecule-molecule VDW/kʙ    -1.002124e+03 [K]
    molecule-molecule Real/kʙ   -4.287685e+02 [K]
    Van der Waals (Tail)/kʙ     -1.217757e+01 [K]
    Ewald Fourier/kʙ             8.837734e+02 [K]
    Ewald self/kʙ               -2.938685e+05 [K]
    Ewald exclusion/kʙ           2.929276e+05 [K]
    intra VDW/kʙ                 0.000000e+00 [K]
    intra Coulombic/kʙ           0.000000e+00 [K]
    polarization/kʙ              0.000000e+00 [K]
    dU/dlambda VDW/kʙ            0.000000e+00 [K]
    dU/dlambda Real/kʙ           0.000000e+00 [K]
    dU/dlambda Ewald/kʙ          0.000000e+00 [K]


Initialization: Current cycle: 1700 out of 2000
===============================================================================

Box:      34.03834   0.00000   0.00000
           0.00000  34.03834   0.00000
           0.00000   0.00000  34.03834
Lengths:  34.03834  34.03834  34.03834
Angles:   90.00000  90.00000  90.00000
Rectangular boundary conditions

net charge:   0.00000000

component   0 (CO2) lambda:  0 occupancy:  1 (1.000000)
    net charge:   0.00000000 [e]

Amount of molecules per component :
-------------------------------------------------------------------------------
Component 0 (CO2)
    molecules:         1.900000e+01 molecules
    number density:    4.817796e-04 molec/A^3
    density:           3.519964e+01 kg/m^3

Total potential energy/kʙ       -8.940825e+02 [K]
-------------------------------------------------------------------------------
    external field VDW/kʙ        0.000000e+00 [K]
    external field Real/kʙ       0.000000e+00 [K]
    framework-molecule VDW/kʙ    0.000000e+00 [K]
    framework-molecule Real/kʙ   0.000000e+00 [K]
    molecule-molecule VDW/kʙ    -5.966886e+02 [K]
    molecule-molecule Real/kʙ   -2.216155e+02 [K]
    Van der Waals (Tail)/kʙ     -1.699958e+01 [K]
    Ewald Fourier/kʙ             1.058528e+03 [K]
    Ewald self/kʙ               -3.489689e+05 [K]
    Ewald exclusion/kʙ           3.478516e+05 [K]
    intra VDW/kʙ                 0.000000e+00 [K]
    intra Coulombic/kʙ           0.000000e+00 [K]
    polarization/kʙ              0.000000e+00 [K]
    dU/dlambda VDW/kʙ            0.000000e+00 [K]
    dU/dlambda Real/kʙ           0.000000e+00 [K]
    dU/dlambda Ewald/kʙ          0.000000e+00 [K]


Initialization: Current cycle: 1800 out of 2000
===============================================================================

Box:      33.98985   0.00000   0.00000
           0.00000  33.98985   0.00000
           0.00000   0.00000  33.98985
Lengths:  33.98985  33.98985  33.98985
Angles:   90.00000  90.00000  90.00000
Rectangular boundary conditions

net charge:   0.00000000

component   0 (CO2) lambda:  0 occupancy:  1 (1.000000)
    net charge:   0.00000000 [e]

Amount of molecules per component :
-------------------------------------------------------------------------------
Component 0 (CO2)
    molecules:         1.700000e+01 molecules
    number density:    4.329135e-04 molec/A^3
    density:           3.162940e+01 kg/m^3

Total potential energy/kʙ       -1.782528e+03 [K]
-------------------------------------------------------------------------------
    external field VDW/kʙ        0.000000e+00 [K]
    external field Real/kʙ       0.000000e+00 [K]
    framework-molecule VDW/kʙ    0.000000e+00 [K]
    framework-molecule Real/kʙ   0.000000e+00 [K]
    molecule-molecule VDW/kʙ    -1.621691e+03 [K]
    molecule-molecule Real/kʙ   -1.679522e+02 [K]
    Van der Waals (Tail)/kʙ     -1.366741e+01 [K]
    Ewald Fourier/kʙ             1.020479e+03 [K]
    Ewald self/kʙ               -3.122353e+05 [K]
    Ewald exclusion/kʙ           3.112356e+05 [K]
    intra VDW/kʙ                 0.000000e+00 [K]
    intra Coulombic/kʙ           0.000000e+00 [K]
    polarization/kʙ              0.000000e+00 [K]
    dU/dlambda VDW/kʙ            0.000000e+00 [K]
    dU/dlambda Real/kʙ           0.000000e+00 [K]
    dU/dlambda Ewald/kʙ          0.000000e+00 [K]


Initialization: Current cycle: 1900 out of 2000
===============================================================================

Box:      33.85657   0.00000   0.00000
           0.00000  33.85657   0.00000
           0.00000   0.00000  33.85657
Lengths:  33.85657  33.85657  33.85657
Angles:   90.00000  90.00000  90.00000
Rectangular boundary conditions

net charge:   0.00000000

component   0 (CO2) lambda:  0 occupancy:  1 (1.000000)
    net charge:   0.00000000 [e]

Amount of molecules per component :
-------------------------------------------------------------------------------
Component 0 (CO2)
    molecules:         1.800000e+01 molecules
    number density:    4.638140e-04 molec/A^3
    density:           3.388704e+01 kg/m^3

Total potential energy/kʙ       -6.054049e+02 [K]
-------------------------------------------------------------------------------
    external field VDW/kʙ        0.000000e+00 [K]
    external field Real/kʙ       0.000000e+00 [K]
    framework-molecule VDW/kʙ    0.000000e+00 [K]
    framework-molecule Real/kʙ   0.000000e+00 [K]
    molecule-molecule VDW/kʙ    -5.321316e+02 [K]
    molecule-molecule Real/kʙ   -6.411428e+01 [K]
    Van der Waals (Tail)/kʙ     -1.550431e+01 [K]
    Ewald Fourier/kʙ             1.064847e+03 [K]
    Ewald self/kʙ               -3.306021e+05 [K]
    Ewald exclusion/kʙ           3.295436e+05 [K]
    intra VDW/kʙ                 0.000000e+00 [K]
    intra Coulombic/kʙ           0.000000e+00 [K]
    polarization/kʙ              0.000000e+00 [K]
    dU/dlambda VDW/kʙ            0.000000e+00 [K]
    dU/dlambda Real/kʙ           0.000000e+00 [K]
    dU/dlambda Ewald/kʙ          0.000000e+00 [K]


Current cycle: 0 out of 6000
===============================================================================

Box:      33.90726   0.00000   0.00000  Average:  33.90726   0.00000   0.00000
           0.00000  33.90726   0.00000             0.00000  33.90726   0.00000
           0.00000   0.00000  33.90726             0.00000   0.00000  33.90726
Lengths:  33.90726  33.90726  33.90726  Average:  33.90726  33.90726  33.90726
Angles:   90.00000  90.00000  90.00000  Average:  90.00000  90.00000  90.00000
Rectangular boundary conditions

net charge:   0.00000000

component 0 (CO2) lambda:  0 occupancy:  1 (1.000000)
    net charge:   0.00000000 [e]

Amount of molecules per component :
-------------------------------------------------------------------------------
Component 0 (CO2)
    molecules:      2.300000e+01 molecules  (2.300000e+01 +/- 0.000000e+00)
    number density: 5.899971e-04 molec./A^3 (5.899971e-04 +/- 0.000000e+00)
    density:        4.310620e+01 kg/m^3     (4.310620e+01 +/- 0.000000e+00)

Average pressure tensor: 
-------------------------------------------------------------------------------
 1.8735e+01  0.0000e+00  0.0000e+00 +/- 0.0000e+00 0.0000e+00 0.0000e+00 [bar]
 0.0000e+00  1.8735e+01  0.0000e+00 +/- 0.0000e+00 0.0000e+00 0.0000e+00 [bar]
 0.0000e+00  0.0000e+00  1.8735e+01 +/- 0.0000e+00 0.0000e+00 0.0000e+00 [bar]
Ideal-gas pressure:   1.873533e+01 +/ 0.000000e+00 [bar]
Excess pressure:      0.000000e+00 +/ 0.000000e+00 [bar]
Pressure:             1.873533e+01 +/ 0.000000e+00 [bar]

Total potential energy/kʙ  -1.414711e+03 (-1.414711e+03 +/- 0.000000e+00) [K]
-------------------------------------------------------------------------------
ExternalField-molecule
    Van der Waals/kʙ        0.000000e+00 ( 0.000000e+00 +/- 0.000000e+00) [K]
Framework-molecule
    Van der Waals/kʙ        0.000000e+00 ( 0.000000e+00 +/- 0.000000e+00) [K]
    Van der Waals (Tail)/kʙ 0.000000e+00 ( 0.000000e+00 +/- 0.000000e+00) [K]
    Coulombic Real/kʙ       0.000000e+00 ( 0.000000e+00 +/- 0.000000e+00) [K]
    Coulombic Fourier/kʙ    0.000000e+00 ( 0.000000e+00 +/- 0.000000e+00) [K]
Molecule-molecule
    Van der Waals/kʙ       -1.174279e+03 (-1.174279e+03 +/- 0.000000e+00) [K]
    Van der Waals (Tail)/kʙ-2.520078e+01 (-2.520078e+01 +/- 0.000000e+00) [K]
    Coulombic Real/kʙ      -2.075293e+02 (-2.075293e+02 +/- 0.000000e+00) [K]
    Coulombic Fourier/kʙ   -7.701371e+00 (-7.701371e+00 +/- 0.000000e+00) [K]
    Molecule Intra/kʙ       0.000000e+00 ( 0.000000e+00 +/- 0.000000e+00) [K]

Current cycle: 100 out of 6000
===============================================================================

Box:      33.93884   0.00000   0.00000  Average:  33.96072   0.00000   0.00000
           0.00000  33.93884   0.00000             0.00000  33.96072   0.00000
           0.00000   0.00000  33.93884             0.00000   0.00000  33.96072
Lengths:  33.93884  33.93884  33.93884  Average:  33.96072  33.96072  33.96072
Angles:   90.00000  90.00000  90.00000  Average:  90.00000  90.00000  90.00000
Rectangular boundary conditions

net charge:   0.00000000

component 0 (CO2) lambda:  0 occupancy:  1 (1.000000)
    net charge:   0.00000000 [e]

Amount of molecules per component :
-------------------------------------------------------------------------------
Component 0 (CO2)
    molecules:      2.000000e+01 molecules  (2.049505e+01 +/- 0.000000e+00)
    number density: 5.116099e-04 molec./A^3 (5.232457e-04 +/- 0.000000e+00)
    density:        3.737910e+01 kg/m^3     (3.822922e+01 +/- 0.000000e+00)

Average pressure tensor: 
-------------------------------------------------------------------------------
 1.0256e+01  3.5844e-01 -1.2141e+00 +/- 0.0000e+00 0.0000e+00 0.0000e+00 [bar]
 3.5844e-01  8.2894e+00 -8.4128e-01 +/- 0.0000e+00 0.0000e+00 0.0000e+00 [bar]
-1.2141e+00 -8.4128e-01  1.2675e+01 +/- 0.0000e+00 0.0000e+00 0.0000e+00 [bar]
Ideal-gas pressure:   1.661564e+01 +/ 0.000000e+00 [bar]
Excess pressure:     -6.208996e+00 +/ 0.000000e+00 [bar]
Pressure:             1.040665e+01 +/ 0.000000e+00 [bar]

Total potential energy/kʙ  -5.317938e+02 (-1.802432e+03 +/- 0.000000e+00) [K]
-------------------------------------------------------------------------------
ExternalField-molecule
    Van der Waals/kʙ        0.000000e+00 ( 0.000000e+00 +/- 0.000000e+00) [K]
Framework-molecule
    Van der Waals/kʙ        0.000000e+00 ( 0.000000e+00 +/- 0.000000e+00) [K]
    Van der Waals (Tail)/kʙ 0.000000e+00 ( 0.000000e+00 +/- 0.000000e+00) [K]
    Coulombic Real/kʙ       0.000000e+00 ( 0.000000e+00 +/- 0.000000e+00) [K]
    Coulombic Fourier/kʙ    0.000000e+00 ( 0.000000e+00 +/- 0.000000e+00) [K]
Molecule-molecule
    Van der Waals/kʙ       -3.925866e+02 (-1.305360e+03 +/- 0.000000e+00) [K]
    Van der Waals (Tail)/kʙ-1.900226e+01 (-2.045013e+01 +/- 0.000000e+00) [K]
    Coulombic Real/kʙ      -9.139940e+01 (-4.570044e+02 +/- 0.000000e+00) [K]
    Coulombic Fourier/kʙ   -2.880555e+01 (-1.961824e+01 +/- 0.000000e+00) [K]
    Molecule Intra/kʙ       0.000000e+00 ( 0.000000e+00 +/- 0.000000e+00) [K]

Current cycle: 200 out of 6000
===============================================================================

Box:      33.97063   0.00000   0.00000  Average:  33.98231   0.00000   0.00000
           0.00000  33.97063   0.00000             0.00000  33.98231   0.00000
           0.00000   0.00000  33.97063             0.00000   0.00000  33.98231
Lengths:  33.97063  33.97063  33.97063  Average:  33.98231  33.98231  33.98231
Angles:   90.00000  90.00000  90.00000  Average:  90.00000  90.00000  90.00000
Rectangular boundary conditions

net charge:   0.00000000

component 0 (CO2) lambda:  0 occupancy:  1 (1.000000)
    net charge:   0.00000000 [e]

Amount of molecules per component :
-------------------------------------------------------------------------------
Component 0 (CO2)
    molecules:      2.200000e+01 molecules  (2.126368e+01 +/- 0.000000e+00)
    number density: 5.611926e-04 molec./A^3 (5.417787e-04 +/- 0.000000e+00)
    density:        4.100169e+01 kg/m^3     (3.958328e+01 +/- 0.000000e+00)

Average pressure tensor: 
-------------------------------------------------------------------------------
 1.1575e+01 -5.5286e-01 -9.0507e-01 +/- 0.0000e+00 0.0000e+00 0.0000e+00 [bar]
-5.5286e-01  1.3283e+01 -4.8321e-02 +/- 0.0000e+00 0.0000e+00 0.0000e+00 [bar]
-9.0507e-01 -4.8321e-02  1.2991e+01 +/- 0.0000e+00 0.0000e+00 0.0000e+00 [bar]
Ideal-gas pressure:   1.720416e+01 +/ 0.000000e+00 [bar]
Excess pressure:     -4.587855e+00 +/ 0.000000e+00 [bar]
Pressure:             1.261630e+01 +/ 0.000000e+00 [bar]

Total potential energy/kʙ  -3.936597e+03 (-1.930621e+03 +/- 0.000000e+00) [K]
-------------------------------------------------------------------------------
ExternalField-molecule
    Van der Waals/kʙ        0.000000e+00 ( 0.000000e+00 +/- 0.000000e+00) [K]
Framework-molecule
    Van der Waals/kʙ        0.000000e+00 ( 0.000000e+00 +/- 0.000000e+00) [K]
    Van der Waals (Tail)/kʙ 0.000000e+00 ( 0.000000e+00 +/- 0.000000e+00) [K]
    Coulombic Real/kʙ       0.000000e+00 ( 0.000000e+00 +/- 0.000000e+00) [K]
    Coulombic Fourier/kʙ    0.000000e+00 ( 0.000000e+00 +/- 0.000000e+00) [K]
Molecule-molecule
    Van der Waals/kʙ       -2.057293e+03 (-1.453273e+03 +/- 0.000000e+00) [K]
    Van der Waals (Tail)/kʙ-2.292825e+01 (-2.204529e+01 +/- 0.000000e+00) [K]
    Coulombic Real/kʙ      -1.694410e+03 (-4.181346e+02 +/- 0.000000e+00) [K]
    Coulombic Fourier/kʙ   -1.619668e+02 (-3.716782e+01 +/- 0.000000e+00) [K]
    Molecule Intra/kʙ       0.000000e+00 ( 0.000000e+00 +/- 0.000000e+00) [K]

Current cycle: 300 out of 6000
===============================================================================

Box:      33.92535   0.00000   0.00000  Average:  33.97605   0.00000   0.00000
           0.00000  33.92535   0.00000             0.00000  33.97605   0.00000
           0.00000   0.00000  33.92535             0.00000   0.00000  33.97605
Lengths:  33.92535  33.92535  33.92535  Average:  33.97605  33.97605  33.97605
Angles:   90.00000  90.00000  90.00000  Average:  90.00000  90.00000  90.00000
Rectangular boundary conditions

net charge:   0.00000000

component 0 (CO2) lambda:  0 occupancy:  1 (1.000000)
    net charge:   0.00000000 [e]

Amount of molecules per component :
-------------------------------------------------------------------------------
Component 0 (CO2)
    molecules:      1.600000e+01 molecules  (2.017276e+01 +/- 0.000000e+00)
    number density: 4.097764e-04 molec./A^3 (5.142208e-04 +/- 0.000000e+00)
    density:        2.993896e+01 kg/m^3     (3.756985e+01 +/- 0.000000e+00)

Average pressure tensor: 
-------------------------------------------------------------------------------
 1.4060e+01 -1.8464e-01  3.6733e-01 +/- 0.0000e+00 0.0000e+00 0.0000e+00 [bar]
-1.8464e-01  1.2207e+01 -3.8627e-01 +/- 0.0000e+00 0.0000e+00 0.0000e+00 [bar]
 3.6733e-01 -3.8627e-01  1.2316e+01 +/- 0.0000e+00 0.0000e+00 0.0000e+00 [bar]
Ideal-gas pressure:   1.632906e+01 +/ 0.000000e+00 [bar]
Excess pressure:     -3.468173e+00 +/ 0.000000e+00 [bar]
Pressure:             1.286089e+01 +/ 0.000000e+00 [bar]

Total potential energy/kʙ  -9.872346e+02 (-1.642150e+03 +/- 0.000000e+00) [K]
-------------------------------------------------------------------------------
ExternalField-molecule
    Van der Waals/kʙ        0.000000e+00 ( 0.000000e+00 +/- 0.000000e+00) [K]
Framework-molecule
    Van der Waals/kʙ        0.000000e+00 ( 0.000000e+00 +/- 0.000000e+00) [K]
    Van der Waals (Tail)/kʙ 0.000000e+00 ( 0.000000e+00 +/- 0.000000e+00) [K]
    Coulombic Real/kʙ       0.000000e+00 ( 0.000000e+00 +/- 0.000000e+00) [K]
    Coulombic Fourier/kʙ    0.000000e+00 ( 0.000000e+00 +/- 0.000000e+00) [K]
Molecule-molecule
    Van der Waals/kʙ       -9.180344e+02 (-1.228266e+03 +/- 0.000000e+00) [K]
    Van der Waals (Tail)/kʙ-1.217596e+01 (-1.980706e+01 +/- 0.000000e+00) [K]
    Coulombic Real/kʙ      -5.523246e+01 (-3.594702e+02 +/- 0.000000e+00) [K]
    Coulombic Fourier/kʙ   -1.791789e+00 (-3.460645e+01 +/- 0.000000e+00) [K]
    Molecule Intra/kʙ       0.000000e+00 ( 0.000000e+00 +/- 0.000000e+00) [K]

Current cycle: 400 out of 6000
===============================================================================

Box:      34.07061   0.00000   0.00000  Average:  33.98553   0.00000   0.00000
           0.00000  34.07061   0.00000             0.00000  33.98553   0.00000
           0.00000   0.00000  34.07061             0.00000   0.00000  33.98553
Lengths:  34.07061  34.07061  34.07061  Average:  33.98553  33.98553  33.98553
Angles:   90.00000  90.00000  90.00000  Average:  90.00000  90.00000  90.00000
Rectangular boundary conditions

net charge:   0.00000000

component 0 (CO2) lambda:  0 occupancy:  1 (1.000000)
    net charge:   0.00000000 [e]

Amount of molecules per component :
-------------------------------------------------------------------------------
Component 0 (CO2)
    molecules:      1.800000e+01 molecules  (2.000748e+01 +/- 0.000000e+00)
    number density: 4.551273e-04 molec./A^3 (5.096124e-04 +/- 0.000000e+00)
    density:        3.325238e+01 kg/m^3     (3.723316e+01 +/- 0.000000e+00)

Average pressure tensor: 
-------------------------------------------------------------------------------
 1.3739e+01  7.7984e-02  2.9959e-01 +/- 0.0000e+00 0.0000e+00 0.0000e+00 [bar]
 7.7984e-02  1.3153e+01 -3.0660e-01 +/- 0.0000e+00 0.0000e+00 0.0000e+00 [bar]
 2.9959e-01 -3.0660e-01  1.2294e+01 +/- 0.0000e+00 0.0000e+00 0.0000e+00 [bar]
Ideal-gas pressure:   1.618272e+01 +/ 0.000000e+00 [bar]
Excess pressure:     -3.121025e+00 +/ 0.000000e+00 [bar]
Pressure:             1.306170e+01 +/ 0.000000e+00 [bar]

Total potential energy/kʙ  -6.910335e+02 (-1.649717e+03 +/- 0.000000e+00) [K]
-------------------------------------------------------------------------------
ExternalField-molecule
    Van der Waals/kʙ        0.000000e+00 ( 0.000000e+00 +/- 0.000000e+00) [K]
Framework-molecule
    Van der Waals/kʙ        0.000000e+00 ( 0.000000e+00 +/- 0.000000e+00) [K]
    Van der Waals (Tail)/kʙ 0.000000e+00 ( 0.000000e+00 +/- 0.000000e+00) [K]
    Coulombic Real/kʙ       0.000000e+00 ( 0.000000e+00 +/- 0.000000e+00) [K]
    Coulombic Fourier/kʙ    0.000000e+00 ( 0.000000e+00 +/- 0.000000e+00) [K]
Molecule-molecule
    Van der Waals/kʙ       -2.500198e+02 (-1.223552e+03 +/- 0.000000e+00) [K]
    Van der Waals (Tail)/kʙ-1.521394e+01 (-1.924694e+01 +/- 0.000000e+00) [K]
    Coulombic Real/kʙ      -4.286570e+02 (-3.724818e+02 +/- 0.000000e+00) [K]
    Coulombic Fourier/kʙ    2.857261e+00 (-3.443628e+01 +/- 0.000000e+00) [K]
    Molecule Intra/kʙ       0.000000e+00 ( 0.000000e+00 +/- 0.000000e+00) [K]

Current cycle: 500 out of 6000
===============================================================================

Box:      33.82256   0.00000   0.00000  Average:  33.99414   0.00000   0.00000
           0.00000  33.82256   0.00000             0.00000  33.99414   0.00000
           0.00000   0.00000  33.82256             0.00000   0.00000  33.99414
Lengths:  33.82256  33.82256  33.82256  Average:  33.99414  33.99414  33.99414
Angles:   90.00000  90.00000  90.00000  Average:  90.00000  90.00000  90.00000
Rectangular boundary conditions

net charge:   0.00000000

component 0 (CO2) lambda:  0 occupancy:  1 (1.000000)
    net charge:   0.00000000 [e]

Amount of molecules per component :
-------------------------------------------------------------------------------
Component 0 (CO2)
    molecules:      1.200000e+01 molecules  (1.943114e+01 +/- 0.000000e+00)
    number density: 3.101428e-04 molec./A^3 (4.945921e-04 +/- 0.000000e+00)
    density:        2.265956e+01 kg/m^3     (3.613575e+01 +/- 0.000000e+00)

Average pressure tensor: 
-------------------------------------------------------------------------------
 1.3187e+01  2.3369e-02  3.7127e-01 +/- 0.0000e+00 0.0000e+00 0.0000e+00 [bar]
 2.3369e-02  1.3325e+01 -4.6456e-01 +/- 0.0000e+00 0.0000e+00 0.0000e+00 [bar]
 3.7127e-01 -4.6456e-01  1.2935e+01 +/- 0.0000e+00 0.0000e+00 0.0000e+00 [bar]
Ideal-gas pressure:   1.570575e+01 +/ 0.000000e+00 [bar]
Excess pressure:     -2.556827e+00 +/ 0.000000e+00 [bar]
Pressure:             1.314893e+01 +/ 0.000000e+00 [bar]

Total potential energy/kʙ  -6.530405e+02 (-1.556326e+03 +/- 0.000000e+00) [K]
-------------------------------------------------------------------------------
ExternalField-molecule
    Van der Waals/kʙ        0.000000e+00 ( 0.000000e+00 +/- 0.000000e+00) [K]
Framework-molecule
    Van der Waals/kʙ        0.000000e+00 ( 0.000000e+00 +/- 0.000000e+00) [K]
    Van der Waals (Tail)/kʙ 0.000000e+00 ( 0.000000e+00 +/- 0.000000e+00) [K]
    Coulombic Real/kʙ       0.000000e+00 ( 0.000000e+00 +/- 0.000000e+00) [K]
    Coulombic Fourier/kʙ    0.000000e+00 ( 0.000000e+00 +/- 0.000000e+00) [K]
Molecule-molecule
    Van der Waals/kʙ       -6.089354e+02 (-1.168515e+03 +/- 0.000000e+00) [K]
    Van der Waals (Tail)/kʙ-6.911609e+00 (-1.824828e+01 +/- 0.000000e+00) [K]
    Coulombic Real/kʙ      -2.268597e+01 (-3.396835e+02 +/- 0.000000e+00) [K]
    Coulombic Fourier/kʙ   -1.450747e+01 (-2.987929e+01 +/- 0.000000e+00) [K]
    Molecule Intra/kʙ       0.000000e+00 ( 0.000000e+00 +/- 0.000000e+00) [K]

Current cycle: 600 out of 6000
===============================================================================

Box:      33.92962   0.00000   0.00000  Average:  33.99003   0.00000   0.00000
           0.00000  33.92962   0.00000             0.00000  33.99003   0.00000
           0.00000   0.00000  33.92962             0.00000   0.00000  33.99003
Lengths:  33.92962  33.92962  33.92962  Average:  33.99003  33.99003  33.99003
Angles:   90.00000  90.00000  90.00000  Average:  90.00000  90.00000  90.00000
Rectangular boundary conditions

net charge:   0.00000000

component 0 (CO2) lambda:  0 occupancy:  1 (1.000000)
    net charge:   0.00000000 [e]

Amount of molecules per component :
-------------------------------------------------------------------------------
Component 0 (CO2)
    molecules:      1.600000e+01 molecules  (1.864060e+01 +/- 0.000000e+00)
    number density: 4.096217e-04 molec./A^3 (4.745989e-04 +/- 0.000000e+00)
    density:        2.992767e+01 kg/m^3     (3.467500e+01 +/- 0.000000e+00)

Average pressure tensor: 
-------------------------------------------------------------------------------
 1.2567e+01 -3.1949e-02  5.0030e-01 +/- 0.0000e+00 0.0000e+00 0.0000e+00 [bar]
-3.1949e-02  1.2630e+01 -4.0942e-01 +/- 0.0000e+00 0.0000e+00 0.0000e+00 [bar]
 5.0030e-01 -4.0942e-01  1.2366e+01 +/- 0.0000e+00 0.0000e+00 0.0000e+00 [bar]
Ideal-gas pressure:   1.507087e+01 +/ 0.000000e+00 [bar]
Excess pressure:     -2.549987e+00 +/ 0.000000e+00 [bar]
Pressure:             1.252088e+01 +/ 0.000000e+00 [bar]

Total potential energy/kʙ  -6.967881e+02 (-1.414315e+03 +/- 0.000000e+00) [K]
-------------------------------------------------------------------------------
ExternalField-molecule
    Van der Waals/kʙ        0.000000e+00 ( 0.000000e+00 +/- 0.000000e+00) [K]
Framework-molecule
    Van der Waals/kʙ        0.000000e+00 ( 0.000000e+00 +/- 0.000000e+00) [K]
    Van der Waals (Tail)/kʙ 0.000000e+00 ( 0.000000e+00 +/- 0.000000e+00) [K]
    Coulombic Real/kʙ       0.000000e+00 ( 0.000000e+00 +/- 0.000000e+00) [K]
    Coulombic Fourier/kʙ    0.000000e+00 ( 0.000000e+00 +/- 0.000000e+00) [K]
Molecule-molecule
    Van der Waals/kʙ       -5.289981e+02 (-1.063275e+03 +/- 0.000000e+00) [K]
    Van der Waals (Tail)/kʙ-1.217136e+01 (-1.707713e+01 +/- 0.000000e+00) [K]
    Coulombic Real/kʙ      -1.048542e+02 (-3.046201e+02 +/- 0.000000e+00) [K]
    Coulombic Fourier/kʙ   -5.076445e+01 (-2.934343e+01 +/- 0.000000e+00) [K]
    Molecule Intra/kʙ       0.000000e+00 ( 0.000000e+00 +/- 0.000000e+00) [K]

Current cycle: 700 out of 6000
===============================================================================

Box:      33.97105   0.00000   0.00000  Average:  33.98427   0.00000   0.00000
           0.00000  33.97105   0.00000             0.00000  33.98427   0.00000
           0.00000   0.00000  33.97105             0.00000   0.00000  33.98427
Lengths:  33.97105  33.97105  33.97105  Average:  33.98427  33.98427  33.98427
Angles:   90.00000  90.00000  90.00000  Average:  90.00000  90.00000  90.00000
Rectangular boundary conditions

net charge:   0.00000000

component 0 (CO2) lambda:  0 occupancy:  1 (1.000000)
    net charge:   0.00000000 [e]

Amount of molecules per component :
-------------------------------------------------------------------------------
Component 0 (CO2)
    molecules:      1.300000e+01 molecules  (1.829672e+01 +/- 0.000000e+00)
    number density: 3.316013e-04 molec./A^3 (4.660662e-04 +/- 0.000000e+00)
    density:        2.422736e+01 kg/m^3     (3.405159e+01 +/- 0.000000e+00)

Average pressure tensor: 
-------------------------------------------------------------------------------
 1.3522e+01  4.9405e-01  6.4359e-01 +/- 0.0000e+00 0.0000e+00 0.0000e+00 [bar]
 4.9405e-01  1.2412e+01 -1.6695e-01 +/- 0.0000e+00 0.0000e+00 0.0000e+00 [bar]
 6.4359e-01 -1.6695e-01  1.1969e+01 +/- 0.0000e+00 0.0000e+00 0.0000e+00 [bar]
Ideal-gas pressure:   1.479991e+01 +/ 0.000000e+00 [bar]
Excess pressure:     -2.165723e+00 +/ 0.000000e+00 [bar]
Pressure:             1.263419e+01 +/ 0.000000e+00 [bar]

Total potential energy/kʙ  -2.085481e+02 (-1.334750e+03 +/- 0.000000e+00) [K]
-------------------------------------------------------------------------------
ExternalField-molecule
    Van der Waals/kʙ        0.000000e+00 ( 0.000000e+00 +/- 0.000000e+00) [K]
Framework-molecule
    Van der Waals/kʙ        0.000000e+00 ( 0.000000e+00 +/- 0.000000e+00) [K]
    Van der Waals (Tail)/kʙ 0.000000e+00 ( 0.000000e+00 +/- 0.000000e+00) [K]
    Coulombic Real/kʙ       0.000000e+00 ( 0.000000e+00 +/- 0.000000e+00) [K]
    Coulombic Fourier/kʙ    0.000000e+00 ( 0.000000e+00 +/- 0.000000e+00) [K]
Molecule-molecule
    Van der Waals/kʙ       -4.148182e+02 (-1.005205e+03 +/- 0.000000e+00) [K]
    Van der Waals (Tail)/kʙ-8.005636e+00 (-1.635065e+01 +/- 0.000000e+00) [K]
    Coulombic Real/kʙ       1.652851e+02 (-2.850530e+02 +/- 0.000000e+00) [K]
    Coulombic Fourier/kʙ    4.899071e+01 (-2.814164e+01 +/- 0.000000e+00) [K]
    Molecule Intra/kʙ       0.000000e+00 ( 0.000000e+00 +/- 0.000000e+00) [K]

Current cycle: 800 out of 6000
===============================================================================

Box:      33.94931   0.00000   0.00000  Average:  33.97799   0.00000   0.00000
           0.00000  33.94931   0.00000             0.00000  33.97799   0.00000
           0.00000   0.00000  33.94931             0.00000   0.00000  33.97799
Lengths:  33.94931  33.94931  33.94931  Average:  33.97799  33.97799  33.97799
Angles:   90.00000  90.00000  90.00000  Average:  90.00000  90.00000  90.00000
Rectangular boundary conditions

net charge:   0.00000000

component 0 (CO2) lambda:  0 occupancy:  1 (1.000000)
    net charge:   0.00000000 [e]

Amount of molecules per component :
-------------------------------------------------------------------------------
Component 0 (CO2)
    molecules:      1.900000e+01 molecules  (1.798252e+01 +/- 0.000000e+00)
    number density: 4.855798e-04 molec./A^3 (4.583061e-04 +/- 0.000000e+00)
    density:        3.547729e+01 kg/m^3     (3.348463e+01 +/- 0.000000e+00)

Average pressure tensor: 
-------------------------------------------------------------------------------
 1.2814e+01  6.0457e-01  4.3593e-01 +/- 0.0000e+00 0.0000e+00 0.0000e+00 [bar]
 6.0457e-01  1.2036e+01 -8.8241e-02 +/- 0.0000e+00 0.0000e+00 0.0000e+00 [bar]
 4.3593e-01 -8.8241e-02  1.1556e+01 +/- 0.0000e+00 0.0000e+00 0.0000e+00 [bar]
Ideal-gas pressure:   1.455349e+01 +/ 0.000000e+00 [bar]
Excess pressure:     -2.418010e+00 +/ 0.000000e+00 [bar]
Pressure:             1.213548e+01 +/ 0.000000e+00 [bar]

Total potential energy/kʙ  -2.775982e+03 (-1.344663e+03 +/- 0.000000e+00) [K]
-------------------------------------------------------------------------------
ExternalField-molecule
    Van der Waals/kʙ        0.000000e+00 ( 0.000000e+00 +/- 0.000000e+00) [K]
Framework-molecule
    Van der Waals/kʙ        0.000000e+00 ( 0.000000e+00 +/- 0.000000e+00) [K]
    Van der Waals (Tail)/kʙ 0.000000e+00 ( 0.000000e+00 +/- 0.000000e+00) [K]
    Coulombic Real/kʙ       0.000000e+00 ( 0.000000e+00 +/- 0.000000e+00) [K]
    Coulombic Fourier/kʙ    0.000000e+00 ( 0.000000e+00 +/- 0.000000e+00) [K]
Molecule-molecule
    Van der Waals/kʙ       -1.392252e+03 (-9.967599e+02 +/- 0.000000e+00) [K]
    Van der Waals (Tail)/kʙ-1.713367e+01 (-1.594864e+01 +/- 0.000000e+00) [K]
    Coulombic Real/kʙ      -1.264612e+03 (-3.037205e+02 +/- 0.000000e+00) [K]
    Coulombic Fourier/kʙ   -1.019849e+02 (-2.823450e+01 +/- 0.000000e+00) [K]
    Molecule Intra/kʙ       0.000000e+00 ( 0.000000e+00 +/- 0.000000e+00) [K]

Current cycle: 900 out of 6000
===============================================================================

Box:      33.94152   0.00000   0.00000  Average:  33.97094   0.00000   0.00000
           0.00000  33.94152   0.00000             0.00000  33.97094   0.00000
           0.00000   0.00000  33.94152             0.00000   0.00000  33.97094
Lengths:  33.94152  33.94152  33.94152  Average:  33.97094  33.97094  33.97094
Angles:   90.00000  90.00000  90.00000  Average:  90.00000  90.00000  90.00000
Rectangular boundary conditions

net charge:   0.00000000

component 0 (CO2) lambda:  0 occupancy:  1 (1.000000)
    net charge:   0.00000000 [e]

Amount of molecules per component :
-------------------------------------------------------------------------------
Component 0 (CO2)
    molecules:      1.500000e+01 molecules  (1.747170e+01 +/- 0.000000e+00)
    number density: 3.836164e-04 molec./A^3 (4.455079e-04 +/- 0.000000e+00)
    density:        2.802767e+01 kg/m^3     (3.254957e+01 +/- 0.000000e+00)

Average pressure tensor: 
-------------------------------------------------------------------------------
 1.2448e+01  5.2919e-01  4.8157e-01 +/- 0.0000e+00 0.0000e+00 0.0000e+00 [bar]
 5.2919e-01  1.1542e+01 -5.3027e-02 +/- 0.0000e+00 0.0000e+00 0.0000e+00 [bar]
 4.8157e-01 -5.3027e-02  1.1335e+01 +/- 0.0000e+00 0.0000e+00 0.0000e+00 [bar]
Ideal-gas pressure:   1.414709e+01 +/ 0.000000e+00 [bar]
Excess pressure:     -2.371942e+00 +/ 0.000000e+00 [bar]
Pressure:             1.177514e+01 +/ 0.000000e+00 [bar]

Total potential energy/kʙ  -1.247275e+03 (-1.301728e+03 +/- 0.000000e+00) [K]
-------------------------------------------------------------------------------
ExternalField-molecule
    Van der Waals/kʙ        0.000000e+00 ( 0.000000e+00 +/- 0.000000e+00) [K]
Framework-molecule
    Van der Waals/kʙ        0.000000e+00 ( 0.000000e+00 +/- 0.000000e+00) [K]
    Van der Waals (Tail)/kʙ 0.000000e+00 ( 0.000000e+00 +/- 0.000000e+00) [K]
    Coulombic Real/kʙ       0.000000e+00 ( 0.000000e+00 +/- 0.000000e+00) [K]
    Coulombic Fourier/kʙ    0.000000e+00 ( 0.000000e+00 +/- 0.000000e+00) [K]
Molecule-molecule
    Van der Waals/kʙ       -8.527135e+02 (-9.534618e+02 +/- 0.000000e+00) [K]
    Van der Waals (Tail)/kʙ-1.068623e+01 (-1.503291e+01 +/- 0.000000e+00) [K]
    Coulombic Real/kʙ      -3.679847e+02 (-3.059499e+02 +/- 0.000000e+00) [K]
    Coulombic Fourier/kʙ   -1.589030e+01 (-2.728385e+01 +/- 0.000000e+00) [K]
    Molecule Intra/kʙ       0.000000e+00 ( 0.000000e+00 +/- 0.000000e+00) [K]

Current cycle: 1000 out of 6000
===============================================================================

Box:      33.83418   0.00000   0.00000  Average:  33.96735   0.00000   0.00000
           0.00000  33.83418   0.00000             0.00000  33.96735   0.00000
           0.00000   0.00000  33.83418             0.00000   0.00000  33.96735
Lengths:  33.83418  33.83418  33.83418  Average:  33.96735  33.96735  33.96735
Angles:   90.00000  90.00000  90.00000  Average:  90.00000  90.00000  90.00000
Rectangular boundary conditions

net charge:   0.00000000

component 0 (CO2) lambda:  0 occupancy:  1 (1.000000)
    net charge:   0.00000000 [e]

Amount of molecules per component :
-------------------------------------------------------------------------------
Component 0 (CO2)
    molecules:      1.300000e+01 molecules  (1.708092e+01 +/- 0.000000e+00)
    number density: 3.356420e-04 molec./A^3 (4.356675e-04 +/- 0.000000e+00)
    density:        2.452258e+01 kg/m^3     (3.183061e+01 +/- 0.000000e+00)

Average pressure tensor: 
-------------------------------------------------------------------------------
 1.1929e+01  4.4491e-01  2.9064e-01 +/- 0.0000e+00 0.0000e+00 0.0000e+00 [bar]
 4.4491e-01  1.1333e+01 -9.2556e-02 +/- 0.0000e+00 0.0000e+00 0.0000e+00 [bar]
 2.9064e-01 -9.2556e-02  1.1151e+01 +/- 0.0000e+00 0.0000e+00 0.0000e+00 [bar]
Ideal-gas pressure:   1.383460e+01 +/ 0.000000e+00 [bar]
Excess pressure:     -2.363798e+00 +/ 0.000000e+00 [bar]
Pressure:             1.147080e+01 +/ 0.000000e+00 [bar]

Total potential energy/kʙ  -1.997195e+03 (-1.251682e+03 +/- 0.000000e+00) [K]
-------------------------------------------------------------------------------
ExternalField-molecule
    Van der Waals/kʙ        0.000000e+00 ( 0.000000e+00 +/- 0.000000e+00) [K]
Framework-molecule
    Van der Waals/kʙ        0.000000e+00 ( 0.000000e+00 +/- 0.000000e+00) [K]
    Van der Waals (Tail)/kʙ 0.000000e+00 ( 0.000000e+00 +/- 0.000000e+00) [K]
    Coulombic Real/kʙ       0.000000e+00 ( 0.000000e+00 +/- 0.000000e+00) [K]
    Coulombic Fourier/kʙ    0.000000e+00 ( 0.000000e+00 +/- 0.000000e+00) [K]
Molecule-molecule
    Van der Waals/kʙ       -1.506544e+03 (-9.254089e+02 +/- 0.000000e+00) [K]
    Van der Waals (Tail)/kʙ-8.103186e+00 (-1.436194e+01 +/- 0.000000e+00) [K]
    Coulombic Real/kʙ      -5.505607e+02 (-2.883811e+02 +/- 0.000000e+00) [K]
    Coulombic Fourier/kʙ    6.801273e+01 (-2.353003e+01 +/- 0.000000e+00) [K]
    Molecule Intra/kʙ       0.000000e+00 ( 0.000000e+00 +/- 0.000000e+00) [K]

Current cycle: 1100 out of 6000
===============================================================================

Box:      33.82392   0.00000   0.00000  Average:  33.95356   0.00000   0.00000
           0.00000  33.82392   0.00000             0.00000  33.95356   0.00000
           0.00000   0.00000  33.82392             0.00000   0.00000  33.95356
Lengths:  33.82392  33.82392  33.82392  Average:  33.95356  33.95356  33.95356
Angles:   90.00000  90.00000  90.00000  Average:  90.00000  90.00000  90.00000
Rectangular boundary conditions

net charge:   0.00000000

component 0 (CO2) lambda:  0 occupancy:  1 (1.000000)
    net charge:   0.00000000 [e]

Amount of molecules per component :
-------------------------------------------------------------------------------
Component 0 (CO2)
    molecules:      9.000000e+00 molecules  (1.638238e+01 +/- 0.000000e+00)
    number density: 2.325792e-04 molec./A^3 (4.181340e-04 +/- 0.000000e+00)
    density:        1.699263e+01 kg/m^3     (3.054958e+01 +/- 0.000000e+00)

Average pressure tensor: 
-------------------------------------------------------------------------------
 1.1472e+01  4.2424e-01  1.8898e-01 +/- 0.0000e+00 0.0000e+00 0.0000e+00 [bar]
 4.2424e-01  1.0820e+01 -3.0774e-02 +/- 0.0000e+00 0.0000e+00 0.0000e+00 [bar]
 1.8898e-01 -3.0774e-02  1.0695e+01 +/- 0.0000e+00 0.0000e+00 0.0000e+00 [bar]
Ideal-gas pressure:   1.327783e+01 +/ 0.000000e+00 [bar]
Excess pressure:     -2.282451e+00 +/ 0.000000e+00 [bar]
Pressure:             1.099538e+01 +/ 0.000000e+00 [bar]

Total potential energy/kʙ  -2.548366e+02 (-1.169277e+03 +/- 0.000000e+00) [K]
-------------------------------------------------------------------------------
ExternalField-molecule
    Van der Waals/kʙ        0.000000e+00 ( 0.000000e+00 +/- 0.000000e+00) [K]
Framework-molecule
    Van der Waals/kʙ        0.000000e+00 ( 0.000000e+00 +/- 0.000000e+00) [K]
    Van der Waals (Tail)/kʙ 0.000000e+00 ( 0.000000e+00 +/- 0.000000e+00) [K]
    Coulombic Real/kʙ       0.000000e+00 ( 0.000000e+00 +/- 0.000000e+00) [K]
    Coulombic Fourier/kʙ    0.000000e+00 ( 0.000000e+00 +/- 0.000000e+00) [K]
Molecule-molecule
    Van der Waals/kʙ       -2.166084e+02 (-8.688948e+02 +/- 0.000000e+00) [K]
    Van der Waals (Tail)/kʙ-3.887314e+00 (-1.342671e+01 +/- 0.000000e+00) [K]
    Coulombic Real/kʙ      -5.799838e+00 (-2.653001e+02 +/- 0.000000e+00) [K]
    Coulombic Fourier/kʙ   -2.854112e+01 (-2.165505e+01 +/- 0.000000e+00) [K]
    Molecule Intra/kʙ       0.000000e+00 ( 0.000000e+00 +/- 0.000000e+00) [K]

Current cycle: 1200 out of 6000
===============================================================================

Box:      33.69247   0.00000   0.00000  Average:  33.93239   0.00000   0.00000
           0.00000  33.69247   0.00000             0.00000  33.93239   0.00000
           0.00000   0.00000  33.69247             0.00000   0.00000  33.93239
Lengths:  33.69247  33.69247  33.69247  Average:  33.93239  33.93239  33.93239
Angles:   90.00000  90.00000  90.00000  Average:  90.00000  90.00000  90.00000
Rectangular boundary conditions

net charge:   0.00000000

component 0 (CO2) lambda:  0 occupancy:  1 (1.000000)
    net charge:   0.00000000 [e]

Amount of molecules per component :
-------------------------------------------------------------------------------
Component 0 (CO2)
    molecules:      1.000000e+01 molecules  (1.557868e+01 +/- 0.000000e+00)
    number density: 2.614576e-04 molec./A^3 (3.979487e-04 +/- 0.000000e+00)
    density:        1.910254e+01 kg/m^3     (2.907481e+01 +/- 0.000000e+00)

Average pressure tensor: 
-------------------------------------------------------------------------------
 1.0900e+01  4.2843e-01  1.7761e-01 +/- 0.0000e+00 0.0000e+00 0.0000e+00 [bar]
 4.2843e-01  1.0225e+01 -4.4889e-02 +/- 0.0000e+00 0.0000e+00 0.0000e+00 [bar]
 1.7761e-01 -4.4889e-02  1.0165e+01 +/- 0.0000e+00 0.0000e+00 0.0000e+00 [bar]
Ideal-gas pressure:   1.263684e+01 +/ 0.000000e+00 [bar]
Excess pressure:     -2.206922e+00 +/ 0.000000e+00 [bar]
Pressure:             1.042992e+01 +/ 0.000000e+00 [bar]

Total potential energy/kʙ  -1.407665e+02 (-1.100488e+03 +/- 0.000000e+00) [K]
-------------------------------------------------------------------------------
ExternalField-molecule
    Van der Waals/kʙ        0.000000e+00 ( 0.000000e+00 +/- 0.000000e+00) [K]
Framework-molecule
    Van der Waals/kʙ        0.000000e+00 ( 0.000000e+00 +/- 0.000000e+00) [K]
    Van der Waals (Tail)/kʙ 0.000000e+00 ( 0.000000e+00 +/- 0.000000e+00) [K]
    Coulombic Real/kʙ       0.000000e+00 ( 0.000000e+00 +/- 0.000000e+00) [K]
    Coulombic Fourier/kʙ    0.000000e+00 ( 0.000000e+00 +/- 0.000000e+00) [K]
Molecule-molecule
    Van der Waals/kʙ       -3.553924e+02 (-8.184605e+02 +/- 0.000000e+00) [K]
    Van der Waals (Tail)/kʙ-4.855540e+00 (-1.253877e+01 +/- 0.000000e+00) [K]
    Coulombic Real/kʙ       1.762670e+02 (-2.500791e+02 +/- 0.000000e+00) [K]
    Coulombic Fourier/kʙ    4.321448e+01 (-1.940950e+01 +/- 0.000000e+00) [K]
    Molecule Intra/kʙ       0.000000e+00 ( 0.000000e+00 +/- 0.000000e+00) [K]

Current cycle: 1300 out of 6000
===============================================================================

Box:      33.82455   0.00000   0.00000  Average:  33.91586   0.00000   0.00000
           0.00000  33.82455   0.00000             0.00000  33.91586   0.00000
           0.00000   0.00000  33.82455             0.00000   0.00000  33.91586
Lengths:  33.82455  33.82455  33.82455  Average:  33.91586  33.91586  33.91586
Angles:   90.00000  90.00000  90.00000  Average:  90.00000  90.00000  90.00000
Rectangular boundary conditions

net charge:   0.00000000

component 0 (CO2) lambda:  0 occupancy:  1 (1.000000)
    net charge:   0.00000000 [e]

Amount of molecules per component :
-------------------------------------------------------------------------------
Component 0 (CO2)
    molecules:      1.200000e+01 molecules  (1.496541e+01 +/- 0.000000e+00)
    number density: 3.100882e-04 molec./A^3 (3.825904e-04 +/- 0.000000e+00)
    density:        2.265557e+01 kg/m^3     (2.795271e+01 +/- 0.000000e+00)

Average pressure tensor: 
-------------------------------------------------------------------------------
 1.0440e+01  3.4123e-01  1.8266e-01 +/- 0.0000e+00 0.0000e+00 0.0000e+00 [bar]
 3.4123e-01  9.7813e+00 -3.4693e-02 +/- 0.0000e+00 0.0000e+00 0.0000e+00 [bar]
 1.8266e-01 -3.4693e-02  9.7947e+00 +/- 0.0000e+00 0.0000e+00 0.0000e+00 [bar]
Ideal-gas pressure:   1.214914e+01 +/ 0.000000e+00 [bar]
Excess pressure:     -2.143828e+00 +/ 0.000000e+00 [bar]
Pressure:             1.000531e+01 +/ 0.000000e+00 [bar]

Total potential energy/kʙ  -1.541955e+03 (-1.057849e+03 +/- 0.000000e+00) [K]
-------------------------------------------------------------------------------
ExternalField-molecule
    Van der Waals/kʙ        0.000000e+00 ( 0.000000e+00 +/- 0.000000e+00) [K]
Framework-molecule
    Van der Waals/kʙ        0.000000e+00 ( 0.000000e+00 +/- 0.000000e+00) [K]
    Van der Waals (Tail)/kʙ 0.000000e+00 ( 0.000000e+00 +/- 0.000000e+00) [K]
    Coulombic Real/kʙ       0.000000e+00 ( 0.000000e+00 +/- 0.000000e+00) [K]
    Coulombic Fourier/kʙ    0.000000e+00 ( 0.000000e+00 +/- 0.000000e+00) [K]
Molecule-molecule
    Van der Waals/kʙ       -1.048634e+03 (-7.860465e+02 +/- 0.000000e+00) [K]
    Van der Waals (Tail)/kʙ-6.910392e+00 (-1.182443e+01 +/- 0.000000e+00) [K]
    Coulombic Real/kʙ      -4.247651e+02 (-2.413191e+02 +/- 0.000000e+00) [K]
    Coulombic Fourier/kʙ   -6.164549e+01 (-1.865936e+01 +/- 0.000000e+00) [K]
    Molecule Intra/kʙ       0.000000e+00 ( 0.000000e+00 +/- 0.000000e+00) [K]

Current cycle: 1400 out of 6000
===============================================================================

Box:      33.79791   0.00000   0.00000  Average:  33.90881   0.00000   0.00000
           0.00000  33.79791   0.00000             0.00000  33.90881   0.00000
           0.00000   0.00000  33.79791             0.00000   0.00000  33.90881
Lengths:  33.79791  33.79791  33.79791  Average:  33.90881  33.90881  33.90881
Angles:   90.00000  90.00000  90.00000  Average:  90.00000  90.00000  90.00000
Rectangular boundary conditions

net charge:   0.00000000

component 0 (CO2) lambda:  0 occupancy:  1 (1.000000)
    net charge:   0.00000000 [e]

Amount of molecules per component :
-------------------------------------------------------------------------------
Component 0 (CO2)
    molecules:      1.400000e+01 molecules  (1.483655e+01 +/- 0.000000e+00)
    number density: 3.626257e-04 molec./A^3 (3.795635e-04 +/- 0.000000e+00)
    density:        2.649405e+01 kg/m^3     (2.773156e+01 +/- 0.000000e+00)

Average pressure tensor: 
-------------------------------------------------------------------------------
 1.0414e+01  2.9841e-01  1.0471e-01 +/- 0.0000e+00 0.0000e+00 0.0000e+00 [bar]
 2.9841e-01  9.8751e+00 -5.6468e-02 +/- 0.0000e+00 0.0000e+00 0.0000e+00 [bar]
 1.0471e-01 -5.6468e-02  9.7237e+00 +/- 0.0000e+00 0.0000e+00 0.0000e+00 [bar]
Ideal-gas pressure:   1.205302e+01 +/ 0.000000e+00 [bar]
Excess pressure:     -2.048697e+00 +/ 0.000000e+00 [bar]
Pressure:             1.000433e+01 +/ 0.000000e+00 [bar]

Total potential energy/kʙ  -1.396310e+03 (-1.038263e+03 +/- 0.000000e+00) [K]
-------------------------------------------------------------------------------
ExternalField-molecule
    Van der Waals/kʙ        0.000000e+00 ( 0.000000e+00 +/- 0.000000e+00) [K]
Framework-molecule
    Van der Waals/kʙ        0.000000e+00 ( 0.000000e+00 +/- 0.000000e+00) [K]
    Van der Waals (Tail)/kʙ 0.000000e+00 ( 0.000000e+00 +/- 0.000000e+00) [K]
    Coulombic Real/kʙ       0.000000e+00 ( 0.000000e+00 +/- 0.000000e+00) [K]
    Coulombic Fourier/kʙ    0.000000e+00 ( 0.000000e+00 +/- 0.000000e+00) [K]
Molecule-molecule
    Van der Waals/kʙ       -1.018421e+03 (-7.694813e+02 +/- 0.000000e+00) [K]
    Van der Waals (Tail)/kʙ-9.428070e+00 (-1.161466e+01 +/- 0.000000e+00) [K]
    Coulombic Real/kʙ      -3.340448e+02 (-2.377734e+02 +/- 0.000000e+00) [K]
    Coulombic Fourier/kʙ   -3.441592e+01 (-1.939322e+01 +/- 0.000000e+00) [K]
    Molecule Intra/kʙ       0.000000e+00 ( 0.000000e+00 +/- 0.000000e+00) [K]

Current cycle: 1500 out of 6000
===============================================================================

Box:      33.85691   0.00000   0.00000  Average:  33.90397   0.00000   0.00000
           0.00000  33.85691   0.00000             0.00000  33.90397   0.00000
           0.00000   0.00000  33.85691             0.00000   0.00000  33.90397
[...]
    number density: 2.591573e-04 molec./A^3 (2.980098e-04 +/- 8.285994e-05)
    density:        1.893447e+01 kg/m^3     (2.177310e+01 +/- 6.053889e+00)

Average pressure tensor: 
-------------------------------------------------------------------------------
 8.4634e+00  3.3042e-02 -1.6247e-01 +/- 2.1188e+00 3.1337e-01 3.1697e-01 [bar]
 3.3042e-02  8.3112e+00 -2.1355e-02 +/- 3.1337e-01 1.6578e+00 1.9135e-01 [bar]
-1.6247e-01 -2.1355e-02  8.4456e+00 +/- 3.1697e-01 1.9135e-01 1.6200e+00 [bar]
Ideal-gas pressure:   9.463288e+00 +/ 2.631214e+00 [bar]
Excess pressure:     -1.056594e+00 +/ 8.967774e-01 [bar]
Pressure:             8.406694e+00 +/ 1.791749e+00 [bar]

Total potential energy/kʙ  -3.058657e+02 (-6.377174e+02 +/- 3.846919e+02) [K]
-------------------------------------------------------------------------------
ExternalField-molecule
    Van der Waals/kʙ        0.000000e+00 ( 0.000000e+00 +/- 0.000000e+00) [K]
Framework-molecule
    Van der Waals/kʙ        0.000000e+00 ( 0.000000e+00 +/- 0.000000e+00) [K]
    Van der Waals (Tail)/kʙ 0.000000e+00 ( 0.000000e+00 +/- 0.000000e+00) [K]
    Coulombic Real/kʙ       0.000000e+00 ( 0.000000e+00 +/- 0.000000e+00) [K]
    Coulombic Fourier/kʙ    0.000000e+00 ( 0.000000e+00 +/- 0.000000e+00) [K]
Molecule-molecule
    Van der Waals/kʙ       -2.333384e+02 (-4.604638e+02 +/- 2.941477e+02) [K]
    Van der Waals (Tail)/kʙ-4.812820e+00 (-7.237591e+00 +/- 4.202534e+00) [K]
    Coulombic Real/kʙ      -3.088367e+01 (-1.567550e+02 +/- 8.203655e+01) [K]
    Coulombic Fourier/kʙ   -3.683090e+01 (-1.326099e+01 +/- 5.040921e+00) [K]
    Molecule Intra/kʙ       0.000000e+00 ( 0.000000e+00 +/- 0.000000e+00) [K]

Current cycle: 5800 out of 6000
===============================================================================

Box:      33.77138   0.00000   0.00000  Average:  33.77107   0.00000   0.00000
           0.00000  33.77138   0.00000             0.00000  33.77107   0.00000
           0.00000   0.00000  33.77138             0.00000   0.00000  33.77107
Lengths:  33.77138  33.77138  33.77138  Average:  33.77107  33.77107  33.77107
Angles:   90.00000  90.00000  90.00000  Average:  90.00000  90.00000  90.00000
Rectangular boundary conditions

net charge:   0.00000000

component 0 (CO2) lambda:  0 occupancy:  1 (1.000000)
    net charge:   0.00000000 [e]

Amount of molecules per component :
-------------------------------------------------------------------------------
Component 0 (CO2)
    molecules:      1.700000e+01 molecules  (1.155939e+01 +/- 3.179971e+00)
    number density: 4.413698e-04 molec./A^3 (2.993069e-04 +/- 7.865611e-05)
    density:        3.224724e+01 kg/m^3     (2.186787e+01 +/- 5.746750e+00)

Average pressure tensor: 
-------------------------------------------------------------------------------
 8.4782e+00  4.6796e-02 -1.4860e-01 +/- 2.0363e+00 3.1518e-01 2.8099e-01 [bar]
 4.6796e-02  8.3515e+00 -1.1720e-02 +/- 3.1518e-01 1.5375e+00 2.0290e-01 [bar]
-1.4860e-01 -1.1720e-02  8.4951e+00 +/- 2.8099e-01 2.0290e-01 1.4718e+00 [bar]
Ideal-gas pressure:   9.504478e+00 +/ 2.497721e+00 [bar]
Excess pressure:     -1.062888e+00 +/ 8.762644e-01 [bar]
Pressure:             8.441590e+00 +/ 1.675540e+00 [bar]

Total potential energy/kʙ  -1.021273e+03 (-6.413093e+02 +/- 3.698624e+02) [K]
-------------------------------------------------------------------------------
ExternalField-molecule
    Van der Waals/kʙ        0.000000e+00 ( 0.000000e+00 +/- 0.000000e+00) [K]
Framework-molecule
    Van der Waals/kʙ        0.000000e+00 ( 0.000000e+00 +/- 0.000000e+00) [K]
    Van der Waals (Tail)/kʙ 0.000000e+00 ( 0.000000e+00 +/- 0.000000e+00) [K]
    Coulombic Real/kʙ       0.000000e+00 ( 0.000000e+00 +/- 0.000000e+00) [K]
    Coulombic Fourier/kʙ    0.000000e+00 ( 0.000000e+00 +/- 0.000000e+00) [K]
Molecule-molecule
    Van der Waals/kʙ       -8.111342e+02 (-4.631909e+02 +/- 2.833573e+02) [K]
    Van der Waals (Tail)/kʙ-1.393438e+01 (-7.283938e+00 +/- 4.051367e+00) [K]
    Coulombic Real/kʙ      -2.050043e+02 (-1.578211e+02 +/- 7.763114e+01) [K]
    Coulombic Fourier/kʙ    8.800013e+00 (-1.301338e+01 +/- 5.245876e+00) [K]
    Molecule Intra/kʙ       0.000000e+00 ( 0.000000e+00 +/- 0.000000e+00) [K]

Current cycle: 5900 out of 6000
===============================================================================

Box:      33.73047   0.00000   0.00000  Average:  33.77234   0.00000   0.00000
           0.00000  33.73047   0.00000             0.00000  33.77234   0.00000
           0.00000   0.00000  33.73047             0.00000   0.00000  33.77234
Lengths:  33.73047  33.73047  33.73047  Average:  33.77234  33.77234  33.77234
Angles:   90.00000  90.00000  90.00000  Average:  90.00000  90.00000  90.00000
Rectangular boundary conditions

net charge:   0.00000000

component 0 (CO2) lambda:  0 occupancy:  1 (1.000000)
    net charge:   0.00000000 [e]

Amount of molecules per component :
-------------------------------------------------------------------------------
Component 0 (CO2)
    molecules:      2.100000e+01 molecules  (1.166396e+01 +/- 2.999055e+00)
    number density: 5.472075e-04 molec./A^3 (3.019839e-04 +/- 7.409268e-05)
    density:        3.997992e+01 kg/m^3     (2.206346e+01 +/- 5.413338e+00)

Average pressure tensor: 
-------------------------------------------------------------------------------
 8.5335e+00  5.3702e-02 -1.2333e-01 +/- 1.9213e+00 3.1767e-01 2.4917e-01 [bar]
 5.3702e-02  8.3733e+00  3.9976e-03 +/- 3.1767e-01 1.4782e+00 2.2571e-01 [bar]
-1.2333e-01  3.9976e-03  8.5560e+00 +/- 2.4917e-01 2.2571e-01 1.3573e+00 [bar]
Ideal-gas pressure:   9.589485e+00 +/ 2.352810e+00 [bar]
Excess pressure:     -1.101862e+00 +/ 8.353850e-01 [bar]
Pressure:             8.487623e+00 +/ 1.578859e+00 [bar]

Total potential energy/kʙ  -1.046430e+03 (-6.622826e+02 +/- 3.402867e+02) [K]
-------------------------------------------------------------------------------
ExternalField-molecule
    Van der Waals/kʙ        0.000000e+00 ( 0.000000e+00 +/- 0.000000e+00) [K]
Framework-molecule
    Van der Waals/kʙ        0.000000e+00 ( 0.000000e+00 +/- 0.000000e+00) [K]
    Van der Waals (Tail)/kʙ 0.000000e+00 ( 0.000000e+00 +/- 0.000000e+00) [K]
    Coulombic Real/kʙ       0.000000e+00 ( 0.000000e+00 +/- 0.000000e+00) [K]
    Coulombic Fourier/kʙ    0.000000e+00 ( 0.000000e+00 +/- 0.000000e+00) [K]
Molecule-molecule
    Van der Waals/kʙ       -7.330589e+02 (-4.793192e+02 +/- 2.616688e+02) [K]
    Van der Waals (Tail)/kʙ-2.134065e+01 (-7.459002e+00 +/- 3.816306e+00) [K]
    Coulombic Real/kʙ      -1.756702e+02 (-1.620287e+02 +/- 7.042194e+01) [K]
    Coulombic Fourier/kʙ   -1.163605e+02 (-1.347560e+01 +/- 4.914222e+00) [K]
    Molecule Intra/kʙ       0.000000e+00 ( 0.000000e+00 +/- 0.000000e+00) [K]


Energy statistics             |  Energy [K]   | Recomputed [K]|  Drift [K]    |
===============================================================================
Total potential energy/kʙ     | -9.362409e+02 | -9.362409e+02 | -3.418348e-13 |
    external field VDW/kʙ     |  0.000000e+00 |  0.000000e+00 |  0.000000e+00 |
    external field Real/kʙ    |  0.000000e+00 |  0.000000e+00 |  0.000000e+00 |
    framework-molecule VDW/kʙ |  0.000000e+00 |  0.000000e+00 |  0.000000e+00 |
    framework-molecule Real/kʙ|  0.000000e+00 |  0.000000e+00 |  0.000000e+00 |
    molecule-molecule VDW/kʙ  | -5.654283e+02 | -5.654283e+02 | -2.051009e-13 |
    molecule-molecule Real/kʙ | -3.402087e+02 | -3.402087e+02 |  2.734678e-13 |
    Van der Waals (Tail)/kʙ   | -1.209668e+00 | -1.209668e+00 |  0.000000e+00 |
    Ewald Fourier/kʙ          |  2.646340e+02 |  2.646340e+02 | -4.102018e-13 |
    Ewald self/kʙ             | -9.183391e+04 | -9.183391e+04 |  0.000000e+00 |
    Ewald exclusion/kʙ        |  9.153988e+04 |  9.153988e+04 |  0.000000e+00 |
    intra VDW/kʙ              |  0.000000e+00 |  0.000000e+00 |  0.000000e+00 |
    intra Coulombic/kʙ        |  0.000000e+00 |  0.000000e+00 |  0.000000e+00 |
    polarization/kʙ           |  0.000000e+00 |  0.000000e+00 |  0.000000e+00 |
    dU/dlambda VDW/kʙ         |  0.000000e+00 |  0.000000e+00 |  0.000000e+00 |
    dU/dlambda Real/kʙ        |  0.000000e+00 |  0.000000e+00 |  0.000000e+00 |
    dU/dlambda Ewald/kʙ       |  0.000000e+00 |  0.000000e+00 |  0.000000e+00 |
-------------------------------------------------------------------------------


Monte-Carlo moves statistics
===============================================================================

    Gibbs volume         all:                2951
    Gibbs volume         total:              5946
    Gibbs volume         constructed:        5946
    Gibbs volume         accepted:           1990
    Gibbs volume         fraction:       0.334679
    Gibbs volume         max-change:     0.040386

Component 0 [CO2]
    Reinsertion (CBMC)   all:              148906
    Reinsertion (CBMC)   total:            148906
    Reinsertion (CBMC)   constructed:      148906
    Reinsertion (CBMC)   accepted:         122456
    Reinsertion (CBMC)   fraction:       0.822371
    Reinsertion (CBMC)   max-change:     0.000000

    Gibbs swap (CBMC)    all:              298620
    Gibbs swap (CBMC)    total:            597354
    Gibbs swap (CBMC)    constructed:      536438
    Gibbs swap (CBMC)    accepted:          14610
    Gibbs swap (CBMC)    fraction:       0.024458
    Gibbs swap (CBMC)    max-change:     0.000000

    Translation          all:              149611
    Translation          total:             49783      49843      49984
    Translation          constructed:       49735      49811      49955
    Translation          accepted:          45852      45843      45973
    Translation          fraction:       0.921037   0.919748   0.919754
    Translation          max-change:     1.500000   1.500000   1.500000

    Rotation             all:              149712
    Rotation             total:             50038      49705      49968
    Rotation             constructed:       50030      49693      49966
    Rotation             accepted:          45813      45629      45834
    Rotation             fraction:       0.915564   0.917996   0.917267
    Rotation             max-change:     1.500000   1.500000   1.500000



Production run counting of the MC moves summed over systems and components
===============================================================================

Reinsertion (CBMC)                   297805 (19.8537 [%])
Gibbs volume                           5946 (0.3964 [%])
Gibbs swap (CBMC)                    597358 (39.8239 [%])
Translation                          299653 (19.9769 [%])
Rotation                             299238 (19.9492 [%])

Production count MC-steps:          1500000 [-]
               All summed:          1500000 [-]
               difference:                0 [-]


Production run CPU timings of the MC moves
===============================================================================

Component 0 CO2

Rotation                              4.080892 [s]
    Ewald                             3.400903 [s]
    ExternalField-Molecule            0.005216 [s]
    Framework-Molecule                0.005647 [s]
    Molecule-Molecule                 0.300702 [s]
    Overhead                          0.368424 [s]

Reinsertion (CBMC)                    7.812925 [s]
    Ewald                             3.403087 [s]
    NonEwald                          4.108074 [s]
    Overhead                          0.301764 [s]

Translation                           4.075376 [s]
    Ewald                             3.396354 [s]
    ExternalField-Molecule            0.005120 [s]
    Framework-Molecule                0.008190 [s]
    Molecule-Molecule                 0.306805 [s]
    Overhead                          0.358907 [s]



Gibbs swap (CBMC)                   120.615468 [s]
    Ewald                            13.299940 [s]
    NonEwald                        106.002799 [s]
    Tail                              1.025386 [s]

Gibbs volume                         17.258681 [s]
    Ewald                             4.818524 [s]
    NonEwald                         11.768370 [s]
    Tail                              0.595316 [s]

Property sampling                     0.230798 [s]
Energy/pressure sampling:             0.157524 [s]


Production run CPU timings of the MC moves summed over systems and components
===============================================================================


Translation                          18.720813 [s]
    Ewald                             8.253137 [s]
    ExternalField-Molecule            0.010243 [s]
    Framework-Molecule                0.016327 [s]
    Molecule-Molecule                 9.744511 [s]
    Overhead                          0.696595 [s]

Rotation                             18.642769 [s]
    Ewald                             8.245364 [s]
    ExternalField-Molecule            0.010392 [s]
    Framework-Molecule                0.011244 [s]
    Molecule-Molecule                 9.682838 [s]
    Overhead                          0.692931 [s]

Reinsertion (CBMC)                   70.664569 [s]
    Ewald                             7.348952 [s]
    NonEwald                         62.939373 [s]
    Overhead                          0.376244 [s]

Gibbs volume                         34.815848 [s]
    Ewald                             9.743598 [s]
    NonEwald                         23.710244 [s]
    Tail                              1.206279 [s]
    Overhead                          0.155727 [s]

Gibbs swap (CBMC)                   205.282097 [s]
    Ewald                            23.925632 [s]
    NonEwald                        179.162102 [s]
    Tail                              1.663645 [s]
    Overhead                          0.530718 [s]

Property sampling:                    0.478247 [s]
Energy/pressure sampling:             7.520043 [s]

Production simulation time:         356.794151 [s]
                All summed:         356.124386 [s]
                  Overhead:           0.669765 [s]


Initalization simulation time:      114.678684 [s]
Equilibration simulation time:        0.000000 [s]
Production simulation time:         356.794151 [s]
Total simulation time:              471.472835 [s]


Energy averages and statistics:
===============================================================================

Framework-molecule energy:
-------------------------------------------------------------------------------



Framework-molecule energy contributions per energy type:
-------------------------------------------------------------------------------



Inter-molecular energy:
-------------------------------------------------------------------------------

    Inter-molecular energy/kʙ 0-0 [CO2-CO2]:
    ---------------------------------------------------------------------------
        Block[  0] -1.108486e+03
        Block[  1] -6.411895e+02
        Block[  2] -6.553162e+02
        Block[  3] -3.813168e+02
        Block[  4] -5.338375e+02
        -----------------------------------------------------------------------
        Average  -6.640291e+02 +/-  3.371527e+02 [K]



Inter-molecular energy contributions per energy type:
-------------------------------------------------------------------------------

    Van der Waals energy/kʙ 0-0 [CO2-CO2]:
    ---------------------------------------------------------------------------
        Block[  0] -8.223194e+02
        Block[  1] -4.652998e+02
        Block[  2] -4.694035e+02
        Block[  3] -2.598538e+02
        Block[  4] -3.848520e+02
        -----------------------------------------------------------------------
        Average  -4.803457e+02 +/-  2.596917e+02 [K]

    VDW Tail-Correction energy/kʙ 0-0 [CO2-CO2]:
    ---------------------------------------------------------------------------
        Block[  0] -1.260279e+01
        Block[  1] -7.300531e+00
        Block[  2] -6.850488e+00
        Block[  3] -4.565078e+00
        Block[  4] -5.857762e+00
        -----------------------------------------------------------------------
        Average  -7.435330e+00 +/-  3.815861e+00 [K]

    Coulomb Real energy/kʙ 0-0 [CO2-CO2]:
    ---------------------------------------------------------------------------
        Block[  0] -2.536320e+02
        Block[  1] -1.568204e+02
        Block[  2] -1.656266e+02
        Block[  3] -1.076419e+02
        Block[  4] -1.312100e+02
        -----------------------------------------------------------------------
        Average  -1.629862e+02 +/-  6.893866e+01 [K]

    Coulomb Fourier energy/kʙ 0-0 [CO2-CO2]:
    ---------------------------------------------------------------------------
        Block[  0] -1.993136e+01
        Block[  1] -1.176875e+01
        Block[  2] -1.343559e+01
        Block[  3] -9.256107e+00
        Block[  4] -1.191774e+01
        -----------------------------------------------------------------------
        Average  -1.326191e+01 +/-  4.988874e+00 [K]


Total energy/kʙ
-------------------------------------------------------------------------------
    Block[  0] -1.108486e+03
    Block[  1] -6.411895e+02
    Block[  2] -6.553162e+02
    Block[  3] -3.813168e+02
    Block[  4] -5.338375e+02
    ---------------------------------------------------------------------------
    Average  -6.640291e+02 +/-  3.371527e+02 [K]

Pressure averages and statistics:
===============================================================================

Average pressure tensor: 
-------------------------------------------------------------------------------
 8.5155e+00  3.9797e-02 -1.4273e-01 +/- 1.9194e+00 3.1340e-01 2.6480e-01 [bar]
 3.9797e-02  8.3281e+00  8.2604e-03 +/- 3.1340e-01 1.5160e+00 2.2698e-01 [bar]
-1.4273e-01  8.2604e-03  8.5242e+00 +/- 2.6480e-01 2.2698e-01 1.3788e+00 [bar]

    Block[  0]  1.264046e+06
    Block[  1]  9.683281e+05
    Block[  2]  9.451617e+05
    Block[  3]  7.721039e+05
    Block[  4]  8.349619e+05
    ---------------------------------------------------------------------------
    Ideal gas pressure   9.569202e+05 +/-  1.416676e-02 [Pa]
                         9.569202e+00 +/-  2.352447e+00 [bar]


    Block[  0] -2.205232e+05
    Block[  1] -7.870255e+04
    Block[  2] -1.198922e+05
    Block[  3] -4.562541e+04
    Block[  4] -9.187644e+04
    ---------------------------------------------------------------------------
    Excess pressure  -1.113239e+05 +/-  8.271488e+04 [Pa]
                     -1.113239e+00 +/-  8.271488e-01 [bar]


    Block[  0]  1.043522e+06
    Block[  1]  8.896256e+05
    Block[  2]  8.252696e+05
    Block[  3]  7.264784e+05
    Block[  4]  7.430855e+05
    ---------------------------------------------------------------------------
    Pressure average   8.455963e+05 +/-  1.597395e+05 [Pa]
                       8.455963e+00 +/-  1.597395e+00 [bar]


Enthalpy of adsorption
===============================================================================

Component 0 [CO2]
-------------------------------------------------------------------------------
    Block[  0] -3.609165e+02
    Block[  1] -3.350986e+02
    Block[  2] -3.467402e+02
    Block[  3] -3.114386e+02
    Block[  4] -3.329481e+02
    ---------------------------------------------------------------------------
    Enthalpy of adsorption: -3.374284e+02 +/-  2.271720e+01 [K]
                            -2.805537e+00 +/-  1.888814e-01 [kJ/mol]
    Warning: need to subtract the ideal-gas energy.


Densities
===============================================================================

Component 0 (CO2)
    Block[  0] 15.583333333333334
    Block[  1] 11.744166666666667
    Block[  2] 11.449166666666667
    Block[  3] 9.345833333333333
    Block[  4] 10.07
    -----------------------------------------------------------------------
    Density average   1.163850e+01 +/-  2.997902e+00 [molecules]
    Density average   3.013452e-04 +/-  7.408126e-05 [molec/A^3]
    Density average   2.201679e+01 +/-  5.412504e+00 [kg.m⁻³]

