Compiler and run-time data
===============================================================================
RASPA 3.0.4

Random seed: 1206915454

Compiled as a 64-bits application
Compiler: gcc Ubuntu Clang 18.1.3 (1ubuntu1)
Compile Date = Mar 15 2025, Compile Time = 19:39:45

2025-06-03 11:00:44.300883
Simulation started on Tue, Jun 03
The start time was 11:00:00

Hostname:    c108
OS type:     Linux on x86_64
OS release:  6.8.0-58-generic
OS version:  #60-Ubuntu SMP PREEMPT_DYNAMIC Fri Mar 14 18:29:48 UTC 2025


Mutual consistent basic set of units:
===============================================================================

Unit of temperature: 1 [K]
Unit of length:      1e-10 [m]
Unit of time:        1e-12 [s]
Unit of mass:        1.6605402e-27 [kg]
Unit of charge:      1.60217733e-19 [C/particle]


Boltzmann constant (internal units):          0.8314464919307584 [-]
represents conversion from energy (internal units) to temperature (in Kelvin)

Derived units and their conversion factors:
===============================================================================

Unit of energy:                           1.6605402000000002e-23 [J]
Unit of energy:                           10.000008872307538 [J.mol⁻¹]
Unit of velocity:                         100 [m.s⁻¹]
Unit of force:                            1.6605402000000002e-13 [N]
Unit of diffusion:                        1.0000000000000002e-08 [m².s⁻¹]
Unit of acceleration:                     1.0000000000000002e-08 [m².s⁻¹]
Unit of torque:                           1.6605402000000002e-23 [N.m]
Unit of pressure:                         16605402 [Pa]
Unit of volume:                           1e-30 [m³]
Unit of density:                          1660.5402 [kg.m⁻³]
Unit of dynamic viscosity:                1.6605401999999997e-05 [N.s.m⁻²]
Unit of enthalpy:                         1.6605402000000002e-23 [J]
Unit of polarizability:                   1.5458657349975198e-35 [-]
Unit of Coulomb potential:                167101.08000665612 [K]
Unit of dielectric constant:              1.5458657349975193e-05 [s².C².kg⁻¹.m⁻³]
Unit of dipole moment:                    1.60217733e-29 [C.m]
Unit of Debye:                            4.803206799099162 [C.m]
Unit of electric potential:               0.00010364272224473431 [V]
Unit of electric field:                   1036427.222447343 [V.m⁻¹]
Unit of isothermal compressibility:       6.02213665167516e-08 [Pa⁻¹]
Unit of heat capacity:                    10.000008872307538 [J.mol⁻¹.K⁻¹]
Unit of volumetric expansion coefficient: 1 [K⁻¹]


Internal conversion factors:
===============================================================================

Energy (internal units) to Kelvin:      1.202724284692786 [-]
Kelvin to energy (internal units):      0.8314457542157567 [-]


System definitions
===============================================================================

Temperature:          230 [K]
Beta:                 0.005229231380675068 [-]
Pressure:             0 [Pa]
Helium void fraction: 1 [-]

Box:      30.00000   0.00000   0.00000
           0.00000  30.00000   0.00000
           0.00000   0.00000  30.00000
Lengths:  30.00000  30.00000  30.00000
Angles:   90.00000  90.00000  90.00000
Rectangular boundary conditions



Property measurement settings
===============================================================================




Pseudo-atoms
===============================================================================

  0 - C_co2    framework-atom: false
  1 - O_co2    framework-atom: false

  0 - C_co2    mass: 12.00000, charge:  0.70000
  1 - O_co2    mass: 15.99940, charge: -0.35000

  0 - C_co2    polarizability:  0.00000
  1 - O_co2    polarizability:  0.00000

  0 - J. J. Potoff et al., AIChE J. 2001, 47, 1676–1682.
  1 - J. J. Potoff et al., AIChE J. 2001, 47, 1676–1682.

Force field status
===============================================================================

Cutoff Framework-Molecule VDW:  11.00000 [Å]
Cutoff Molecule-Molecule VDW:   11.00000 [Å]
Cutoff Coulomb:                 11.00000 [Å]

Overlap-criteria VDW:           1.000000e+05 [K]

C_co2    - C_co2    Lennard-Jones p₀/kʙ:  27.00000 [K], p₁:  2.80000 [Å]
                                  shift:   0.00000 [K], tailcorrections: true
C_co2    - O_co2    Lennard-Jones p₀/kʙ:  46.18441 [K], p₁:  2.92500 [Å]
                                  shift:   0.00000 [K], tailcorrections: true
O_co2    - O_co2    Lennard-Jones p₀/kʙ:  79.00000 [K], p₁:  3.05000 [Å]
                                  shift:   0.00000 [K], tailcorrections: true

Ewald precision: 1e-06
Ewald alpha: 0.2903408740940883
Ewald k-vectors: 9 9 9


Component definitions
===============================================================================

Component 0 [CO2]

    Type: Adsorbate

    Critical temperature:  304.1282 [K]
    Critical pressure:     7377300 [Pa]
    Acentric factor:       0.22394 [-]

    Mol-fraction:                 1 [-]
    Swappable:                   true

    Mass:                         43.9988 [-]
    Fugacity coefficient:         -nan [-]
    Bulk fluid density:           0 [-]
    Compressibility:              1 [-]
    Excess molecules:             0 [-]

    Number Of Atoms:    3
    CBMC starting bead: 0
      0: O_co2  position  0.00000 -0.00000  1.16000, charge -0.35000
      1: C_co2  position  0.00000 -0.00000  0.00000, charge  0.70000
      2: O_co2  position  0.00000 -0.00000 -1.16000, charge -0.35000
    Diagonalized inertia-vector:      43.05758528 43.05758528 0.00000000
    Translational degrees of freedom: 3
    Rotational degrees of freedom:    2
    Shape of the molecule is: 'Linear'
    Net-charge:        0.00000000 [e]

    Move probabilities:
    Translation:                   0.199203 [-]
    Random translation:            0.000000 [-]
    Rotation:                      0.199203 [-]
    Random rotation:               0.000000 [-]
    Volume change:                 0.000000 [-]
    Reinsertion (CBMC):            0.199203 [-]
    Identity change (CBMC):        0.000000 [-]
    Swap:                          0.000000 [-]
    Swap (CBMC):                   0.000000 [-]
    Swap (CFCMC):                  0.000000 [-]
    Swap (CB/CFCMC):               0.000000 [-]
    Gibbs volume:                  0.003984 [-]
    Gibbs swap (CBMC):             0.398406 [-]
    Gibbs swap (CFCMC):            0.000000 [-]
    Widom:                         0.000000 [-]
    Widom (CFCMC):                 0.000000 [-]
    Widom (CB/CFCMC):              0.000000 [-]
    Parallel tempering:            0.000000 [-]
    Hybrid MC:                     0.000000 [-]

    number of blocking-pockets: 0

    number of bonds: 0





Number of pseudo-atoms
===============================================================================

Component   0 (CO2)
-------------------------------------------------------------------------------
    index   0 (C_co2): 210 atoms
    index   1 (O_co2): 420 atoms

Total number of pseudo-atoms:
-------------------------------------------------------------------------------
    index   0 (C_co2): 210 atoms
    index   1 (O_co2): 420 atoms




Energy status Recomputed from scratch
===============================================================================

Total potential energy/kʙ       -1.002652e+05 [K]
    external field VDW/kʙ        0.000000e+00 [K]
    external field Real/kʙ       0.000000e+00 [K]
    framework-molecule VDW/kʙ    0.000000e+00 [K]
    framework-molecule Real/kʙ   0.000000e+00 [K]
    molecule-molecule VDW/kʙ    -7.708445e+04 [K]
    molecule-molecule Real/kʙ   -1.653679e+04 [K]
    Van der Waals (Tail)/kʙ     -3.937786e+03 [K]
    Ewald Fourier/kʙ             1.635454e+04 [K]
    Ewald self/kʙ               -4.224926e+06 [K]
    Ewald exclusion/kʙ           4.205866e+06 [K]
    intra VDW/kʙ                 0.000000e+00 [K]
    intra Coulombic/kʙ           0.000000e+00 [K]
    polarization/kʙ              0.000000e+00 [K]
    dU/dlambda VDW/kʙ            0.000000e+00 [K]
    dU/dlambda Real/kʙ           0.000000e+00 [K]
    dU/dlambda Ewald/kʙ          0.000000e+00 [K]





Initialization: Current cycle: 0 out of 2000
===============================================================================

Box:      30.00000   0.00000   0.00000
           0.00000  30.00000   0.00000
           0.00000   0.00000  30.00000
Lengths:  30.00000  30.00000  30.00000
Angles:   90.00000  90.00000  90.00000
Rectangular boundary conditions

net charge:   0.00000000

component   0 (CO2) lambda:  0 occupancy:  0 (0.000000)
    net charge:   0.00000000 [e]

Amount of molecules per component :
-------------------------------------------------------------------------------
Component 0 (CO2)
    molecules:         2.160000e+02 molecules
    number density:    8.000000e-03 molec/A^3
    density:           5.844937e+02 kg/m^3

Total potential energy/kʙ       -1.220098e+05 [K]
-------------------------------------------------------------------------------
    external field VDW/kʙ        0.000000e+00 [K]
    external field Real/kʙ       0.000000e+00 [K]
    framework-molecule VDW/kʙ    0.000000e+00 [K]
    framework-molecule Real/kʙ   0.000000e+00 [K]
    molecule-molecule VDW/kʙ    -8.873538e+04 [K]
    molecule-molecule Real/kʙ   -2.417072e+04 [K]
    Van der Waals (Tail)/kʙ     -4.166017e+03 [K]
    Ewald Fourier/kʙ             1.466765e+04 [K]
    Ewald self/kʙ               -4.345638e+06 [K]
    Ewald exclusion/kʙ           4.326033e+06 [K]
    intra VDW/kʙ                 0.000000e+00 [K]
    intra Coulombic/kʙ           0.000000e+00 [K]
    polarization/kʙ              0.000000e+00 [K]
    dU/dlambda VDW/kʙ            0.000000e+00 [K]
    dU/dlambda Real/kʙ           0.000000e+00 [K]
    dU/dlambda Ewald/kʙ          0.000000e+00 [K]


Initialization: Current cycle: 100 out of 2000
===============================================================================

Box:      28.77063   0.00000   0.00000
           0.00000  28.77063   0.00000
           0.00000   0.00000  28.77063
Lengths:  28.77063  28.77063  28.77063
Angles:   90.00000  90.00000  90.00000
Rectangular boundary conditions

net charge:   0.00000000

component   0 (CO2) lambda:  0 occupancy:  0 (0.000000)
    net charge:   0.00000000 [e]

Amount of molecules per component :
-------------------------------------------------------------------------------
Component 0 (CO2)
    molecules:         2.400000e+02 molecules
    number density:    1.007774e-02 molec/A^3
    density:           7.362971e+02 kg/m^3

Total potential energy/kʙ       -2.831539e+05 [K]
-------------------------------------------------------------------------------
    external field VDW/kʙ        0.000000e+00 [K]
    external field Real/kʙ       0.000000e+00 [K]
    framework-molecule VDW/kʙ    0.000000e+00 [K]
    framework-molecule Real/kʙ   0.000000e+00 [K]
    molecule-molecule VDW/kʙ    -1.976768e+05 [K]
    molecule-molecule Real/kʙ   -6.959292e+04 [K]
    Van der Waals (Tail)/kʙ     -5.831118e+03 [K]
    Ewald Fourier/kʙ             1.173065e+04 [K]
    Ewald self/kʙ               -4.828487e+06 [K]
    Ewald exclusion/kʙ           4.806703e+06 [K]
    intra VDW/kʙ                 0.000000e+00 [K]
    intra Coulombic/kʙ           0.000000e+00 [K]
    polarization/kʙ              0.000000e+00 [K]
    dU/dlambda VDW/kʙ            0.000000e+00 [K]
    dU/dlambda Real/kʙ           0.000000e+00 [K]
    dU/dlambda Ewald/kʙ          0.000000e+00 [K]


Initialization: Current cycle: 200 out of 2000
===============================================================================

Box:      27.82591   0.00000   0.00000
           0.00000  27.82591   0.00000
           0.00000   0.00000  27.82591
Lengths:  27.82591  27.82591  27.82591
Angles:   90.00000  90.00000  90.00000
Rectangular boundary conditions

net charge:   0.00000000

component   0 (CO2) lambda:  0 occupancy:  0 (0.000000)
    net charge:   0.00000000 [e]

Amount of molecules per component :
-------------------------------------------------------------------------------
Component 0 (CO2)
    molecules:         2.470000e+02 molecules
    number density:    1.146433e-02 molec/A^3
    density:           8.376038e+02 kg/m^3

Total potential energy/kʙ       -3.150559e+05 [K]
-------------------------------------------------------------------------------
    external field VDW/kʙ        0.000000e+00 [K]
    external field Real/kʙ       0.000000e+00 [K]
    framework-molecule VDW/kʙ    0.000000e+00 [K]
    framework-molecule Real/kʙ   0.000000e+00 [K]
    molecule-molecule VDW/kʙ    -2.244649e+05 [K]
    molecule-molecule Real/kʙ   -7.288967e+04 [K]
    Van der Waals (Tail)/kʙ     -6.826893e+03 [K]
    Ewald Fourier/kʙ             1.154462e+04 [K]
    Ewald self/kʙ               -4.969318e+06 [K]
    Ewald exclusion/kʙ           4.946899e+06 [K]
    intra VDW/kʙ                 0.000000e+00 [K]
    intra Coulombic/kʙ           0.000000e+00 [K]
    polarization/kʙ              0.000000e+00 [K]
    dU/dlambda VDW/kʙ            0.000000e+00 [K]
    dU/dlambda Real/kʙ           0.000000e+00 [K]
    dU/dlambda Ewald/kʙ          0.000000e+00 [K]


Initialization: Current cycle: 300 out of 2000
===============================================================================

Box:      27.11502   0.00000   0.00000
           0.00000  27.11502   0.00000
           0.00000   0.00000  27.11502
Lengths:  27.11502  27.11502  27.11502
Angles:   90.00000  90.00000  90.00000
Rectangular boundary conditions

net charge:   0.00000000

component   0 (CO2) lambda:  0 occupancy:  0 (0.000000)
    net charge:   0.00000000 [e]

Amount of molecules per component :
-------------------------------------------------------------------------------
Component 0 (CO2)
    molecules:         2.420000e+02 molecules
    number density:    1.213907e-02 molec/A^3
    density:           8.869014e+02 kg/m^3

Total potential energy/kʙ       -3.205865e+05 [K]
-------------------------------------------------------------------------------
    external field VDW/kʙ        0.000000e+00 [K]
    external field Real/kʙ       0.000000e+00 [K]
    framework-molecule VDW/kʙ    0.000000e+00 [K]
    framework-molecule Real/kʙ   0.000000e+00 [K]
    molecule-molecule VDW/kʙ    -2.296522e+05 [K]
    molecule-molecule Real/kʙ   -7.256367e+04 [K]
    Van der Waals (Tail)/kʙ     -7.082362e+03 [K]
    Ewald Fourier/kʙ             1.067701e+04 [K]
    Ewald self/kʙ               -4.868725e+06 [K]
    Ewald exclusion/kʙ           4.846759e+06 [K]
    intra VDW/kʙ                 0.000000e+00 [K]
    intra Coulombic/kʙ           0.000000e+00 [K]
    polarization/kʙ              0.000000e+00 [K]
    dU/dlambda VDW/kʙ            0.000000e+00 [K]
    dU/dlambda Real/kʙ           0.000000e+00 [K]
    dU/dlambda Ewald/kʙ          0.000000e+00 [K]


Initialization: Current cycle: 400 out of 2000
===============================================================================

Box:      26.56628   0.00000   0.00000
           0.00000  26.56628   0.00000
           0.00000   0.00000  26.56628
Lengths:  26.56628  26.56628  26.56628
Angles:   90.00000  90.00000  90.00000
Rectangular boundary conditions

net charge:   0.00000000

component   0 (CO2) lambda:  0 occupancy:  0 (0.000000)
    net charge:   0.00000000 [e]

Amount of molecules per component :
-------------------------------------------------------------------------------
Component 0 (CO2)
    molecules:         2.450000e+02 molecules
    number density:    1.306694e-02 molec/A^3
    density:           9.546932e+02 kg/m^3

Total potential energy/kʙ       -3.419370e+05 [K]
-------------------------------------------------------------------------------
    external field VDW/kʙ        0.000000e+00 [K]
    external field Real/kʙ       0.000000e+00 [K]
    framework-molecule VDW/kʙ    0.000000e+00 [K]
    framework-molecule Real/kʙ   0.000000e+00 [K]
    molecule-molecule VDW/kʙ    -2.459206e+05 [K]
    molecule-molecule Real/kʙ   -7.602675e+04 [K]
    Van der Waals (Tail)/kʙ     -7.718224e+03 [K]
    Ewald Fourier/kʙ             9.966042e+03 [K]
    Ewald self/kʙ               -4.929081e+06 [K]
    Ewald exclusion/kʙ           4.906843e+06 [K]
    intra VDW/kʙ                 0.000000e+00 [K]
    intra Coulombic/kʙ           0.000000e+00 [K]
    polarization/kʙ              0.000000e+00 [K]
    dU/dlambda VDW/kʙ            0.000000e+00 [K]
    dU/dlambda Real/kʙ           0.000000e+00 [K]
    dU/dlambda Ewald/kʙ          0.000000e+00 [K]


Initialization: Current cycle: 500 out of 2000
===============================================================================

Box:      25.97424   0.00000   0.00000
           0.00000  25.97424   0.00000
           0.00000   0.00000  25.97424
Lengths:  25.97424  25.97424  25.97424
Angles:   90.00000  90.00000  90.00000
Rectangular boundary conditions

net charge:   0.00000000

component   0 (CO2) lambda:  0 occupancy:  0 (0.000000)
    net charge:   0.00000000 [e]

Amount of molecules per component :
-------------------------------------------------------------------------------
Component 0 (CO2)
    molecules:         2.440000e+02 molecules
    number density:    1.392391e-02 molec/A^3
    density:           1.017305e+03 kg/m^3

Total potential energy/kʙ       -3.652498e+05 [K]
-------------------------------------------------------------------------------
    external field VDW/kʙ        0.000000e+00 [K]
    external field Real/kʙ       0.000000e+00 [K]
    framework-molecule VDW/kʙ    0.000000e+00 [K]
    framework-molecule Real/kʙ   0.000000e+00 [K]
    molecule-molecule VDW/kʙ    -2.623155e+05 [K]
    molecule-molecule Real/kʙ   -8.213343e+04 [K]
    Van der Waals (Tail)/kʙ     -8.190838e+03 [K]
    Ewald Fourier/kʙ             9.536795e+03 [K]
    Ewald self/kʙ               -4.908962e+06 [K]
    Ewald exclusion/kʙ           4.886815e+06 [K]
    intra VDW/kʙ                 0.000000e+00 [K]
    intra Coulombic/kʙ           0.000000e+00 [K]
    polarization/kʙ              0.000000e+00 [K]
    dU/dlambda VDW/kʙ            0.000000e+00 [K]
    dU/dlambda Real/kʙ           0.000000e+00 [K]
    dU/dlambda Ewald/kʙ          0.000000e+00 [K]


Initialization: Current cycle: 600 out of 2000
===============================================================================

Box:      25.53694   0.00000   0.00000
           0.00000  25.53694   0.00000
           0.00000   0.00000  25.53694
Lengths:  25.53694  25.53694  25.53694
Angles:   90.00000  90.00000  90.00000
Rectangular boundary conditions

net charge:   0.00000000

component   0 (CO2) lambda:  0 occupancy:  0 (0.000000)
    net charge:   0.00000000 [e]

Amount of molecules per component :
-------------------------------------------------------------------------------
Component 0 (CO2)
    molecules:         2.420000e+02 molecules
    number density:    1.453144e-02 molec/A^3
    density:           1.061692e+03 kg/m^3

Total potential energy/kʙ       -3.787249e+05 [K]
-------------------------------------------------------------------------------
    external field VDW/kʙ        0.000000e+00 [K]
    external field Real/kʙ       0.000000e+00 [K]
    framework-molecule VDW/kʙ    0.000000e+00 [K]
    framework-molecule Real/kʙ   0.000000e+00 [K]
    molecule-molecule VDW/kʙ    -2.695045e+05 [K]
    molecule-molecule Real/kʙ   -8.800778e+04 [K]
    Van der Waals (Tail)/kʙ     -8.478153e+03 [K]
    Ewald Fourier/kʙ             9.230781e+03 [K]
    Ewald self/kʙ               -4.868725e+06 [K]
    Ewald exclusion/kʙ           4.846759e+06 [K]
    intra VDW/kʙ                 0.000000e+00 [K]
    intra Coulombic/kʙ           0.000000e+00 [K]
    polarization/kʙ              0.000000e+00 [K]
    dU/dlambda VDW/kʙ            0.000000e+00 [K]
    dU/dlambda Real/kʙ           0.000000e+00 [K]
    dU/dlambda Ewald/kʙ          0.000000e+00 [K]


Initialization: Current cycle: 700 out of 2000
===============================================================================

Box:      25.53640   0.00000   0.00000
           0.00000  25.53640   0.00000
           0.00000   0.00000  25.53640
Lengths:  25.53640  25.53640  25.53640
Angles:   90.00000  90.00000  90.00000
Rectangular boundary conditions

net charge:   0.00000000

component   0 (CO2) lambda:  0 occupancy:  0 (0.000000)
    net charge:   0.00000000 [e]

Amount of molecules per component :
-------------------------------------------------------------------------------
Component 0 (CO2)
    molecules:         2.450000e+02 molecules
    number density:    1.471252e-02 molec/A^3
    density:           1.074922e+03 kg/m^3

Total potential energy/kʙ       -3.866437e+05 [K]
-------------------------------------------------------------------------------
    external field VDW/kʙ        0.000000e+00 [K]
    external field Real/kʙ       0.000000e+00 [K]
    framework-molecule VDW/kʙ    0.000000e+00 [K]
    framework-molecule Real/kʙ   0.000000e+00 [K]
    molecule-molecule VDW/kʙ    -2.760068e+05 [K]
    molecule-molecule Real/kʙ   -8.849024e+04 [K]
    Van der Waals (Tail)/kʙ     -8.690216e+03 [K]
    Ewald Fourier/kʙ             8.781095e+03 [K]
    Ewald self/kʙ               -4.929081e+06 [K]
    Ewald exclusion/kʙ           4.906843e+06 [K]
    intra VDW/kʙ                 0.000000e+00 [K]
    intra Coulombic/kʙ           0.000000e+00 [K]
    polarization/kʙ              0.000000e+00 [K]
    dU/dlambda VDW/kʙ            0.000000e+00 [K]
    dU/dlambda Real/kʙ           0.000000e+00 [K]
    dU/dlambda Ewald/kʙ          0.000000e+00 [K]


Initialization: Current cycle: 800 out of 2000
===============================================================================

Box:      25.03986   0.00000   0.00000
           0.00000  25.03986   0.00000
           0.00000   0.00000  25.03986
Lengths:  25.03986  25.03986  25.03986
Angles:   90.00000  90.00000  90.00000
Rectangular boundary conditions

net charge:   0.00000000

component   0 (CO2) lambda:  0 occupancy:  0 (0.000000)
    net charge:   0.00000000 [e]

Amount of molecules per component :
-------------------------------------------------------------------------------
Component 0 (CO2)
    molecules:         2.410000e+02 molecules
    number density:    1.535046e-02 molec/A^3
    density:           1.121531e+03 kg/m^3

Total potential energy/kʙ       -3.866922e+05 [K]
-------------------------------------------------------------------------------
    external field VDW/kʙ        0.000000e+00 [K]
    external field Real/kʙ       0.000000e+00 [K]
    framework-molecule VDW/kʙ    0.000000e+00 [K]
    framework-molecule Real/kʙ   0.000000e+00 [K]
    molecule-molecule VDW/kʙ    -2.837827e+05 [K]
    molecule-molecule Real/kʙ   -8.087782e+04 [K]
    Van der Waals (Tail)/kʙ     -8.918992e+03 [K]
    Ewald Fourier/kʙ             8.761826e+03 [K]
    Ewald self/kʙ               -4.848606e+06 [K]
    Ewald exclusion/kʙ           4.826731e+06 [K]
    intra VDW/kʙ                 0.000000e+00 [K]
    intra Coulombic/kʙ           0.000000e+00 [K]
    polarization/kʙ              0.000000e+00 [K]
    dU/dlambda VDW/kʙ            0.000000e+00 [K]
    dU/dlambda Real/kʙ           0.000000e+00 [K]
    dU/dlambda Ewald/kʙ          0.000000e+00 [K]


Initialization: Current cycle: 900 out of 2000
===============================================================================

Box:      25.03988   0.00000   0.00000
           0.00000  25.03988   0.00000
           0.00000   0.00000  25.03988
Lengths:  25.03988  25.03988  25.03988
Angles:   90.00000  90.00000  90.00000
Rectangular boundary conditions

net charge:   0.00000000

component   0 (CO2) lambda:  0 occupancy:  0 (0.000000)
    net charge:   0.00000000 [e]

Amount of molecules per component :
-------------------------------------------------------------------------------
Component 0 (CO2)
    molecules:         2.390000e+02 molecules
    number density:    1.522304e-02 molec/A^3
    density:           1.112221e+03 kg/m^3

Total potential energy/kʙ       -3.871877e+05 [K]
-------------------------------------------------------------------------------
    external field VDW/kʙ        0.000000e+00 [K]
    external field Real/kʙ       0.000000e+00 [K]
    framework-molecule VDW/kʙ    0.000000e+00 [K]
    framework-molecule Real/kʙ   0.000000e+00 [K]
    molecule-molecule VDW/kʙ    -2.771506e+05 [K]
    molecule-molecule Real/kʙ   -8.881624e+04 [K]
    Van der Waals (Tail)/kʙ     -8.771552e+03 [K]
    Ewald Fourier/kʙ             9.243700e+03 [K]
    Ewald self/kʙ               -4.808368e+06 [K]
    Ewald exclusion/kʙ           4.786676e+06 [K]
    intra VDW/kʙ                 0.000000e+00 [K]
    intra Coulombic/kʙ           0.000000e+00 [K]
    polarization/kʙ              0.000000e+00 [K]
    dU/dlambda VDW/kʙ            0.000000e+00 [K]
    dU/dlambda Real/kʙ           0.000000e+00 [K]
    dU/dlambda Ewald/kʙ          0.000000e+00 [K]


Initialization: Current cycle: 1000 out of 2000
===============================================================================

Box:      24.81033   0.00000   0.00000
           0.00000  24.81033   0.00000
           0.00000   0.00000  24.81033
Lengths:  24.81033  24.81033  24.81033
Angles:   90.00000  90.00000  90.00000
Rectangular boundary conditions

net charge:   0.00000000

component   0 (CO2) lambda:  0 occupancy:  0 (0.000000)
    net charge:   0.00000000 [e]

Amount of molecules per component :
-------------------------------------------------------------------------------
Component 0 (CO2)
    molecules:         2.410000e+02 molecules
    number density:    1.578045e-02 molec/A^3
    density:           1.152947e+03 kg/m^3

Total potential energy/kʙ       -4.037605e+05 [K]
-------------------------------------------------------------------------------
    external field VDW/kʙ        0.000000e+00 [K]
    external field Real/kʙ       0.000000e+00 [K]
    framework-molecule VDW/kʙ    0.000000e+00 [K]
    framework-molecule Real/kʙ   0.000000e+00 [K]
    molecule-molecule VDW/kʙ    -2.909225e+05 [K]
    molecule-molecule Real/kʙ   -9.041657e+04 [K]
    Van der Waals (Tail)/kʙ     -9.168825e+03 [K]
    Ewald Fourier/kʙ             8.621956e+03 [K]
    Ewald self/kʙ               -4.848606e+06 [K]
    Ewald exclusion/kʙ           4.826731e+06 [K]
    intra VDW/kʙ                 0.000000e+00 [K]
    intra Coulombic/kʙ           0.000000e+00 [K]
    polarization/kʙ              0.000000e+00 [K]
    dU/dlambda VDW/kʙ            0.000000e+00 [K]
    dU/dlambda Real/kʙ           0.000000e+00 [K]
    dU/dlambda Ewald/kʙ          0.000000e+00 [K]


Initialization: Current cycle: 1100 out of 2000
===============================================================================

Box:      24.76037   0.00000   0.00000
           0.00000  24.76037   0.00000
           0.00000   0.00000  24.76037
Lengths:  24.76037  24.76037  24.76037
Angles:   90.00000  90.00000  90.00000
Rectangular boundary conditions

net charge:   0.00000000

component   0 (CO2) lambda:  0 occupancy:  0 (0.000000)
    net charge:   0.00000000 [e]

Amount of molecules per component :
-------------------------------------------------------------------------------
Component 0 (CO2)
    molecules:         2.310000e+02 molecules
    number density:    1.521740e-02 molec/A^3
    density:           1.111810e+03 kg/m^3

Total potential energy/kʙ       -3.805609e+05 [K]
-------------------------------------------------------------------------------
    external field VDW/kʙ        0.000000e+00 [K]
    external field Real/kʙ       0.000000e+00 [K]
    framework-molecule VDW/kʙ    0.000000e+00 [K]
    framework-molecule Real/kʙ   0.000000e+00 [K]
    molecule-molecule VDW/kʙ    -2.740899e+05 [K]
    molecule-molecule Real/kʙ   -8.528074e+04 [K]
    Van der Waals (Tail)/kʙ     -8.474808e+03 [K]
    Ewald Fourier/kʙ             8.251386e+03 [K]
    Ewald self/kʙ               -4.647419e+06 [K]
    Ewald exclusion/kʙ           4.626452e+06 [K]
    intra VDW/kʙ                 0.000000e+00 [K]
    intra Coulombic/kʙ           0.000000e+00 [K]
    polarization/kʙ              0.000000e+00 [K]
    dU/dlambda VDW/kʙ            0.000000e+00 [K]
    dU/dlambda Real/kʙ           0.000000e+00 [K]
    dU/dlambda Ewald/kʙ          0.000000e+00 [K]


Initialization: Current cycle: 1200 out of 2000
===============================================================================

Box:      24.80821   0.00000   0.00000
           0.00000  24.80821   0.00000
           0.00000   0.00000  24.80821
Lengths:  24.80821  24.80821  24.80821
Angles:   90.00000  90.00000  90.00000
Rectangular boundary conditions

net charge:   0.00000000

component   0 (CO2) lambda:  0 occupancy:  0 (0.000000)
    net charge:   0.00000000 [e]

Amount of molecules per component :
-------------------------------------------------------------------------------
Component 0 (CO2)
    molecules:         2.320000e+02 molecules
    number density:    1.519504e-02 molec/A^3
    density:           1.110176e+03 kg/m^3

Total potential energy/kʙ       -3.773888e+05 [K]
-------------------------------------------------------------------------------
    external field VDW/kʙ        0.000000e+00 [K]
    external field Real/kʙ       0.000000e+00 [K]
    framework-molecule VDW/kʙ    0.000000e+00 [K]
    framework-molecule Real/kʙ   0.000000e+00 [K]
    molecule-molecule VDW/kʙ    -2.657825e+05 [K]
    molecule-molecule Real/kʙ   -9.052843e+04 [K]
    Van der Waals (Tail)/kʙ     -8.498987e+03 [K]
    Ewald Fourier/kʙ             8.478723e+03 [K]
    Ewald self/kʙ               -4.667538e+06 [K]
    Ewald exclusion/kʙ           4.646480e+06 [K]
    intra VDW/kʙ                 0.000000e+00 [K]
    intra Coulombic/kʙ           0.000000e+00 [K]
    polarization/kʙ              0.000000e+00 [K]
    dU/dlambda VDW/kʙ            0.000000e+00 [K]
    dU/dlambda Real/kʙ           0.000000e+00 [K]
    dU/dlambda Ewald/kʙ          0.000000e+00 [K]


Initialization: Current cycle: 1300 out of 2000
===============================================================================

Box:      24.77474   0.00000   0.00000
           0.00000  24.77474   0.00000
           0.00000   0.00000  24.77474
Lengths:  24.77474  24.77474  24.77474
Angles:   90.00000  90.00000  90.00000
Rectangular boundary conditions

net charge:   0.00000000

component   0 (CO2) lambda:  0 occupancy:  0 (0.000000)
    net charge:   0.00000000 [e]

Amount of molecules per component :
-------------------------------------------------------------------------------
Component 0 (CO2)
    molecules:         2.390000e+02 molecules
    number density:    1.571703e-02 molec/A^3
    density:           1.148313e+03 kg/m^3

Total potential energy/kʙ       -4.069533e+05 [K]
-------------------------------------------------------------------------------
    external field VDW/kʙ        0.000000e+00 [K]
    external field Real/kʙ       0.000000e+00 [K]
    framework-molecule VDW/kʙ    0.000000e+00 [K]
    framework-molecule Real/kʙ   0.000000e+00 [K]
    molecule-molecule VDW/kʙ    -2.888727e+05 [K]
    molecule-molecule Real/kʙ   -9.612156e+04 [K]
    Van der Waals (Tail)/kʙ     -9.056193e+03 [K]
    Ewald Fourier/kʙ             8.790141e+03 [K]
    Ewald self/kʙ               -4.808368e+06 [K]
    Ewald exclusion/kʙ           4.786676e+06 [K]
    intra VDW/kʙ                 0.000000e+00 [K]
    intra Coulombic/kʙ           0.000000e+00 [K]
    polarization/kʙ              0.000000e+00 [K]
    dU/dlambda VDW/kʙ            0.000000e+00 [K]
    dU/dlambda Real/kʙ           0.000000e+00 [K]
    dU/dlambda Ewald/kʙ          0.000000e+00 [K]


Initialization: Current cycle: 1400 out of 2000
===============================================================================

Box:      24.62329   0.00000   0.00000
           0.00000  24.62329   0.00000
           0.00000   0.00000  24.62329
Lengths:  24.62329  24.62329  24.62329
Angles:   90.00000  90.00000  90.00000
Rectangular boundary conditions

net charge:   0.00000000

component   0 (CO2) lambda:  0 occupancy:  0 (0.000000)
    net charge:   0.00000000 [e]

Amount of molecules per component :
-------------------------------------------------------------------------------
Component 0 (CO2)
    molecules:         2.390000e+02 molecules
    number density:    1.600884e-02 molec/A^3
    density:           1.169633e+03 kg/m^3

Total potential energy/kʙ       -4.176471e+05 [K]
-------------------------------------------------------------------------------
    external field VDW/kʙ        0.000000e+00 [K]
    external field Real/kʙ       0.000000e+00 [K]
    framework-molecule VDW/kʙ    0.000000e+00 [K]
    framework-molecule Real/kʙ   0.000000e+00 [K]
    molecule-molecule VDW/kʙ    -2.955531e+05 [K]
    molecule-molecule Real/kʙ   -9.947657e+04 [K]
    Van der Waals (Tail)/kʙ     -9.224336e+03 [K]
    Ewald Fourier/kʙ             8.299805e+03 [K]
    Ewald self/kʙ               -4.808368e+06 [K]
    Ewald exclusion/kʙ           4.786676e+06 [K]
    intra VDW/kʙ                 0.000000e+00 [K]
    intra Coulombic/kʙ           0.000000e+00 [K]
    polarization/kʙ              0.000000e+00 [K]
    dU/dlambda VDW/kʙ            0.000000e+00 [K]
    dU/dlambda Real/kʙ           0.000000e+00 [K]
    dU/dlambda Ewald/kʙ          0.000000e+00 [K]


Initialization: Current cycle: 1500 out of 2000
===============================================================================

Box:      24.55955   0.00000   0.00000
           0.00000  24.55955   0.00000
           0.00000   0.00000  24.55955
Lengths:  24.55955  24.55955  24.55955
Angles:   90.00000  90.00000  90.00000
Rectangular boundary conditions

net charge:   0.00000000

component   0 (CO2) lambda:  0 occupancy:  0 (0.000000)
    net charge:   0.00000000 [e]

Amount of molecules per component :
-------------------------------------------------------------------------------
Component 0 (CO2)
    molecules:         2.360000e+02 molecules
    number density:    1.593128e-02 molec/A^3
    density:           1.163967e+03 kg/m^3

Total potential energy/kʙ       -4.080616e+05 [K]
-------------------------------------------------------------------------------
    external field VDW/kʙ        0.000000e+00 [K]
    external field Real/kʙ       0.000000e+00 [K]
    framework-molecule VDW/kʙ    0.000000e+00 [K]
    framework-molecule Real/kʙ   0.000000e+00 [K]
    molecule-molecule VDW/kʙ    -2.930839e+05 [K]
    molecule-molecule Real/kʙ   -9.221881e+04 [K]
    Van der Waals (Tail)/kʙ     -9.064421e+03 [K]
    Ewald Fourier/kʙ             7.726217e+03 [K]
    Ewald self/kʙ               -4.748012e+06 [K]
    Ewald exclusion/kʙ           4.726592e+06 [K]
    intra VDW/kʙ                 0.000000e+00 [K]
    intra Coulombic/kʙ           0.000000e+00 [K]
    polarization/kʙ              0.000000e+00 [K]
    dU/dlambda VDW/kʙ            0.000000e+00 [K]
    dU/dlambda Real/kʙ           0.000000e+00 [K]
    dU/dlambda Ewald/kʙ          0.000000e+00 [K]


Initialization: Current cycle: 1600 out of 2000
===============================================================================

Box:      24.63990   0.00000   0.00000
           0.00000  24.63990   0.00000
           0.00000   0.00000  24.63990
Lengths:  24.63990  24.63990  24.63990
Angles:   90.00000  90.00000  90.00000
Rectangular boundary conditions

net charge:   0.00000000

component   0 (CO2) lambda:  0 occupancy:  0 (0.000000)
    net charge:   0.00000000 [e]

Amount of molecules per component :
-------------------------------------------------------------------------------
Component 0 (CO2)
    molecules:         2.340000e+02 molecules
    number density:    1.564224e-02 molec/A^3
    density:           1.142849e+03 kg/m^3

Total potential energy/kʙ       -3.951802e+05 [K]
-------------------------------------------------------------------------------
    external field VDW/kʙ        0.000000e+00 [K]
    external field Real/kʙ       0.000000e+00 [K]
    framework-molecule VDW/kʙ    0.000000e+00 [K]
    framework-molecule Real/kʙ   0.000000e+00 [K]
    molecule-molecule VDW/kʙ    -2.805573e+05 [K]
    molecule-molecule Real/kʙ   -9.172391e+04 [K]
    Van der Waals (Tail)/kʙ     -8.824542e+03 [K]
    Ewald Fourier/kʙ             7.164661e+03 [K]
    Ewald self/kʙ               -4.707775e+06 [K]
    Ewald exclusion/kʙ           4.686536e+06 [K]
    intra VDW/kʙ                 0.000000e+00 [K]
    intra Coulombic/kʙ           0.000000e+00 [K]
    polarization/kʙ              0.000000e+00 [K]
    dU/dlambda VDW/kʙ            0.000000e+00 [K]
    dU/dlambda Real/kʙ           0.000000e+00 [K]
    dU/dlambda Ewald/kʙ          0.000000e+00 [K]


Initialization: Current cycle: 1700 out of 2000
===============================================================================

Box:      24.42019   0.00000   0.00000
           0.00000  24.42019   0.00000
           0.00000   0.00000  24.42019
Lengths:  24.42019  24.42019  24.42019
Angles:   90.00000  90.00000  90.00000
Rectangular boundary conditions

net charge:   0.00000000

component   0 (CO2) lambda:  0 occupancy:  0 (0.000000)
    net charge:   0.00000000 [e]

Amount of molecules per component :
-------------------------------------------------------------------------------
Component 0 (CO2)
    molecules:         2.310000e+02 molecules
    number density:    1.586225e-02 molec/A^3
    density:           1.158923e+03 kg/m^3

Total potential energy/kʙ       -3.944330e+05 [K]
-------------------------------------------------------------------------------
    external field VDW/kʙ        0.000000e+00 [K]
    external field Real/kʙ       0.000000e+00 [K]
    framework-molecule VDW/kʙ    0.000000e+00 [K]
    framework-molecule Real/kʙ   0.000000e+00 [K]
    molecule-molecule VDW/kʙ    -2.738794e+05 [K]
    molecule-molecule Real/kʙ   -9.833049e+04 [K]
    Van der Waals (Tail)/kʙ     -8.833933e+03 [K]
    Ewald Fourier/kʙ             7.577673e+03 [K]
    Ewald self/kʙ               -4.647419e+06 [K]
    Ewald exclusion/kʙ           4.626452e+06 [K]
    intra VDW/kʙ                 0.000000e+00 [K]
    intra Coulombic/kʙ           0.000000e+00 [K]
    polarization/kʙ              0.000000e+00 [K]
    dU/dlambda VDW/kʙ            0.000000e+00 [K]
    dU/dlambda Real/kʙ           0.000000e+00 [K]
    dU/dlambda Ewald/kʙ          0.000000e+00 [K]


Initialization: Current cycle: 1800 out of 2000
===============================================================================

Box:      24.51391   0.00000   0.00000
           0.00000  24.51391   0.00000
           0.00000   0.00000  24.51391
Lengths:  24.51391  24.51391  24.51391
Angles:   90.00000  90.00000  90.00000
Rectangular boundary conditions

net charge:   0.00000000

component   0 (CO2) lambda:  0 occupancy:  0 (0.000000)
    net charge:   0.00000000 [e]

Amount of molecules per component :
-------------------------------------------------------------------------------
Component 0 (CO2)
    molecules:         2.330000e+02 molecules
    number density:    1.581679e-02 molec/A^3
    density:           1.155601e+03 kg/m^3

Total potential energy/kʙ       -3.988764e+05 [K]
-------------------------------------------------------------------------------
    external field VDW/kʙ        0.000000e+00 [K]
    external field Real/kʙ       0.000000e+00 [K]
    framework-molecule VDW/kʙ    0.000000e+00 [K]
    framework-molecule Real/kʙ   0.000000e+00 [K]
    molecule-molecule VDW/kʙ    -2.818247e+05 [K]
    molecule-molecule Real/kʙ   -9.544799e+04 [K]
    Van der Waals (Tail)/kʙ     -8.884878e+03 [K]
    Ewald Fourier/kʙ             8.429569e+03 [K]
    Ewald self/kʙ               -4.687656e+06 [K]
    Ewald exclusion/kʙ           4.666508e+06 [K]
    intra VDW/kʙ                 0.000000e+00 [K]
    intra Coulombic/kʙ           0.000000e+00 [K]
    polarization/kʙ              0.000000e+00 [K]
    dU/dlambda VDW/kʙ            0.000000e+00 [K]
    dU/dlambda Real/kʙ           0.000000e+00 [K]
    dU/dlambda Ewald/kʙ          0.000000e+00 [K]


Initialization: Current cycle: 1900 out of 2000
===============================================================================

Box:      24.76654   0.00000   0.00000
           0.00000  24.76654   0.00000
           0.00000   0.00000  24.76654
Lengths:  24.76654  24.76654  24.76654
Angles:   90.00000  90.00000  90.00000
Rectangular boundary conditions

net charge:   0.00000000

component   0 (CO2) lambda:  0 occupancy:  0 (0.000000)
    net charge:   0.00000000 [e]

Amount of molecules per component :
-------------------------------------------------------------------------------
Component 0 (CO2)
    molecules:         2.320000e+02 molecules
    number density:    1.527186e-02 molec/A^3
    density:           1.115788e+03 kg/m^3

Total potential energy/kʙ       -3.767375e+05 [K]
-------------------------------------------------------------------------------
    external field VDW/kʙ        0.000000e+00 [K]
    external field Real/kʙ       0.000000e+00 [K]
    framework-molecule VDW/kʙ    0.000000e+00 [K]
    framework-molecule Real/kʙ   0.000000e+00 [K]
    molecule-molecule VDW/kʙ    -2.716713e+05 [K]
    molecule-molecule Real/kʙ   -8.420514e+04 [K]
    Van der Waals (Tail)/kʙ     -8.541955e+03 [K]
    Ewald Fourier/kʙ             8.738502e+03 [K]
    Ewald self/kʙ               -4.667538e+06 [K]
    Ewald exclusion/kʙ           4.646480e+06 [K]
    intra VDW/kʙ                 0.000000e+00 [K]
    intra Coulombic/kʙ           0.000000e+00 [K]
    polarization/kʙ              0.000000e+00 [K]
    dU/dlambda VDW/kʙ            0.000000e+00 [K]
    dU/dlambda Real/kʙ           0.000000e+00 [K]
    dU/dlambda Ewald/kʙ          0.000000e+00 [K]


Current cycle: 0 out of 6000
===============================================================================

Box:      24.67130   0.00000   0.00000  Average:  24.67130   0.00000   0.00000
           0.00000  24.67130   0.00000             0.00000  24.67130   0.00000
           0.00000   0.00000  24.67130             0.00000   0.00000  24.67130
Lengths:  24.67130  24.67130  24.67130  Average:  24.67130  24.67130  24.67130
Angles:   90.00000  90.00000  90.00000  Average:  90.00000  90.00000  90.00000
Rectangular boundary conditions

net charge:   0.00000000

component 0 (CO2) lambda:  0 occupancy:  0 (0.000000)
    net charge:   0.00000000 [e]

Amount of molecules per component :
-------------------------------------------------------------------------------
Component 0 (CO2)
    molecules:      2.270000e+02 molecules  (2.270000e+02 +/- 0.000000e+00)
    number density: 1.511645e-02 molec./A^3 (1.511645e-02 +/- 0.000000e+00)
    density:        1.104433e+03 kg/m^3     (1.104433e+03 +/- 0.000000e+00)

Average pressure tensor: 
-------------------------------------------------------------------------------
 4.8002e+02  0.0000e+00  0.0000e+00 +/- 0.0000e+00 0.0000e+00 0.0000e+00 [bar]
 0.0000e+00  4.8002e+02  0.0000e+00 +/- 0.0000e+00 0.0000e+00 0.0000e+00 [bar]
 0.0000e+00  0.0000e+00  4.8002e+02 +/- 0.0000e+00 0.0000e+00 0.0000e+00 [bar]
Ideal-gas pressure:   4.800221e+02 +/ 0.000000e+00 [bar]
Excess pressure:      0.000000e+00 +/ 0.000000e+00 [bar]
Pressure:             4.800221e+02 +/ 0.000000e+00 [bar]

Total potential energy/kʙ  -3.670758e+05 (-3.670758e+05 +/- 0.000000e+00) [K]
-------------------------------------------------------------------------------
ExternalField-molecule
    Van der Waals/kʙ        0.000000e+00 ( 0.000000e+00 +/- 0.000000e+00) [K]
Framework-molecule
    Van der Waals/kʙ        0.000000e+00 ( 0.000000e+00 +/- 0.000000e+00) [K]
    Van der Waals (Tail)/kʙ 0.000000e+00 ( 0.000000e+00 +/- 0.000000e+00) [K]
    Coulombic Real/kʙ       0.000000e+00 ( 0.000000e+00 +/- 0.000000e+00) [K]
    Coulombic Fourier/kʙ    0.000000e+00 ( 0.000000e+00 +/- 0.000000e+00) [K]
Molecule-molecule
    Van der Waals/kʙ       -2.626034e+05 (-2.626034e+05 +/- 0.000000e+00) [K]
    Van der Waals (Tail)/kʙ-8.272807e+03 (-8.272807e+03 +/- 0.000000e+00) [K]
    Coulombic Real/kʙ      -8.376393e+04 (-8.376393e+04 +/- 0.000000e+00) [K]
    Coulombic Fourier/kʙ   -1.243562e+04 (-1.243562e+04 +/- 0.000000e+00) [K]
    Molecule Intra/kʙ       0.000000e+00 ( 0.000000e+00 +/- 0.000000e+00) [K]

Current cycle: 100 out of 6000
===============================================================================

Box:      24.61144   0.00000   0.00000  Average:  24.56936   0.00000   0.00000
           0.00000  24.61144   0.00000             0.00000  24.56936   0.00000
           0.00000   0.00000  24.61144             0.00000   0.00000  24.56936
Lengths:  24.61144  24.61144  24.61144  Average:  24.56936  24.56936  24.56936
Angles:   90.00000  90.00000  90.00000  Average:  90.00000  90.00000  90.00000
Rectangular boundary conditions

net charge:   0.00000000

component 0 (CO2) lambda:  0 occupancy:  0 (0.000000)
    net charge:   0.00000000 [e]

Amount of molecules per component :
-------------------------------------------------------------------------------
Component 0 (CO2)
    molecules:      2.300000e+02 molecules  (2.295050e+02 +/- 0.000000e+00)
    number density: 1.542825e-02 molec./A^3 (1.547520e-02 +/- 0.000000e+00)
    density:        1.127214e+03 kg/m^3     (1.130645e+03 +/- 0.000000e+00)

Average pressure tensor: 
-------------------------------------------------------------------------------
-3.0228e+02  1.9712e+02 -1.4664e+02 +/- 0.0000e+00 0.0000e+00 0.0000e+00 [bar]
 1.9712e+02  2.0980e+02  1.6352e+02 +/- 0.0000e+00 0.0000e+00 0.0000e+00 [bar]
-1.4664e+02  1.6352e+02  6.3341e+00 +/- 0.0000e+00 0.0000e+00 0.0000e+00 [bar]
Ideal-gas pressure:   4.914145e+02 +/ 0.000000e+00 [bar]
Excess pressure:     -5.201306e+02 +/ 0.000000e+00 [bar]
Pressure:            -2.871618e+01 +/ 0.000000e+00 [bar]

Total potential energy/kʙ  -3.779504e+05 (-3.803725e+05 +/- 0.000000e+00) [K]
-------------------------------------------------------------------------------
ExternalField-molecule
    Van der Waals/kʙ        0.000000e+00 ( 0.000000e+00 +/- 0.000000e+00) [K]
Framework-molecule
    Van der Waals/kʙ        0.000000e+00 ( 0.000000e+00 +/- 0.000000e+00) [K]
    Van der Waals (Tail)/kʙ 0.000000e+00 ( 0.000000e+00 +/- 0.000000e+00) [K]
    Coulombic Real/kʙ       0.000000e+00 ( 0.000000e+00 +/- 0.000000e+00) [K]
    Coulombic Fourier/kʙ    0.000000e+00 ( 0.000000e+00 +/- 0.000000e+00) [K]
Molecule-molecule
    Van der Waals/kʙ       -2.744628e+05 (-2.739805e+05 +/- 0.000000e+00) [K]
    Van der Waals (Tail)/kʙ-8.555035e+03 (-8.556052e+03 +/- 0.000000e+00) [K]
    Coulombic Real/kʙ      -8.198834e+04 (-8.501006e+04 +/- 0.000000e+00) [K]
    Coulombic Fourier/kʙ   -1.294420e+04 (-1.282582e+04 +/- 0.000000e+00) [K]
    Molecule Intra/kʙ       0.000000e+00 ( 0.000000e+00 +/- 0.000000e+00) [K]

Current cycle: 200 out of 6000
===============================================================================

Box:      24.55079   0.00000   0.00000  Average:  24.52786   0.00000   0.00000
           0.00000  24.55079   0.00000             0.00000  24.52786   0.00000
           0.00000   0.00000  24.55079             0.00000   0.00000  24.52786
Lengths:  24.55079  24.55079  24.55079  Average:  24.52786  24.52786  24.52786
Angles:   90.00000  90.00000  90.00000  Average:  90.00000  90.00000  90.00000
Rectangular boundary conditions

net charge:   0.00000000

component 0 (CO2) lambda:  0 occupancy:  0 (0.000000)
    net charge:   0.00000000 [e]

Amount of molecules per component :
-------------------------------------------------------------------------------
Component 0 (CO2)
    molecules:      2.280000e+02 molecules  (2.287363e+02 +/- 0.000000e+00)
    number density: 1.540772e-02 molec./A^3 (1.550176e-02 +/- 0.000000e+00)
    density:        1.125715e+03 kg/m^3     (1.132585e+03 +/- 0.000000e+00)

Average pressure tensor: 
-------------------------------------------------------------------------------
-1.9975e+02  1.1907e+02 -2.0057e+02 +/- 0.0000e+00 0.0000e+00 0.0000e+00 [bar]
 1.1907e+02  1.8604e+02  7.0437e+01 +/- 0.0000e+00 0.0000e+00 0.0000e+00 [bar]
-2.0057e+02  7.0437e+01  4.2392e+01 +/- 0.0000e+00 0.0000e+00 0.0000e+00 [bar]
Ideal-gas pressure:   4.922578e+02 +/ 0.000000e+00 [bar]
Excess pressure:     -4.826991e+02 +/ 0.000000e+00 [bar]
Pressure:             9.558749e+00 +/ 0.000000e+00 [bar]

Total potential energy/kʙ  -3.837181e+05 (-3.817439e+05 +/- 0.000000e+00) [K]
-------------------------------------------------------------------------------
ExternalField-molecule
    Van der Waals/kʙ        0.000000e+00 ( 0.000000e+00 +/- 0.000000e+00) [K]
Framework-molecule
    Van der Waals/kʙ        0.000000e+00 ( 0.000000e+00 +/- 0.000000e+00) [K]
    Van der Waals (Tail)/kʙ 0.000000e+00 ( 0.000000e+00 +/- 0.000000e+00) [K]
    Coulombic Real/kʙ       0.000000e+00 ( 0.000000e+00 +/- 0.000000e+00) [K]
    Coulombic Fourier/kʙ    0.000000e+00 ( 0.000000e+00 +/- 0.000000e+00) [K]
Molecule-molecule
    Van der Waals/kʙ       -2.728381e+05 (-2.730709e+05 +/- 0.000000e+00) [K]
    Van der Waals (Tail)/kʙ-8.469361e+03 (-8.552316e+03 +/- 0.000000e+00) [K]
    Coulombic Real/kʙ      -8.945339e+04 (-8.727605e+04 +/- 0.000000e+00) [K]
    Coulombic Fourier/kʙ   -1.295730e+04 (-1.284468e+04 +/- 0.000000e+00) [K]
    Molecule Intra/kʙ       0.000000e+00 ( 0.000000e+00 +/- 0.000000e+00) [K]

Current cycle: 300 out of 6000
===============================================================================

Box:      24.63706   0.00000   0.00000  Average:  24.53991   0.00000   0.00000
           0.00000  24.63706   0.00000             0.00000  24.53991   0.00000
           0.00000   0.00000  24.63706             0.00000   0.00000  24.53991
Lengths:  24.63706  24.63706  24.63706  Average:  24.53991  24.53991  24.53991
Angles:   90.00000  90.00000  90.00000  Average:  90.00000  90.00000  90.00000
Rectangular boundary conditions

net charge:   0.00000000

component 0 (CO2) lambda:  0 occupancy:  0 (0.000000)
    net charge:   0.00000000 [e]

Amount of molecules per component :
-------------------------------------------------------------------------------
Component 0 (CO2)
    molecules:      2.340000e+02 molecules  (2.298272e+02 +/- 0.000000e+00)
    number density: 1.564766e-02 molec./A^3 (1.555237e-02 +/- 0.000000e+00)
    density:        1.143245e+03 kg/m^3     (1.136283e+03 +/- 0.000000e+00)

Average pressure tensor: 
-------------------------------------------------------------------------------
-7.3002e+01  1.3429e+02 -1.4796e+02 +/- 0.0000e+00 0.0000e+00 0.0000e+00 [bar]
 1.3429e+02  1.7729e+02  1.0348e+02 +/- 0.0000e+00 0.0000e+00 0.0000e+00 [bar]
-1.4796e+02  1.0348e+02 -8.6471e+00 +/- 0.0000e+00 0.0000e+00 0.0000e+00 [bar]
Ideal-gas pressure:   4.938649e+02 +/ 0.000000e+00 [bar]
Excess pressure:     -4.619857e+02 +/ 0.000000e+00 [bar]
Pressure:             3.187918e+01 +/ 0.000000e+00 [bar]

Total potential energy/kʙ  -4.007926e+05 (-3.858202e+05 +/- 0.000000e+00) [K]
-------------------------------------------------------------------------------
ExternalField-molecule
    Van der Waals/kʙ        0.000000e+00 ( 0.000000e+00 +/- 0.000000e+00) [K]
Framework-molecule
    Van der Waals/kʙ        0.000000e+00 ( 0.000000e+00 +/- 0.000000e+00) [K]
    Van der Waals (Tail)/kʙ 0.000000e+00 ( 0.000000e+00 +/- 0.000000e+00) [K]
    Coulombic Real/kʙ       0.000000e+00 ( 0.000000e+00 +/- 0.000000e+00) [K]
    Coulombic Fourier/kʙ    0.000000e+00 ( 0.000000e+00 +/- 0.000000e+00) [K]
Molecule-molecule
    Van der Waals/kʙ       -2.834366e+05 (-2.747928e+05 +/- 0.000000e+00) [K]
    Van der Waals (Tail)/kʙ-8.827599e+03 (-8.626825e+03 +/- 0.000000e+00) [K]
    Coulombic Real/kʙ      -9.521500e+04 (-8.938964e+04 +/- 0.000000e+00) [K]
    Coulombic Fourier/kʙ   -1.331347e+04 (-1.301087e+04 +/- 0.000000e+00) [K]
    Molecule Intra/kʙ       0.000000e+00 ( 0.000000e+00 +/- 0.000000e+00) [K]

Current cycle: 400 out of 6000
===============================================================================

Box:      24.35728   0.00000   0.00000  Average:  24.52171   0.00000   0.00000
           0.00000  24.35728   0.00000             0.00000  24.52171   0.00000
           0.00000   0.00000  24.35728             0.00000   0.00000  24.52171
Lengths:  24.35728  24.35728  24.35728  Average:  24.52171  24.52171  24.52171
Angles:   90.00000  90.00000  90.00000  Average:  90.00000  90.00000  90.00000
Rectangular boundary conditions

net charge:   0.00000000

component 0 (CO2) lambda:  0 occupancy:  0 (0.000000)
    net charge:   0.00000000 [e]

Amount of molecules per component :
-------------------------------------------------------------------------------
Component 0 (CO2)
    molecules:      2.320000e+02 molecules  (2.299925e+02 +/- 0.000000e+00)
    number density: 1.605467e-02 molec./A^3 (1.559848e-02 +/- 0.000000e+00)
    density:        1.172982e+03 kg/m^3     (1.139652e+03 +/- 0.000000e+00)

Average pressure tensor: 
-------------------------------------------------------------------------------
-1.2430e+02  6.0580e+01 -9.6632e+01 +/- 0.0000e+00 0.0000e+00 0.0000e+00 [bar]
 6.0580e+01  1.5870e+02  1.3475e+02 +/- 0.0000e+00 0.0000e+00 0.0000e+00 [bar]
-9.6632e+01  1.3475e+02 -6.4640e+01 +/- 0.0000e+00 0.0000e+00 0.0000e+00 [bar]
Ideal-gas pressure:   4.953290e+02 +/ 0.000000e+00 [bar]
Excess pressure:     -5.054109e+02 +/ 0.000000e+00 [bar]
Pressure:            -1.008186e+01 +/ 0.000000e+00 [bar]

Total potential energy/kʙ  -4.030988e+05 (-3.883388e+05 +/- 0.000000e+00) [K]
-------------------------------------------------------------------------------
ExternalField-molecule
    Van der Waals/kʙ        0.000000e+00 ( 0.000000e+00 +/- 0.000000e+00) [K]
Framework-molecule
    Van der Waals/kʙ        0.000000e+00 ( 0.000000e+00 +/- 0.000000e+00) [K]
    Van der Waals (Tail)/kʙ 0.000000e+00 ( 0.000000e+00 +/- 0.000000e+00) [K]
    Coulombic Real/kʙ       0.000000e+00 ( 0.000000e+00 +/- 0.000000e+00) [K]
    Coulombic Fourier/kʙ    0.000000e+00 ( 0.000000e+00 +/- 0.000000e+00) [K]
Molecule-molecule
    Van der Waals/kʙ       -2.897012e+05 (-2.763850e+05 +/- 0.000000e+00) [K]
    Van der Waals (Tail)/kʙ-8.979800e+03 (-8.659061e+03 +/- 0.000000e+00) [K]
    Coulombic Real/kʙ      -9.089703e+04 (-9.017493e+04 +/- 0.000000e+00) [K]
    Coulombic Fourier/kʙ   -1.352072e+04 (-1.311976e+04 +/- 0.000000e+00) [K]
    Molecule Intra/kʙ       0.000000e+00 ( 0.000000e+00 +/- 0.000000e+00) [K]

Current cycle: 500 out of 6000
===============================================================================

Box:      24.82986   0.00000   0.00000  Average:  24.50505   0.00000   0.00000
           0.00000  24.82986   0.00000             0.00000  24.50505   0.00000
           0.00000   0.00000  24.82986             0.00000   0.00000  24.50505
Lengths:  24.82986  24.82986  24.82986  Average:  24.50505  24.50505  24.50505
Angles:   90.00000  90.00000  90.00000  Average:  90.00000  90.00000  90.00000
Rectangular boundary conditions

net charge:   0.00000000

component 0 (CO2) lambda:  0 occupancy:  0 (0.000000)
    net charge:   0.00000000 [e]

Amount of molecules per component :
-------------------------------------------------------------------------------
Component 0 (CO2)
    molecules:      2.380000e+02 molecules  (2.305689e+02 +/- 0.000000e+00)
    number density: 1.554728e-02 molec./A^3 (1.567008e-02 +/- 0.000000e+00)
    density:        1.135911e+03 kg/m^3     (1.144883e+03 +/- 0.000000e+00)

Average pressure tensor: 
-------------------------------------------------------------------------------
-1.5912e+02  8.5954e+01 -4.7894e+01 +/- 0.0000e+00 0.0000e+00 0.0000e+00 [bar]
 8.5954e+01  1.4819e+02  9.3746e+01 +/- 0.0000e+00 0.0000e+00 0.0000e+00 [bar]
-4.7894e+01  9.3746e+01 -9.6106e+01 +/- 0.0000e+00 0.0000e+00 0.0000e+00 [bar]
Ideal-gas pressure:   4.976026e+02 +/ 0.000000e+00 [bar]
Excess pressure:     -5.332821e+02 +/ 0.000000e+00 [bar]
Pressure:            -3.567947e+01 +/ 0.000000e+00 [bar]

Total potential energy/kʙ  -4.063137e+05 (-3.908405e+05 +/- 0.000000e+00) [K]
-------------------------------------------------------------------------------
ExternalField-molecule
    Van der Waals/kʙ        0.000000e+00 ( 0.000000e+00 +/- 0.000000e+00) [K]
Framework-molecule
    Van der Waals/kʙ        0.000000e+00 ( 0.000000e+00 +/- 0.000000e+00) [K]
    Van der Waals (Tail)/kʙ 0.000000e+00 ( 0.000000e+00 +/- 0.000000e+00) [K]
    Coulombic Real/kʙ       0.000000e+00 ( 0.000000e+00 +/- 0.000000e+00) [K]
    Coulombic Fourier/kʙ    0.000000e+00 ( 0.000000e+00 +/- 0.000000e+00) [K]
Molecule-molecule
    Van der Waals/kʙ       -2.934318e+05 (-2.786042e+05 +/- 0.000000e+00) [K]
    Van der Waals (Tail)/kʙ-8.920899e+03 (-8.704438e+03 +/- 0.000000e+00) [K]
    Coulombic Real/kʙ      -8.988704e+04 (-9.034997e+04 +/- 0.000000e+00) [K]
    Coulombic Fourier/kʙ   -1.407390e+04 (-1.318193e+04 +/- 0.000000e+00) [K]
    Molecule Intra/kʙ       0.000000e+00 ( 0.000000e+00 +/- 0.000000e+00) [K]

Current cycle: 600 out of 6000
===============================================================================

Box:      24.62896   0.00000   0.00000  Average:  24.51297   0.00000   0.00000
           0.00000  24.62896   0.00000             0.00000  24.51297   0.00000
           0.00000   0.00000  24.62896             0.00000   0.00000  24.51297
Lengths:  24.62896  24.62896  24.62896  Average:  24.51297  24.51297  24.51297
Angles:   90.00000  90.00000  90.00000  Average:  90.00000  90.00000  90.00000
Rectangular boundary conditions

net charge:   0.00000000

component 0 (CO2) lambda:  0 occupancy:  0 (0.000000)
    net charge:   0.00000000 [e]

Amount of molecules per component :
-------------------------------------------------------------------------------
Component 0 (CO2)
    molecules:      2.340000e+02 molecules  (2.313594e+02 +/- 0.000000e+00)
    number density: 1.566310e-02 molec./A^3 (1.570825e-02 +/- 0.000000e+00)
    density:        1.144373e+03 kg/m^3     (1.147672e+03 +/- 0.000000e+00)

Average pressure tensor: 
-------------------------------------------------------------------------------
-1.2551e+02  1.1699e+02  2.0971e+00 +/- 0.0000e+00 0.0000e+00 0.0000e+00 [bar]
 1.1699e+02  1.4184e+02  8.5429e+01 +/- 0.0000e+00 0.0000e+00 0.0000e+00 [bar]
 2.0971e+00  8.5429e+01 -6.6102e+01 +/- 0.0000e+00 0.0000e+00 0.0000e+00 [bar]
Ideal-gas pressure:   4.988148e+02 +/ 0.000000e+00 [bar]
Excess pressure:     -5.154080e+02 +/ 0.000000e+00 [bar]
Pressure:            -1.659318e+01 +/ 0.000000e+00 [bar]

Total potential energy/kʙ  -3.995883e+05 (-3.930981e+05 +/- 0.000000e+00) [K]
-------------------------------------------------------------------------------
ExternalField-molecule
    Van der Waals/kʙ        0.000000e+00 ( 0.000000e+00 +/- 0.000000e+00) [K]
Framework-molecule
    Van der Waals/kʙ        0.000000e+00 ( 0.000000e+00 +/- 0.000000e+00) [K]
    Van der Waals (Tail)/kʙ 0.000000e+00 ( 0.000000e+00 +/- 0.000000e+00) [K]
    Coulombic Real/kʙ       0.000000e+00 ( 0.000000e+00 +/- 0.000000e+00) [K]
    Coulombic Fourier/kʙ    0.000000e+00 ( 0.000000e+00 +/- 0.000000e+00) [K]
Molecule-molecule
    Van der Waals/kʙ       -2.857542e+05 (-2.798979e+05 +/- 0.000000e+00) [K]
    Van der Waals (Tail)/kʙ-8.836307e+03 (-8.754833e+03 +/- 0.000000e+00) [K]
    Coulombic Real/kʙ      -9.135385e+04 (-9.115166e+04 +/- 0.000000e+00) [K]
    Coulombic Fourier/kʙ   -1.364401e+04 (-1.329370e+04 +/- 0.000000e+00) [K]
    Molecule Intra/kʙ       0.000000e+00 ( 0.000000e+00 +/- 0.000000e+00) [K]

Current cycle: 700 out of 6000
===============================================================================

Box:      24.54997   0.00000   0.00000  Average:  24.52404   0.00000   0.00000
           0.00000  24.54997   0.00000             0.00000  24.52404   0.00000
           0.00000   0.00000  24.54997             0.00000   0.00000  24.52404
Lengths:  24.54997  24.54997  24.54997  Average:  24.52404  24.52404  24.52404
Angles:   90.00000  90.00000  90.00000  Average:  90.00000  90.00000  90.00000
Rectangular boundary conditions

net charge:   0.00000000

component 0 (CO2) lambda:  0 occupancy:  0 (0.000000)
    net charge:   0.00000000 [e]

Amount of molecules per component :
-------------------------------------------------------------------------------
Component 0 (CO2)
    molecules:      2.370000e+02 molecules  (2.317033e+02 +/- 0.000000e+00)
    number density: 1.601752e-02 molec./A^3 (1.571019e-02 +/- 0.000000e+00)
    density:        1.170267e+03 kg/m^3     (1.147814e+03 +/- 0.000000e+00)

Average pressure tensor: 
-------------------------------------------------------------------------------
-1.3381e+02  9.3340e+01  1.3498e+01 +/- 0.0000e+00 0.0000e+00 0.0000e+00 [bar]
 9.3340e+01  7.2738e+01  7.6030e+01 +/- 0.0000e+00 0.0000e+00 0.0000e+00 [bar]
 1.3498e+01  7.6030e+01 -3.4065e+01 +/- 0.0000e+00 0.0000e+00 0.0000e+00 [bar]
Ideal-gas pressure:   4.988765e+02 +/ 0.000000e+00 [bar]
Excess pressure:     -5.305870e+02 +/ 0.000000e+00 [bar]
Pressure:            -3.171052e+01 +/ 0.000000e+00 [bar]

Total potential energy/kʙ  -4.097775e+05 (-3.935706e+05 +/- 0.000000e+00) [K]
-------------------------------------------------------------------------------
ExternalField-molecule
    Van der Waals/kʙ        0.000000e+00 ( 0.000000e+00 +/- 0.000000e+00) [K]
Framework-molecule
    Van der Waals/kʙ        0.000000e+00 ( 0.000000e+00 +/- 0.000000e+00) [K]
    Van der Waals (Tail)/kʙ 0.000000e+00 ( 0.000000e+00 +/- 0.000000e+00) [K]
    Coulombic Real/kʙ       0.000000e+00 ( 0.000000e+00 +/- 0.000000e+00) [K]
    Coulombic Fourier/kʙ    0.000000e+00 ( 0.000000e+00 +/- 0.000000e+00) [K]
Molecule-molecule
    Van der Waals/kʙ       -2.925547e+05 (-2.805202e+05 +/- 0.000000e+00) [K]
    Van der Waals (Tail)/kʙ-9.152104e+03 (-8.771311e+03 +/- 0.000000e+00) [K]
    Coulombic Real/kʙ      -9.439438e+04 (-9.097521e+04 +/- 0.000000e+00) [K]
    Coulombic Fourier/kʙ   -1.367637e+04 (-1.330392e+04 +/- 0.000000e+00) [K]
    Molecule Intra/kʙ       0.000000e+00 ( 0.000000e+00 +/- 0.000000e+00) [K]

Current cycle: 800 out of 6000
===============================================================================

Box:      24.59151   0.00000   0.00000  Average:  24.53606   0.00000   0.00000
           0.00000  24.59151   0.00000             0.00000  24.53606   0.00000
           0.00000   0.00000  24.59151             0.00000   0.00000  24.53606
Lengths:  24.59151  24.59151  24.59151  Average:  24.53606  24.53606  24.53606
Angles:   90.00000  90.00000  90.00000  Average:  90.00000  90.00000  90.00000
Rectangular boundary conditions

net charge:   0.00000000

component 0 (CO2) lambda:  0 occupancy:  0 (0.000000)
    net charge:   0.00000000 [e]

Amount of molecules per component :
-------------------------------------------------------------------------------
Component 0 (CO2)
    molecules:      2.310000e+02 molecules  (2.320175e+02 +/- 0.000000e+00)
    number density: 1.553305e-02 molec./A^3 (1.570838e-02 +/- 0.000000e+00)
    density:        1.134871e+03 kg/m^3     (1.147681e+03 +/- 0.000000e+00)

Average pressure tensor: 
-------------------------------------------------------------------------------
-1.0213e+02  7.2223e+01  4.8300e+00 +/- 0.0000e+00 0.0000e+00 0.0000e+00 [bar]
 7.2223e+01  4.5109e+01  5.9088e+01 +/- 0.0000e+00 0.0000e+00 0.0000e+00 [bar]
 4.8300e+00  5.9088e+01 -5.0867e+00 +/- 0.0000e+00 0.0000e+00 0.0000e+00 [bar]
Ideal-gas pressure:   4.988191e+02 +/ 0.000000e+00 [bar]
Excess pressure:     -5.195216e+02 +/ 0.000000e+00 [bar]
Pressure:            -2.070249e+01 +/ 0.000000e+00 [bar]

Total potential energy/kʙ  -3.885792e+05 (-3.936842e+05 +/- 0.000000e+00) [K]
-------------------------------------------------------------------------------
ExternalField-molecule
    Van der Waals/kʙ        0.000000e+00 ( 0.000000e+00 +/- 0.000000e+00) [K]
Framework-molecule
    Van der Waals/kʙ        0.000000e+00 ( 0.000000e+00 +/- 0.000000e+00) [K]
    Van der Waals (Tail)/kʙ 0.000000e+00 ( 0.000000e+00 +/- 0.000000e+00) [K]
    Coulombic Real/kʙ       0.000000e+00 ( 0.000000e+00 +/- 0.000000e+00) [K]
    Coulombic Fourier/kʙ    0.000000e+00 ( 0.000000e+00 +/- 0.000000e+00) [K]
Molecule-molecule
    Van der Waals/kʙ       -2.728699e+05 (-2.804475e+05 +/- 0.000000e+00) [K]
    Van der Waals (Tail)/kʙ-8.650593e+03 (-8.775383e+03 +/- 0.000000e+00) [K]
    Coulombic Real/kʙ      -9.389880e+04 (-9.121082e+04 +/- 0.000000e+00) [K]
    Coulombic Fourier/kʙ   -1.315990e+04 (-1.325051e+04 +/- 0.000000e+00) [K]
    Molecule Intra/kʙ       0.000000e+00 ( 0.000000e+00 +/- 0.000000e+00) [K]

Current cycle: 900 out of 6000
===============================================================================

Box:      24.60634   0.00000   0.00000  Average:  24.54955   0.00000   0.00000
           0.00000  24.60634   0.00000             0.00000  24.54955   0.00000
           0.00000   0.00000  24.60634             0.00000   0.00000  24.54955
Lengths:  24.60634  24.60634  24.60634  Average:  24.54955  24.54955  24.54955
Angles:   90.00000  90.00000  90.00000  Average:  90.00000  90.00000  90.00000
Rectangular boundary conditions

net charge:   0.00000000

component 0 (CO2) lambda:  0 occupancy:  0 (0.000000)
    net charge:   0.00000000 [e]

Amount of molecules per component :
-------------------------------------------------------------------------------
Component 0 (CO2)
    molecules:      2.350000e+02 molecules  (2.325283e+02 +/- 0.000000e+00)
    number density: 1.577346e-02 molec./A^3 (1.571675e-02 +/- 0.000000e+00)
    density:        1.152436e+03 kg/m^3     (1.148292e+03 +/- 0.000000e+00)

Average pressure tensor: 
-------------------------------------------------------------------------------
-3.4936e+01  5.3613e+01  2.3651e+01 +/- 0.0000e+00 0.0000e+00 0.0000e+00 [bar]
 5.3613e+01  3.3598e+01  4.0400e+01 +/- 0.0000e+00 0.0000e+00 0.0000e+00 [bar]
 2.3651e+01  4.0400e+01 -1.9634e+01 +/- 0.0000e+00 0.0000e+00 0.0000e+00 [bar]
Ideal-gas pressure:   4.990846e+02 +/ 0.000000e+00 [bar]
Excess pressure:     -5.060753e+02 +/ 0.000000e+00 [bar]
Pressure:            -6.990699e+00 +/ 0.000000e+00 [bar]

Total potential energy/kʙ  -4.090767e+05 (-3.953175e+05 +/- 0.000000e+00) [K]
-------------------------------------------------------------------------------
ExternalField-molecule
    Van der Waals/kʙ        0.000000e+00 ( 0.000000e+00 +/- 0.000000e+00) [K]
Framework-molecule
    Van der Waals/kʙ        0.000000e+00 ( 0.000000e+00 +/- 0.000000e+00) [K]
    Van der Waals (Tail)/kʙ 0.000000e+00 ( 0.000000e+00 +/- 0.000000e+00) [K]
    Coulombic Real/kʙ       0.000000e+00 ( 0.000000e+00 +/- 0.000000e+00) [K]
    Coulombic Fourier/kʙ    0.000000e+00 ( 0.000000e+00 +/- 0.000000e+00) [K]
Molecule-molecule
    Van der Waals/kʙ       -2.875084e+05 (-2.813738e+05 +/- 0.000000e+00) [K]
    Van der Waals (Tail)/kʙ-8.936596e+03 (-8.809740e+03 +/- 0.000000e+00) [K]
    Coulombic Real/kʙ      -9.843044e+04 (-9.181505e+04 +/- 0.000000e+00) [K]
    Coulombic Fourier/kʙ   -1.420129e+04 (-1.331882e+04 +/- 0.000000e+00) [K]
    Molecule Intra/kʙ       0.000000e+00 ( 0.000000e+00 +/- 0.000000e+00) [K]

Current cycle: 1000 out of 6000
===============================================================================

Box:      24.80827   0.00000   0.00000  Average:  24.55643   0.00000   0.00000
           0.00000  24.80827   0.00000             0.00000  24.55643   0.00000
           0.00000   0.00000  24.80827             0.00000   0.00000  24.55643
Lengths:  24.80827  24.80827  24.80827  Average:  24.55643  24.55643  24.55643
Angles:   90.00000  90.00000  90.00000  Average:  90.00000  90.00000  90.00000
Rectangular boundary conditions

net charge:   0.00000000

component 0 (CO2) lambda:  0 occupancy:  0 (0.000000)
    net charge:   0.00000000 [e]

Amount of molecules per component :
-------------------------------------------------------------------------------
Component 0 (CO2)
    molecules:      2.370000e+02 molecules  (2.329191e+02 +/- 0.000000e+00)
    number density: 1.552241e-02 molec./A^3 (1.572983e-02 +/- 0.000000e+00)
    density:        1.134094e+03 kg/m^3     (1.149248e+03 +/- 0.000000e+00)

Average pressure tensor: 
-------------------------------------------------------------------------------
-3.0376e+01  3.4507e+01  4.1349e+01 +/- 0.0000e+00 0.0000e+00 0.0000e+00 [bar]
 3.4507e+01  2.5749e+01  2.6171e+01 +/- 0.0000e+00 0.0000e+00 0.0000e+00 [bar]
 4.1349e+01  2.6171e+01 -3.5464e+01 +/- 0.0000e+00 0.0000e+00 0.0000e+00 [bar]
Ideal-gas pressure:   4.994999e+02 +/ 0.000000e+00 [bar]
Excess pressure:     -5.128636e+02 +/ 0.000000e+00 [bar]
Pressure:            -1.336369e+01 +/ 0.000000e+00 [bar]

Total potential energy/kʙ  -4.002837e+05 (-3.967039e+05 +/- 0.000000e+00) [K]
-------------------------------------------------------------------------------
ExternalField-molecule
    Van der Waals/kʙ        0.000000e+00 ( 0.000000e+00 +/- 0.000000e+00) [K]
Framework-molecule
    Van der Waals/kʙ        0.000000e+00 ( 0.000000e+00 +/- 0.000000e+00) [K]
    Van der Waals (Tail)/kʙ 0.000000e+00 ( 0.000000e+00 +/- 0.000000e+00) [K]
    Coulombic Real/kʙ       0.000000e+00 ( 0.000000e+00 +/- 0.000000e+00) [K]
    Coulombic Fourier/kʙ    0.000000e+00 ( 0.000000e+00 +/- 0.000000e+00) [K]
Molecule-molecule
    Van der Waals/kʙ       -2.857293e+05 (-2.821824e+05 +/- 0.000000e+00) [K]
    Van der Waals (Tail)/kʙ-8.869205e+03 (-8.832960e+03 +/- 0.000000e+00) [K]
    Coulombic Real/kʙ      -9.292743e+04 (-9.235648e+04 +/- 0.000000e+00) [K]
    Coulombic Fourier/kʙ   -1.275777e+04 (-1.333203e+04 +/- 0.000000e+00) [K]
    Molecule Intra/kʙ       0.000000e+00 ( 0.000000e+00 +/- 0.000000e+00) [K]

Current cycle: 1100 out of 6000
===============================================================================

Box:      24.82734   0.00000   0.00000  Average:  24.58240   0.00000   0.00000
           0.00000  24.82734   0.00000             0.00000  24.58240   0.00000
           0.00000   0.00000  24.82734             0.00000   0.00000  24.58240
Lengths:  24.82734  24.82734  24.82734  Average:  24.58240  24.58240  24.58240
Angles:   90.00000  90.00000  90.00000  Average:  90.00000  90.00000  90.00000
Rectangular boundary conditions

net charge:   0.00000000

component 0 (CO2) lambda:  0 occupancy:  0 (0.000000)
    net charge:   0.00000000 [e]

Amount of molecules per component :
-------------------------------------------------------------------------------
Component 0 (CO2)
    molecules:      2.410000e+02 molecules  (2.336176e+02 +/- 0.000000e+00)
    number density: 1.574803e-02 molec./A^3 (1.572658e-02 +/- 0.000000e+00)
    density:        1.150578e+03 kg/m^3     (1.149011e+03 +/- 0.000000e+00)

Average pressure tensor: 
-------------------------------------------------------------------------------
 3.5670e+00  4.4769e+01  3.6723e+01 +/- 0.0000e+00 0.0000e+00 0.0000e+00 [bar]
 4.4769e+01  4.7613e+00  1.6670e+01 +/- 0.0000e+00 0.0000e+00 0.0000e+00 [bar]
 3.6723e+01  1.6670e+01 -5.2403e+01 +/- 0.0000e+00 0.0000e+00 0.0000e+00 [bar]
Ideal-gas pressure:   4.993969e+02 +/ 0.000000e+00 [bar]
Excess pressure:     -5.140884e+02 +/ 0.000000e+00 [bar]
Pressure:            -1.469146e+01 +/ 0.000000e+00 [bar]

Total potential energy/kʙ  -4.124616e+05 (-3.981090e+05 +/- 0.000000e+00) [K]
-------------------------------------------------------------------------------
ExternalField-molecule
    Van der Waals/kʙ        0.000000e+00 ( 0.000000e+00 +/- 0.000000e+00) [K]
Framework-molecule
    Van der Waals/kʙ        0.000000e+00 ( 0.000000e+00 +/- 0.000000e+00) [K]
    Van der Waals (Tail)/kʙ 0.000000e+00 ( 0.000000e+00 +/- 0.000000e+00) [K]
    Coulombic Real/kʙ       0.000000e+00 ( 0.000000e+00 +/- 0.000000e+00) [K]
    Coulombic Fourier/kʙ    0.000000e+00 ( 0.000000e+00 +/- 0.000000e+00) [K]
Molecule-molecule
    Van der Waals/kʙ       -2.913404e+05 (-2.831380e+05 +/- 0.000000e+00) [K]
    Van der Waals (Tail)/kʙ-9.149989e+03 (-8.862531e+03 +/- 0.000000e+00) [K]
    Coulombic Real/kʙ      -9.831206e+04 (-9.275283e+04 +/- 0.000000e+00) [K]
    Coulombic Fourier/kʙ   -1.365911e+04 (-1.335564e+04 +/- 0.000000e+00) [K]
    Molecule Intra/kʙ       0.000000e+00 ( 0.000000e+00 +/- 0.000000e+00) [K]

Current cycle: 1200 out of 6000
===============================================================================

Box:      25.06802   0.00000   0.00000  Average:  24.62172   0.00000   0.00000
           0.00000  25.06802   0.00000             0.00000  24.62172   0.00000
           0.00000   0.00000  25.06802             0.00000   0.00000  24.62172
Lengths:  25.06802  25.06802  25.06802  Average:  24.62172  24.62172  24.62172
Angles:   90.00000  90.00000  90.00000  Average:  90.00000  90.00000  90.00000
Rectangular boundary conditions

net charge:   0.00000000

component 0 (CO2) lambda:  0 occupancy:  0 (0.000000)
    net charge:   0.00000000 [e]

Amount of molecules per component :
-------------------------------------------------------------------------------
Component 0 (CO2)
    molecules:      2.400000e+02 molecules  (2.344213e+02 +/- 0.000000e+00)
    number density: 1.523530e-02 molec./A^3 (1.570518e-02 +/- 0.000000e+00)
    density:        1.113117e+03 kg/m^3     (1.147447e+03 +/- 0.000000e+00)

Average pressure tensor: 
-------------------------------------------------------------------------------
 3.2385e+01  5.9793e+01  4.3588e+01 +/- 0.0000e+00 0.0000e+00 0.0000e+00 [bar]
 5.9793e+01  1.4045e+01  1.1615e+01 +/- 0.0000e+00 0.0000e+00 0.0000e+00 [bar]
 4.3588e+01  1.1615e+01 -7.2943e+01 +/- 0.0000e+00 0.0000e+00 0.0000e+00 [bar]
Ideal-gas pressure:   4.987174e+02 +/ 0.000000e+00 [bar]
Excess pressure:     -5.075550e+02 +/ 0.000000e+00 [bar]
Pressure:            -8.837590e+00 +/ 0.000000e+00 [bar]

Total potential energy/kʙ  -4.016555e+05 (-3.988940e+05 +/- 0.000000e+00) [K]
-------------------------------------------------------------------------------
ExternalField-molecule
    Van der Waals/kʙ        0.000000e+00 ( 0.000000e+00 +/- 0.000000e+00) [K]
Framework-molecule
    Van der Waals/kʙ        0.000000e+00 ( 0.000000e+00 +/- 0.000000e+00) [K]
    Van der Waals (Tail)/kʙ 0.000000e+00 ( 0.000000e+00 +/- 0.000000e+00) [K]
    Coulombic Real/kʙ       0.000000e+00 ( 0.000000e+00 +/- 0.000000e+00) [K]
    Coulombic Fourier/kʙ    0.000000e+00 ( 0.000000e+00 +/- 0.000000e+00) [K]
Molecule-molecule
    Van der Waals/kʙ       -2.841494e+05 (-2.834866e+05 +/- 0.000000e+00) [K]
    Van der Waals (Tail)/kʙ-8.815352e+03 (-8.875748e+03 +/- 0.000000e+00) [K]
    Coulombic Real/kʙ      -9.551086e+04 (-9.313916e+04 +/- 0.000000e+00) [K]
    Coulombic Fourier/kʙ   -1.317990e+04 (-1.339247e+04 +/- 0.000000e+00) [K]
    Molecule Intra/kʙ       0.000000e+00 ( 0.000000e+00 +/- 0.000000e+00) [K]

Current cycle: 1300 out of 6000
===============================================================================

Box:      24.82617   0.00000   0.00000  Average:  24.65251   0.00000   0.00000
           0.00000  24.82617   0.00000             0.00000  24.65251   0.00000
           0.00000   0.00000  24.82617             0.00000   0.00000  24.65251
Lengths:  24.82617  24.82617  24.82617  Average:  24.65251  24.65251  24.65251
Angles:   90.00000  90.00000  90.00000  Average:  90.00000  90.00000  90.00000
Rectangular boundary conditions

net charge:   0.00000000

component 0 (CO2) lambda:  0 occupancy:  0 (0.000000)
    net charge:   0.00000000 [e]

Amount of molecules per component :
-------------------------------------------------------------------------------
Component 0 (CO2)
    molecules:      2.380000e+02 molecules  (2.350346e+02 +/- 0.000000e+00)
    number density: 1.555420e-02 molec./A^3 (1.568732e-02 +/- 0.000000e+00)
    density:        1.136417e+03 kg/m^3     (1.146142e+03 +/- 0.000000e+00)

Average pressure tensor: 
-------------------------------------------------------------------------------
 4.9790e+01  7.9242e+01  6.3737e+01 +/- 0.0000e+00 0.0000e+00 0.0000e+00 [bar]
 7.9242e+01 -3.0008e+00  7.0134e+00 +/- 0.0000e+00 0.0000e+00 0.0000e+00 [bar]
 6.3737e+01  7.0134e+00 -7.6462e+01 +/- 0.0000e+00 0.0000e+00 0.0000e+00 [bar]
Ideal-gas pressure:   4.981501e+02 +/ 0.000000e+00 [bar]
Excess pressure:     -5.080410e+02 +/ 0.000000e+00 [bar]
Pressure:            -9.890896e+00 +/ 0.000000e+00 [bar]

Total potential energy/kʙ  -4.016834e+05 (-3.998317e+05 +/- 0.000000e+00) [K]
-------------------------------------------------------------------------------
ExternalField-molecule
    Van der Waals/kʙ        0.000000e+00 ( 0.000000e+00 +/- 0.000000e+00) [K]
Framework-molecule
    Van der Waals/kʙ        0.000000e+00 ( 0.000000e+00 +/- 0.000000e+00) [K]
    Van der Waals (Tail)/kʙ 0.000000e+00 ( 0.000000e+00 +/- 0.000000e+00) [K]
    Coulombic Real/kʙ       0.000000e+00 ( 0.000000e+00 +/- 0.000000e+00) [K]
    Coulombic Fourier/kʙ    0.000000e+00 ( 0.000000e+00 +/- 0.000000e+00) [K]
Molecule-molecule
    Van der Waals/kʙ       -2.799373e+05 (-2.838748e+05 +/- 0.000000e+00) [K]
    Van der Waals (Tail)/kʙ-8.924872e+03 (-8.889519e+03 +/- 0.000000e+00) [K]
    Coulombic Real/kʙ      -9.909270e+04 (-9.365451e+04 +/- 0.000000e+00) [K]
    Coulombic Fourier/kʙ   -1.372849e+04 (-1.341285e+04 +/- 0.000000e+00) [K]
    Molecule Intra/kʙ       0.000000e+00 ( 0.000000e+00 +/- 0.000000e+00) [K]

Current cycle: 1400 out of 6000
===============================================================================

Box:      24.87548   0.00000   0.00000  Average:  24.66587   0.00000   0.00000
           0.00000  24.87548   0.00000             0.00000  24.66587   0.00000
           0.00000   0.00000  24.87548             0.00000   0.00000  24.66587
Lengths:  24.87548  24.87548  24.87548  Average:  24.66587  24.66587  24.66587
Angles:   90.00000  90.00000  90.00000  Average:  90.00000  90.00000  90.00000
Rectangular boundary conditions

net charge:   0.00000000

component 0 (CO2) lambda:  0 occupancy:  0 (0.000000)
    net charge:   0.00000000 [e]

Amount of molecules per component :
-------------------------------------------------------------------------------
Component 0 (CO2)
    molecules:      2.360000e+02 molecules  (2.351635e+02 +/- 0.000000e+00)
    number density: 1.533195e-02 molec./A^3 (1.567062e-02 +/- 0.000000e+00)
    density:        1.120178e+03 kg/m^3     (1.144922e+03 +/- 0.000000e+00)

Average pressure tensor: 
-------------------------------------------------------------------------------
 8.7990e+01  7.6112e+01  6.2140e+01 +/- 0.0000e+00 0.0000e+00 0.0000e+00 [bar]
 7.6112e+01 -9.5754e+00  1.0453e+01 +/- 0.0000e+00 0.0000e+00 0.0000e+00 [bar]
 6.2140e+01  1.0453e+01 -9.3099e+01 +/- 0.0000e+00 0.0000e+00 0.0000e+00 [bar]
Ideal-gas pressure:   4.976199e+02 +/ 0.000000e+00 [bar]
Excess pressure:     -5.025148e+02 +/ 0.000000e+00 [bar]
Pressure:            -4.894955e+00 +/ 0.000000e+00 [bar]

Total potential energy/kʙ  -3.870294e+05 (-3.995417e+05 +/- 0.000000e+00) [K]
-------------------------------------------------------------------------------
ExternalField-molecule
    Van der Waals/kʙ        0.000000e+00 ( 0.000000e+00 +/- 0.000000e+00) [K]
Framework-molecule
    Van der Waals/kʙ        0.000000e+00 ( 0.000000e+00 +/- 0.000000e+00) [K]
    Van der Waals (Tail)/kʙ 0.000000e+00 ( 0.000000e+00 +/- 0.000000e+00) [K]
    Coulombic Real/kʙ       0.000000e+00 ( 0.000000e+00 +/- 0.000000e+00) [K]
    Coulombic Fourier/kʙ    0.000000e+00 ( 0.000000e+00 +/- 0.000000e+00) [K]
Molecule-molecule
    Van der Waals/kʙ       -2.798333e+05 (-2.836484e+05 +/- 0.000000e+00) [K]
    Van der Waals (Tail)/kʙ-8.723418e+03 (-8.884903e+03 +/- 0.000000e+00) [K]
    Coulombic Real/kʙ      -8.515624e+04 (-9.357946e+04 +/- 0.000000e+00) [K]
    Coulombic Fourier/kʙ   -1.331648e+04 (-1.342900e+04 +/- 0.000000e+00) [K]
    Molecule Intra/kʙ       0.000000e+00 ( 0.000000e+00 +/- 0.000000e+00) [K]

Current cycle: 1500 out of 6000
===============================================================================

Box:      24.76589   0.00000   0.00000  Average:  24.67509   0.00000   0.00000
           0.00000  24.76589   0.00000             0.00000  24.67509   0.00000
           0.00000   0.00000  24.76589             0.00000   0.00000  24.67509
[...]
    number density: 1.557087e-02 molec./A^3 (1.540836e-02 +/- 2.550211e-04)
    density:        1.137635e+03 kg/m^3     (1.125761e+03 +/- 1.863228e+01)

Average pressure tensor: 
-------------------------------------------------------------------------------
 7.1056e+01 -1.2072e+01  2.7066e+01 +/- 7.0893e+01 8.5747e+01 9.1358e+01 [bar]
-1.2072e+01 -4.3829e+01  3.7864e+01 +/- 8.5747e+01 1.1707e+02 9.6116e+01 [bar]
 2.7066e+01  3.7864e+01 -2.0575e+01 +/- 9.1358e+01 9.6116e+01 5.4620e+01 [bar]
Ideal-gas pressure:   4.892918e+02 +/ 8.098185e+00 [bar]
Excess pressure:     -4.870749e+02 +/ 3.146699e+01 [bar]
Pressure:             2.216949e+00 +/ 2.717584e+01 [bar]

Total potential energy/kʙ  -3.991115e+05 (-3.964845e+05 +/- 6.800444e+03) [K]
-------------------------------------------------------------------------------
ExternalField-molecule
    Van der Waals/kʙ        0.000000e+00 ( 0.000000e+00 +/- 0.000000e+00) [K]
Framework-molecule
    Van der Waals/kʙ        0.000000e+00 ( 0.000000e+00 +/- 0.000000e+00) [K]
    Van der Waals (Tail)/kʙ 0.000000e+00 ( 0.000000e+00 +/- 0.000000e+00) [K]
    Coulombic Real/kʙ       0.000000e+00 ( 0.000000e+00 +/- 0.000000e+00) [K]
    Coulombic Fourier/kʙ    0.000000e+00 ( 0.000000e+00 +/- 0.000000e+00) [K]
Molecule-molecule
    Van der Waals/kʙ       -2.805076e+05 (-2.821149e+05 +/- 2.835441e+03) [K]
    Van der Waals (Tail)/kʙ-9.009517e+03 (-8.857480e+03 +/- 7.459118e+01) [K]
    Coulombic Real/kʙ      -9.545756e+04 (-9.230849e+04 +/- 3.740347e+03) [K]
    Coulombic Fourier/kʙ   -1.413677e+04 (-1.320362e+04 +/- 2.765988e+02) [K]
    Molecule Intra/kʙ       0.000000e+00 ( 0.000000e+00 +/- 0.000000e+00) [K]

Current cycle: 5800 out of 6000
===============================================================================

Box:      24.92433   0.00000   0.00000  Average:  24.92196   0.00000   0.00000
           0.00000  24.92433   0.00000             0.00000  24.92196   0.00000
           0.00000   0.00000  24.92433             0.00000   0.00000  24.92196
Lengths:  24.92433  24.92433  24.92433  Average:  24.92196  24.92196  24.92196
Angles:   90.00000  90.00000  90.00000  Average:  90.00000  90.00000  90.00000
Rectangular boundary conditions

net charge:   0.00000000

component 0 (CO2) lambda:  0 occupancy:  0 (0.000000)
    net charge:   0.00000000 [e]

Amount of molecules per component :
-------------------------------------------------------------------------------
Component 0 (CO2)
    molecules:      2.330000e+02 molecules  (2.384406e+02 +/- 3.179971e+00)
    number density: 1.504823e-02 molec./A^3 (1.540650e-02 +/- 2.487404e-04)
    density:        1.099449e+03 kg/m^3     (1.125626e+03 +/- 1.817340e+01)

Average pressure tensor: 
-------------------------------------------------------------------------------
 7.2672e+01 -1.3413e+01  2.7961e+01 +/- 7.0454e+01 8.4970e+01 8.7977e+01 [bar]
-1.3413e+01 -4.4028e+01  3.6729e+01 +/- 8.4970e+01 1.1702e+02 9.5621e+01 [bar]
 2.7961e+01  3.6729e+01 -1.4563e+01 +/- 8.7977e+01 9.5621e+01 6.6044e+01 [bar]
Ideal-gas pressure:   4.892329e+02 +/ 7.898740e+00 [bar]
Excess pressure:     -4.845396e+02 +/ 3.445565e+01 [bar]
Pressure:             4.693292e+00 +/ 2.933981e+01 [bar]

Total potential energy/kʙ  -3.800521e+05 (-3.963303e+05 +/- 6.905953e+03) [K]
-------------------------------------------------------------------------------
ExternalField-molecule
    Van der Waals/kʙ        0.000000e+00 ( 0.000000e+00 +/- 0.000000e+00) [K]
Framework-molecule
    Van der Waals/kʙ        0.000000e+00 ( 0.000000e+00 +/- 0.000000e+00) [K]
    Van der Waals (Tail)/kʙ 0.000000e+00 ( 0.000000e+00 +/- 0.000000e+00) [K]
    Coulombic Real/kʙ       0.000000e+00 ( 0.000000e+00 +/- 0.000000e+00) [K]
    Coulombic Fourier/kʙ    0.000000e+00 ( 0.000000e+00 +/- 0.000000e+00) [K]
Molecule-molecule
    Van der Waals/kʙ       -2.683047e+05 (-2.819909e+05 +/- 2.971324e+03) [K]
    Van der Waals (Tail)/kʙ-8.453151e+03 (-8.855164e+03 +/- 7.673156e+01) [K]
    Coulombic Real/kʙ      -9.031235e+04 (-9.227890e+04 +/- 3.699891e+03) [K]
    Coulombic Fourier/kʙ   -1.298192e+04 (-1.320534e+04 +/- 2.768933e+02) [K]
    Molecule Intra/kʙ       0.000000e+00 ( 0.000000e+00 +/- 0.000000e+00) [K]

Current cycle: 5900 out of 6000
===============================================================================

Box:      24.99911   0.00000   0.00000  Average:  24.91965   0.00000   0.00000
           0.00000  24.99911   0.00000             0.00000  24.91965   0.00000
           0.00000   0.00000  24.99911             0.00000   0.00000  24.91965
Lengths:  24.99911  24.99911  24.99911  Average:  24.91965  24.91965  24.91965
Angles:   90.00000  90.00000  90.00000  Average:  90.00000  90.00000  90.00000
Rectangular boundary conditions

net charge:   0.00000000

component 0 (CO2) lambda:  0 occupancy:  0 (0.000000)
    net charge:   0.00000000 [e]

Amount of molecules per component :
-------------------------------------------------------------------------------
Component 0 (CO2)
    molecules:      2.290000e+02 molecules  (2.383360e+02 +/- 2.999055e+00)
    number density: 1.465756e-02 molec./A^3 (1.540395e-02 +/- 2.453192e-04)
    density:        1.070907e+03 kg/m^3     (1.125439e+03 +/- 1.792344e+01)

Average pressure tensor: 
-------------------------------------------------------------------------------
 7.2665e+01 -1.7837e+01  2.6288e+01 +/- 7.0449e+01 8.4624e+01 8.8861e+01 [bar]
-1.7837e+01 -4.6235e+01  3.7181e+01 +/- 8.4624e+01 1.1774e+02 9.2858e+01 [bar]
 2.6288e+01  3.7181e+01 -1.1420e+01 +/- 8.8861e+01 9.2858e+01 7.0316e+01 [bar]
Ideal-gas pressure:   4.891519e+02 +/ 7.790101e+00 [bar]
Excess pressure:     -4.841487e+02 +/ 3.438118e+01 [bar]
Pressure:             5.003164e+00 +/ 2.934531e+01 [bar]

Total potential energy/kʙ  -3.637976e+05 (-3.960475e+05 +/- 7.208898e+03) [K]
-------------------------------------------------------------------------------
ExternalField-molecule
    Van der Waals/kʙ        0.000000e+00 ( 0.000000e+00 +/- 0.000000e+00) [K]
Framework-molecule
    Van der Waals/kʙ        0.000000e+00 ( 0.000000e+00 +/- 0.000000e+00) [K]
    Van der Waals (Tail)/kʙ 0.000000e+00 ( 0.000000e+00 +/- 0.000000e+00) [K]
    Coulombic Real/kʙ       0.000000e+00 ( 0.000000e+00 +/- 0.000000e+00) [K]
    Coulombic Fourier/kʙ    0.000000e+00 ( 0.000000e+00 +/- 0.000000e+00) [K]
Molecule-molecule
    Van der Waals/kʙ       -2.586611e+05 (-2.817391e+05 +/- 3.332522e+03) [K]
    Van der Waals (Tail)/kʙ-8.092347e+03 (-8.848299e+03 +/- 8.668203e+01) [K]
    Coulombic Real/kʙ      -8.504241e+04 (-9.227087e+04 +/- 3.638088e+03) [K]
    Coulombic Fourier/kʙ   -1.200178e+04 (-1.318921e+04 +/- 2.771959e+02) [K]
    Molecule Intra/kʙ       0.000000e+00 ( 0.000000e+00 +/- 0.000000e+00) [K]


Energy statistics             |  Energy [K]   | Recomputed [K]|  Drift [K]    |
===============================================================================
Total potential energy/kʙ     | -4.198159e+05 | -4.198159e+05 | -1.541265e-09 |
    external field VDW/kʙ     |  0.000000e+00 |  0.000000e+00 |  0.000000e+00 |
    external field Real/kʙ    |  0.000000e+00 |  0.000000e+00 |  0.000000e+00 |
    framework-molecule VDW/kʙ |  0.000000e+00 |  0.000000e+00 |  0.000000e+00 |
    framework-molecule Real/kʙ|  0.000000e+00 |  0.000000e+00 |  0.000000e+00 |
    molecule-molecule VDW/kʙ  | -2.902342e+05 | -2.902342e+05 | -5.950660e-10 |
    molecule-molecule Real/kʙ | -1.066018e+05 | -1.066018e+05 | -9.276029e-10 |
    Van der Waals (Tail)/kʙ   | -9.264906e+03 | -9.264906e+03 |  0.000000e+00 |
    Ewald Fourier/kʙ          |  8.522612e+03 |  8.522612e+03 | -1.859581e-11 |
    Ewald self/kʙ             | -4.929081e+06 | -4.929081e+06 |  0.000000e+00 |
    Ewald exclusion/kʙ        |  4.906843e+06 |  4.906843e+06 |  0.000000e+00 |
    intra VDW/kʙ              |  0.000000e+00 |  0.000000e+00 |  0.000000e+00 |
    intra Coulombic/kʙ        |  0.000000e+00 |  0.000000e+00 |  0.000000e+00 |
    polarization/kʙ           |  0.000000e+00 |  0.000000e+00 |  0.000000e+00 |
    dU/dlambda VDW/kʙ         |  0.000000e+00 |  0.000000e+00 |  0.000000e+00 |
    dU/dlambda Real/kʙ        |  0.000000e+00 |  0.000000e+00 |  0.000000e+00 |
    dU/dlambda Ewald/kʙ       |  0.000000e+00 |  0.000000e+00 |  0.000000e+00 |
-------------------------------------------------------------------------------


Monte-Carlo moves statistics
===============================================================================

    Gibbs volume         all:                2995
    Gibbs volume         total:              5946
    Gibbs volume         constructed:        5946
    Gibbs volume         accepted:           1990
    Gibbs volume         fraction:       0.334679
    Gibbs volume         max-change:     0.040386

Component 0 [CO2]
    Reinsertion (CBMC)   all:              148899
    Reinsertion (CBMC)   total:            148899
    Reinsertion (CBMC)   constructed:      119815
    Reinsertion (CBMC)   accepted:            712
    Reinsertion (CBMC)   fraction:       0.004782
    Reinsertion (CBMC)   max-change:     0.000000

    Gibbs swap (CBMC)    all:              298738
    Gibbs swap (CBMC)    total:            597354
    Gibbs swap (CBMC)    constructed:      536438
    Gibbs swap (CBMC)    accepted:          14610
    Gibbs swap (CBMC)    fraction:       0.024458
    Gibbs swap (CBMC)    max-change:     0.000000

    Translation          all:              150042
    Translation          total:             50181      49894      49967
    Translation          constructed:       50181      49894      49967
    Translation          accepted:          30538      21688      30961
    Translation          fraction:       0.608557   0.434682   0.619629
    Translation          max-change:     0.507242   0.636997   0.504543

    Rotation             all:              149526
    Rotation             total:             49638      50145      49743
    Rotation             constructed:       49638      50145      49743
    Rotation             accepted:          27893      20016      28027
    Rotation             fraction:       0.561928   0.399162   0.563436
    Rotation             max-change:     0.568753   0.681526   0.569477



Production run counting of the MC moves summed over systems and components
===============================================================================

Reinsertion (CBMC)                   297805 (19.8537 [%])
Gibbs volume                           5946 (0.3964 [%])
Gibbs swap (CBMC)                    597358 (39.8239 [%])
Translation                          299653 (19.9769 [%])
Rotation                             299238 (19.9492 [%])

Production count MC-steps:          1500000 [-]
               All summed:          1500000 [-]
               difference:                0 [-]


Production run CPU timings of the MC moves
===============================================================================

Component 0 CO2

Rotation                             14.561877 [s]
    Ewald                             4.844461 [s]
    ExternalField-Molecule            0.005176 [s]
    Framework-Molecule                0.005597 [s]
    Molecule-Molecule                 9.382136 [s]
    Overhead                          0.324507 [s]

Reinsertion (CBMC)                   62.851644 [s]
    Ewald                             3.945865 [s]
    NonEwald                         58.831299 [s]
    Overhead                          0.074480 [s]

Translation                          14.645437 [s]
    Ewald                             4.856783 [s]
    ExternalField-Molecule            0.005123 [s]
    Framework-Molecule                0.008137 [s]
    Molecule-Molecule                 9.437706 [s]
    Overhead                          0.337688 [s]



Gibbs swap (CBMC)                    84.666629 [s]
    Ewald                            10.625692 [s]
    NonEwald                         73.159303 [s]
    Tail                              0.638259 [s]

Gibbs volume                         17.557167 [s]
    Ewald                             4.925074 [s]
    NonEwald                         11.941874 [s]
    Tail                              0.610963 [s]

Property sampling                     0.247449 [s]
Energy/pressure sampling:             7.362519 [s]


Production run CPU timings of the MC moves summed over systems and components
===============================================================================


Translation                          18.720813 [s]
    Ewald                             8.253137 [s]
    ExternalField-Molecule            0.010243 [s]
    Framework-Molecule                0.016327 [s]
    Molecule-Molecule                 9.744511 [s]
    Overhead                          0.696595 [s]

Rotation                             18.642769 [s]
    Ewald                             8.245364 [s]
    ExternalField-Molecule            0.010392 [s]
    Framework-Molecule                0.011244 [s]
    Molecule-Molecule                 9.682838 [s]
    Overhead                          0.692931 [s]

Reinsertion (CBMC)                   70.664569 [s]
    Ewald                             7.348952 [s]
    NonEwald                         62.939373 [s]
    Overhead                          0.376244 [s]

Gibbs volume                         34.815848 [s]
    Ewald                             9.743598 [s]
    NonEwald                         23.710244 [s]
    Tail                              1.206279 [s]
    Overhead                          0.155727 [s]

Gibbs swap (CBMC)                   205.282097 [s]
    Ewald                            23.925632 [s]
    NonEwald                        179.162102 [s]
    Tail                              1.663645 [s]
    Overhead                          0.530718 [s]

Property sampling:                    0.478247 [s]
Energy/pressure sampling:             7.520043 [s]

Production simulation time:         356.794151 [s]
                All summed:         356.124386 [s]
                  Overhead:           0.669765 [s]


Initalization simulation time:      114.678684 [s]
Equilibration simulation time:        0.000000 [s]
Production simulation time:         356.794151 [s]
Total simulation time:              471.472835 [s]


Energy averages and statistics:
===============================================================================

Framework-molecule energy:
-------------------------------------------------------------------------------



Framework-molecule energy contributions per energy type:
-------------------------------------------------------------------------------



Inter-molecular energy:
-------------------------------------------------------------------------------

    Inter-molecular energy/kʙ 0-0 [CO2-CO2]:
    ---------------------------------------------------------------------------
        Block[  0] -3.988710e+05
        Block[  1] -3.930759e+05
        Block[  2] -3.929724e+05
        Block[  3] -4.046765e+05
        Block[  4] -3.909002e+05
        -----------------------------------------------------------------------
        Average  -3.960992e+05 +/-  7.000805e+03 [K]



Inter-molecular energy contributions per energy type:
-------------------------------------------------------------------------------

    Van der Waals energy/kʙ 0-0 [CO2-CO2]:
    ---------------------------------------------------------------------------
        Block[  0] -2.834811e+05
        Block[  1] -2.806304e+05
        Block[  2] -2.803573e+05
        Block[  3] -2.853525e+05
        Block[  4] -2.789449e+05
        -----------------------------------------------------------------------
        Average  -2.817532e+05 +/-  3.227607e+03 [K]

    VDW Tail-Correction energy/kʙ 0-0 [CO2-CO2]:
    ---------------------------------------------------------------------------
        Block[  0] -8.876251e+03
        Block[  1] -8.817714e+03
        Block[  2] -8.822955e+03
        Block[  3] -8.951178e+03
        Block[  4] -8.774784e+03
        -----------------------------------------------------------------------
        Average  -8.848577e+03 +/-  8.407961e+01 [K]

    Coulomb Real energy/kʙ 0-0 [CO2-CO2]:
    ---------------------------------------------------------------------------
        Block[  0] -9.311939e+04
        Block[  1] -9.054549e+04
        Block[  2] -9.090114e+04
        Block[  3] -9.694786e+04
        Block[  4] -9.005134e+04
        -----------------------------------------------------------------------
        Average  -9.231305e+04 +/-  3.531347e+03 [K]

    Coulomb Fourier energy/kʙ 0-0 [CO2-CO2]:
    ---------------------------------------------------------------------------
        Block[  0] -1.339424e+04
        Block[  1] -1.308234e+04
        Block[  2] -1.289105e+04
        Block[  3] -1.342494e+04
        Block[  4] -1.312912e+04
        -----------------------------------------------------------------------
        Average  -1.318434e+04 +/-  2.785819e+02 [K]


Total energy/kʙ
-------------------------------------------------------------------------------
    Block[  0] -3.988710e+05
    Block[  1] -3.930759e+05
    Block[  2] -3.929724e+05
    Block[  3] -4.046765e+05
    Block[  4] -3.909002e+05
    ---------------------------------------------------------------------------
    Average  -3.960992e+05 +/-  7.000805e+03 [K]

Pressure averages and statistics:
===============================================================================

Average pressure tensor: 
-------------------------------------------------------------------------------
 6.8188e+01 -1.8498e+01  2.4871e+01 +/- 7.1875e+01 8.4724e+01 8.9384e+01 [bar]
-1.8498e+01 -4.7439e+01  3.8080e+01 +/- 8.4724e+01 1.1808e+02 9.0179e+01 [bar]
 2.4871e+01  3.8080e+01 -6.5667e+00 +/- 8.9384e+01 9.0179e+01 7.8222e+01 [bar]

    Block[  0]  4.987298e+07
    Block[  1]  4.871821e+07
    Block[  2]  4.871086e+07
    Block[  3]  4.904538e+07
    Block[  4]  4.821805e+07
    ---------------------------------------------------------------------------
    Ideal gas pressure   4.891310e+07 +/-  4.579547e-02 [Pa]
                         4.891310e+02 +/-  7.604522e+00 [bar]


    Block[  0] -5.075769e+07
    Block[  1] -4.933821e+07
    Block[  2] -4.494764e+07
    Block[  3] -5.089444e+07
    Block[  4] -4.626379e+07
    ---------------------------------------------------------------------------
    Excess pressure  -4.844035e+07 +/-  3.350528e+06 [Pa]
                     -4.844035e+02 +/-  3.350528e+01 [bar]


    Block[  0] -8.847150e+05
    Block[  1] -6.199935e+05
    Block[  2]  3.763215e+06
    Block[  3] -1.849059e+06
    Block[  4]  1.954260e+06
    ---------------------------------------------------------------------------
    Pressure average   4.727414e+05 +/-  2.874845e+06 [Pa]
                       4.727414e+00 +/-  2.874845e+01 [bar]


Enthalpy of adsorption
===============================================================================

Component 0 [CO2]
-------------------------------------------------------------------------------
    Block[  0] -2.315186e+03
    Block[  1] -2.946386e+03
    Block[  2] -2.769712e+03
    Block[  3] -2.043035e+03
    Block[  4] -1.561603e+03
    ---------------------------------------------------------------------------
    Enthalpy of adsorption: -2.327184e+03 +/-  6.929561e+02 [K]
                            -1.934929e+01 +/-  5.761559e+00 [kJ/mol]
    Warning: need to subtract the ideal-gas energy.


Densities
===============================================================================

Component 0 (CO2)
    Block[  0] 234.41666666666669
    Block[  1] 238.25583333333336
    Block[  2] 238.55083333333334
    Block[  3] 240.65416666666667
    Block[  4] 239.93
    -----------------------------------------------------------------------
    Density average   2.383615e+02 +/-  2.997902e+00 [molecules]
    Density average   1.540329e-02 +/-  2.394751e-04 [molec/A^3]
    Density average   1.125391e+03 +/-  1.749646e+01 [kg.m⁻³]

