Compiler and run-time data
===============================================================================
RASPA 3.0.4

Random seed: 2335905637

Compiled as a 64-bits application
Compiler: gcc Ubuntu Clang 18.1.3 (1ubuntu1)
Compile Date = Mar 15 2025, Compile Time = 19:39:45

2025-06-03 11:00:44.300893
Simulation started on Tue, Jun 03
The start time was 11:00:00

Hostname:    c108
OS type:     Linux on x86_64
OS release:  6.8.0-58-generic
OS version:  #60-Ubuntu SMP PREEMPT_DYNAMIC Fri Mar 14 18:29:48 UTC 2025


Mutual consistent basic set of units:
===============================================================================

Unit of temperature: 1 [K]
Unit of length:      1e-10 [m]
Unit of time:        1e-12 [s]
Unit of mass:        1.6605402e-27 [kg]
Unit of charge:      1.60217733e-19 [C/particle]


Boltzmann constant (internal units):          0.8314464919307584 [-]
represents conversion from energy (internal units) to temperature (in Kelvin)

Derived units and their conversion factors:
===============================================================================

Unit of energy:                           1.6605402000000002e-23 [J]
Unit of energy:                           10.000008872307538 [J.mol⁻¹]
Unit of velocity:                         100 [m.s⁻¹]
Unit of force:                            1.6605402000000002e-13 [N]
Unit of diffusion:                        1.0000000000000002e-08 [m².s⁻¹]
Unit of acceleration:                     1.0000000000000002e-08 [m².s⁻¹]
Unit of torque:                           1.6605402000000002e-23 [N.m]
Unit of pressure:                         16605402 [Pa]
Unit of volume:                           1e-30 [m³]
Unit of density:                          1660.5402 [kg.m⁻³]
Unit of dynamic viscosity:                1.6605401999999997e-05 [N.s.m⁻²]
Unit of enthalpy:                         1.6605402000000002e-23 [J]
Unit of polarizability:                   1.5458657349975198e-35 [-]
Unit of Coulomb potential:                167101.08000665612 [K]
Unit of dielectric constant:              1.5458657349975193e-05 [s².C².kg⁻¹.m⁻³]
Unit of dipole moment:                    1.60217733e-29 [C.m]
Unit of Debye:                            4.803206799099162 [C.m]
Unit of electric potential:               0.00010364272224473431 [V]
Unit of electric field:                   1036427.222447343 [V.m⁻¹]
Unit of isothermal compressibility:       6.02213665167516e-08 [Pa⁻¹]
Unit of heat capacity:                    10.000008872307538 [J.mol⁻¹.K⁻¹]
Unit of volumetric expansion coefficient: 1 [K⁻¹]


Internal conversion factors:
===============================================================================

Energy (internal units) to Kelvin:      1.202724284692786 [-]
Kelvin to energy (internal units):      0.8314457542157567 [-]


System definitions
===============================================================================

Temperature:          250 [K]
Beta:                 0.0048108928702210625 [-]
Pressure:             0 [Pa]
Helium void fraction: 1 [-]

Box:      30.00000   0.00000   0.00000
           0.00000  30.00000   0.00000
           0.00000   0.00000  30.00000
Lengths:  30.00000  30.00000  30.00000
Angles:   90.00000  90.00000  90.00000
Rectangular boundary conditions



Property measurement settings
===============================================================================




Pseudo-atoms
===============================================================================

  0 - C_co2    framework-atom: false
  1 - O_co2    framework-atom: false

  0 - C_co2    mass: 12.00000, charge:  0.70000
  1 - O_co2    mass: 15.99940, charge: -0.35000

  0 - C_co2    polarizability:  0.00000
  1 - O_co2    polarizability:  0.00000

  0 - J. J. Potoff et al., AIChE J. 2001, 47, 1676–1682.
  1 - J. J. Potoff et al., AIChE J. 2001, 47, 1676–1682.

Force field status
===============================================================================

Cutoff Framework-Molecule VDW:  11.00000 [Å]
Cutoff Molecule-Molecule VDW:   11.00000 [Å]
Cutoff Coulomb:                 11.00000 [Å]

Overlap-criteria VDW:           1.000000e+05 [K]

C_co2    - C_co2    Lennard-Jones p₀/kʙ:  27.00000 [K], p₁:  2.80000 [Å]
                                  shift:   0.00000 [K], tailcorrections: true
C_co2    - O_co2    Lennard-Jones p₀/kʙ:  46.18441 [K], p₁:  2.92500 [Å]
                                  shift:   0.00000 [K], tailcorrections: true
O_co2    - O_co2    Lennard-Jones p₀/kʙ:  79.00000 [K], p₁:  3.05000 [Å]
                                  shift:   0.00000 [K], tailcorrections: true

Ewald precision: 1e-06
Ewald alpha: 0.2903408740940883
Ewald k-vectors: 9 9 9


Component definitions
===============================================================================

Component 0 [CO2]

    Type: Adsorbate

    Critical temperature:  304.1282 [K]
    Critical pressure:     7377300 [Pa]
    Acentric factor:       0.22394 [-]

    Mol-fraction:                 1 [-]
    Swappable:                   true

    Mass:                         43.9988 [-]
    Fugacity coefficient:         -nan [-]
    Bulk fluid density:           0 [-]
    Compressibility:              1 [-]
    Excess molecules:             0 [-]

    Number Of Atoms:    3
    CBMC starting bead: 0
      0: O_co2  position  0.00000 -0.00000  1.16000, charge -0.35000
      1: C_co2  position  0.00000 -0.00000  0.00000, charge  0.70000
      2: O_co2  position  0.00000 -0.00000 -1.16000, charge -0.35000
    Diagonalized inertia-vector:      43.05758528 43.05758528 0.00000000
    Translational degrees of freedom: 3
    Rotational degrees of freedom:    2
    Shape of the molecule is: 'Linear'
    Net-charge:        0.00000000 [e]

    Move probabilities:
    Translation:                   0.199203 [-]
    Random translation:            0.000000 [-]
    Rotation:                      0.199203 [-]
    Random rotation:               0.000000 [-]
    Volume change:                 0.000000 [-]
    Reinsertion (CBMC):            0.199203 [-]
    Identity change (CBMC):        0.000000 [-]
    Swap:                          0.000000 [-]
    Swap (CBMC):                   0.000000 [-]
    Swap (CFCMC):                  0.000000 [-]
    Swap (CB/CFCMC):               0.000000 [-]
    Gibbs volume:                  0.003984 [-]
    Gibbs swap (CBMC):             0.398406 [-]
    Gibbs swap (CFCMC):            0.000000 [-]
    Widom:                         0.000000 [-]
    Widom (CFCMC):                 0.000000 [-]
    Widom (CB/CFCMC):              0.000000 [-]
    Parallel tempering:            0.000000 [-]
    Hybrid MC:                     0.000000 [-]

    number of blocking-pockets: 0

    number of bonds: 0





Number of pseudo-atoms
===============================================================================

Component   0 (CO2)
-------------------------------------------------------------------------------
    index   0 (C_co2): 210 atoms
    index   1 (O_co2): 420 atoms

Total number of pseudo-atoms:
-------------------------------------------------------------------------------
    index   0 (C_co2): 210 atoms
    index   1 (O_co2): 420 atoms




Energy status Recomputed from scratch
===============================================================================

Total potential energy/kʙ       -1.062116e+05 [K]
    external field VDW/kʙ        0.000000e+00 [K]
    external field Real/kʙ       0.000000e+00 [K]
    framework-molecule VDW/kʙ    0.000000e+00 [K]
    framework-molecule Real/kʙ   0.000000e+00 [K]
    molecule-molecule VDW/kʙ    -8.390399e+04 [K]
    molecule-molecule Real/kʙ   -1.611299e+04 [K]
    Van der Waals (Tail)/kʙ     -3.937786e+03 [K]
    Ewald Fourier/kʙ             1.680391e+04 [K]
    Ewald self/kʙ               -4.224926e+06 [K]
    Ewald exclusion/kʙ           4.205866e+06 [K]
    intra VDW/kʙ                 0.000000e+00 [K]
    intra Coulombic/kʙ           0.000000e+00 [K]
    polarization/kʙ              0.000000e+00 [K]
    dU/dlambda VDW/kʙ            0.000000e+00 [K]
    dU/dlambda Real/kʙ           0.000000e+00 [K]
    dU/dlambda Ewald/kʙ          0.000000e+00 [K]





Initialization: Current cycle: 0 out of 2000
===============================================================================

Box:      30.30529   0.00000   0.00000
           0.00000  30.30529   0.00000
           0.00000   0.00000  30.30529
Lengths:  30.30529  30.30529  30.30529
Angles:   90.00000  90.00000  90.00000
Rectangular boundary conditions

net charge:   0.00000000

component   0 (CO2) lambda:  0 occupancy:  0 (0.000000)
    net charge:   0.00000000 [e]

Amount of molecules per component :
-------------------------------------------------------------------------------
Component 0 (CO2)
    molecules:         2.070000e+02 molecules
    number density:    7.437292e-03 molec/A^3
    density:           5.433813e+02 kg/m^3

Total potential energy/kʙ       -1.103143e+05 [K]
-------------------------------------------------------------------------------
    external field VDW/kʙ        0.000000e+00 [K]
    external field Real/kʙ       0.000000e+00 [K]
    framework-molecule VDW/kʙ    0.000000e+00 [K]
    framework-molecule Real/kʙ   0.000000e+00 [K]
    molecule-molecule VDW/kʙ    -8.590966e+04 [K]
    molecule-molecule Real/kʙ   -1.764679e+04 [K]
    Van der Waals (Tail)/kʙ     -3.711611e+03 [K]
    Ewald Fourier/kʙ             1.574221e+04 [K]
    Ewald self/kʙ               -4.164570e+06 [K]
    Ewald exclusion/kʙ           4.145782e+06 [K]
    intra VDW/kʙ                 0.000000e+00 [K]
    intra Coulombic/kʙ           0.000000e+00 [K]
    polarization/kʙ              0.000000e+00 [K]
    dU/dlambda VDW/kʙ            0.000000e+00 [K]
    dU/dlambda Real/kʙ           0.000000e+00 [K]
    dU/dlambda Ewald/kʙ          0.000000e+00 [K]


Initialization: Current cycle: 100 out of 2000
===============================================================================

Box:      29.15684   0.00000   0.00000
           0.00000  29.15684   0.00000
           0.00000   0.00000  29.15684
Lengths:  29.15684  29.15684  29.15684
Angles:   90.00000  90.00000  90.00000
Rectangular boundary conditions

net charge:   0.00000000

component   0 (CO2) lambda:  0 occupancy:  0 (0.000000)
    net charge:   0.00000000 [e]

Amount of molecules per component :
-------------------------------------------------------------------------------
Component 0 (CO2)
    molecules:         2.440000e+02 molecules
    number density:    9.843927e-03 molec/A^3
    density:           7.192142e+02 kg/m^3

Total potential energy/kʙ       -2.705949e+05 [K]
-------------------------------------------------------------------------------
    external field VDW/kʙ        0.000000e+00 [K]
    external field Real/kʙ       0.000000e+00 [K]
    framework-molecule VDW/kʙ    0.000000e+00 [K]
    framework-molecule Real/kʙ   0.000000e+00 [K]
    molecule-molecule VDW/kʙ    -1.920726e+05 [K]
    molecule-molecule Real/kʙ   -6.219682e+04 [K]
    Van der Waals (Tail)/kʙ     -5.790759e+03 [K]
    Ewald Fourier/kʙ             1.161207e+04 [K]
    Ewald self/kʙ               -4.908962e+06 [K]
    Ewald exclusion/kʙ           4.886815e+06 [K]
    intra VDW/kʙ                 0.000000e+00 [K]
    intra Coulombic/kʙ           0.000000e+00 [K]
    polarization/kʙ              0.000000e+00 [K]
    dU/dlambda VDW/kʙ            0.000000e+00 [K]
    dU/dlambda Real/kʙ           0.000000e+00 [K]
    dU/dlambda Ewald/kʙ          0.000000e+00 [K]


Initialization: Current cycle: 200 out of 2000
===============================================================================

Box:      29.20544   0.00000   0.00000
           0.00000  29.20544   0.00000
           0.00000   0.00000  29.20544
Lengths:  29.20544  29.20544  29.20544
Angles:   90.00000  90.00000  90.00000
Rectangular boundary conditions

net charge:   0.00000000

component   0 (CO2) lambda:  0 occupancy:  0 (0.000000)
    net charge:   0.00000000 [e]

Amount of molecules per component :
-------------------------------------------------------------------------------
Component 0 (CO2)
    molecules:         2.380000e+02 molecules
    number density:    9.554006e-03 molec/A^3
    density:           6.980320e+02 kg/m^3

Total potential energy/kʙ       -2.653402e+05 [K]
-------------------------------------------------------------------------------
    external field VDW/kʙ        0.000000e+00 [K]
    external field Real/kʙ       0.000000e+00 [K]
    framework-molecule VDW/kʙ    0.000000e+00 [K]
    framework-molecule Real/kʙ   0.000000e+00 [K]
    molecule-molecule VDW/kʙ    -1.904473e+05 [K]
    molecule-molecule Real/kʙ   -6.144905e+04 [K]
    Van der Waals (Tail)/kʙ     -5.482009e+03 [K]
    Ewald Fourier/kʙ             1.364025e+04 [K]
    Ewald self/kʙ               -4.788250e+06 [K]
    Ewald exclusion/kʙ           4.766648e+06 [K]
    intra VDW/kʙ                 0.000000e+00 [K]
    intra Coulombic/kʙ           0.000000e+00 [K]
    polarization/kʙ              0.000000e+00 [K]
    dU/dlambda VDW/kʙ            0.000000e+00 [K]
    dU/dlambda Real/kʙ           0.000000e+00 [K]
    dU/dlambda Ewald/kʙ          0.000000e+00 [K]


Initialization: Current cycle: 300 out of 2000
===============================================================================

Box:      28.10348   0.00000   0.00000
           0.00000  28.10348   0.00000
           0.00000   0.00000  28.10348
Lengths:  28.10348  28.10348  28.10348
Angles:   90.00000  90.00000  90.00000
Rectangular boundary conditions

net charge:   0.00000000

component   0 (CO2) lambda:  0 occupancy:  0 (0.000000)
    net charge:   0.00000000 [e]

Amount of molecules per component :
-------------------------------------------------------------------------------
Component 0 (CO2)
    molecules:         2.430000e+02 molecules
    number density:    1.094777e-02 molec/A^3
    density:           7.998631e+02 kg/m^3

Total potential energy/kʙ       -3.016143e+05 [K]
-------------------------------------------------------------------------------
    external field VDW/kʙ        0.000000e+00 [K]
    external field Real/kʙ       0.000000e+00 [K]
    framework-molecule VDW/kʙ    0.000000e+00 [K]
    framework-molecule Real/kʙ   0.000000e+00 [K]
    molecule-molecule VDW/kʙ    -2.165496e+05 [K]
    molecule-molecule Real/kʙ   -6.809192e+04 [K]
    Van der Waals (Tail)/kʙ     -6.413711e+03 [K]
    Ewald Fourier/kʙ             1.149694e+04 [K]
    Ewald self/kʙ               -4.888843e+06 [K]
    Ewald exclusion/kʙ           4.866787e+06 [K]
    intra VDW/kʙ                 0.000000e+00 [K]
    intra Coulombic/kʙ           0.000000e+00 [K]
    polarization/kʙ              0.000000e+00 [K]
    dU/dlambda VDW/kʙ            0.000000e+00 [K]
    dU/dlambda Real/kʙ           0.000000e+00 [K]
    dU/dlambda Ewald/kʙ          0.000000e+00 [K]


Initialization: Current cycle: 400 out of 2000
===============================================================================

Box:      27.79341   0.00000   0.00000
           0.00000  27.79341   0.00000
           0.00000   0.00000  27.79341
Lengths:  27.79341  27.79341  27.79341
Angles:   90.00000  90.00000  90.00000
Rectangular boundary conditions

net charge:   0.00000000

component   0 (CO2) lambda:  0 occupancy:  0 (0.000000)
    net charge:   0.00000000 [e]

Amount of molecules per component :
-------------------------------------------------------------------------------
Component 0 (CO2)
    molecules:         2.320000e+02 molecules
    number density:    1.080594e-02 molec/A^3
    density:           7.895005e+02 kg/m^3

Total potential energy/kʙ       -2.721877e+05 [K]
-------------------------------------------------------------------------------
    external field VDW/kʙ        0.000000e+00 [K]
    external field Real/kʙ       0.000000e+00 [K]
    framework-molecule VDW/kʙ    0.000000e+00 [K]
    framework-molecule Real/kʙ   0.000000e+00 [K]
    molecule-molecule VDW/kʙ    -1.965308e+05 [K]
    molecule-molecule Real/kʙ   -6.020258e+04 [K]
    Van der Waals (Tail)/kʙ     -6.044047e+03 [K]
    Ewald Fourier/kʙ             1.164738e+04 [K]
    Ewald self/kʙ               -4.667538e+06 [K]
    Ewald exclusion/kʙ           4.646480e+06 [K]
    intra VDW/kʙ                 0.000000e+00 [K]
    intra Coulombic/kʙ           0.000000e+00 [K]
    polarization/kʙ              0.000000e+00 [K]
    dU/dlambda VDW/kʙ            0.000000e+00 [K]
    dU/dlambda Real/kʙ           0.000000e+00 [K]
    dU/dlambda Ewald/kʙ          0.000000e+00 [K]


Initialization: Current cycle: 500 out of 2000
===============================================================================

Box:      27.60620   0.00000   0.00000
           0.00000  27.60620   0.00000
           0.00000   0.00000  27.60620
Lengths:  27.60620  27.60620  27.60620
Angles:   90.00000  90.00000  90.00000
Rectangular boundary conditions

net charge:   0.00000000

component   0 (CO2) lambda:  0 occupancy:  0 (0.000000)
    net charge:   0.00000000 [e]

Amount of molecules per component :
-------------------------------------------------------------------------------
Component 0 (CO2)
    molecules:         2.440000e+02 molecules
    number density:    1.159765e-02 molec/A^3
    density:           8.473443e+02 kg/m^3

Total potential energy/kʙ       -2.963983e+05 [K]
-------------------------------------------------------------------------------
    external field VDW/kʙ        0.000000e+00 [K]
    external field Real/kʙ       0.000000e+00 [K]
    framework-molecule VDW/kʙ    0.000000e+00 [K]
    framework-molecule Real/kʙ   0.000000e+00 [K]
    molecule-molecule VDW/kʙ    -2.194768e+05 [K]
    molecule-molecule Real/kʙ   -5.988517e+04 [K]
    Van der Waals (Tail)/kʙ     -6.822401e+03 [K]
    Ewald Fourier/kʙ             1.193292e+04 [K]
    Ewald self/kʙ               -4.908962e+06 [K]
    Ewald exclusion/kʙ           4.886815e+06 [K]
    intra VDW/kʙ                 0.000000e+00 [K]
    intra Coulombic/kʙ           0.000000e+00 [K]
    polarization/kʙ              0.000000e+00 [K]
    dU/dlambda VDW/kʙ            0.000000e+00 [K]
    dU/dlambda Real/kʙ           0.000000e+00 [K]
    dU/dlambda Ewald/kʙ          0.000000e+00 [K]


Initialization: Current cycle: 600 out of 2000
===============================================================================

Box:      26.98853   0.00000   0.00000
           0.00000  26.98853   0.00000
           0.00000   0.00000  26.98853
Lengths:  26.98853  26.98853  26.98853
Angles:   90.00000  90.00000  90.00000
Rectangular boundary conditions

net charge:   0.00000000

component   0 (CO2) lambda:  0 occupancy:  0 (0.000000)
    net charge:   0.00000000 [e]

Amount of molecules per component :
-------------------------------------------------------------------------------
Component 0 (CO2)
    molecules:         2.300000e+02 molecules
    number density:    1.170011e-02 molec/A^3
    density:           8.548301e+02 kg/m^3

Total potential energy/kʙ       -2.833503e+05 [K]
-------------------------------------------------------------------------------
    external field VDW/kʙ        0.000000e+00 [K]
    external field Real/kʙ       0.000000e+00 [K]
    framework-molecule VDW/kʙ    0.000000e+00 [K]
    framework-molecule Real/kʙ   0.000000e+00 [K]
    molecule-molecule VDW/kʙ    -2.046622e+05 [K]
    molecule-molecule Real/kʙ   -6.253310e+04 [K]
    Van der Waals (Tail)/kʙ     -6.487764e+03 [K]
    Ewald Fourier/kʙ             1.120887e+04 [K]
    Ewald self/kʙ               -4.627300e+06 [K]
    Ewald exclusion/kʙ           4.606424e+06 [K]
    intra VDW/kʙ                 0.000000e+00 [K]
    intra Coulombic/kʙ           0.000000e+00 [K]
    polarization/kʙ              0.000000e+00 [K]
    dU/dlambda VDW/kʙ            0.000000e+00 [K]
    dU/dlambda Real/kʙ           0.000000e+00 [K]
    dU/dlambda Ewald/kʙ          0.000000e+00 [K]


Initialization: Current cycle: 700 out of 2000
===============================================================================

Box:      26.97031   0.00000   0.00000
           0.00000  26.97031   0.00000
           0.00000   0.00000  26.97031
Lengths:  26.97031  26.97031  26.97031
Angles:   90.00000  90.00000  90.00000
Rectangular boundary conditions

net charge:   0.00000000

component   0 (CO2) lambda:  0 occupancy:  0 (0.000000)
    net charge:   0.00000000 [e]

Amount of molecules per component :
-------------------------------------------------------------------------------
Component 0 (CO2)
    molecules:         2.420000e+02 molecules
    number density:    1.233552e-02 molec/A^3
    density:           9.012543e+02 kg/m^3

Total potential energy/kʙ       -3.161540e+05 [K]
-------------------------------------------------------------------------------
    external field VDW/kʙ        0.000000e+00 [K]
    external field Real/kʙ       0.000000e+00 [K]
    framework-molecule VDW/kʙ    0.000000e+00 [K]
    framework-molecule Real/kʙ   0.000000e+00 [K]
    molecule-molecule VDW/kʙ    -2.288206e+05 [K]
    molecule-molecule Real/kʙ   -6.877634e+04 [K]
    Van der Waals (Tail)/kʙ     -7.196978e+03 [K]
    Ewald Fourier/kʙ             1.060522e+04 [K]
    Ewald self/kʙ               -4.868725e+06 [K]
    Ewald exclusion/kʙ           4.846759e+06 [K]
    intra VDW/kʙ                 0.000000e+00 [K]
    intra Coulombic/kʙ           0.000000e+00 [K]
    polarization/kʙ              0.000000e+00 [K]
    dU/dlambda VDW/kʙ            0.000000e+00 [K]
    dU/dlambda Real/kʙ           0.000000e+00 [K]
    dU/dlambda Ewald/kʙ          0.000000e+00 [K]


Initialization: Current cycle: 800 out of 2000
===============================================================================

Box:      26.41679   0.00000   0.00000
           0.00000  26.41679   0.00000
           0.00000   0.00000  26.41679
Lengths:  26.41679  26.41679  26.41679
Angles:   90.00000  90.00000  90.00000
Rectangular boundary conditions

net charge:   0.00000000

component   0 (CO2) lambda:  0 occupancy:  0 (0.000000)
    net charge:   0.00000000 [e]

Amount of molecules per component :
-------------------------------------------------------------------------------
Component 0 (CO2)
    molecules:         2.370000e+02 molecules
    number density:    1.285606e-02 molec/A^3
    density:           9.392861e+02 kg/m^3

Total potential energy/kʙ       -3.180355e+05 [K]
-------------------------------------------------------------------------------
    external field VDW/kʙ        0.000000e+00 [K]
    external field Real/kʙ       0.000000e+00 [K]
    framework-molecule VDW/kʙ    0.000000e+00 [K]
    framework-molecule Real/kʙ   0.000000e+00 [K]
    molecule-molecule VDW/kʙ    -2.273638e+05 [K]
    molecule-molecule Real/kʙ   -7.244156e+04 [K]
    Van der Waals (Tail)/kʙ     -7.345709e+03 [K]
    Ewald Fourier/kʙ             1.062695e+04 [K]
    Ewald self/kʙ               -4.768131e+06 [K]
    Ewald exclusion/kʙ           4.746620e+06 [K]
    intra VDW/kʙ                 0.000000e+00 [K]
    intra Coulombic/kʙ           0.000000e+00 [K]
    polarization/kʙ              0.000000e+00 [K]
    dU/dlambda VDW/kʙ            0.000000e+00 [K]
    dU/dlambda Real/kʙ           0.000000e+00 [K]
    dU/dlambda Ewald/kʙ          0.000000e+00 [K]


Initialization: Current cycle: 900 out of 2000
===============================================================================

Box:      25.88222   0.00000   0.00000
           0.00000  25.88222   0.00000
           0.00000   0.00000  25.88222
Lengths:  25.88222  25.88222  25.88222
Angles:   90.00000  90.00000  90.00000
Rectangular boundary conditions

net charge:   0.00000000

component   0 (CO2) lambda:  0 occupancy:  0 (0.000000)
    net charge:   0.00000000 [e]

Amount of molecules per component :
-------------------------------------------------------------------------------
Component 0 (CO2)
    molecules:         2.310000e+02 molecules
    number density:    1.332316e-02 molec/A^3
    density:           9.734127e+02 kg/m^3

Total potential energy/kʙ       -3.083866e+05 [K]
-------------------------------------------------------------------------------
    external field VDW/kʙ        0.000000e+00 [K]
    external field Real/kʙ       0.000000e+00 [K]
    framework-molecule VDW/kʙ    0.000000e+00 [K]
    framework-molecule Real/kʙ   0.000000e+00 [K]
    molecule-molecule VDW/kʙ    -2.238707e+05 [K]
    molecule-molecule Real/kʙ   -6.590976e+04 [K]
    Van der Waals (Tail)/kʙ     -7.419873e+03 [K]
    Ewald Fourier/kʙ             9.780601e+03 [K]
    Ewald self/kʙ               -4.647419e+06 [K]
    Ewald exclusion/kʙ           4.626452e+06 [K]
    intra VDW/kʙ                 0.000000e+00 [K]
    intra Coulombic/kʙ           0.000000e+00 [K]
    polarization/kʙ              0.000000e+00 [K]
    dU/dlambda VDW/kʙ            0.000000e+00 [K]
    dU/dlambda Real/kʙ           0.000000e+00 [K]
    dU/dlambda Ewald/kʙ          0.000000e+00 [K]


Initialization: Current cycle: 1000 out of 2000
===============================================================================

Box:      25.67131   0.00000   0.00000
           0.00000  25.67131   0.00000
           0.00000   0.00000  25.67131
Lengths:  25.67131  25.67131  25.67131
Angles:   90.00000  90.00000  90.00000
Rectangular boundary conditions

net charge:   0.00000000

component   0 (CO2) lambda:  0 occupancy:  0 (0.000000)
    net charge:   0.00000000 [e]

Amount of molecules per component :
-------------------------------------------------------------------------------
Component 0 (CO2)
    molecules:         2.320000e+02 molecules
    number density:    1.371337e-02 molec/A^3
    density:           1.001922e+03 kg/m^3

Total potential energy/kʙ       -3.273640e+05 [K]
-------------------------------------------------------------------------------
    external field VDW/kʙ        0.000000e+00 [K]
    external field Real/kʙ       0.000000e+00 [K]
    framework-molecule VDW/kʙ    0.000000e+00 [K]
    framework-molecule Real/kʙ   0.000000e+00 [K]
    molecule-molecule VDW/kʙ    -2.362312e+05 [K]
    molecule-molecule Real/kʙ   -7.339307e+04 [K]
    Van der Waals (Tail)/kʙ     -7.670248e+03 [K]
    Ewald Fourier/kʙ             1.098814e+04 [K]
    Ewald self/kʙ               -4.667538e+06 [K]
    Ewald exclusion/kʙ           4.646480e+06 [K]
    intra VDW/kʙ                 0.000000e+00 [K]
    intra Coulombic/kʙ           0.000000e+00 [K]
    polarization/kʙ              0.000000e+00 [K]
    dU/dlambda VDW/kʙ            0.000000e+00 [K]
    dU/dlambda Real/kʙ           0.000000e+00 [K]
    dU/dlambda Ewald/kʙ          0.000000e+00 [K]


Initialization: Current cycle: 1100 out of 2000
===============================================================================

Box:      25.72921   0.00000   0.00000
           0.00000  25.72921   0.00000
           0.00000   0.00000  25.72921
Lengths:  25.72921  25.72921  25.72921
Angles:   90.00000  90.00000  90.00000
Rectangular boundary conditions

net charge:   0.00000000

component   0 (CO2) lambda:  0 occupancy:  0 (0.000000)
    net charge:   0.00000000 [e]

Amount of molecules per component :
-------------------------------------------------------------------------------
Component 0 (CO2)
    molecules:         2.350000e+02 molecules
    number density:    1.379712e-02 molec/A^3
    density:           1.008041e+03 kg/m^3

Total potential energy/kʙ       -3.386914e+05 [K]
-------------------------------------------------------------------------------
    external field VDW/kʙ        0.000000e+00 [K]
    external field Real/kʙ       0.000000e+00 [K]
    framework-molecule VDW/kʙ    0.000000e+00 [K]
    framework-molecule Real/kʙ   0.000000e+00 [K]
    molecule-molecule VDW/kʙ    -2.472906e+05 [K]
    molecule-molecule Real/kʙ   -7.230977e+04 [K]
    Van der Waals (Tail)/kʙ     -7.816881e+03 [K]
    Ewald Fourier/kʙ             1.005574e+04 [K]
    Ewald self/kʙ               -4.727894e+06 [K]
    Ewald exclusion/kʙ           4.706564e+06 [K]
    intra VDW/kʙ                 0.000000e+00 [K]
    intra Coulombic/kʙ           0.000000e+00 [K]
    polarization/kʙ              0.000000e+00 [K]
    dU/dlambda VDW/kʙ            0.000000e+00 [K]
    dU/dlambda Real/kʙ           0.000000e+00 [K]
    dU/dlambda Ewald/kʙ          0.000000e+00 [K]


Initialization: Current cycle: 1200 out of 2000
===============================================================================

Box:      25.86668   0.00000   0.00000
           0.00000  25.86668   0.00000
           0.00000   0.00000  25.86668
Lengths:  25.86668  25.86668  25.86668
Angles:   90.00000  90.00000  90.00000
Rectangular boundary conditions

net charge:   0.00000000

component   0 (CO2) lambda:  0 occupancy:  0 (0.000000)
    net charge:   0.00000000 [e]

Amount of molecules per component :
-------------------------------------------------------------------------------
Component 0 (CO2)
    molecules:         2.400000e+02 molecules
    number density:    1.386721e-02 molec/A^3
    density:           1.013162e+03 kg/m^3

Total potential energy/kʙ       -3.521878e+05 [K]
-------------------------------------------------------------------------------
    external field VDW/kʙ        0.000000e+00 [K]
    external field Real/kʙ       0.000000e+00 [K]
    framework-molecule VDW/kʙ    0.000000e+00 [K]
    framework-molecule Real/kʙ   0.000000e+00 [K]
    molecule-molecule VDW/kʙ    -2.584775e+05 [K]
    molecule-molecule Real/kʙ   -7.395209e+04 [K]
    Van der Waals (Tail)/kʙ     -8.023753e+03 [K]
    Ewald Fourier/kʙ             1.004923e+04 [K]
    Ewald self/kʙ               -4.828487e+06 [K]
    Ewald exclusion/kʙ           4.806703e+06 [K]
    intra VDW/kʙ                 0.000000e+00 [K]
    intra Coulombic/kʙ           0.000000e+00 [K]
    polarization/kʙ              0.000000e+00 [K]
    dU/dlambda VDW/kʙ            0.000000e+00 [K]
    dU/dlambda Real/kʙ           0.000000e+00 [K]
    dU/dlambda Ewald/kʙ          0.000000e+00 [K]


Initialization: Current cycle: 1300 out of 2000
===============================================================================

Box:      25.72862   0.00000   0.00000
           0.00000  25.72862   0.00000
           0.00000   0.00000  25.72862
Lengths:  25.72862  25.72862  25.72862
Angles:   90.00000  90.00000  90.00000
Rectangular boundary conditions

net charge:   0.00000000

component   0 (CO2) lambda:  0 occupancy:  0 (0.000000)
    net charge:   0.00000000 [e]

Amount of molecules per component :
-------------------------------------------------------------------------------
Component 0 (CO2)
    molecules:         2.350000e+02 molecules
    number density:    1.379807e-02 molec/A^3
    density:           1.008110e+03 kg/m^3

Total potential energy/kʙ       -3.364192e+05 [K]
-------------------------------------------------------------------------------
    external field VDW/kʙ        0.000000e+00 [K]
    external field Real/kʙ       0.000000e+00 [K]
    framework-molecule VDW/kʙ    0.000000e+00 [K]
    framework-molecule Real/kʙ   0.000000e+00 [K]
    molecule-molecule VDW/kʙ    -2.467890e+05 [K]
    molecule-molecule Real/kʙ   -7.104942e+04 [K]
    Van der Waals (Tail)/kʙ     -7.817419e+03 [K]
    Ewald Fourier/kʙ             1.056657e+04 [K]
    Ewald self/kʙ               -4.727894e+06 [K]
    Ewald exclusion/kʙ           4.706564e+06 [K]
    intra VDW/kʙ                 0.000000e+00 [K]
    intra Coulombic/kʙ           0.000000e+00 [K]
    polarization/kʙ              0.000000e+00 [K]
    dU/dlambda VDW/kʙ            0.000000e+00 [K]
    dU/dlambda Real/kʙ           0.000000e+00 [K]
    dU/dlambda Ewald/kʙ          0.000000e+00 [K]


Initialization: Current cycle: 1400 out of 2000
===============================================================================

Box:      25.30581   0.00000   0.00000
           0.00000  25.30581   0.00000
           0.00000   0.00000  25.30581
Lengths:  25.30581  25.30581  25.30581
Angles:   90.00000  90.00000  90.00000
Rectangular boundary conditions

net charge:   0.00000000

component   0 (CO2) lambda:  0 occupancy:  0 (0.000000)
    net charge:   0.00000000 [e]

Amount of molecules per component :
-------------------------------------------------------------------------------
Component 0 (CO2)
    molecules:         2.290000e+02 molecules
    number density:    1.413106e-02 molec/A^3
    density:           1.032439e+03 kg/m^3

Total potential energy/kʙ       -3.388376e+05 [K]
-------------------------------------------------------------------------------
    external field VDW/kʙ        0.000000e+00 [K]
    external field Real/kʙ       0.000000e+00 [K]
    framework-molecule VDW/kʙ    0.000000e+00 [K]
    framework-molecule Real/kʙ   0.000000e+00 [K]
    molecule-molecule VDW/kʙ    -2.472299e+05 [K]
    molecule-molecule Real/kʙ   -7.260770e+04 [K]
    Van der Waals (Tail)/kʙ     -7.801666e+03 [K]
    Ewald Fourier/kʙ             9.586936e+03 [K]
    Ewald self/kʙ               -4.607182e+06 [K]
    Ewald exclusion/kʙ           4.586396e+06 [K]
    intra VDW/kʙ                 0.000000e+00 [K]
    intra Coulombic/kʙ           0.000000e+00 [K]
    polarization/kʙ              0.000000e+00 [K]
    dU/dlambda VDW/kʙ            0.000000e+00 [K]
    dU/dlambda Real/kʙ           0.000000e+00 [K]
    dU/dlambda Ewald/kʙ          0.000000e+00 [K]


Initialization: Current cycle: 1500 out of 2000
===============================================================================

Box:      25.71902   0.00000   0.00000
           0.00000  25.71902   0.00000
           0.00000   0.00000  25.71902
Lengths:  25.71902  25.71902  25.71902
Angles:   90.00000  90.00000  90.00000
Rectangular boundary conditions

net charge:   0.00000000

component   0 (CO2) lambda:  0 occupancy:  0 (0.000000)
    net charge:   0.00000000 [e]

Amount of molecules per component :
-------------------------------------------------------------------------------
Component 0 (CO2)
    molecules:         2.240000e+02 molecules
    number density:    1.316694e-02 molec/A^3
    density:           9.619995e+02 kg/m^3

Total potential energy/kʙ       -3.174511e+05 [K]
-------------------------------------------------------------------------------
    external field VDW/kʙ        0.000000e+00 [K]
    external field Real/kʙ       0.000000e+00 [K]
    framework-molecule VDW/kʙ    0.000000e+00 [K]
    framework-molecule Real/kʙ   0.000000e+00 [K]
    molecule-molecule VDW/kʙ    -2.275694e+05 [K]
    molecule-molecule Real/kʙ   -7.142142e+04 [K]
    Van der Waals (Tail)/kʙ     -7.110666e+03 [K]
    Ewald Fourier/kʙ             8.981907e+03 [K]
    Ewald self/kʙ               -4.506588e+06 [K]
    Ewald exclusion/kʙ           4.486257e+06 [K]
    intra VDW/kʙ                 0.000000e+00 [K]
    intra Coulombic/kʙ           0.000000e+00 [K]
    polarization/kʙ              0.000000e+00 [K]
    dU/dlambda VDW/kʙ            0.000000e+00 [K]
    dU/dlambda Real/kʙ           0.000000e+00 [K]
    dU/dlambda Ewald/kʙ          0.000000e+00 [K]


Initialization: Current cycle: 1600 out of 2000
===============================================================================

Box:      25.22603   0.00000   0.00000
           0.00000  25.22603   0.00000
           0.00000   0.00000  25.22603
Lengths:  25.22603  25.22603  25.22603
Angles:   90.00000  90.00000  90.00000
Rectangular boundary conditions

net charge:   0.00000000

component   0 (CO2) lambda:  0 occupancy:  0 (0.000000)
    net charge:   0.00000000 [e]

Amount of molecules per component :
-------------------------------------------------------------------------------
Component 0 (CO2)
    molecules:         2.270000e+02 molecules
    number density:    1.414096e-02 molec/A^3
    density:           1.033163e+03 kg/m^3

Total potential energy/kʙ       -3.453979e+05 [K]
-------------------------------------------------------------------------------
    external field VDW/kʙ        0.000000e+00 [K]
    external field Real/kʙ       0.000000e+00 [K]
    framework-molecule VDW/kʙ    0.000000e+00 [K]
    framework-molecule Real/kʙ   0.000000e+00 [K]
    molecule-molecule VDW/kʙ    -2.456845e+05 [K]
    molecule-molecule Real/kʙ   -8.046213e+04 [K]
    Van der Waals (Tail)/kʙ     -7.738952e+03 [K]
    Ewald Fourier/kʙ             9.091431e+03 [K]
    Ewald self/kʙ               -4.566944e+06 [K]
    Ewald exclusion/kʙ           4.546340e+06 [K]
    intra VDW/kʙ                 0.000000e+00 [K]
    intra Coulombic/kʙ           0.000000e+00 [K]
    polarization/kʙ              0.000000e+00 [K]
    dU/dlambda VDW/kʙ            0.000000e+00 [K]
    dU/dlambda Real/kʙ           0.000000e+00 [K]
    dU/dlambda Ewald/kʙ          0.000000e+00 [K]


Initialization: Current cycle: 1700 out of 2000
===============================================================================

Box:      25.05689   0.00000   0.00000
           0.00000  25.05689   0.00000
           0.00000   0.00000  25.05689
Lengths:  25.05689  25.05689  25.05689
Angles:   90.00000  90.00000  90.00000
Rectangular boundary conditions

net charge:   0.00000000

component   0 (CO2) lambda:  0 occupancy:  0 (0.000000)
    net charge:   0.00000000 [e]

Amount of molecules per component :
-------------------------------------------------------------------------------
Component 0 (CO2)
    molecules:         2.220000e+02 molecules
    number density:    1.411145e-02 molec/A^3
    density:           1.031007e+03 kg/m^3

Total potential energy/kʙ       -3.186469e+05 [K]
-------------------------------------------------------------------------------
    external field VDW/kʙ        0.000000e+00 [K]
    external field Real/kʙ       0.000000e+00 [K]
    framework-molecule VDW/kʙ    0.000000e+00 [K]
    framework-molecule Real/kʙ   0.000000e+00 [K]
    molecule-molecule VDW/kʙ    -2.342660e+05 [K]
    molecule-molecule Real/kʙ   -6.640421e+04 [K]
    Van der Waals (Tail)/kʙ     -7.552695e+03 [K]
    Ewald Fourier/kʙ             9.725971e+03 [K]
    Ewald self/kʙ               -4.466351e+06 [K]
    Ewald exclusion/kʙ           4.446201e+06 [K]
    intra VDW/kʙ                 0.000000e+00 [K]
    intra Coulombic/kʙ           0.000000e+00 [K]
    polarization/kʙ              0.000000e+00 [K]
    dU/dlambda VDW/kʙ            0.000000e+00 [K]
    dU/dlambda Real/kʙ           0.000000e+00 [K]
    dU/dlambda Ewald/kʙ          0.000000e+00 [K]


Initialization: Current cycle: 1800 out of 2000
===============================================================================

Box:      25.28645   0.00000   0.00000
           0.00000  25.28645   0.00000
           0.00000   0.00000  25.28645
Lengths:  25.28645  25.28645  25.28645
Angles:   90.00000  90.00000  90.00000
Rectangular boundary conditions

net charge:   0.00000000

component   0 (CO2) lambda:  0 occupancy:  0 (0.000000)
    net charge:   0.00000000 [e]

Amount of molecules per component :
-------------------------------------------------------------------------------
Component 0 (CO2)
    molecules:         2.310000e+02 molecules
    number density:    1.428724e-02 molec/A^3
    density:           1.043850e+03 kg/m^3

Total potential energy/kʙ       -3.360038e+05 [K]
-------------------------------------------------------------------------------
    external field VDW/kʙ        0.000000e+00 [K]
    external field Real/kʙ       0.000000e+00 [K]
    framework-molecule VDW/kʙ    0.000000e+00 [K]
    framework-molecule Real/kʙ   0.000000e+00 [K]
    molecule-molecule VDW/kʙ    -2.472969e+05 [K]
    molecule-molecule Real/kʙ   -6.976339e+04 [K]
    Van der Waals (Tail)/kʙ     -7.956786e+03 [K]
    Ewald Fourier/kʙ             9.980098e+03 [K]
    Ewald self/kʙ               -4.647419e+06 [K]
    Ewald exclusion/kʙ           4.626452e+06 [K]
    intra VDW/kʙ                 0.000000e+00 [K]
    intra Coulombic/kʙ           0.000000e+00 [K]
    polarization/kʙ              0.000000e+00 [K]
    dU/dlambda VDW/kʙ            0.000000e+00 [K]
    dU/dlambda Real/kʙ           0.000000e+00 [K]
    dU/dlambda Ewald/kʙ          0.000000e+00 [K]


Initialization: Current cycle: 1900 out of 2000
===============================================================================

Box:      25.11448   0.00000   0.00000
           0.00000  25.11448   0.00000
           0.00000   0.00000  25.11448
Lengths:  25.11448  25.11448  25.11448
Angles:   90.00000  90.00000  90.00000
Rectangular boundary conditions

net charge:   0.00000000

component   0 (CO2) lambda:  0 occupancy:  0 (0.000000)
    net charge:   0.00000000 [e]

Amount of molecules per component :
-------------------------------------------------------------------------------
Component 0 (CO2)
    molecules:         2.340000e+02 molecules
    number density:    1.477213e-02 molec/A^3
    density:           1.079277e+03 kg/m^3

Total potential energy/kʙ       -3.616725e+05 [K]
-------------------------------------------------------------------------------
    external field VDW/kʙ        0.000000e+00 [K]
    external field Real/kʙ       0.000000e+00 [K]
    framework-molecule VDW/kʙ    0.000000e+00 [K]
    framework-molecule Real/kʙ   0.000000e+00 [K]
    molecule-molecule VDW/kʙ    -2.571081e+05 [K]
    molecule-molecule Real/kʙ   -8.381834e+04 [K]
    Van der Waals (Tail)/kʙ     -8.333672e+03 [K]
    Ewald Fourier/kʙ             8.826699e+03 [K]
    Ewald self/kʙ               -4.707775e+06 [K]
    Ewald exclusion/kʙ           4.686536e+06 [K]
    intra VDW/kʙ                 0.000000e+00 [K]
    intra Coulombic/kʙ           0.000000e+00 [K]
    polarization/kʙ              0.000000e+00 [K]
    dU/dlambda VDW/kʙ            0.000000e+00 [K]
    dU/dlambda Real/kʙ           0.000000e+00 [K]
    dU/dlambda Ewald/kʙ          0.000000e+00 [K]


Current cycle: 0 out of 6000
===============================================================================

Box:      25.41275   0.00000   0.00000  Average:  25.41275   0.00000   0.00000
           0.00000  25.41275   0.00000             0.00000  25.41275   0.00000
           0.00000   0.00000  25.41275             0.00000   0.00000  25.41275
Lengths:  25.41275  25.41275  25.41275  Average:  25.41275  25.41275  25.41275
Angles:   90.00000  90.00000  90.00000  Average:  90.00000  90.00000  90.00000
Rectangular boundary conditions

net charge:   0.00000000

component 0 (CO2) lambda:  0 occupancy:  0 (0.000000)
    net charge:   0.00000000 [e]

Amount of molecules per component :
-------------------------------------------------------------------------------
Component 0 (CO2)
    molecules:      2.320000e+02 molecules  (2.320000e+02 +/- 0.000000e+00)
    number density: 1.413622e-02 molec./A^3 (1.413622e-02 +/- 0.000000e+00)
    density:        1.032816e+03 kg/m^3     (1.032816e+03 +/- 0.000000e+00)

Average pressure tensor: 
-------------------------------------------------------------------------------
 4.8793e+02  0.0000e+00  0.0000e+00 +/- 0.0000e+00 0.0000e+00 0.0000e+00 [bar]
 0.0000e+00  4.8793e+02  0.0000e+00 +/- 0.0000e+00 0.0000e+00 0.0000e+00 [bar]
 0.0000e+00  0.0000e+00  4.8793e+02 +/- 0.0000e+00 0.0000e+00 0.0000e+00 [bar]
Ideal-gas pressure:   4.879293e+02 +/ 0.000000e+00 [bar]
Excess pressure:      0.000000e+00 +/ 0.000000e+00 [bar]
Pressure:             4.879293e+02 +/ 0.000000e+00 [bar]

Total potential energy/kʙ  -3.484890e+05 (-3.484890e+05 +/- 0.000000e+00) [K]
-------------------------------------------------------------------------------
ExternalField-molecule
    Van der Waals/kʙ        0.000000e+00 ( 0.000000e+00 +/- 0.000000e+00) [K]
Framework-molecule
    Van der Waals/kʙ        0.000000e+00 ( 0.000000e+00 +/- 0.000000e+00) [K]
    Van der Waals (Tail)/kʙ 0.000000e+00 ( 0.000000e+00 +/- 0.000000e+00) [K]
    Coulombic Real/kʙ       0.000000e+00 ( 0.000000e+00 +/- 0.000000e+00) [K]
    Coulombic Fourier/kʙ    0.000000e+00 ( 0.000000e+00 +/- 0.000000e+00) [K]
Molecule-molecule
    Van der Waals/kʙ       -2.540286e+05 (-2.540286e+05 +/- 0.000000e+00) [K]
    Van der Waals (Tail)/kʙ-7.906759e+03 (-7.906759e+03 +/- 0.000000e+00) [K]
    Coulombic Real/kʙ      -7.490864e+04 (-7.490864e+04 +/- 0.000000e+00) [K]
    Coulombic Fourier/kʙ   -1.164505e+04 (-1.164505e+04 +/- 0.000000e+00) [K]
    Molecule Intra/kʙ       0.000000e+00 ( 0.000000e+00 +/- 0.000000e+00) [K]

Current cycle: 100 out of 6000
===============================================================================

Box:      25.53790   0.00000   0.00000  Average:  25.55469   0.00000   0.00000
           0.00000  25.53790   0.00000             0.00000  25.55469   0.00000
           0.00000   0.00000  25.53790             0.00000   0.00000  25.55469
Lengths:  25.53790  25.53790  25.53790  Average:  25.55469  25.55469  25.55469
Angles:   90.00000  90.00000  90.00000  Average:  90.00000  90.00000  90.00000
Rectangular boundary conditions

net charge:   0.00000000

component 0 (CO2) lambda:  0 occupancy:  0 (0.000000)
    net charge:   0.00000000 [e]

Amount of molecules per component :
-------------------------------------------------------------------------------
Component 0 (CO2)
    molecules:      2.330000e+02 molecules  (2.335248e+02 +/- 0.000000e+00)
    number density: 1.398943e-02 molec./A^3 (1.399353e-02 +/- 0.000000e+00)
    density:        1.022092e+03 kg/m^3     (1.022392e+03 +/- 0.000000e+00)

Average pressure tensor: 
-------------------------------------------------------------------------------
-1.9084e+02  7.0312e+01  1.3757e+02 +/- 0.0000e+00 0.0000e+00 0.0000e+00 [bar]
 7.0312e+01  1.6734e+02 -4.0896e+01 +/- 0.0000e+00 0.0000e+00 0.0000e+00 [bar]
 1.3757e+02 -4.0896e+01  2.5958e+01 +/- 0.0000e+00 0.0000e+00 0.0000e+00 [bar]
Ideal-gas pressure:   4.830044e+02 +/ 0.000000e+00 [bar]
Excess pressure:     -4.821836e+02 +/ 0.000000e+00 [bar]
Pressure:             8.208242e-01 +/ 0.000000e+00 [bar]

Total potential energy/kʙ  -3.412388e+05 (-3.458972e+05 +/- 0.000000e+00) [K]
-------------------------------------------------------------------------------
ExternalField-molecule
    Van der Waals/kʙ        0.000000e+00 ( 0.000000e+00 +/- 0.000000e+00) [K]
Framework-molecule
    Van der Waals/kʙ        0.000000e+00 ( 0.000000e+00 +/- 0.000000e+00) [K]
    Van der Waals (Tail)/kʙ 0.000000e+00 ( 0.000000e+00 +/- 0.000000e+00) [K]
    Coulombic Real/kʙ       0.000000e+00 ( 0.000000e+00 +/- 0.000000e+00) [K]
    Coulombic Fourier/kʙ    0.000000e+00 ( 0.000000e+00 +/- 0.000000e+00) [K]
Molecule-molecule
    Van der Waals/kʙ       -2.466080e+05 (-2.484692e+05 +/- 0.000000e+00) [K]
    Van der Waals (Tail)/kʙ-7.858386e+03 (-7.903151e+03 +/- 0.000000e+00) [K]
    Coulombic Real/kʙ      -7.548872e+04 (-7.797993e+04 +/- 0.000000e+00) [K]
    Coulombic Fourier/kʙ   -1.128367e+04 (-1.154492e+04 +/- 0.000000e+00) [K]
    Molecule Intra/kʙ       0.000000e+00 ( 0.000000e+00 +/- 0.000000e+00) [K]

Current cycle: 200 out of 6000
===============================================================================

Box:      25.64450   0.00000   0.00000  Average:  25.54751   0.00000   0.00000
           0.00000  25.64450   0.00000             0.00000  25.54751   0.00000
           0.00000   0.00000  25.64450             0.00000   0.00000  25.54751
Lengths:  25.64450  25.64450  25.64450  Average:  25.54751  25.54751  25.54751
Angles:   90.00000  90.00000  90.00000  Average:  90.00000  90.00000  90.00000
Rectangular boundary conditions

net charge:   0.00000000

component 0 (CO2) lambda:  0 occupancy:  0 (0.000000)
    net charge:   0.00000000 [e]

Amount of molecules per component :
-------------------------------------------------------------------------------
Component 0 (CO2)
    molecules:      2.330000e+02 molecules  (2.334527e+02 +/- 0.000000e+00)
    number density: 1.381571e-02 molec./A^3 (1.400166e-02 +/- 0.000000e+00)
    density:        1.009399e+03 kg/m^3     (1.022985e+03 +/- 0.000000e+00)

Average pressure tensor: 
-------------------------------------------------------------------------------
-9.0265e+01  4.0288e+01  7.3200e+01 +/- 0.0000e+00 0.0000e+00 0.0000e+00 [bar]
 4.0288e+01  1.8604e+02  5.6496e+01 +/- 0.0000e+00 0.0000e+00 0.0000e+00 [bar]
 7.3200e+01  5.6496e+01 -5.1081e+00 +/- 0.0000e+00 0.0000e+00 0.0000e+00 [bar]
Ideal-gas pressure:   4.832850e+02 +/ 0.000000e+00 [bar]
Excess pressure:     -4.530637e+02 +/ 0.000000e+00 [bar]
Pressure:             3.022127e+01 +/ 0.000000e+00 [bar]

Total potential energy/kʙ  -3.466560e+05 (-3.451799e+05 +/- 0.000000e+00) [K]
-------------------------------------------------------------------------------
ExternalField-molecule
    Van der Waals/kʙ        0.000000e+00 ( 0.000000e+00 +/- 0.000000e+00) [K]
Framework-molecule
    Van der Waals/kʙ        0.000000e+00 ( 0.000000e+00 +/- 0.000000e+00) [K]
    Van der Waals (Tail)/kʙ 0.000000e+00 ( 0.000000e+00 +/- 0.000000e+00) [K]
    Coulombic Real/kʙ       0.000000e+00 ( 0.000000e+00 +/- 0.000000e+00) [K]
    Coulombic Fourier/kʙ    0.000000e+00 ( 0.000000e+00 +/- 0.000000e+00) [K]
Molecule-molecule
    Van der Waals/kʙ       -2.468221e+05 (-2.474778e+05 +/- 0.000000e+00) [K]
    Van der Waals (Tail)/kʙ-7.760798e+03 (-7.888686e+03 +/- 0.000000e+00) [K]
    Coulombic Real/kʙ      -8.015888e+04 (-7.827246e+04 +/- 0.000000e+00) [K]
    Coulombic Fourier/kʙ   -1.191419e+04 (-1.154096e+04 +/- 0.000000e+00) [K]
    Molecule Intra/kʙ       0.000000e+00 ( 0.000000e+00 +/- 0.000000e+00) [K]

Current cycle: 300 out of 6000
===============================================================================

Box:      25.78658   0.00000   0.00000  Average:  25.59447   0.00000   0.00000
           0.00000  25.78658   0.00000             0.00000  25.59447   0.00000
           0.00000   0.00000  25.78658             0.00000   0.00000  25.59447
Lengths:  25.78658  25.78658  25.78658  Average:  25.59447  25.59447  25.59447
Angles:   90.00000  90.00000  90.00000  Average:  90.00000  90.00000  90.00000
Rectangular boundary conditions

net charge:   0.00000000

component 0 (CO2) lambda:  0 occupancy:  0 (0.000000)
    net charge:   0.00000000 [e]

Amount of molecules per component :
-------------------------------------------------------------------------------
Component 0 (CO2)
    molecules:      2.360000e+02 molecules  (2.345714e+02 +/- 0.000000e+00)
    number density: 1.376356e-02 molec./A^3 (1.399119e-02 +/- 0.000000e+00)
    density:        1.005589e+03 kg/m^3     (1.022220e+03 +/- 0.000000e+00)

Average pressure tensor: 
-------------------------------------------------------------------------------
-4.2476e+01  6.5397e+01  1.1460e+02 +/- 0.0000e+00 0.0000e+00 0.0000e+00 [bar]
 6.5397e+01  9.7380e+01  3.0834e+01 +/- 0.0000e+00 0.0000e+00 0.0000e+00 [bar]
 1.1460e+02  3.0834e+01 -7.6870e+00 +/- 0.0000e+00 0.0000e+00 0.0000e+00 [bar]
Ideal-gas pressure:   4.829235e+02 +/ 0.000000e+00 [bar]
Excess pressure:     -4.671847e+02 +/ 0.000000e+00 [bar]
Pressure:             1.573879e+01 +/ 0.000000e+00 [bar]

Total potential energy/kʙ  -3.483782e+05 (-3.480318e+05 +/- 0.000000e+00) [K]
-------------------------------------------------------------------------------
ExternalField-molecule
    Van der Waals/kʙ        0.000000e+00 ( 0.000000e+00 +/- 0.000000e+00) [K]
Framework-molecule
    Van der Waals/kʙ        0.000000e+00 ( 0.000000e+00 +/- 0.000000e+00) [K]
    Van der Waals (Tail)/kʙ 0.000000e+00 ( 0.000000e+00 +/- 0.000000e+00) [K]
    Coulombic Real/kʙ       0.000000e+00 ( 0.000000e+00 +/- 0.000000e+00) [K]
    Coulombic Fourier/kʙ    0.000000e+00 ( 0.000000e+00 +/- 0.000000e+00) [K]
Molecule-molecule
    Van der Waals/kʙ       -2.496957e+05 (-2.495421e+05 +/- 0.000000e+00) [K]
    Van der Waals (Tail)/kʙ-7.831052e+03 (-7.938680e+03 +/- 0.000000e+00) [K]
    Coulombic Real/kʙ      -7.894492e+04 (-7.886530e+04 +/- 0.000000e+00) [K]
    Coulombic Fourier/kʙ   -1.190646e+04 (-1.168564e+04 +/- 0.000000e+00) [K]
    Molecule Intra/kʙ       0.000000e+00 ( 0.000000e+00 +/- 0.000000e+00) [K]

Current cycle: 400 out of 6000
===============================================================================

Box:      25.68343   0.00000   0.00000  Average:  25.61819   0.00000   0.00000
           0.00000  25.68343   0.00000             0.00000  25.61819   0.00000
           0.00000   0.00000  25.68343             0.00000   0.00000  25.61819
Lengths:  25.68343  25.68343  25.68343  Average:  25.61819  25.61819  25.61819
Angles:   90.00000  90.00000  90.00000  Average:  90.00000  90.00000  90.00000
Rectangular boundary conditions

net charge:   0.00000000

component 0 (CO2) lambda:  0 occupancy:  0 (0.000000)
    net charge:   0.00000000 [e]

Amount of molecules per component :
-------------------------------------------------------------------------------
Component 0 (CO2)
    molecules:      2.320000e+02 molecules  (2.348653e+02 +/- 0.000000e+00)
    number density: 1.369396e-02 molec./A^3 (1.397004e-02 +/- 0.000000e+00)
    density:        1.000504e+03 kg/m^3     (1.020675e+03 +/- 0.000000e+00)

Average pressure tensor: 
-------------------------------------------------------------------------------
-7.3347e+01  3.6273e+01  7.6693e+01 +/- 0.0000e+00 0.0000e+00 0.0000e+00 [bar]
 3.6273e+01  6.8907e+01  1.6461e+01 +/- 0.0000e+00 0.0000e+00 0.0000e+00 [bar]
 7.6693e+01  1.6461e+01  1.5421e+01 +/- 0.0000e+00 0.0000e+00 0.0000e+00 [bar]
Ideal-gas pressure:   4.821936e+02 +/ 0.000000e+00 [bar]
Excess pressure:     -4.785334e+02 +/ 0.000000e+00 [bar]
Pressure:             3.660213e+00 +/ 0.000000e+00 [bar]

Total potential energy/kʙ  -3.316759e+05 (-3.477780e+05 +/- 0.000000e+00) [K]
-------------------------------------------------------------------------------
ExternalField-molecule
    Van der Waals/kʙ        0.000000e+00 ( 0.000000e+00 +/- 0.000000e+00) [K]
Framework-molecule
    Van der Waals/kʙ        0.000000e+00 ( 0.000000e+00 +/- 0.000000e+00) [K]
    Van der Waals (Tail)/kʙ 0.000000e+00 ( 0.000000e+00 +/- 0.000000e+00) [K]
    Coulombic Real/kʙ       0.000000e+00 ( 0.000000e+00 +/- 0.000000e+00) [K]
    Coulombic Fourier/kʙ    0.000000e+00 ( 0.000000e+00 +/- 0.000000e+00) [K]
Molecule-molecule
    Van der Waals/kʙ       -2.339163e+05 (-2.492098e+05 +/- 0.000000e+00) [K]
    Van der Waals (Tail)/kʙ-7.659395e+03 (-7.927351e+03 +/- 0.000000e+00) [K]
    Coulombic Real/kʙ      -7.935704e+04 (-7.885982e+04 +/- 0.000000e+00) [K]
    Coulombic Fourier/kʙ   -1.074308e+04 (-1.178103e+04 +/- 0.000000e+00) [K]
    Molecule Intra/kʙ       0.000000e+00 ( 0.000000e+00 +/- 0.000000e+00) [K]

Current cycle: 500 out of 6000
===============================================================================

Box:      26.04498   0.00000   0.00000  Average:  25.67888   0.00000   0.00000
           0.00000  26.04498   0.00000             0.00000  25.67888   0.00000
           0.00000   0.00000  26.04498             0.00000   0.00000  25.67888
Lengths:  26.04498  26.04498  26.04498  Average:  25.67888  25.67888  25.67888
Angles:   90.00000  90.00000  90.00000  Average:  90.00000  90.00000  90.00000
Rectangular boundary conditions

net charge:   0.00000000

component 0 (CO2) lambda:  0 occupancy:  0 (0.000000)
    net charge:   0.00000000 [e]

Amount of molecules per component :
-------------------------------------------------------------------------------
Component 0 (CO2)
    molecules:      2.340000e+02 molecules  (2.351936e+02 +/- 0.000000e+00)
    number density: 1.324475e-02 molec./A^3 (1.389228e-02 +/- 0.000000e+00)
    density:        9.676844e+02 kg/m^3     (1.014994e+03 +/- 0.000000e+00)

Average pressure tensor: 
-------------------------------------------------------------------------------
-3.1236e+01  2.7285e+01  5.3544e+01 +/- 0.0000e+00 0.0000e+00 0.0000e+00 [bar]
 2.7285e+01  4.3910e+01  2.8059e+01 +/- 0.0000e+00 0.0000e+00 0.0000e+00 [bar]
 5.3544e+01  2.8059e+01  2.5119e+00 +/- 0.0000e+00 0.0000e+00 0.0000e+00 [bar]
Ideal-gas pressure:   4.795095e+02 +/ 0.000000e+00 [bar]
Excess pressure:     -4.744474e+02 +/ 0.000000e+00 [bar]
Pressure:             5.062056e+00 +/ 0.000000e+00 [bar]

Total potential energy/kʙ  -3.283861e+05 (-3.456800e+05 +/- 0.000000e+00) [K]
-------------------------------------------------------------------------------
ExternalField-molecule
    Van der Waals/kʙ        0.000000e+00 ( 0.000000e+00 +/- 0.000000e+00) [K]
Framework-molecule
    Van der Waals/kʙ        0.000000e+00 ( 0.000000e+00 +/- 0.000000e+00) [K]
    Van der Waals (Tail)/kʙ 0.000000e+00 ( 0.000000e+00 +/- 0.000000e+00) [K]
    Coulombic Real/kʙ       0.000000e+00 ( 0.000000e+00 +/- 0.000000e+00) [K]
    Coulombic Fourier/kʙ    0.000000e+00 ( 0.000000e+00 +/- 0.000000e+00) [K]
Molecule-molecule
    Van der Waals/kʙ       -2.333766e+05 (-2.478028e+05 +/- 0.000000e+00) [K]
    Van der Waals (Tail)/kʙ-7.472003e+03 (-7.881733e+03 +/- 0.000000e+00) [K]
    Coulombic Real/kʙ      -7.626686e+04 (-7.831960e+04 +/- 0.000000e+00) [K]
    Coulombic Fourier/kʙ   -1.127072e+04 (-1.167591e+04 +/- 0.000000e+00) [K]
    Molecule Intra/kʙ       0.000000e+00 ( 0.000000e+00 +/- 0.000000e+00) [K]

Current cycle: 600 out of 6000
===============================================================================

Box:      26.10418   0.00000   0.00000  Average:  25.75157   0.00000   0.00000
           0.00000  26.10418   0.00000             0.00000  25.75157   0.00000
           0.00000   0.00000  26.10418             0.00000   0.00000  25.75157
Lengths:  26.10418  26.10418  26.10418  Average:  25.75157  25.75157  25.75157
Angles:   90.00000  90.00000  90.00000  Average:  90.00000  90.00000  90.00000
Rectangular boundary conditions

net charge:   0.00000000

component 0 (CO2) lambda:  0 occupancy:  0 (0.000000)
    net charge:   0.00000000 [e]

Amount of molecules per component :
-------------------------------------------------------------------------------
Component 0 (CO2)
    molecules:      2.440000e+02 molecules  (2.356140e+02 +/- 0.000000e+00)
    number density: 1.371702e-02 molec./A^3 (1.380169e-02 +/- 0.000000e+00)
    density:        1.002189e+03 kg/m^3     (1.008375e+03 +/- 0.000000e+00)

Average pressure tensor: 
-------------------------------------------------------------------------------
-1.7893e+01  3.2242e+01  3.0986e+01 +/- 0.0000e+00 0.0000e+00 0.0000e+00 [bar]
 3.2242e+01  3.8098e+01  6.5097e+01 +/- 0.0000e+00 0.0000e+00 0.0000e+00 [bar]
 3.0986e+01  6.5097e+01  2.9296e+01 +/- 0.0000e+00 0.0000e+00 0.0000e+00 [bar]
Ideal-gas pressure:   4.763828e+02 +/ 0.000000e+00 [bar]
Excess pressure:     -4.598824e+02 +/ 0.000000e+00 [bar]
Pressure:             1.650048e+01 +/ 0.000000e+00 [bar]

Total potential energy/kʙ  -3.532100e+05 (-3.445098e+05 +/- 0.000000e+00) [K]
-------------------------------------------------------------------------------
ExternalField-molecule
    Van der Waals/kʙ        0.000000e+00 ( 0.000000e+00 +/- 0.000000e+00) [K]
Framework-molecule
    Van der Waals/kʙ        0.000000e+00 ( 0.000000e+00 +/- 0.000000e+00) [K]
    Van der Waals (Tail)/kʙ 0.000000e+00 ( 0.000000e+00 +/- 0.000000e+00) [K]
    Coulombic Real/kʙ       0.000000e+00 ( 0.000000e+00 +/- 0.000000e+00) [K]
    Coulombic Fourier/kʙ    0.000000e+00 ( 0.000000e+00 +/- 0.000000e+00) [K]
Molecule-molecule
    Van der Waals/kʙ       -2.535043e+05 (-2.469466e+05 +/- 0.000000e+00) [K]
    Van der Waals (Tail)/kʙ-8.069133e+03 (-7.861688e+03 +/- 0.000000e+00) [K]
    Coulombic Real/kʙ      -7.887629e+04 (-7.803315e+04 +/- 0.000000e+00) [K]
    Coulombic Fourier/kʙ   -1.276031e+04 (-1.166833e+04 +/- 0.000000e+00) [K]
    Molecule Intra/kʙ       0.000000e+00 ( 0.000000e+00 +/- 0.000000e+00) [K]

Current cycle: 700 out of 6000
===============================================================================

Box:      25.39736   0.00000   0.00000  Average:  25.74248   0.00000   0.00000
           0.00000  25.39736   0.00000             0.00000  25.74248   0.00000
           0.00000   0.00000  25.39736             0.00000   0.00000  25.74248
Lengths:  25.39736  25.39736  25.39736  Average:  25.74248  25.74248  25.74248
Angles:   90.00000  90.00000  90.00000  Average:  90.00000  90.00000  90.00000
Rectangular boundary conditions

net charge:   0.00000000

component 0 (CO2) lambda:  0 occupancy:  0 (0.000000)
    net charge:   0.00000000 [e]

Amount of molecules per component :
-------------------------------------------------------------------------------
Component 0 (CO2)
    molecules:      2.300000e+02 molecules  (2.352853e+02 +/- 0.000000e+00)
    number density: 1.403983e-02 molec./A^3 (1.379647e-02 +/- 0.000000e+00)
    density:        1.025774e+03 kg/m^3     (1.007994e+03 +/- 0.000000e+00)

Average pressure tensor: 
-------------------------------------------------------------------------------
-2.9929e+00  3.8937e+01  1.8807e+00 +/- 0.0000e+00 0.0000e+00 0.0000e+00 [bar]
 3.8937e+01  3.7497e+01  7.1784e+01 +/- 0.0000e+00 0.0000e+00 0.0000e+00 [bar]
 1.8807e+00  7.1784e+01  2.0303e+01 +/- 0.0000e+00 0.0000e+00 0.0000e+00 [bar]
Ideal-gas pressure:   4.762025e+02 +/ 0.000000e+00 [bar]
Excess pressure:     -4.579334e+02 +/ 0.000000e+00 [bar]
Pressure:             1.826905e+01 +/ 0.000000e+00 [bar]

Total potential energy/kʙ  -3.358221e+05 (-3.439389e+05 +/- 0.000000e+00) [K]
-------------------------------------------------------------------------------
ExternalField-molecule
    Van der Waals/kʙ        0.000000e+00 ( 0.000000e+00 +/- 0.000000e+00) [K]
Framework-molecule
    Van der Waals/kʙ        0.000000e+00 ( 0.000000e+00 +/- 0.000000e+00) [K]
    Van der Waals (Tail)/kʙ 0.000000e+00 ( 0.000000e+00 +/- 0.000000e+00) [K]
    Coulombic Real/kʙ       0.000000e+00 ( 0.000000e+00 +/- 0.000000e+00) [K]
    Coulombic Fourier/kʙ    0.000000e+00 ( 0.000000e+00 +/- 0.000000e+00) [K]
Molecule-molecule
    Van der Waals/kʙ       -2.433013e+05 (-2.468310e+05 +/- 0.000000e+00) [K]
    Van der Waals (Tail)/kʙ-7.785152e+03 (-7.854714e+03 +/- 0.000000e+00) [K]
    Coulombic Real/kʙ      -7.323120e+04 (-7.760234e+04 +/- 0.000000e+00) [K]
    Coulombic Fourier/kʙ   -1.150446e+04 (-1.165086e+04 +/- 0.000000e+00) [K]
    Molecule Intra/kʙ       0.000000e+00 ( 0.000000e+00 +/- 0.000000e+00) [K]

Current cycle: 800 out of 6000
===============================================================================

Box:      25.92073   0.00000   0.00000  Average:  25.74936   0.00000   0.00000
           0.00000  25.92073   0.00000             0.00000  25.74936   0.00000
           0.00000   0.00000  25.92073             0.00000   0.00000  25.74936
Lengths:  25.92073  25.92073  25.92073  Average:  25.74936  25.74936  25.74936
Angles:   90.00000  90.00000  90.00000  Average:  90.00000  90.00000  90.00000
Rectangular boundary conditions

net charge:   0.00000000

component 0 (CO2) lambda:  0 occupancy:  0 (0.000000)
    net charge:   0.00000000 [e]

Amount of molecules per component :
-------------------------------------------------------------------------------
Component 0 (CO2)
    molecules:      2.290000e+02 molecules  (2.351898e+02 +/- 0.000000e+00)
    number density: 1.314903e-02 molec./A^3 (1.377980e-02 +/- 0.000000e+00)
    density:        9.606904e+02 kg/m^3     (1.006776e+03 +/- 0.000000e+00)

Average pressure tensor: 
-------------------------------------------------------------------------------
 1.6498e+01  5.9182e+01  1.3361e+01 +/- 0.0000e+00 0.0000e+00 0.0000e+00 [bar]
 5.9182e+01  3.8589e+01  6.4571e+01 +/- 0.0000e+00 0.0000e+00 0.0000e+00 [bar]
 1.3361e+01  6.4571e+01  1.6484e+01 +/- 0.0000e+00 0.0000e+00 0.0000e+00 [bar]
Ideal-gas pressure:   4.756272e+02 +/ 0.000000e+00 [bar]
Excess pressure:     -4.517701e+02 +/ 0.000000e+00 [bar]
Pressure:             2.385712e+01 +/ 0.000000e+00 [bar]

Total potential energy/kʙ  -3.135078e+05 (-3.427342e+05 +/- 0.000000e+00) [K]
-------------------------------------------------------------------------------
ExternalField-molecule
    Van der Waals/kʙ        0.000000e+00 ( 0.000000e+00 +/- 0.000000e+00) [K]
Framework-molecule
    Van der Waals/kʙ        0.000000e+00 ( 0.000000e+00 +/- 0.000000e+00) [K]
    Van der Waals (Tail)/kʙ 0.000000e+00 ( 0.000000e+00 +/- 0.000000e+00) [K]
    Coulombic Real/kʙ       0.000000e+00 ( 0.000000e+00 +/- 0.000000e+00) [K]
    Coulombic Fourier/kʙ    0.000000e+00 ( 0.000000e+00 +/- 0.000000e+00) [K]
Molecule-molecule
    Van der Waals/kʙ       -2.292356e+05 (-2.462271e+05 +/- 0.000000e+00) [K]
    Van der Waals (Tail)/kʙ-7.259495e+03 (-7.835180e+03 +/- 0.000000e+00) [K]
    Coulombic Real/kʙ      -6.569001e+04 (-7.708871e+04 +/- 0.000000e+00) [K]
    Coulombic Fourier/kʙ   -1.132270e+04 (-1.158323e+04 +/- 0.000000e+00) [K]
    Molecule Intra/kʙ       0.000000e+00 ( 0.000000e+00 +/- 0.000000e+00) [K]

Current cycle: 900 out of 6000
===============================================================================

Box:      25.50356   0.00000   0.00000  Average:  25.74096   0.00000   0.00000
           0.00000  25.50356   0.00000             0.00000  25.74096   0.00000
           0.00000   0.00000  25.50356             0.00000   0.00000  25.74096
Lengths:  25.50356  25.50356  25.50356  Average:  25.74096  25.74096  25.74096
Angles:   90.00000  90.00000  90.00000  Average:  90.00000  90.00000  90.00000
Rectangular boundary conditions

net charge:   0.00000000

component 0 (CO2) lambda:  0 occupancy:  0 (0.000000)
    net charge:   0.00000000 [e]

Amount of molecules per component :
-------------------------------------------------------------------------------
Component 0 (CO2)
    molecules:      2.300000e+02 molecules  (2.349600e+02 +/- 0.000000e+00)
    number density: 1.386517e-02 molec./A^3 (1.377993e-02 +/- 0.000000e+00)
    density:        1.013013e+03 kg/m^3     (1.006785e+03 +/- 0.000000e+00)

Average pressure tensor: 
-------------------------------------------------------------------------------
-3.5730e-02  5.6448e+01  2.1356e+01 +/- 0.0000e+00 0.0000e+00 0.0000e+00 [bar]
 5.6448e+01  4.1452e+01  5.9627e+01 +/- 0.0000e+00 0.0000e+00 0.0000e+00 [bar]
 2.1356e+01  5.9627e+01  3.0641e+01 +/- 0.0000e+00 0.0000e+00 0.0000e+00 [bar]
Ideal-gas pressure:   4.756317e+02 +/ 0.000000e+00 [bar]
Excess pressure:     -4.516128e+02 +/ 0.000000e+00 [bar]
Pressure:             2.401888e+01 +/ 0.000000e+00 [bar]

Total potential energy/kʙ  -3.418524e+05 (-3.422141e+05 +/- 0.000000e+00) [K]
-------------------------------------------------------------------------------
ExternalField-molecule
    Van der Waals/kʙ        0.000000e+00 ( 0.000000e+00 +/- 0.000000e+00) [K]
Framework-molecule
    Van der Waals/kʙ        0.000000e+00 ( 0.000000e+00 +/- 0.000000e+00) [K]
    Van der Waals (Tail)/kʙ 0.000000e+00 ( 0.000000e+00 +/- 0.000000e+00) [K]
    Coulombic Real/kʙ       0.000000e+00 ( 0.000000e+00 +/- 0.000000e+00) [K]
    Coulombic Fourier/kʙ    0.000000e+00 ( 0.000000e+00 +/- 0.000000e+00) [K]
Molecule-molecule
    Van der Waals/kʙ       -2.456683e+05 (-2.460562e+05 +/- 0.000000e+00) [K]
    Van der Waals (Tail)/kʙ-7.688302e+03 (-7.825258e+03 +/- 0.000000e+00) [K]
    Coulombic Real/kʙ      -7.719425e+04 (-7.676949e+04 +/- 0.000000e+00) [K]
    Coulombic Fourier/kʙ   -1.130154e+04 (-1.156312e+04 +/- 0.000000e+00) [K]
    Molecule Intra/kʙ       0.000000e+00 ( 0.000000e+00 +/- 0.000000e+00) [K]

Current cycle: 1000 out of 6000
===============================================================================

Box:      25.52889   0.00000   0.00000  Average:  25.70985   0.00000   0.00000
           0.00000  25.52889   0.00000             0.00000  25.70985   0.00000
           0.00000   0.00000  25.52889             0.00000   0.00000  25.70985
Lengths:  25.52889  25.52889  25.52889  Average:  25.70985  25.70985  25.70985
Angles:   90.00000  90.00000  90.00000  Average:  90.00000  90.00000  90.00000
Rectangular boundary conditions

net charge:   0.00000000

component 0 (CO2) lambda:  0 occupancy:  0 (0.000000)
    net charge:   0.00000000 [e]

Amount of molecules per component :
-------------------------------------------------------------------------------
Component 0 (CO2)
    molecules:      2.320000e+02 molecules  (2.347522e+02 +/- 0.000000e+00)
    number density: 1.394415e-02 molec./A^3 (1.381809e-02 +/- 0.000000e+00)
    density:        1.018784e+03 kg/m^3     (1.009573e+03 +/- 0.000000e+00)

Average pressure tensor: 
-------------------------------------------------------------------------------
 1.0582e+00  5.0519e+01  3.3865e+01 +/- 0.0000e+00 0.0000e+00 0.0000e+00 [bar]
 5.0519e+01  3.4282e+01  6.1873e+01 +/- 0.0000e+00 0.0000e+00 0.0000e+00 [bar]
 3.3865e+01  6.1873e+01  3.0107e+01 +/- 0.0000e+00 0.0000e+00 0.0000e+00 [bar]
Ideal-gas pressure:   4.769486e+02 +/ 0.000000e+00 [bar]
Excess pressure:     -4.551330e+02 +/ 0.000000e+00 [bar]
Pressure:             2.181565e+01 +/ 0.000000e+00 [bar]

Total potential energy/kʙ  -3.457897e+05 (-3.429087e+05 +/- 0.000000e+00) [K]
-------------------------------------------------------------------------------
ExternalField-molecule
    Van der Waals/kʙ        0.000000e+00 ( 0.000000e+00 +/- 0.000000e+00) [K]
Framework-molecule
    Van der Waals/kʙ        0.000000e+00 ( 0.000000e+00 +/- 0.000000e+00) [K]
    Van der Waals (Tail)/kʙ 0.000000e+00 ( 0.000000e+00 +/- 0.000000e+00) [K]
    Coulombic Real/kʙ       0.000000e+00 ( 0.000000e+00 +/- 0.000000e+00) [K]
    Coulombic Fourier/kʙ    0.000000e+00 ( 0.000000e+00 +/- 0.000000e+00) [K]
Molecule-molecule
    Van der Waals/kʙ       -2.485915e+05 (-2.463036e+05 +/- 0.000000e+00) [K]
    Van der Waals (Tail)/kʙ-7.799331e+03 (-7.837353e+03 +/- 0.000000e+00) [K]
    Coulombic Real/kʙ      -7.849567e+04 (-7.718012e+04 +/- 0.000000e+00) [K]
    Coulombic Fourier/kʙ   -1.090319e+04 (-1.158761e+04 +/- 0.000000e+00) [K]
    Molecule Intra/kʙ       0.000000e+00 ( 0.000000e+00 +/- 0.000000e+00) [K]

Current cycle: 1100 out of 6000
===============================================================================

Box:      25.37637   0.00000   0.00000  Average:  25.69511   0.00000   0.00000
           0.00000  25.37637   0.00000             0.00000  25.69511   0.00000
           0.00000   0.00000  25.37637             0.00000   0.00000  25.69511
Lengths:  25.37637  25.37637  25.37637  Average:  25.69511  25.69511  25.69511
Angles:   90.00000  90.00000  90.00000  Average:  90.00000  90.00000  90.00000
Rectangular boundary conditions

net charge:   0.00000000

component 0 (CO2) lambda:  0 occupancy:  0 (0.000000)
    net charge:   0.00000000 [e]

Amount of molecules per component :
-------------------------------------------------------------------------------
Component 0 (CO2)
    molecules:      2.320000e+02 molecules  (2.345477e+02 +/- 0.000000e+00)
    number density: 1.419710e-02 molec./A^3 (1.382974e-02 +/- 0.000000e+00)
    density:        1.037265e+03 kg/m^3     (1.010425e+03 +/- 0.000000e+00)

Average pressure tensor: 
-------------------------------------------------------------------------------
 5.1602e+00  4.5587e+01  2.8852e+01 +/- 0.0000e+00 0.0000e+00 0.0000e+00 [bar]
 4.5587e+01  4.2615e+01  6.5512e+01 +/- 0.0000e+00 0.0000e+00 0.0000e+00 [bar]
 2.8852e+01  6.5512e+01  4.2369e+01 +/- 0.0000e+00 0.0000e+00 0.0000e+00 [bar]
Ideal-gas pressure:   4.773510e+02 +/ 0.000000e+00 [bar]
Excess pressure:     -4.473030e+02 +/ 0.000000e+00 [bar]
Pressure:             3.004805e+01 +/ 0.000000e+00 [bar]

Total potential energy/kʙ  -3.415133e+05 (-3.423746e+05 +/- 0.000000e+00) [K]
-------------------------------------------------------------------------------
ExternalField-molecule
    Van der Waals/kʙ        0.000000e+00 ( 0.000000e+00 +/- 0.000000e+00) [K]
Framework-molecule
    Van der Waals/kʙ        0.000000e+00 ( 0.000000e+00 +/- 0.000000e+00) [K]
    Van der Waals (Tail)/kʙ 0.000000e+00 ( 0.000000e+00 +/- 0.000000e+00) [K]
    Coulombic Real/kʙ       0.000000e+00 ( 0.000000e+00 +/- 0.000000e+00) [K]
    Coulombic Fourier/kʙ    0.000000e+00 ( 0.000000e+00 +/- 0.000000e+00) [K]
Molecule-molecule
    Van der Waals/kʙ       -2.463385e+05 (-2.462944e+05 +/- 0.000000e+00) [K]
    Van der Waals (Tail)/kʙ-7.940814e+03 (-7.839238e+03 +/- 0.000000e+00) [K]
    Coulombic Real/kʙ      -7.591086e+04 (-7.673829e+04 +/- 0.000000e+00) [K]
    Coulombic Fourier/kʙ   -1.132311e+04 (-1.150270e+04 +/- 0.000000e+00) [K]
    Molecule Intra/kʙ       0.000000e+00 ( 0.000000e+00 +/- 0.000000e+00) [K]

Current cycle: 1200 out of 6000
===============================================================================

Box:      25.31540   0.00000   0.00000  Average:  25.66911   0.00000   0.00000
           0.00000  25.31540   0.00000             0.00000  25.66911   0.00000
           0.00000   0.00000  25.31540             0.00000   0.00000  25.66911
Lengths:  25.31540  25.31540  25.31540  Average:  25.66911  25.66911  25.66911
Angles:   90.00000  90.00000  90.00000  Average:  90.00000  90.00000  90.00000
Rectangular boundary conditions

net charge:   0.00000000

component 0 (CO2) lambda:  0 occupancy:  0 (0.000000)
    net charge:   0.00000000 [e]

Amount of molecules per component :
-------------------------------------------------------------------------------
Component 0 (CO2)
    molecules:      2.320000e+02 molecules  (2.339334e+02 +/- 0.000000e+00)
    number density: 1.429992e-02 molec./A^3 (1.383493e-02 +/- 0.000000e+00)
    density:        1.044777e+03 kg/m^3     (1.010804e+03 +/- 0.000000e+00)

Average pressure tensor: 
-------------------------------------------------------------------------------
 1.3165e+01  4.2737e+01  3.5755e+01 +/- 0.0000e+00 0.0000e+00 0.0000e+00 [bar]
 4.2737e+01  4.8391e+01  6.3192e+01 +/- 0.0000e+00 0.0000e+00 0.0000e+00 [bar]
 3.5755e+01  6.3192e+01  2.5116e+01 +/- 0.0000e+00 0.0000e+00 0.0000e+00 [bar]
Ideal-gas pressure:   4.775300e+02 +/ 0.000000e+00 [bar]
Excess pressure:     -4.486393e+02 +/ 0.000000e+00 [bar]
Pressure:             2.889074e+01 +/ 0.000000e+00 [bar]

Total potential energy/kʙ  -3.516656e+05 (-3.415574e+05 +/- 0.000000e+00) [K]
-------------------------------------------------------------------------------
ExternalField-molecule
    Van der Waals/kʙ        0.000000e+00 ( 0.000000e+00 +/- 0.000000e+00) [K]
Framework-molecule
    Van der Waals/kʙ        0.000000e+00 ( 0.000000e+00 +/- 0.000000e+00) [K]
    Van der Waals (Tail)/kʙ 0.000000e+00 ( 0.000000e+00 +/- 0.000000e+00) [K]
    Coulombic Real/kʙ       0.000000e+00 ( 0.000000e+00 +/- 0.000000e+00) [K]
    Coulombic Fourier/kʙ    0.000000e+00 ( 0.000000e+00 +/- 0.000000e+00) [K]
Molecule-molecule
    Van der Waals/kʙ       -2.568131e+05 (-2.458570e+05 +/- 0.000000e+00) [K]
    Van der Waals (Tail)/kʙ-7.998322e+03 (-7.823092e+03 +/- 0.000000e+00) [K]
    Coulombic Real/kʙ      -7.599764e+04 (-7.645528e+04 +/- 0.000000e+00) [K]
    Coulombic Fourier/kʙ   -1.085658e+04 (-1.142206e+04 +/- 0.000000e+00) [K]
    Molecule Intra/kʙ       0.000000e+00 ( 0.000000e+00 +/- 0.000000e+00) [K]

Current cycle: 1300 out of 6000
===============================================================================

Box:      25.05838   0.00000   0.00000  Average:  25.64843   0.00000   0.00000
           0.00000  25.05838   0.00000             0.00000  25.64843   0.00000
           0.00000   0.00000  25.05838             0.00000   0.00000  25.64843
Lengths:  25.05838  25.05838  25.05838  Average:  25.64843  25.64843  25.64843
Angles:   90.00000  90.00000  90.00000  Average:  90.00000  90.00000  90.00000
Rectangular boundary conditions

net charge:   0.00000000

component 0 (CO2) lambda:  0 occupancy:  0 (0.000000)
    net charge:   0.00000000 [e]

Amount of molecules per component :
-------------------------------------------------------------------------------
Component 0 (CO2)
    molecules:      2.290000e+02 molecules  (2.339631e+02 +/- 0.000000e+00)
    number density: 1.455380e-02 molec./A^3 (1.387066e-02 +/- 0.000000e+00)
    density:        1.063325e+03 kg/m^3     (1.013415e+03 +/- 0.000000e+00)

Average pressure tensor: 
-------------------------------------------------------------------------------
 2.3778e+01  3.3982e+01  4.7428e+01 +/- 0.0000e+00 0.0000e+00 0.0000e+00 [bar]
 3.3982e+01  4.5924e+01  5.8633e+01 +/- 0.0000e+00 0.0000e+00 0.0000e+00 [bar]
 4.7428e+01  5.8633e+01  2.0134e+00 +/- 0.0000e+00 0.0000e+00 0.0000e+00 [bar]
Ideal-gas pressure:   4.787634e+02 +/ 0.000000e+00 [bar]
Excess pressure:     -4.548585e+02 +/ 0.000000e+00 [bar]
Pressure:             2.390496e+01 +/ 0.000000e+00 [bar]

Total potential energy/kʙ  -3.341933e+05 (-3.422664e+05 +/- 0.000000e+00) [K]
-------------------------------------------------------------------------------
ExternalField-molecule
    Van der Waals/kʙ        0.000000e+00 ( 0.000000e+00 +/- 0.000000e+00) [K]
Framework-molecule
    Van der Waals/kʙ        0.000000e+00 ( 0.000000e+00 +/- 0.000000e+00) [K]
    Van der Waals (Tail)/kʙ 0.000000e+00 ( 0.000000e+00 +/- 0.000000e+00) [K]
    Coulombic Real/kʙ       0.000000e+00 ( 0.000000e+00 +/- 0.000000e+00) [K]
    Coulombic Fourier/kʙ    0.000000e+00 ( 0.000000e+00 +/- 0.000000e+00) [K]
Molecule-molecule
    Van der Waals/kʙ       -2.456504e+05 (-2.466554e+05 +/- 0.000000e+00) [K]
    Van der Waals (Tail)/kʙ-8.035059e+03 (-7.844431e+03 +/- 0.000000e+00) [K]
    Coulombic Real/kʙ      -7.013128e+04 (-7.639480e+04 +/- 0.000000e+00) [K]
    Coulombic Fourier/kʙ   -1.037654e+04 (-1.137176e+04 +/- 0.000000e+00) [K]
    Molecule Intra/kʙ       0.000000e+00 ( 0.000000e+00 +/- 0.000000e+00) [K]

Current cycle: 1400 out of 6000
===============================================================================

Box:      25.45003   0.00000   0.00000  Average:  25.63252   0.00000   0.00000
           0.00000  25.45003   0.00000             0.00000  25.63252   0.00000
           0.00000   0.00000  25.45003             0.00000   0.00000  25.63252
Lengths:  25.45003  25.45003  25.45003  Average:  25.63252  25.63252  25.63252
Angles:   90.00000  90.00000  90.00000  Average:  90.00000  90.00000  90.00000
Rectangular boundary conditions

net charge:   0.00000000

component 0 (CO2) lambda:  0 occupancy:  0 (0.000000)
    net charge:   0.00000000 [e]

Amount of molecules per component :
-------------------------------------------------------------------------------
Component 0 (CO2)
    molecules:      2.320000e+02 molecules  (2.337737e+02 +/- 0.000000e+00)
    number density: 1.407418e-02 molec./A^3 (1.388526e-02 +/- 0.000000e+00)
    density:        1.028284e+03 kg/m^3     (1.014481e+03 +/- 0.000000e+00)

Average pressure tensor: 
-------------------------------------------------------------------------------
 3.4674e+01  2.5589e+01  4.4485e+01 +/- 0.0000e+00 0.0000e+00 0.0000e+00 [bar]
 2.5589e+01  2.5763e+01  6.2307e+01 +/- 0.0000e+00 0.0000e+00 0.0000e+00 [bar]
 4.4485e+01  6.2307e+01 -1.5608e+00 +/- 0.0000e+00 0.0000e+00 0.0000e+00 [bar]
Ideal-gas pressure:   4.792671e+02 +/ 0.000000e+00 [bar]
Excess pressure:     -4.596415e+02 +/ 0.000000e+00 [bar]
Pressure:             1.962560e+01 +/ 0.000000e+00 [bar]

Total potential energy/kʙ  -3.434094e+05 (-3.420591e+05 +/- 0.000000e+00) [K]
-------------------------------------------------------------------------------
ExternalField-molecule
    Van der Waals/kʙ        0.000000e+00 ( 0.000000e+00 +/- 0.000000e+00) [K]
Framework-molecule
    Van der Waals/kʙ        0.000000e+00 ( 0.000000e+00 +/- 0.000000e+00) [K]
    Van der Waals (Tail)/kʙ 0.000000e+00 ( 0.000000e+00 +/- 0.000000e+00) [K]
    Coulombic Real/kʙ       0.000000e+00 ( 0.000000e+00 +/- 0.000000e+00) [K]
    Coulombic Fourier/kʙ    0.000000e+00 ( 0.000000e+00 +/- 0.000000e+00) [K]
Molecule-molecule
    Van der Waals/kʙ       -2.501745e+05 (-2.467889e+05 +/- 0.000000e+00) [K]
    Van der Waals (Tail)/kʙ-7.872060e+03 (-7.840751e+03 +/- 0.000000e+00) [K]
    Coulombic Real/kʙ      -7.410636e+04 (-7.608318e+04 +/- 0.000000e+00) [K]
    Coulombic Fourier/kʙ   -1.125650e+04 (-1.134626e+04 +/- 0.000000e+00) [K]
    Molecule Intra/kʙ       0.000000e+00 ( 0.000000e+00 +/- 0.000000e+00) [K]

Current cycle: 1500 out of 6000
===============================================================================

Box:      25.66811   0.00000   0.00000  Average:  25.62776   0.00000   0.00000
           0.00000  25.66811   0.00000             0.00000  25.62776   0.00000
           0.00000   0.00000  25.66811             0.00000   0.00000  25.62776
[...]
    number density: 1.469689e-02 molec./A^3 (1.416405e-02 +/- 3.852650e-04)
    density:        1.073780e+03 kg/m^3     (1.034850e+03 +/- 2.814812e+01)

Average pressure tensor: 
-------------------------------------------------------------------------------
 1.6020e+00  2.1369e+01  3.2035e+01 +/- 5.3833e+01 3.6218e+01 6.4538e+01 [bar]
 2.1369e+01  4.4321e+00  4.2217e+00 +/- 3.6218e+01 6.4721e+01 7.9622e+01 [bar]
 3.2035e+01  4.2217e+00 -6.8955e+00 +/- 6.4538e+01 7.9622e+01 8.5650e+01 [bar]
Ideal-gas pressure:   4.888900e+02 +/ 1.329791e+01 [bar]
Excess pressure:     -4.891772e+02 +/ 4.672276e+01 [bar]
Pressure:            -2.871497e-01 +/ 4.617579e+01 [bar]

Total potential energy/kʙ  -3.582058e+05 (-3.429887e+05 +/- 1.924502e+03) [K]
-------------------------------------------------------------------------------
ExternalField-molecule
    Van der Waals/kʙ        0.000000e+00 ( 0.000000e+00 +/- 0.000000e+00) [K]
Framework-molecule
    Van der Waals/kʙ        0.000000e+00 ( 0.000000e+00 +/- 0.000000e+00) [K]
    Van der Waals (Tail)/kʙ 0.000000e+00 ( 0.000000e+00 +/- 0.000000e+00) [K]
    Coulombic Real/kʙ       0.000000e+00 ( 0.000000e+00 +/- 0.000000e+00) [K]
    Coulombic Fourier/kʙ    0.000000e+00 ( 0.000000e+00 +/- 0.000000e+00) [K]
Molecule-molecule
    Van der Waals/kʙ       -2.561782e+05 (-2.473984e+05 +/- 1.569956e+03) [K]
    Van der Waals (Tail)/kʙ-8.114058e+03 (-7.855545e+03 +/- 3.351587e+01) [K]
    Coulombic Real/kʙ      -8.165956e+04 (-7.618837e+04 +/- 8.192880e+02) [K]
    Coulombic Fourier/kʙ   -1.225396e+04 (-1.154637e+04 +/- 1.255091e+02) [K]
    Molecule Intra/kʙ       0.000000e+00 ( 0.000000e+00 +/- 0.000000e+00) [K]

Current cycle: 5800 out of 6000
===============================================================================

Box:      25.13175   0.00000   0.00000  Average:  25.32243   0.00000   0.00000
           0.00000  25.13175   0.00000             0.00000  25.32243   0.00000
           0.00000   0.00000  25.13175             0.00000   0.00000  25.32243
Lengths:  25.13175  25.13175  25.13175  Average:  25.32243  25.32243  25.32243
Angles:   90.00000  90.00000  90.00000  Average:  90.00000  90.00000  90.00000
Rectangular boundary conditions

net charge:   0.00000000

component 0 (CO2) lambda:  0 occupancy:  0 (0.000000)
    net charge:   0.00000000 [e]

Amount of molecules per component :
-------------------------------------------------------------------------------
Component 0 (CO2)
    molecules:      2.310000e+02 molecules  (2.299729e+02 +/- 5.633906e+00)
    number density: 1.455271e-02 molec./A^3 (1.416934e-02 +/- 3.791615e-04)
    density:        1.063246e+03 kg/m^3     (1.035236e+03 +/- 2.770219e+01)

Average pressure tensor: 
-------------------------------------------------------------------------------
-4.0694e-01  2.1739e+01  3.5758e+01 +/- 4.6983e+01 3.6145e+01 6.9774e+01 [bar]
 2.1739e+01  6.4564e+00  4.8728e+00 +/- 3.6145e+01 6.3883e+01 7.2181e+01 [bar]
 3.5758e+01  4.8728e+00 -7.3088e+00 +/- 6.9774e+01 7.2181e+01 8.0119e+01 [bar]
Ideal-gas pressure:   4.890726e+02 +/ 1.308724e+01 [bar]
Excess pressure:     -4.894924e+02 +/ 4.541341e+01 [bar]
Pressure:            -4.197894e-01 +/ 4.400615e+01 [bar]

Total potential energy/kʙ  -3.435154e+05 (-3.430420e+05 +/- 1.779476e+03) [K]
-------------------------------------------------------------------------------
ExternalField-molecule
    Van der Waals/kʙ        0.000000e+00 ( 0.000000e+00 +/- 0.000000e+00) [K]
Framework-molecule
    Van der Waals/kʙ        0.000000e+00 ( 0.000000e+00 +/- 0.000000e+00) [K]
    Van der Waals (Tail)/kʙ 0.000000e+00 ( 0.000000e+00 +/- 0.000000e+00) [K]
    Coulombic Real/kʙ       0.000000e+00 ( 0.000000e+00 +/- 0.000000e+00) [K]
    Coulombic Fourier/kʙ    0.000000e+00 ( 0.000000e+00 +/- 0.000000e+00) [K]
Molecule-molecule
    Van der Waals/kʙ       -2.466510e+05 (-2.474368e+05 +/- 1.478523e+03) [K]
    Van der Waals (Tail)/kʙ-8.104629e+03 (-7.856783e+03 +/- 3.139480e+01) [K]
    Coulombic Real/kʙ      -7.709123e+04 (-7.620005e+04 +/- 8.017836e+02) [K]
    Coulombic Fourier/kʙ   -1.166853e+04 (-1.154830e+04 +/- 1.231041e+02) [K]
    Molecule Intra/kʙ       0.000000e+00 ( 0.000000e+00 +/- 0.000000e+00) [K]

Current cycle: 5900 out of 6000
===============================================================================

Box:      25.05646   0.00000   0.00000  Average:  25.31853   0.00000   0.00000
           0.00000  25.05646   0.00000             0.00000  25.31853   0.00000
           0.00000   0.00000  25.05646             0.00000   0.00000  25.31853
Lengths:  25.05646  25.05646  25.05646  Average:  25.31853  25.31853  25.31853
Angles:   90.00000  90.00000  90.00000  Average:  90.00000  90.00000  90.00000
Rectangular boundary conditions

net charge:   0.00000000

component 0 (CO2) lambda:  0 occupancy:  0 (0.000000)
    net charge:   0.00000000 [e]

Amount of molecules per component :
-------------------------------------------------------------------------------
Component 0 (CO2)
    molecules:      2.340000e+02 molecules  (2.299720e+02 +/- 5.352005e+00)
    number density: 1.487498e-02 molec./A^3 (1.417586e-02 +/- 3.775129e-04)
    density:        1.086792e+03 kg/m^3     (1.035713e+03 +/- 2.758174e+01)

Average pressure tensor: 
-------------------------------------------------------------------------------
-4.2496e+00  2.2327e+01  3.5835e+01 +/- 3.9723e+01 3.6133e+01 6.7873e+01 [bar]
 2.2327e+01  6.3248e+00  4.8943e+00 +/- 3.6133e+01 6.3889e+01 6.7877e+01 [bar]
 3.5835e+01  4.8943e+00 -8.5530e+00 +/- 6.7873e+01 6.7877e+01 7.4073e+01 [bar]
Ideal-gas pressure:   4.892977e+02 +/ 1.303033e+01 [bar]
Excess pressure:     -4.914570e+02 +/ 4.285329e+01 [bar]
Pressure:            -2.159283e+00 +/ 3.955931e+01 [bar]

Total potential energy/kʙ  -3.633061e+05 (-3.432254e+05 +/- 1.575117e+03) [K]
-------------------------------------------------------------------------------
ExternalField-molecule
    Van der Waals/kʙ        0.000000e+00 ( 0.000000e+00 +/- 0.000000e+00) [K]
Framework-molecule
    Van der Waals/kʙ        0.000000e+00 ( 0.000000e+00 +/- 0.000000e+00) [K]
    Van der Waals (Tail)/kʙ 0.000000e+00 ( 0.000000e+00 +/- 0.000000e+00) [K]
    Coulombic Real/kʙ       0.000000e+00 ( 0.000000e+00 +/- 0.000000e+00) [K]
    Coulombic Fourier/kʙ    0.000000e+00 ( 0.000000e+00 +/- 0.000000e+00) [K]
Molecule-molecule
    Van der Waals/kʙ       -2.659634e+05 (-2.475912e+05 +/- 1.345577e+03) [K]
    Van der Waals (Tail)/kʙ-8.391694e+03 (-7.859642e+03 +/- 2.966960e+01) [K]
    Coulombic Real/kʙ      -7.674293e+04 (-7.622243e+04 +/- 7.848247e+02) [K]
    Coulombic Fourier/kʙ   -1.220816e+04 (-1.155219e+04 +/- 1.208154e+02) [K]
    Molecule Intra/kʙ       0.000000e+00 ( 0.000000e+00 +/- 0.000000e+00) [K]


Energy statistics             |  Energy [K]   | Recomputed [K]|  Drift [K]    |
===============================================================================
Total potential energy/kʙ     | -3.592593e+05 | -3.593770e+05 |  1.177162e+02 |
    external field VDW/kʙ     |  0.000000e+00 |  0.000000e+00 |  0.000000e+00 |
    external field Real/kʙ    |  0.000000e+00 |  0.000000e+00 |  0.000000e+00 |
    framework-molecule VDW/kʙ |  0.000000e+00 |  0.000000e+00 |  0.000000e+00 |
    framework-molecule Real/kʙ|  0.000000e+00 |  0.000000e+00 |  0.000000e+00 |
    molecule-molecule VDW/kʙ  | -2.572170e+05 | -2.573347e+05 |  1.176989e+02 |
    molecule-molecule Real/kʙ | -8.171266e+04 | -8.171268e+04 |  1.730033e-02 |
    Van der Waals (Tail)/kʙ   | -8.306570e+03 | -8.306570e+03 |  0.000000e+00 |
    Ewald Fourier/kʙ          |  8.943758e+03 |  8.943758e+03 |  2.844066e-11 |
    Ewald self/kʙ             | -4.647419e+06 | -4.647419e+06 |  0.000000e+00 |
    Ewald exclusion/kʙ        |  4.626452e+06 |  4.626452e+06 |  0.000000e+00 |
    intra VDW/kʙ              |  0.000000e+00 |  0.000000e+00 |  0.000000e+00 |
    intra Coulombic/kʙ        |  0.000000e+00 |  0.000000e+00 |  0.000000e+00 |
    polarization/kʙ           |  0.000000e+00 |  0.000000e+00 |  0.000000e+00 |
    dU/dlambda VDW/kʙ         |  0.000000e+00 |  0.000000e+00 |  0.000000e+00 |
    dU/dlambda Real/kʙ        |  0.000000e+00 |  0.000000e+00 |  0.000000e+00 |
    dU/dlambda Ewald/kʙ       |  0.000000e+00 |  0.000000e+00 |  0.000000e+00 |
-------------------------------------------------------------------------------


Monte-Carlo moves statistics
===============================================================================

    Gibbs volume         all:                3004
    Gibbs volume         total:              5983
    Gibbs volume         constructed:        5983
    Gibbs volume         accepted:           2383
    Gibbs volume         fraction:       0.398295
    Gibbs volume         max-change:     0.051868

Component 0 [CO2]
    Reinsertion (CBMC)   all:              149523
    Reinsertion (CBMC)   total:            149523
    Reinsertion (CBMC)   constructed:      135946
    Reinsertion (CBMC)   accepted:           3004
    Reinsertion (CBMC)   fraction:       0.020091
    Reinsertion (CBMC)   max-change:     0.000000

    Gibbs swap (CBMC)    all:              298511
    Gibbs swap (CBMC)    total:            597259
    Gibbs swap (CBMC)    constructed:      569396
    Gibbs swap (CBMC)    accepted:          42684
    Gibbs swap (CBMC)    fraction:       0.071466
    Gibbs swap (CBMC)    max-change:     0.000000

    Translation          all:              150219
    Translation          total:             50390      49744      50085
    Translation          constructed:       50390      49744      50085
    Translation          accepted:          24371      23694      25133
    Translation          fraction:       0.483648   0.476319   0.501807
    Translation          max-change:     0.701206   0.711198   0.672596

    Rotation             all:              148846
    Rotation             total:             49701      49444      49701
    Rotation             constructed:       49698      49444      49701
    Rotation             accepted:          22380      30486      26999
    Rotation             fraction:       0.450293   0.616576   0.543229
    Rotation             max-change:     0.765357   0.579637   0.666633



Production run counting of the MC moves summed over systems and components
===============================================================================

Reinsertion (CBMC)                   298805 (19.9203 [%])
Gibbs volume                           5983 (0.3989 [%])
Gibbs swap (CBMC)                    597259 (39.8173 [%])
Translation                          299866 (19.9911 [%])
Rotation                             298087 (19.8725 [%])

Production count MC-steps:          1500000 [-]
               All summed:          1500000 [-]
               difference:                0 [-]


Production run CPU timings of the MC moves
===============================================================================

Component 0 CO2

Rotation                             13.899698 [s]
    Ewald                             4.834830 [s]
    ExternalField-Molecule            0.005203 [s]
    Framework-Molecule                0.005344 [s]
    Molecule-Molecule                 8.719456 [s]
    Overhead                          0.334865 [s]

Reinsertion (CBMC)                   66.229446 [s]
    Ewald                             4.476953 [s]
    NonEwald                         61.666661 [s]
    Overhead                          0.085832 [s]

Translation                          14.044086 [s]
    Ewald                             4.875449 [s]
    ExternalField-Molecule            0.004796 [s]
    Framework-Molecule                0.008130 [s]
    Molecule-Molecule                 8.842574 [s]
    Overhead                          0.313137 [s]



Gibbs swap (CBMC)                    90.532862 [s]
    Ewald                            12.142395 [s]
    NonEwald                         77.289809 [s]
    Tail                              0.739930 [s]

Gibbs volume                         15.651050 [s]
    Ewald                             4.341057 [s]
    NonEwald                         10.780972 [s]
    Tail                              0.449531 [s]

Property sampling                     0.238727 [s]
Energy/pressure sampling:             6.847804 [s]


Production run CPU timings of the MC moves summed over systems and components
===============================================================================


Translation                          18.409844 [s]
    Ewald                             8.347956 [s]
    ExternalField-Molecule            0.009817 [s]
    Framework-Molecule                0.016196 [s]
    Molecule-Molecule                 9.373813 [s]
    Overhead                          0.662062 [s]

Rotation                             18.268611 [s]
    Ewald                             8.314190 [s]
    ExternalField-Molecule            0.010356 [s]
    Framework-Molecule                0.010792 [s]
    Molecule-Molecule                 9.243518 [s]
    Overhead                          0.689755 [s]

Reinsertion (CBMC)                   76.186686 [s]
    Ewald                             7.957097 [s]
    NonEwald                         67.861279 [s]
    Overhead                          0.368310 [s]

Gibbs volume                         31.197652 [s]
    Ewald                             8.661220 [s]
    NonEwald                         21.481991 [s]
    Tail                              0.898418 [s]
    Overhead                          0.156023 [s]

Gibbs swap (CBMC)                   209.664438 [s]
    Ewald                            25.568067 [s]
    NonEwald                        181.601906 [s]
    Tail                              1.749090 [s]
    Overhead                          0.745375 [s]

Property sampling:                    0.466815 [s]
Energy/pressure sampling:             7.109295 [s]

Production simulation time:         362.046127 [s]
                All summed:         361.303341 [s]
                  Overhead:           0.742786 [s]


Initalization simulation time:      114.348530 [s]
Equilibration simulation time:        0.000000 [s]
Production simulation time:         362.046127 [s]
Total simulation time:              476.394657 [s]


Energy averages and statistics:
===============================================================================

Framework-molecule energy:
-------------------------------------------------------------------------------



Framework-molecule energy contributions per energy type:
-------------------------------------------------------------------------------



Inter-molecular energy:
-------------------------------------------------------------------------------

    Inter-molecular energy/kʙ 0-0 [CO2-CO2]:
    ---------------------------------------------------------------------------
        Block[  0] -3.414732e+05
        Block[  1] -3.430411e+05
        Block[  2] -3.449056e+05
        Block[  3] -3.438322e+05
        Block[  4] -3.429699e+05
        -----------------------------------------------------------------------
        Average  -3.432444e+05 +/-  1.565299e+03 [K]



Inter-molecular energy contributions per energy type:
-------------------------------------------------------------------------------

    Van der Waals energy/kʙ 0-0 [CO2-CO2]:
    ---------------------------------------------------------------------------
        Block[  0] -2.457657e+05
        Block[  1] -2.483271e+05
        Block[  2] -2.482857e+05
        Block[  3] -2.481493e+05
        Block[  4] -2.474124e+05
        -----------------------------------------------------------------------
        Average  -2.475880e+05 +/-  1.345689e+03 [K]

    VDW Tail-Correction energy/kʙ 0-0 [CO2-CO2]:
    ---------------------------------------------------------------------------
        Block[  0] -7.821632e+03
        Block[  1] -7.871131e+03
        Block[  2] -7.886160e+03
        Block[  3] -7.861108e+03
        Block[  4] -7.854489e+03
        -----------------------------------------------------------------------
        Average  -7.858904e+03 +/-  2.980776e+01 [K]

    Coulomb Real energy/kʙ 0-0 [CO2-CO2]:
    ---------------------------------------------------------------------------
        Block[  0] -7.645910e+04
        Block[  1] -7.534192e+04
        Block[  2] -7.707834e+04
        Block[  3] -7.617755e+04
        Block[  4] -7.615779e+04
        -----------------------------------------------------------------------
        Average  -7.624294e+04 +/-  7.772781e+02 [K]

    Coulomb Fourier energy/kʙ 0-0 [CO2-CO2]:
    ---------------------------------------------------------------------------
        Block[  0] -1.142677e+04
        Block[  1] -1.150097e+04
        Block[  2] -1.165537e+04
        Block[  3] -1.164426e+04
        Block[  4] -1.154516e+04
        -----------------------------------------------------------------------
        Average  -1.155451e+04 +/-  1.202033e+02 [K]


Total energy/kʙ
-------------------------------------------------------------------------------
    Block[  0] -3.414732e+05
    Block[  1] -3.430411e+05
    Block[  2] -3.449056e+05
    Block[  3] -3.438322e+05
    Block[  4] -3.429699e+05
    ---------------------------------------------------------------------------
    Average  -3.432444e+05 +/-  1.565299e+03 [K]

Pressure averages and statistics:
===============================================================================

Average pressure tensor: 
-------------------------------------------------------------------------------
-7.4411e+00  2.4930e+01  3.5725e+01 +/- 3.6842e+01 3.6972e+01 6.6105e+01 [bar]
 2.4930e+01  7.5391e+00  4.5598e+00 +/- 3.6972e+01 6.3788e+01 6.5281e+01 [bar]
 3.5725e+01  4.5598e+00 -7.2973e+00 +/- 6.6105e+01 6.5281e+01 7.4059e+01 [bar]

    Block[  0]  4.775166e+07
    Block[  1]  4.826533e+07
    Block[  2]  4.873842e+07
    Block[  3]  4.966719e+07
    Block[  4]  5.030174e+07
    ---------------------------------------------------------------------------
    Ideal gas pressure   4.894487e+07 +/-  7.743431e-02 [Pa]
                         4.894487e+02 +/-  1.285828e+01 [bar]


    Block[  0] -4.487300e+07
    Block[  1] -5.008044e+07
    Block[  2] -4.901359e+07
    Block[  3] -5.419900e+07
    Block[  4] -4.775823e+07
    ---------------------------------------------------------------------------
    Excess pressure  -4.918485e+07 +/-  4.237400e+06 [Pa]
                     -4.918485e+02 +/-  4.237400e+01 [bar]


    Block[  0]  2.878667e+06
    Block[  1] -1.815103e+06
    Block[  2] -2.751686e+05
    Block[  3] -4.531804e+06
    Block[  4]  2.543512e+06
    ---------------------------------------------------------------------------
    Pressure average  -2.399792e+05 +/-  3.845326e+06 [Pa]
                      -2.399792e+00 +/-  3.845326e+01 [bar]


Enthalpy of adsorption
===============================================================================

Component 0 [CO2]
-------------------------------------------------------------------------------
    Block[  0] -2.015820e+03
    Block[  1] -2.590350e+03
    Block[  2] -2.377684e+03
    Block[  3] -2.457108e+03
    Block[  4] -2.294377e+03
    ---------------------------------------------------------------------------
    Enthalpy of adsorption: -2.347068e+03 +/-  2.667948e+02 [K]
                            -1.951461e+01 +/-  2.218256e+00 [kJ/mol]
    Warning: need to subtract the ideal-gas energy.


Densities
===============================================================================

Component 0 (CO2)
    Block[  0] 233.935
    Block[  1] 233.09583333333336
    Block[  2] 231.43416666666667
    Block[  3] 227.1266666666667
    Block[  4] 224.03083333333333
    -----------------------------------------------------------------------
    Density average   2.299245e+02 +/-  5.229786e+00 [molecules]
    Density average   1.418024e-02 +/-  3.725282e-04 [molec/A^3]
    Density average   1.036032e+03 +/-  2.721755e+01 [kg.m⁻³]

