Compiler and run-time data
===============================================================================
RASPA 3.0.4

Random seed: 2335905637

Compiled as a 64-bits application
Compiler: gcc Ubuntu Clang 18.1.3 (1ubuntu1)
Compile Date = Mar 15 2025, Compile Time = 19:39:45

2025-06-03 11:00:44.299539
Simulation started on Tue, Jun 03
The start time was 11:00:00

Hostname:    c108
OS type:     Linux on x86_64
OS release:  6.8.0-58-generic
OS version:  #60-Ubuntu SMP PREEMPT_DYNAMIC Fri Mar 14 18:29:48 UTC 2025


Mutual consistent basic set of units:
===============================================================================

Unit of temperature: 1 [K]
Unit of length:      1e-10 [m]
Unit of time:        1e-12 [s]
Unit of mass:        1.6605402e-27 [kg]
Unit of charge:      1.60217733e-19 [C/particle]


Boltzmann constant (internal units):          0.8314464919307584 [-]
represents conversion from energy (internal units) to temperature (in Kelvin)

Derived units and their conversion factors:
===============================================================================

Unit of energy:                           1.6605402000000002e-23 [J]
Unit of energy:                           10.000008872307538 [J.mol⁻¹]
Unit of velocity:                         100 [m.s⁻¹]
Unit of force:                            1.6605402000000002e-13 [N]
Unit of diffusion:                        1.0000000000000002e-08 [m².s⁻¹]
Unit of acceleration:                     1.0000000000000002e-08 [m².s⁻¹]
Unit of torque:                           1.6605402000000002e-23 [N.m]
Unit of pressure:                         16605402 [Pa]
Unit of volume:                           1e-30 [m³]
Unit of density:                          1660.5402 [kg.m⁻³]
Unit of dynamic viscosity:                1.6605401999999997e-05 [N.s.m⁻²]
Unit of enthalpy:                         1.6605402000000002e-23 [J]
Unit of polarizability:                   1.5458657349975198e-35 [-]
Unit of Coulomb potential:                167101.08000665612 [K]
Unit of dielectric constant:              1.5458657349975193e-05 [s².C².kg⁻¹.m⁻³]
Unit of dipole moment:                    1.60217733e-29 [C.m]
Unit of Debye:                            4.803206799099162 [C.m]
Unit of electric potential:               0.00010364272224473431 [V]
Unit of electric field:                   1036427.222447343 [V.m⁻¹]
Unit of isothermal compressibility:       6.02213665167516e-08 [Pa⁻¹]
Unit of heat capacity:                    10.000008872307538 [J.mol⁻¹.K⁻¹]
Unit of volumetric expansion coefficient: 1 [K⁻¹]


Internal conversion factors:
===============================================================================

Energy (internal units) to Kelvin:      1.202724284692786 [-]
Kelvin to energy (internal units):      0.8314457542157567 [-]


System definitions
===============================================================================

Temperature:          250 [K]
Beta:                 0.0048108928702210625 [-]
Pressure:             0 [Pa]
Helium void fraction: 1 [-]

Box:      30.00000   0.00000   0.00000
           0.00000  30.00000   0.00000
           0.00000   0.00000  30.00000
Lengths:  30.00000  30.00000  30.00000
Angles:   90.00000  90.00000  90.00000
Rectangular boundary conditions



Property measurement settings
===============================================================================




Pseudo-atoms
===============================================================================

  0 - C_co2    framework-atom: false
  1 - O_co2    framework-atom: false

  0 - C_co2    mass: 12.00000, charge:  0.70000
  1 - O_co2    mass: 15.99940, charge: -0.35000

  0 - C_co2    polarizability:  0.00000
  1 - O_co2    polarizability:  0.00000

  0 - J. J. Potoff et al., AIChE J. 2001, 47, 1676–1682.
  1 - J. J. Potoff et al., AIChE J. 2001, 47, 1676–1682.

Force field status
===============================================================================

Cutoff Framework-Molecule VDW:  12.00000 [Å]
Cutoff Molecule-Molecule VDW:   12.00000 [Å]
Cutoff Coulomb:                 12.00000 [Å]

Overlap-criteria VDW:           1.000000e+05 [K]

C_co2    - C_co2    Lennard-Jones p₀/kʙ:  27.00000 [K], p₁:  2.80000 [Å]
                                  shift:   0.00000 [K], tailcorrections: true
C_co2    - O_co2    Lennard-Jones p₀/kʙ:  46.18441 [K], p₁:  2.92500 [Å]
                                  shift:   0.00000 [K], tailcorrections: true
O_co2    - O_co2    Lennard-Jones p₀/kʙ:  79.00000 [K], p₁:  3.05000 [Å]
                                  shift:   0.00000 [K], tailcorrections: true

Ewald precision: 1e-06
Ewald alpha: 0.26505830360350674
Ewald k-vectors: 8 8 8


Component definitions
===============================================================================

Component 0 [CO2]

    Type: Adsorbate

    Critical temperature:  304.1282 [K]
    Critical pressure:     7377300 [Pa]
    Acentric factor:       0.22394 [-]

    Mol-fraction:                 1 [-]
    Swappable:                   true

    Mass:                         43.9988 [-]
    Fugacity coefficient:         -nan [-]
    Bulk fluid density:           0 [-]
    Compressibility:              1 [-]
    Excess molecules:             0 [-]

    Number Of Atoms:    3
    CBMC starting bead: 0
      0: O_co2  position  0.00000 -0.00000  1.16000, charge -0.35000
      1: C_co2  position  0.00000 -0.00000  0.00000, charge  0.70000
      2: O_co2  position  0.00000 -0.00000 -1.16000, charge -0.35000
    Diagonalized inertia-vector:      43.05758528 43.05758528 0.00000000
    Translational degrees of freedom: 3
    Rotational degrees of freedom:    2
    Shape of the molecule is: 'Linear'
    Net-charge:        0.00000000 [e]

    Move probabilities:
    Translation:                   0.199203 [-]
    Random translation:            0.000000 [-]
    Rotation:                      0.199203 [-]
    Random rotation:               0.000000 [-]
    Volume change:                 0.000000 [-]
    Reinsertion (CBMC):            0.199203 [-]
    Identity change (CBMC):        0.000000 [-]
    Swap:                          0.000000 [-]
    Swap (CBMC):                   0.000000 [-]
    Swap (CFCMC):                  0.000000 [-]
    Swap (CB/CFCMC):               0.000000 [-]
    Gibbs volume:                  0.003984 [-]
    Gibbs swap (CBMC):             0.398406 [-]
    Gibbs swap (CFCMC):            0.000000 [-]
    Widom:                         0.000000 [-]
    Widom (CFCMC):                 0.000000 [-]
    Widom (CB/CFCMC):              0.000000 [-]
    Parallel tempering:            0.000000 [-]
    Hybrid MC:                     0.000000 [-]

    number of blocking-pockets: 0

    number of bonds: 0





Number of pseudo-atoms
===============================================================================

Component   0 (CO2)
-------------------------------------------------------------------------------
    index   0 (C_co2): 40 atoms
    index   1 (O_co2): 80 atoms

Total number of pseudo-atoms:
-------------------------------------------------------------------------------
    index   0 (C_co2): 40 atoms
    index   1 (O_co2): 80 atoms




Energy status Recomputed from scratch
===============================================================================

Total potential energy/kʙ       -7.659218e+03 [K]
    external field VDW/kʙ        0.000000e+00 [K]
    external field Real/kʙ       0.000000e+00 [K]
    framework-molecule VDW/kʙ    0.000000e+00 [K]
    framework-molecule Real/kʙ   0.000000e+00 [K]
    molecule-molecule VDW/kʙ    -5.733511e+03 [K]
    molecule-molecule Real/kʙ   -1.791780e+03 [K]
    Van der Waals (Tail)/kʙ     -1.100506e+02 [K]
    Ewald Fourier/kʙ             2.328349e+03 [K]
    Ewald self/kʙ               -7.346713e+05 [K]
    Ewald exclusion/kʙ           7.323191e+05 [K]
    intra VDW/kʙ                 0.000000e+00 [K]
    intra Coulombic/kʙ           0.000000e+00 [K]
    polarization/kʙ              0.000000e+00 [K]
    dU/dlambda VDW/kʙ            0.000000e+00 [K]
    dU/dlambda Real/kʙ           0.000000e+00 [K]
    dU/dlambda Ewald/kʙ          0.000000e+00 [K]





Initialization: Current cycle: 0 out of 2000
===============================================================================

Box:      29.68836   0.00000   0.00000
           0.00000  29.68836   0.00000
           0.00000   0.00000  29.68836
Lengths:  29.68836  29.68836  29.68836
Angles:   90.00000  90.00000  90.00000
Rectangular boundary conditions

net charge:   0.00000000

component   0 (CO2) lambda:  0 occupancy:  1 (1.000000)
    net charge:   0.00000000 [e]

Amount of molecules per component :
-------------------------------------------------------------------------------
Component 0 (CO2)
    molecules:         4.300000e+01 molecules
    number density:    1.643273e-03 molec/A^3
    density:           1.200603e+02 kg/m^3

Total potential energy/kʙ       -7.250426e+03 [K]
-------------------------------------------------------------------------------
    external field VDW/kʙ        0.000000e+00 [K]
    external field Real/kʙ       0.000000e+00 [K]
    framework-molecule VDW/kʙ    0.000000e+00 [K]
    framework-molecule Real/kʙ   0.000000e+00 [K]
    molecule-molecule VDW/kʙ    -5.858297e+03 [K]
    molecule-molecule Real/kʙ   -1.019514e+03 [K]
    Van der Waals (Tail)/kʙ     -1.312243e+02 [K]
    Ewald Fourier/kʙ             2.287253e+03 [K]
    Ewald self/kʙ               -7.897716e+05 [K]
    Ewald exclusion/kʙ           7.872430e+05 [K]
    intra VDW/kʙ                 0.000000e+00 [K]
    intra Coulombic/kʙ           0.000000e+00 [K]
    polarization/kʙ              0.000000e+00 [K]
    dU/dlambda VDW/kʙ            0.000000e+00 [K]
    dU/dlambda Real/kʙ           0.000000e+00 [K]
    dU/dlambda Ewald/kʙ          0.000000e+00 [K]


Initialization: Current cycle: 100 out of 2000
===============================================================================

Box:      30.79825   0.00000   0.00000
           0.00000  30.79825   0.00000
           0.00000   0.00000  30.79825
Lengths:  30.79825  30.79825  30.79825
Angles:   90.00000  90.00000  90.00000
Rectangular boundary conditions

net charge:   0.00000000

component   0 (CO2) lambda:  0 occupancy:  1 (1.000000)
    net charge:   0.00000000 [e]

Amount of molecules per component :
-------------------------------------------------------------------------------
Component 0 (CO2)
    molecules:         6.000000e+00 molecules
    number density:    2.053870e-04 molec/A^3
    density:           1.500593e+01 kg/m^3

Total potential energy/kʙ       -3.619982e+01 [K]
-------------------------------------------------------------------------------
    external field VDW/kʙ        0.000000e+00 [K]
    external field Real/kʙ       0.000000e+00 [K]
    framework-molecule VDW/kʙ    0.000000e+00 [K]
    framework-molecule Real/kʙ   0.000000e+00 [K]
    molecule-molecule VDW/kʙ    -2.138295e+01 [K]
    molecule-molecule Real/kʙ   -9.089963e+00 [K]
    Van der Waals (Tail)/kʙ     -2.288550e+00 [K]
    Ewald Fourier/kʙ             3.493955e+02 [K]
    Ewald self/kʙ               -1.102007e+05 [K]
    Ewald exclusion/kʙ           1.098479e+05 [K]
    intra VDW/kʙ                 0.000000e+00 [K]
    intra Coulombic/kʙ           0.000000e+00 [K]
    polarization/kʙ              0.000000e+00 [K]
    dU/dlambda VDW/kʙ            0.000000e+00 [K]
    dU/dlambda Real/kʙ           0.000000e+00 [K]
    dU/dlambda Ewald/kʙ          0.000000e+00 [K]


Initialization: Current cycle: 200 out of 2000
===============================================================================

Box:      30.75456   0.00000   0.00000
           0.00000  30.75456   0.00000
           0.00000   0.00000  30.75456
Lengths:  30.75456  30.75456  30.75456
Angles:   90.00000  90.00000  90.00000
Rectangular boundary conditions

net charge:   0.00000000

component   0 (CO2) lambda:  0 occupancy:  1 (1.000000)
    net charge:   0.00000000 [e]

Amount of molecules per component :
-------------------------------------------------------------------------------
Component 0 (CO2)
    molecules:         1.200000e+01 molecules
    number density:    4.125273e-04 molec/A^3
    density:           3.013995e+01 kg/m^3

Total potential energy/kʙ       -1.270810e+03 [K]
-------------------------------------------------------------------------------
    external field VDW/kʙ        0.000000e+00 [K]
    external field Real/kʙ       0.000000e+00 [K]
    framework-molecule VDW/kʙ    0.000000e+00 [K]
    framework-molecule Real/kʙ   0.000000e+00 [K]
    molecule-molecule VDW/kʙ    -5.136552e+02 [K]
    molecule-molecule Real/kʙ   -7.530471e+02 [K]
    Van der Waals (Tail)/kʙ     -9.193273e+00 [K]
    Ewald Fourier/kʙ             7.107536e+02 [K]
    Ewald self/kʙ               -2.204014e+05 [K]
    Ewald exclusion/kʙ           2.196957e+05 [K]
    intra VDW/kʙ                 0.000000e+00 [K]
    intra Coulombic/kʙ           0.000000e+00 [K]
    polarization/kʙ              0.000000e+00 [K]
    dU/dlambda VDW/kʙ            0.000000e+00 [K]
    dU/dlambda Real/kʙ           0.000000e+00 [K]
    dU/dlambda Ewald/kʙ          0.000000e+00 [K]


Initialization: Current cycle: 300 out of 2000
===============================================================================

Box:      31.68297   0.00000   0.00000
           0.00000  31.68297   0.00000
           0.00000   0.00000  31.68297
Lengths:  31.68297  31.68297  31.68297
Angles:   90.00000  90.00000  90.00000
Rectangular boundary conditions

net charge:   0.00000000

component   0 (CO2) lambda:  0 occupancy:  1 (1.000000)
    net charge:   0.00000000 [e]

Amount of molecules per component :
-------------------------------------------------------------------------------
Component 0 (CO2)
    molecules:         7.000000e+00 molecules
    number density:    2.201001e-04 molec/A^3
    density:           1.608089e+01 kg/m^3

Total potential energy/kʙ       -2.788925e+02 [K]
-------------------------------------------------------------------------------
    external field VDW/kʙ        0.000000e+00 [K]
    external field Real/kʙ       0.000000e+00 [K]
    framework-molecule VDW/kʙ    0.000000e+00 [K]
    framework-molecule Real/kʙ   0.000000e+00 [K]
    molecule-molecule VDW/kʙ    -2.770424e+02 [K]
    molecule-molecule Real/kʙ   -3.479232e+01 [K]
    Van der Waals (Tail)/kʙ     -2.861242e+00 [K]
    Ewald Fourier/kʙ             4.474430e+02 [K]
    Ewald self/kʙ               -1.285675e+05 [K]
    Ewald exclusion/kʙ           1.281558e+05 [K]
    intra VDW/kʙ                 0.000000e+00 [K]
    intra Coulombic/kʙ           0.000000e+00 [K]
    polarization/kʙ              0.000000e+00 [K]
    dU/dlambda VDW/kʙ            0.000000e+00 [K]
    dU/dlambda Real/kʙ           0.000000e+00 [K]
    dU/dlambda Ewald/kʙ          0.000000e+00 [K]


Initialization: Current cycle: 400 out of 2000
===============================================================================

Box:      31.92244   0.00000   0.00000
           0.00000  31.92244   0.00000
           0.00000   0.00000  31.92244
Lengths:  31.92244  31.92244  31.92244
Angles:   90.00000  90.00000  90.00000
Rectangular boundary conditions

net charge:   0.00000000

component   0 (CO2) lambda:  0 occupancy:  1 (1.000000)
    net charge:   0.00000000 [e]

Amount of molecules per component :
-------------------------------------------------------------------------------
Component 0 (CO2)
    molecules:         1.800000e+01 molecules
    number density:    5.533298e-04 molec/A^3
    density:           4.042722e+01 kg/m^3

Total potential energy/kʙ       -4.468303e+02 [K]
-------------------------------------------------------------------------------
    external field VDW/kʙ        0.000000e+00 [K]
    external field Real/kʙ       0.000000e+00 [K]
    framework-molecule VDW/kʙ    0.000000e+00 [K]
    framework-molecule Real/kʙ   0.000000e+00 [K]
    molecule-molecule VDW/kʙ    -5.738182e+02 [K]
    molecule-molecule Real/kʙ    1.912424e+02 [K]
    Van der Waals (Tail)/kʙ     -1.849664e+01 [K]
    Ewald Fourier/kʙ             1.012744e+03 [K]
    Ewald self/kʙ               -3.306021e+05 [K]
    Ewald exclusion/kʙ           3.295436e+05 [K]
    intra VDW/kʙ                 0.000000e+00 [K]
    intra Coulombic/kʙ           0.000000e+00 [K]
    polarization/kʙ              0.000000e+00 [K]
    dU/dlambda VDW/kʙ            0.000000e+00 [K]
    dU/dlambda Real/kʙ           0.000000e+00 [K]
    dU/dlambda Ewald/kʙ          0.000000e+00 [K]


Initialization: Current cycle: 500 out of 2000
===============================================================================

Box:      32.06279   0.00000   0.00000
           0.00000  32.06279   0.00000
           0.00000   0.00000  32.06279
Lengths:  32.06279  32.06279  32.06279
Angles:   90.00000  90.00000  90.00000
Rectangular boundary conditions

net charge:   0.00000000

component   0 (CO2) lambda:  0 occupancy:  1 (1.000000)
    net charge:   0.00000000 [e]

Amount of molecules per component :
-------------------------------------------------------------------------------
Component 0 (CO2)
    molecules:         6.000000e+00 molecules
    number density:    1.820319e-04 molec/A^3
    density:           1.329956e+01 kg/m^3

Total potential energy/kʙ       -2.726453e+02 [K]
-------------------------------------------------------------------------------
    external field VDW/kʙ        0.000000e+00 [K]
    external field Real/kʙ       0.000000e+00 [K]
    framework-molecule VDW/kʙ    0.000000e+00 [K]
    framework-molecule Real/kʙ   0.000000e+00 [K]
    molecule-molecule VDW/kʙ    -3.853078e+02 [K]
    molecule-molecule Real/kʙ    7.227184e+01 [K]
    Van der Waals (Tail)/kʙ     -2.028313e+00 [K]
    Ewald Fourier/kʙ             3.952528e+02 [K]
    Ewald self/kʙ               -1.102007e+05 [K]
    Ewald exclusion/kʙ           1.098479e+05 [K]
    intra VDW/kʙ                 0.000000e+00 [K]
    intra Coulombic/kʙ           0.000000e+00 [K]
    polarization/kʙ              0.000000e+00 [K]
    dU/dlambda VDW/kʙ            0.000000e+00 [K]
    dU/dlambda Real/kʙ           0.000000e+00 [K]
    dU/dlambda Ewald/kʙ          0.000000e+00 [K]


Initialization: Current cycle: 600 out of 2000
===============================================================================

Box:      32.50440   0.00000   0.00000
           0.00000  32.50440   0.00000
           0.00000   0.00000  32.50440
Lengths:  32.50440  32.50440  32.50440
Angles:   90.00000  90.00000  90.00000
Rectangular boundary conditions

net charge:   0.00000000

component   0 (CO2) lambda:  0 occupancy:  1 (1.000000)
    net charge:   0.00000000 [e]

Amount of molecules per component :
-------------------------------------------------------------------------------
Component 0 (CO2)
    molecules:         2.000000e+01 molecules
    number density:    5.823762e-04 molec/A^3
    density:           4.254940e+01 kg/m^3

Total potential energy/kʙ       -1.611331e+03 [K]
-------------------------------------------------------------------------------
    external field VDW/kʙ        0.000000e+00 [K]
    external field Real/kʙ       0.000000e+00 [K]
    framework-molecule VDW/kʙ    0.000000e+00 [K]
    framework-molecule Real/kʙ   0.000000e+00 [K]
    molecule-molecule VDW/kʙ    -8.985295e+02 [K]
    molecule-molecule Real/kʙ   -5.873637e+02 [K]
    Van der Waals (Tail)/kʙ     -2.163066e+01 [K]
    Ewald Fourier/kʙ             1.072306e+03 [K]
    Ewald self/kʙ               -3.673356e+05 [K]
    Ewald exclusion/kʙ           3.661595e+05 [K]
    intra VDW/kʙ                 0.000000e+00 [K]
    intra Coulombic/kʙ           0.000000e+00 [K]
    polarization/kʙ              0.000000e+00 [K]
    dU/dlambda VDW/kʙ            0.000000e+00 [K]
    dU/dlambda Real/kʙ           0.000000e+00 [K]
    dU/dlambda Ewald/kʙ          0.000000e+00 [K]


Initialization: Current cycle: 700 out of 2000
===============================================================================

Box:      32.51695   0.00000   0.00000
           0.00000  32.51695   0.00000
           0.00000   0.00000  32.51695
Lengths:  32.51695  32.51695  32.51695
Angles:   90.00000  90.00000  90.00000
Rectangular boundary conditions

net charge:   0.00000000

component   0 (CO2) lambda:  0 occupancy:  1 (1.000000)
    net charge:   0.00000000 [e]

Amount of molecules per component :
-------------------------------------------------------------------------------
Component 0 (CO2)
    molecules:         8.000000e+00 molecules
    number density:    2.326808e-04 molec/A^3
    density:           1.700006e+01 kg/m^3

Total potential energy/kʙ       -1.999752e+01 [K]
-------------------------------------------------------------------------------
    external field VDW/kʙ        0.000000e+00 [K]
    external field Real/kʙ       0.000000e+00 [K]
    framework-molecule VDW/kʙ    0.000000e+00 [K]
    framework-molecule Real/kʙ   0.000000e+00 [K]
    molecule-molecule VDW/kʙ    -1.669219e+01 [K]
    molecule-molecule Real/kʙ    6.137980e+00 [K]
    Van der Waals (Tail)/kʙ     -3.456900e+00 [K]
    Ewald Fourier/kʙ             4.644587e+02 [K]
    Ewald self/kʙ               -1.469343e+05 [K]
    Ewald exclusion/kʙ           1.464638e+05 [K]
    intra VDW/kʙ                 0.000000e+00 [K]
    intra Coulombic/kʙ           0.000000e+00 [K]
    polarization/kʙ              0.000000e+00 [K]
    dU/dlambda VDW/kʙ            0.000000e+00 [K]
    dU/dlambda Real/kʙ           0.000000e+00 [K]
    dU/dlambda Ewald/kʙ          0.000000e+00 [K]


Initialization: Current cycle: 800 out of 2000
===============================================================================

Box:      32.88578   0.00000   0.00000
           0.00000  32.88578   0.00000
           0.00000   0.00000  32.88578
Lengths:  32.88578  32.88578  32.88578
Angles:   90.00000  90.00000  90.00000
Rectangular boundary conditions

net charge:   0.00000000

component   0 (CO2) lambda:  0 occupancy:  1 (1.000000)
    net charge:   0.00000000 [e]

Amount of molecules per component :
-------------------------------------------------------------------------------
Component 0 (CO2)
    molecules:         1.300000e+01 molecules
    number density:    3.655267e-04 molec/A^3
    density:           2.670600e+01 kg/m^3

Total potential energy/kʙ       -6.105961e+02 [K]
-------------------------------------------------------------------------------
    external field VDW/kʙ        0.000000e+00 [K]
    external field Real/kʙ       0.000000e+00 [K]
    framework-molecule VDW/kʙ    0.000000e+00 [K]
    framework-molecule Real/kʙ   0.000000e+00 [K]
    molecule-molecule VDW/kʙ    -6.191693e+02 [K]
    molecule-molecule Real/kʙ   -8.605658e+00 [K]
    Van der Waals (Tail)/kʙ     -8.824673e+00 [K]
    Ewald Fourier/kʙ             7.904769e+02 [K]
    Ewald self/kʙ               -2.387682e+05 [K]
    Ewald exclusion/kʙ           2.380037e+05 [K]
    intra VDW/kʙ                 0.000000e+00 [K]
    intra Coulombic/kʙ           0.000000e+00 [K]
    polarization/kʙ              0.000000e+00 [K]
    dU/dlambda VDW/kʙ            0.000000e+00 [K]
    dU/dlambda Real/kʙ           0.000000e+00 [K]
    dU/dlambda Ewald/kʙ          0.000000e+00 [K]


Initialization: Current cycle: 900 out of 2000
===============================================================================

Box:      33.22037   0.00000   0.00000
           0.00000  33.22037   0.00000
           0.00000   0.00000  33.22037
Lengths:  33.22037  33.22037  33.22037
Angles:   90.00000  90.00000  90.00000
Rectangular boundary conditions

net charge:   0.00000000

component   0 (CO2) lambda:  0 occupancy:  1 (1.000000)
    net charge:   0.00000000 [e]

Amount of molecules per component :
-------------------------------------------------------------------------------
Component 0 (CO2)
    molecules:         1.900000e+01 molecules
    number density:    5.182511e-04 molec/A^3
    density:           3.786431e+01 kg/m^3

Total potential energy/kʙ       -2.117857e+03 [K]
-------------------------------------------------------------------------------
    external field VDW/kʙ        0.000000e+00 [K]
    external field Real/kʙ       0.000000e+00 [K]
    framework-molecule VDW/kʙ    0.000000e+00 [K]
    framework-molecule Real/kʙ   0.000000e+00 [K]
    molecule-molecule VDW/kʙ    -1.517913e+03 [K]
    molecule-molecule Real/kʙ   -6.114414e+02 [K]
    Van der Waals (Tail)/kʙ     -1.828648e+01 [K]
    Ewald Fourier/kʙ             1.147091e+03 [K]
    Ewald self/kʙ               -3.489689e+05 [K]
    Ewald exclusion/kʙ           3.478516e+05 [K]
    intra VDW/kʙ                 0.000000e+00 [K]
    intra Coulombic/kʙ           0.000000e+00 [K]
    polarization/kʙ              0.000000e+00 [K]
    dU/dlambda VDW/kʙ            0.000000e+00 [K]
    dU/dlambda Real/kʙ           0.000000e+00 [K]
    dU/dlambda Ewald/kʙ          0.000000e+00 [K]


Initialization: Current cycle: 1000 out of 2000
===============================================================================

Box:      33.34688   0.00000   0.00000
           0.00000  33.34688   0.00000
           0.00000   0.00000  33.34688
Lengths:  33.34688  33.34688  33.34688
Angles:   90.00000  90.00000  90.00000
Rectangular boundary conditions

net charge:   0.00000000

component   0 (CO2) lambda:  0 occupancy:  1 (1.000000)
    net charge:   0.00000000 [e]

Amount of molecules per component :
-------------------------------------------------------------------------------
Component 0 (CO2)
    molecules:         1.800000e+01 molecules
    number density:    4.854081e-04 molec/A^3
    density:           3.546475e+01 kg/m^3

Total potential energy/kʙ       -1.872422e+03 [K]
-------------------------------------------------------------------------------
    external field VDW/kʙ        0.000000e+00 [K]
    external field Real/kʙ       0.000000e+00 [K]
    framework-molecule VDW/kʙ    0.000000e+00 [K]
    framework-molecule Real/kʙ   0.000000e+00 [K]
    molecule-molecule VDW/kʙ    -1.510029e+03 [K]
    molecule-molecule Real/kʙ   -4.073861e+02 [K]
    Van der Waals (Tail)/kʙ     -1.622616e+01 [K]
    Ewald Fourier/kʙ             1.119721e+03 [K]
    Ewald self/kʙ               -3.306021e+05 [K]
    Ewald exclusion/kʙ           3.295436e+05 [K]
    intra VDW/kʙ                 0.000000e+00 [K]
    intra Coulombic/kʙ           0.000000e+00 [K]
    polarization/kʙ              0.000000e+00 [K]
    dU/dlambda VDW/kʙ            0.000000e+00 [K]
    dU/dlambda Real/kʙ           0.000000e+00 [K]
    dU/dlambda Ewald/kʙ          0.000000e+00 [K]


Initialization: Current cycle: 1100 out of 2000
===============================================================================

Box:      33.31245   0.00000   0.00000
           0.00000  33.31245   0.00000
           0.00000   0.00000  33.31245
Lengths:  33.31245  33.31245  33.31245
Angles:   90.00000  90.00000  90.00000
Rectangular boundary conditions

net charge:   0.00000000

component   0 (CO2) lambda:  0 occupancy:  1 (1.000000)
    net charge:   0.00000000 [e]

Amount of molecules per component :
-------------------------------------------------------------------------------
Component 0 (CO2)
    molecules:         1.500000e+01 molecules
    number density:    4.057623e-04 molec/A^3
    density:           2.964569e+01 kg/m^3

Total potential energy/kʙ       -8.057298e+02 [K]
-------------------------------------------------------------------------------
    external field VDW/kʙ        0.000000e+00 [K]
    external field Real/kʙ       0.000000e+00 [K]
    framework-molecule VDW/kʙ    0.000000e+00 [K]
    framework-molecule Real/kʙ   0.000000e+00 [K]
    molecule-molecule VDW/kʙ    -6.568766e+02 [K]
    molecule-molecule Real/kʙ   -1.363701e+02 [K]
    Van der Waals (Tail)/kʙ     -1.130314e+01 [K]
    Ewald Fourier/kʙ             8.809047e+02 [K]
    Ewald self/kʙ               -2.755017e+05 [K]
    Ewald exclusion/kʙ           2.746196e+05 [K]
    intra VDW/kʙ                 0.000000e+00 [K]
    intra Coulombic/kʙ           0.000000e+00 [K]
    polarization/kʙ              0.000000e+00 [K]
    dU/dlambda VDW/kʙ            0.000000e+00 [K]
    dU/dlambda Real/kʙ           0.000000e+00 [K]
    dU/dlambda Ewald/kʙ          0.000000e+00 [K]


Initialization: Current cycle: 1200 out of 2000
===============================================================================

Box:      33.22980   0.00000   0.00000
           0.00000  33.22980   0.00000
           0.00000   0.00000  33.22980
Lengths:  33.22980  33.22980  33.22980
Angles:   90.00000  90.00000  90.00000
Rectangular boundary conditions

net charge:   0.00000000

component   0 (CO2) lambda:  0 occupancy:  1 (1.000000)
    net charge:   0.00000000 [e]

Amount of molecules per component :
-------------------------------------------------------------------------------
Component 0 (CO2)
    molecules:         1.000000e+01 molecules
    number density:    2.725317e-04 molec/A^3
    density:           1.991163e+01 kg/m^3

Total potential energy/kʙ       -4.616610e+01 [K]
-------------------------------------------------------------------------------
    external field VDW/kʙ        0.000000e+00 [K]
    external field Real/kʙ       0.000000e+00 [K]
    framework-molecule VDW/kʙ    0.000000e+00 [K]
    framework-molecule Real/kʙ   0.000000e+00 [K]
    molecule-molecule VDW/kʙ    -6.418080e+01 [K]
    molecule-molecule Real/kʙ    1.587457e+01 [K]
    Van der Waals (Tail)/kʙ     -5.061196e+00 [K]
    Ewald Fourier/kʙ             5.952577e+02 [K]
    Ewald self/kʙ               -1.836678e+05 [K]
    Ewald exclusion/kʙ           1.830798e+05 [K]
    intra VDW/kʙ                 0.000000e+00 [K]
    intra Coulombic/kʙ           0.000000e+00 [K]
    polarization/kʙ              0.000000e+00 [K]
    dU/dlambda VDW/kʙ            0.000000e+00 [K]
    dU/dlambda Real/kʙ           0.000000e+00 [K]
    dU/dlambda Ewald/kʙ          0.000000e+00 [K]


Initialization: Current cycle: 1300 out of 2000
===============================================================================

Box:      33.31280   0.00000   0.00000
           0.00000  33.31280   0.00000
           0.00000   0.00000  33.31280
Lengths:  33.31280  33.31280  33.31280
Angles:   90.00000  90.00000  90.00000
Rectangular boundary conditions

net charge:   0.00000000

component   0 (CO2) lambda:  0 occupancy:  1 (1.000000)
    net charge:   0.00000000 [e]

Amount of molecules per component :
-------------------------------------------------------------------------------
Component 0 (CO2)
    molecules:         1.500000e+01 molecules
    number density:    4.057494e-04 molec/A^3
    density:           2.964475e+01 kg/m^3

Total potential energy/kʙ       -6.689804e+02 [K]
-------------------------------------------------------------------------------
    external field VDW/kʙ        0.000000e+00 [K]
    external field Real/kʙ       0.000000e+00 [K]
    framework-molecule VDW/kʙ    0.000000e+00 [K]
    framework-molecule Real/kʙ   0.000000e+00 [K]
    molecule-molecule VDW/kʙ    -7.416479e+02 [K]
    molecule-molecule Real/kʙ    2.974558e+01 [K]
    Van der Waals (Tail)/kʙ     -1.130278e+01 [K]
    Ewald Fourier/kʙ             9.363093e+02 [K]
    Ewald self/kʙ               -2.755017e+05 [K]
    Ewald exclusion/kʙ           2.746196e+05 [K]
    intra VDW/kʙ                 0.000000e+00 [K]
    intra Coulombic/kʙ           0.000000e+00 [K]
    polarization/kʙ              0.000000e+00 [K]
    dU/dlambda VDW/kʙ            0.000000e+00 [K]
    dU/dlambda Real/kʙ           0.000000e+00 [K]
    dU/dlambda Ewald/kʙ          0.000000e+00 [K]


Initialization: Current cycle: 1400 out of 2000
===============================================================================

Box:      33.55906   0.00000   0.00000
           0.00000  33.55906   0.00000
           0.00000   0.00000  33.55906
Lengths:  33.55906  33.55906  33.55906
Angles:   90.00000  90.00000  90.00000
Rectangular boundary conditions

net charge:   0.00000000

component   0 (CO2) lambda:  0 occupancy:  1 (1.000000)
    net charge:   0.00000000 [e]

Amount of molecules per component :
-------------------------------------------------------------------------------
Component 0 (CO2)
    molecules:         2.100000e+01 molecules
    number density:    5.556356e-04 molec/A^3
    density:           4.059568e+01 kg/m^3

Total potential energy/kʙ       -2.835293e+03 [K]
-------------------------------------------------------------------------------
    external field VDW/kʙ        0.000000e+00 [K]
    external field Real/kʙ       0.000000e+00 [K]
    framework-molecule VDW/kʙ    0.000000e+00 [K]
    framework-molecule Real/kʙ   0.000000e+00 [K]
    molecule-molecule VDW/kʙ    -2.217750e+03 [K]
    molecule-molecule Real/kʙ   -6.864598e+02 [K]
    Van der Waals (Tail)/kʙ     -2.166933e+01 [K]
    Ewald Fourier/kʙ             1.325505e+03 [K]
    Ewald self/kʙ               -3.857024e+05 [K]
    Ewald exclusion/kʙ           3.844675e+05 [K]
    intra VDW/kʙ                 0.000000e+00 [K]
    intra Coulombic/kʙ           0.000000e+00 [K]
    polarization/kʙ              0.000000e+00 [K]
    dU/dlambda VDW/kʙ            0.000000e+00 [K]
    dU/dlambda Real/kʙ           0.000000e+00 [K]
    dU/dlambda Ewald/kʙ          0.000000e+00 [K]


Initialization: Current cycle: 1500 out of 2000
===============================================================================

Box:      33.31853   0.00000   0.00000
           0.00000  33.31853   0.00000
           0.00000   0.00000  33.31853
Lengths:  33.31853  33.31853  33.31853
Angles:   90.00000  90.00000  90.00000
Rectangular boundary conditions

net charge:   0.00000000

component   0 (CO2) lambda:  0 occupancy:  1 (1.000000)
    net charge:   0.00000000 [e]

Amount of molecules per component :
-------------------------------------------------------------------------------
Component 0 (CO2)
    molecules:         2.600000e+01 molecules
    number density:    7.029364e-04 molec/A^3
    density:           5.135773e+01 kg/m^3

Total potential energy/kʙ       -2.773968e+03 [K]
-------------------------------------------------------------------------------
    external field VDW/kʙ        0.000000e+00 [K]
    external field Real/kʙ       0.000000e+00 [K]
    framework-molecule VDW/kʙ    0.000000e+00 [K]
    framework-molecule Real/kʙ   0.000000e+00 [K]
    molecule-molecule VDW/kʙ    -1.779460e+03 [K]
    molecule-molecule Real/kʙ   -9.130308e+02 [K]
    Van der Waals (Tail)/kʙ     -3.394107e+01 [K]
    Ewald Fourier/kʙ             1.481410e+03 [K]
    Ewald self/kʙ               -4.775363e+05 [K]
    Ewald exclusion/kʙ           4.760074e+05 [K]
    intra VDW/kʙ                 0.000000e+00 [K]
    intra Coulombic/kʙ           0.000000e+00 [K]
    polarization/kʙ              0.000000e+00 [K]
    dU/dlambda VDW/kʙ            0.000000e+00 [K]
    dU/dlambda Real/kʙ           0.000000e+00 [K]
    dU/dlambda Ewald/kʙ          0.000000e+00 [K]


Initialization: Current cycle: 1600 out of 2000
===============================================================================

Box:      33.60422   0.00000   0.00000
           0.00000  33.60422   0.00000
           0.00000   0.00000  33.60422
Lengths:  33.60422  33.60422  33.60422
Angles:   90.00000  90.00000  90.00000
Rectangular boundary conditions

net charge:   0.00000000

component   0 (CO2) lambda:  0 occupancy:  1 (1.000000)
    net charge:   0.00000000 [e]

Amount of molecules per component :
-------------------------------------------------------------------------------
Component 0 (CO2)
    molecules:         2.300000e+01 molecules
    number density:    6.061030e-04 molec/A^3
    density:           4.428292e+01 kg/m^3

Total potential energy/kʙ       -4.175907e+03 [K]
-------------------------------------------------------------------------------
    external field VDW/kʙ        0.000000e+00 [K]
    external field Real/kʙ       0.000000e+00 [K]
    framework-molecule VDW/kʙ    0.000000e+00 [K]
    framework-molecule Real/kʙ   0.000000e+00 [K]
    molecule-molecule VDW/kʙ    -3.166106e+03 [K]
    molecule-molecule Real/kʙ   -8.880276e+02 [K]
    Van der Waals (Tail)/kʙ     -2.588871e+01 [K]
    Ewald Fourier/kʙ             1.256645e+03 [K]
    Ewald self/kʙ               -4.224360e+05 [K]
    Ewald exclusion/kʙ           4.210835e+05 [K]
    intra VDW/kʙ                 0.000000e+00 [K]
    intra Coulombic/kʙ           0.000000e+00 [K]
    polarization/kʙ              0.000000e+00 [K]
    dU/dlambda VDW/kʙ            0.000000e+00 [K]
    dU/dlambda Real/kʙ           0.000000e+00 [K]
    dU/dlambda Ewald/kʙ          0.000000e+00 [K]


Initialization: Current cycle: 1700 out of 2000
===============================================================================

Box:      33.69863   0.00000   0.00000
           0.00000  33.69863   0.00000
           0.00000   0.00000  33.69863
Lengths:  33.69863  33.69863  33.69863
Angles:   90.00000  90.00000  90.00000
Rectangular boundary conditions

net charge:   0.00000000

component   0 (CO2) lambda:  0 occupancy:  1 (1.000000)
    net charge:   0.00000000 [e]

Amount of molecules per component :
-------------------------------------------------------------------------------
Component 0 (CO2)
    molecules:         2.800000e+01 molecules
    number density:    7.316800e-04 molec/A^3
    density:           5.345779e+01 kg/m^3

Total potential energy/kʙ       -4.046250e+03 [K]
-------------------------------------------------------------------------------
    external field VDW/kʙ        0.000000e+00 [K]
    external field Real/kʙ       0.000000e+00 [K]
    framework-molecule VDW/kʙ    0.000000e+00 [K]
    framework-molecule Real/kʙ   0.000000e+00 [K]
    molecule-molecule VDW/kʙ    -3.027009e+03 [K]
    molecule-molecule Real/kʙ   -9.567403e+02 [K]
    Van der Waals (Tail)/kʙ     -3.804656e+01 [K]
    Ewald Fourier/kʙ             1.622104e+03 [K]
    Ewald self/kʙ               -5.142699e+05 [K]
    Ewald exclusion/kʙ           5.126233e+05 [K]
    intra VDW/kʙ                 0.000000e+00 [K]
    intra Coulombic/kʙ           0.000000e+00 [K]
    polarization/kʙ              0.000000e+00 [K]
    dU/dlambda VDW/kʙ            0.000000e+00 [K]
    dU/dlambda Real/kʙ           0.000000e+00 [K]
    dU/dlambda Ewald/kʙ          0.000000e+00 [K]


Initialization: Current cycle: 1800 out of 2000
===============================================================================

Box:      33.57006   0.00000   0.00000
           0.00000  33.57006   0.00000
           0.00000   0.00000  33.57006
Lengths:  33.57006  33.57006  33.57006
Angles:   90.00000  90.00000  90.00000
Rectangular boundary conditions

net charge:   0.00000000

component   0 (CO2) lambda:  0 occupancy:  1 (1.000000)
    net charge:   0.00000000 [e]

Amount of molecules per component :
-------------------------------------------------------------------------------
Component 0 (CO2)
    molecules:         1.900000e+01 molecules
    number density:    5.022240e-04 molec/A^3
    density:           3.669334e+01 kg/m^3

Total potential energy/kʙ       -1.015537e+03 [K]
-------------------------------------------------------------------------------
    external field VDW/kʙ        0.000000e+00 [K]
    external field Real/kʙ       0.000000e+00 [K]
    framework-molecule VDW/kʙ    0.000000e+00 [K]
    framework-molecule Real/kʙ   0.000000e+00 [K]
    molecule-molecule VDW/kʙ    -9.025295e+02 [K]
    molecule-molecule Real/kʙ   -1.165006e+02 [K]
    Van der Waals (Tail)/kʙ     -1.772096e+01 [K]
    Ewald Fourier/kʙ             1.138521e+03 [K]
    Ewald self/kʙ               -3.489689e+05 [K]
    Ewald exclusion/kʙ           3.478516e+05 [K]
    intra VDW/kʙ                 0.000000e+00 [K]
    intra Coulombic/kʙ           0.000000e+00 [K]
    polarization/kʙ              0.000000e+00 [K]
    dU/dlambda VDW/kʙ            0.000000e+00 [K]
    dU/dlambda Real/kʙ           0.000000e+00 [K]
    dU/dlambda Ewald/kʙ          0.000000e+00 [K]


Initialization: Current cycle: 1900 out of 2000
===============================================================================

Box:      33.66669   0.00000   0.00000
           0.00000  33.66669   0.00000
           0.00000   0.00000  33.66669
Lengths:  33.66669  33.66669  33.66669
Angles:   90.00000  90.00000  90.00000
Rectangular boundary conditions

net charge:   0.00000000

component   0 (CO2) lambda:  0 occupancy:  1 (1.000000)
    net charge:   0.00000000 [e]

Amount of molecules per component :
-------------------------------------------------------------------------------
Component 0 (CO2)
    molecules:         1.600000e+01 molecules
    number density:    4.192942e-04 molec/A^3
    density:           3.063435e+01 kg/m^3

Total potential energy/kʙ       -1.411435e+03 [K]
-------------------------------------------------------------------------------
    external field VDW/kʙ        0.000000e+00 [K]
    external field Real/kʙ       0.000000e+00 [K]
    framework-molecule VDW/kʙ    0.000000e+00 [K]
    framework-molecule Real/kʙ   0.000000e+00 [K]
    molecule-molecule VDW/kʙ    -9.843622e+02 [K]
    molecule-molecule Real/kʙ   -3.532547e+02 [K]
    Van der Waals (Tail)/kʙ     -1.245877e+01 [K]
    Ewald Fourier/kʙ             8.795312e+02 [K]
    Ewald self/kʙ               -2.938685e+05 [K]
    Ewald exclusion/kʙ           2.929276e+05 [K]
    intra VDW/kʙ                 0.000000e+00 [K]
    intra Coulombic/kʙ           0.000000e+00 [K]
    polarization/kʙ              0.000000e+00 [K]
    dU/dlambda VDW/kʙ            0.000000e+00 [K]
    dU/dlambda Real/kʙ           0.000000e+00 [K]
    dU/dlambda Ewald/kʙ          0.000000e+00 [K]


Current cycle: 0 out of 6000
===============================================================================

Box:      33.49789   0.00000   0.00000  Average:  33.49789   0.00000   0.00000
           0.00000  33.49789   0.00000             0.00000  33.49789   0.00000
           0.00000   0.00000  33.49789             0.00000   0.00000  33.49789
Lengths:  33.49789  33.49789  33.49789  Average:  33.49789  33.49789  33.49789
Angles:   90.00000  90.00000  90.00000  Average:  90.00000  90.00000  90.00000
Rectangular boundary conditions

net charge:   0.00000000

component 0 (CO2) lambda:  0 occupancy:  1 (1.000000)
    net charge:   0.00000000 [e]

Amount of molecules per component :
-------------------------------------------------------------------------------
Component 0 (CO2)
    molecules:      1.800000e+01 molecules  (1.800000e+01 +/- 0.000000e+00)
    number density: 4.788730e-04 molec./A^3 (4.788730e-04 +/- 0.000000e+00)
    density:        3.498728e+01 kg/m^3     (3.498728e+01 +/- 0.000000e+00)

Average pressure tensor: 
-------------------------------------------------------------------------------
 1.6529e+01  0.0000e+00  0.0000e+00 +/- 0.0000e+00 0.0000e+00 0.0000e+00 [bar]
 0.0000e+00  1.6529e+01  0.0000e+00 +/- 0.0000e+00 0.0000e+00 0.0000e+00 [bar]
 0.0000e+00  0.0000e+00  1.6529e+01 +/- 0.0000e+00 0.0000e+00 0.0000e+00 [bar]
Ideal-gas pressure:   1.652890e+01 +/ 0.000000e+00 [bar]
Excess pressure:      0.000000e+00 +/ 0.000000e+00 [bar]
Pressure:             1.652890e+01 +/ 0.000000e+00 [bar]

Total potential energy/kʙ  -1.365206e+03 (-1.365206e+03 +/- 0.000000e+00) [K]
-------------------------------------------------------------------------------
ExternalField-molecule
    Van der Waals/kʙ        0.000000e+00 ( 0.000000e+00 +/- 0.000000e+00) [K]
Framework-molecule
    Van der Waals/kʙ        0.000000e+00 ( 0.000000e+00 +/- 0.000000e+00) [K]
    Van der Waals (Tail)/kʙ 0.000000e+00 ( 0.000000e+00 +/- 0.000000e+00) [K]
    Coulombic Real/kʙ       0.000000e+00 ( 0.000000e+00 +/- 0.000000e+00) [K]
    Coulombic Fourier/kʙ    0.000000e+00 ( 0.000000e+00 +/- 0.000000e+00) [K]
Molecule-molecule
    Van der Waals/kʙ       -8.765728e+02 (-8.765728e+02 +/- 0.000000e+00) [K]
    Van der Waals (Tail)/kʙ-1.600770e+01 (-1.600770e+01 +/- 0.000000e+00) [K]
    Coulombic Real/kʙ      -4.867388e+02 (-4.867388e+02 +/- 0.000000e+00) [K]
    Coulombic Fourier/kʙ    1.411352e+01 ( 1.411352e+01 +/- 0.000000e+00) [K]
    Molecule Intra/kʙ       0.000000e+00 ( 0.000000e+00 +/- 0.000000e+00) [K]

Current cycle: 100 out of 6000
===============================================================================

Box:      33.42534   0.00000   0.00000  Average:  33.41527   0.00000   0.00000
           0.00000  33.42534   0.00000             0.00000  33.41527   0.00000
           0.00000   0.00000  33.42534             0.00000   0.00000  33.41527
Lengths:  33.42534  33.42534  33.42534  Average:  33.41527  33.41527  33.41527
Angles:   90.00000  90.00000  90.00000  Average:  90.00000  90.00000  90.00000
Rectangular boundary conditions

net charge:   0.00000000

component 0 (CO2) lambda:  0 occupancy:  1 (1.000000)
    net charge:   0.00000000 [e]

Amount of molecules per component :
-------------------------------------------------------------------------------
Component 0 (CO2)
    molecules:      1.700000e+01 molecules  (1.647525e+01 +/- 0.000000e+00)
    number density: 4.552201e-04 molec./A^3 (4.414124e-04 +/- 0.000000e+00)
    density:        3.325916e+01 kg/m^3     (3.225035e+01 +/- 0.000000e+00)

Average pressure tensor: 
-------------------------------------------------------------------------------
 1.2801e+01  2.6634e-01 -2.3254e-01 +/- 0.0000e+00 0.0000e+00 0.0000e+00 [bar]
 2.6634e-01  1.4326e+01 -2.9856e+00 +/- 0.0000e+00 0.0000e+00 0.0000e+00 [bar]
-2.3254e-01 -2.9856e+00  1.4815e+01 +/- 0.0000e+00 0.0000e+00 0.0000e+00 [bar]
Ideal-gas pressure:   1.523591e+01 +/ 0.000000e+00 [bar]
Excess pressure:     -1.255290e+00 +/ 0.000000e+00 [bar]
Pressure:             1.398061e+01 +/ 0.000000e+00 [bar]

Total potential energy/kʙ  -8.472256e+02 (-1.051217e+03 +/- 0.000000e+00) [K]
-------------------------------------------------------------------------------
ExternalField-molecule
    Van der Waals/kʙ        0.000000e+00 ( 0.000000e+00 +/- 0.000000e+00) [K]
Framework-molecule
    Van der Waals/kʙ        0.000000e+00 ( 0.000000e+00 +/- 0.000000e+00) [K]
    Van der Waals (Tail)/kʙ 0.000000e+00 ( 0.000000e+00 +/- 0.000000e+00) [K]
    Coulombic Real/kʙ       0.000000e+00 ( 0.000000e+00 +/- 0.000000e+00) [K]
    Coulombic Fourier/kʙ    0.000000e+00 ( 0.000000e+00 +/- 0.000000e+00) [K]
Molecule-molecule
    Van der Waals/kʙ       -7.372828e+02 (-7.993126e+02 +/- 0.000000e+00) [K]
    Van der Waals (Tail)/kʙ-1.437165e+01 (-1.349288e+01 +/- 0.000000e+00) [K]
    Coulombic Real/kʙ      -9.816644e+01 (-2.266724e+02 +/- 0.000000e+00) [K]
    Coulombic Fourier/kʙ    2.595270e+00 (-1.173939e+01 +/- 0.000000e+00) [K]
    Molecule Intra/kʙ       0.000000e+00 ( 0.000000e+00 +/- 0.000000e+00) [K]

Current cycle: 200 out of 6000
===============================================================================

Box:      33.36274   0.00000   0.00000  Average:  33.41946   0.00000   0.00000
           0.00000  33.36274   0.00000             0.00000  33.41946   0.00000
           0.00000   0.00000  33.36274             0.00000   0.00000  33.41946
Lengths:  33.36274  33.36274  33.36274  Average:  33.41946  33.41946  33.41946
Angles:   90.00000  90.00000  90.00000  Average:  90.00000  90.00000  90.00000
Rectangular boundary conditions

net charge:   0.00000000

component 0 (CO2) lambda:  0 occupancy:  1 (1.000000)
    net charge:   0.00000000 [e]

Amount of molecules per component :
-------------------------------------------------------------------------------
Component 0 (CO2)
    molecules:      1.700000e+01 molecules  (1.654726e+01 +/- 0.000000e+00)
    number density: 4.577874e-04 molec./A^3 (4.433043e-04 +/- 0.000000e+00)
    density:        3.344673e+01 kg/m^3     (3.238857e+01 +/- 0.000000e+00)

Average pressure tensor: 
-------------------------------------------------------------------------------
 1.2769e+01 -1.3262e-01  8.4539e-01 +/- 0.0000e+00 0.0000e+00 0.0000e+00 [bar]
-1.3262e-01  1.4218e+01 -1.8537e+00 +/- 0.0000e+00 0.0000e+00 0.0000e+00 [bar]
 8.4539e-01 -1.8537e+00  1.4513e+01 +/- 0.0000e+00 0.0000e+00 0.0000e+00 [bar]
Ideal-gas pressure:   1.530120e+01 +/ 0.000000e+00 [bar]
Excess pressure:     -1.467849e+00 +/ 0.000000e+00 [bar]
Pressure:             1.383335e+01 +/ 0.000000e+00 [bar]

Total potential energy/kʙ  -1.196281e+03 (-1.083497e+03 +/- 0.000000e+00) [K]
-------------------------------------------------------------------------------
ExternalField-molecule
    Van der Waals/kʙ        0.000000e+00 ( 0.000000e+00 +/- 0.000000e+00) [K]
Framework-molecule
    Van der Waals/kʙ        0.000000e+00 ( 0.000000e+00 +/- 0.000000e+00) [K]
    Van der Waals (Tail)/kʙ 0.000000e+00 ( 0.000000e+00 +/- 0.000000e+00) [K]
    Coulombic Real/kʙ       0.000000e+00 ( 0.000000e+00 +/- 0.000000e+00) [K]
    Coulombic Fourier/kʙ    0.000000e+00 ( 0.000000e+00 +/- 0.000000e+00) [K]
Molecule-molecule
    Van der Waals/kʙ       -1.058899e+03 (-7.828761e+02 +/- 0.000000e+00) [K]
    Van der Waals (Tail)/kʙ-1.445270e+01 (-1.378548e+01 +/- 0.000000e+00) [K]
    Coulombic Real/kʙ      -1.102892e+02 (-2.664072e+02 +/- 0.000000e+00) [K]
    Coulombic Fourier/kʙ   -1.264079e+01 (-2.042786e+01 +/- 0.000000e+00) [K]
    Molecule Intra/kʙ       0.000000e+00 ( 0.000000e+00 +/- 0.000000e+00) [K]

Current cycle: 300 out of 6000
===============================================================================

Box:      33.27811   0.00000   0.00000  Average:  33.39175   0.00000   0.00000
           0.00000  33.27811   0.00000             0.00000  33.39175   0.00000
           0.00000   0.00000  33.27811             0.00000   0.00000  33.39175
Lengths:  33.27811  33.27811  33.27811  Average:  33.39175  33.39175  33.39175
Angles:   90.00000  90.00000  90.00000  Average:  90.00000  90.00000  90.00000
Rectangular boundary conditions

net charge:   0.00000000

component 0 (CO2) lambda:  0 occupancy:  1 (1.000000)
    net charge:   0.00000000 [e]

Amount of molecules per component :
-------------------------------------------------------------------------------
Component 0 (CO2)
    molecules:      1.400000e+01 molecules  (1.542857e+01 +/- 0.000000e+00)
    number density: 3.798848e-04 molec./A^3 (4.141518e-04 +/- 0.000000e+00)
    density:        2.775504e+01 kg/m^3     (3.025864e+01 +/- 0.000000e+00)

Average pressure tensor: 
-------------------------------------------------------------------------------
 1.2076e+01 -4.2338e-01  1.3287e-01 +/- 0.0000e+00 0.0000e+00 0.0000e+00 [bar]
-4.2338e-01  1.3425e+01 -6.4695e-01 +/- 0.0000e+00 0.0000e+00 0.0000e+00 [bar]
 1.3287e-01 -6.4695e-01  1.4627e+01 +/- 0.0000e+00 0.0000e+00 0.0000e+00 [bar]
Ideal-gas pressure:   1.429497e+01 +/ 0.000000e+00 [bar]
Excess pressure:     -9.191186e-01 +/ 0.000000e+00 [bar]
Pressure:             1.337585e+01 +/ 0.000000e+00 [bar]

Total potential energy/kʙ  -9.143862e+02 (-8.499361e+02 +/- 0.000000e+00) [K]
-------------------------------------------------------------------------------
ExternalField-molecule
    Van der Waals/kʙ        0.000000e+00 ( 0.000000e+00 +/- 0.000000e+00) [K]
Framework-molecule
    Van der Waals/kʙ        0.000000e+00 ( 0.000000e+00 +/- 0.000000e+00) [K]
    Van der Waals (Tail)/kʙ 0.000000e+00 ( 0.000000e+00 +/- 0.000000e+00) [K]
    Coulombic Real/kʙ       0.000000e+00 ( 0.000000e+00 +/- 0.000000e+00) [K]
    Coulombic Fourier/kʙ    0.000000e+00 ( 0.000000e+00 +/- 0.000000e+00) [K]
Molecule-molecule
    Van der Waals/kʙ       -4.737605e+02 (-6.021912e+02 +/- 0.000000e+00) [K]
    Van der Waals (Tail)/kʙ-9.876798e+00 (-1.188708e+01 +/- 0.000000e+00) [K]
    Coulombic Real/kʙ      -3.928042e+02 (-2.168209e+02 +/- 0.000000e+00) [K]
    Coulombic Fourier/kʙ   -3.794480e+01 (-1.903692e+01 +/- 0.000000e+00) [K]
    Molecule Intra/kʙ       0.000000e+00 ( 0.000000e+00 +/- 0.000000e+00) [K]

Current cycle: 400 out of 6000
===============================================================================

Box:      33.33969   0.00000   0.00000  Average:  33.37778   0.00000   0.00000
           0.00000  33.33969   0.00000             0.00000  33.37778   0.00000
           0.00000   0.00000  33.33969             0.00000   0.00000  33.37778
Lengths:  33.33969  33.33969  33.33969  Average:  33.37778  33.37778  33.37778
Angles:   90.00000  90.00000  90.00000  Average:  90.00000  90.00000  90.00000
Rectangular boundary conditions

net charge:   0.00000000

component 0 (CO2) lambda:  0 occupancy:  1 (1.000000)
    net charge:   0.00000000 [e]

Amount of molecules per component :
-------------------------------------------------------------------------------
Component 0 (CO2)
    molecules:      1.800000e+01 molecules  (1.513466e+01 +/- 0.000000e+00)
    number density: 4.857221e-04 molec./A^3 (4.067998e-04 +/- 0.000000e+00)
    density:        3.548769e+01 kg/m^3     (2.972149e+01 +/- 0.000000e+00)

Average pressure tensor: 
-------------------------------------------------------------------------------
 1.1796e+01 -3.5617e-01  3.0266e-01 +/- 0.0000e+00 0.0000e+00 0.0000e+00 [bar]
-3.5617e-01  1.3306e+01 -1.3486e+00 +/- 0.0000e+00 0.0000e+00 0.0000e+00 [bar]
 3.0266e-01 -1.3486e+00  1.5314e+01 +/- 0.0000e+00 0.0000e+00 0.0000e+00 [bar]
Ideal-gas pressure:   1.404121e+01 +/ 0.000000e+00 [bar]
Excess pressure:     -5.690235e-01 +/ 0.000000e+00 [bar]
Pressure:             1.347218e+01 +/ 0.000000e+00 [bar]

Total potential energy/kʙ  -1.647149e+03 (-8.460934e+02 +/- 0.000000e+00) [K]
-------------------------------------------------------------------------------
ExternalField-molecule
    Van der Waals/kʙ        0.000000e+00 ( 0.000000e+00 +/- 0.000000e+00) [K]
Framework-molecule
    Van der Waals/kʙ        0.000000e+00 ( 0.000000e+00 +/- 0.000000e+00) [K]
    Van der Waals (Tail)/kʙ 0.000000e+00 ( 0.000000e+00 +/- 0.000000e+00) [K]
    Coulombic Real/kʙ       0.000000e+00 ( 0.000000e+00 +/- 0.000000e+00) [K]
    Coulombic Fourier/kʙ    0.000000e+00 ( 0.000000e+00 +/- 0.000000e+00) [K]
Molecule-molecule
    Van der Waals/kʙ       -1.279470e+03 (-6.002645e+02 +/- 0.000000e+00) [K]
    Van der Waals (Tail)/kʙ-1.623666e+01 (-1.153509e+01 +/- 0.000000e+00) [K]
    Coulombic Real/kʙ      -3.311958e+02 (-2.184455e+02 +/- 0.000000e+00) [K]
    Coulombic Fourier/kʙ   -2.024661e+01 (-1.584836e+01 +/- 0.000000e+00) [K]
    Molecule Intra/kʙ       0.000000e+00 ( 0.000000e+00 +/- 0.000000e+00) [K]

Current cycle: 500 out of 6000
===============================================================================

Box:      33.12066   0.00000   0.00000  Average:  33.34117   0.00000   0.00000
           0.00000  33.12066   0.00000             0.00000  33.34117   0.00000
           0.00000   0.00000  33.12066             0.00000   0.00000  33.34117
Lengths:  33.12066  33.12066  33.12066  Average:  33.34117  33.34117  33.34117
Angles:   90.00000  90.00000  90.00000  Average:  90.00000  90.00000  90.00000
Rectangular boundary conditions

net charge:   0.00000000

component 0 (CO2) lambda:  0 occupancy:  1 (1.000000)
    net charge:   0.00000000 [e]

Amount of molecules per component :
-------------------------------------------------------------------------------
Component 0 (CO2)
    molecules:      1.600000e+01 molecules  (1.480639e+01 +/- 0.000000e+00)
    number density: 4.403755e-04 molec./A^3 (3.990841e-04 +/- 0.000000e+00)
    density:        3.217459e+01 kg/m^3     (2.915777e+01 +/- 0.000000e+00)

Average pressure tensor: 
-------------------------------------------------------------------------------
 1.1706e+01 -3.6993e-01  3.2749e-01 +/- 0.0000e+00 0.0000e+00 0.0000e+00 [bar]
-3.6993e-01  1.2766e+01 -9.9773e-01 +/- 0.0000e+00 0.0000e+00 0.0000e+00 [bar]
 3.2749e-01 -9.9773e-01  1.4436e+01 +/- 0.0000e+00 0.0000e+00 0.0000e+00 [bar]
Ideal-gas pressure:   1.377489e+01 +/ 0.000000e+00 [bar]
Excess pressure:     -8.058189e-01 +/ 0.000000e+00 [bar]
Pressure:             1.296907e+01 +/ 0.000000e+00 [bar]

Total potential energy/kʙ  -4.053931e+02 (-7.788934e+02 +/- 0.000000e+00) [K]
-------------------------------------------------------------------------------
ExternalField-molecule
    Van der Waals/kʙ        0.000000e+00 ( 0.000000e+00 +/- 0.000000e+00) [K]
Framework-molecule
    Van der Waals/kʙ        0.000000e+00 ( 0.000000e+00 +/- 0.000000e+00) [K]
    Van der Waals (Tail)/kʙ 0.000000e+00 ( 0.000000e+00 +/- 0.000000e+00) [K]
    Coulombic Real/kʙ       0.000000e+00 ( 0.000000e+00 +/- 0.000000e+00) [K]
    Coulombic Fourier/kʙ    0.000000e+00 ( 0.000000e+00 +/- 0.000000e+00) [K]
Molecule-molecule
    Van der Waals/kʙ       -3.318344e+02 (-5.711755e+02 +/- 0.000000e+00) [K]
    Van der Waals (Tail)/kʙ-1.308517e+01 (-1.137003e+01 +/- 0.000000e+00) [K]
    Coulombic Real/kʙ       3.078297e+01 (-1.782845e+02 +/- 0.000000e+00) [K]
    Coulombic Fourier/kʙ   -9.125652e+01 (-1.806337e+01 +/- 0.000000e+00) [K]
    Molecule Intra/kʙ       0.000000e+00 ( 0.000000e+00 +/- 0.000000e+00) [K]

Current cycle: 600 out of 6000
===============================================================================

Box:      33.08392   0.00000   0.00000  Average:  33.29706   0.00000   0.00000
           0.00000  33.08392   0.00000             0.00000  33.29706   0.00000
           0.00000   0.00000  33.08392             0.00000   0.00000  33.29706
Lengths:  33.08392  33.08392  33.08392  Average:  33.29706  33.29706  33.29706
Angles:   90.00000  90.00000  90.00000  Average:  90.00000  90.00000  90.00000
Rectangular boundary conditions

net charge:   0.00000000

component 0 (CO2) lambda:  0 occupancy:  1 (1.000000)
    net charge:   0.00000000 [e]

Amount of molecules per component :
-------------------------------------------------------------------------------
Component 0 (CO2)
    molecules:      6.000000e+00 molecules  (1.438602e+01 +/- 0.000000e+00)
    number density: 1.656915e-04 molec./A^3 (3.891298e-04 +/- 0.000000e+00)
    density:        1.210570e+01 kg/m^3     (2.843049e+01 +/- 0.000000e+00)

Average pressure tensor: 
-------------------------------------------------------------------------------
 1.1605e+01 -2.0668e-01  8.6450e-02 +/- 0.0000e+00 0.0000e+00 0.0000e+00 [bar]
-2.0668e-01  1.2492e+01 -1.0039e+00 +/- 0.0000e+00 0.0000e+00 0.0000e+00 [bar]
 8.6450e-02 -1.0039e+00  1.3833e+01 +/- 0.0000e+00 0.0000e+00 0.0000e+00 [bar]
Ideal-gas pressure:   1.343130e+01 +/ 0.000000e+00 [bar]
Excess pressure:     -7.880172e-01 +/ 0.000000e+00 [bar]
Pressure:             1.264329e+01 +/ 0.000000e+00 [bar]

Total potential energy/kʙ  -2.864948e+01 (-7.150777e+02 +/- 0.000000e+00) [K]
-------------------------------------------------------------------------------
ExternalField-molecule
    Van der Waals/kʙ        0.000000e+00 ( 0.000000e+00 +/- 0.000000e+00) [K]
Framework-molecule
    Van der Waals/kʙ        0.000000e+00 ( 0.000000e+00 +/- 0.000000e+00) [K]
    Van der Waals (Tail)/kʙ 0.000000e+00 ( 0.000000e+00 +/- 0.000000e+00) [K]
    Coulombic Real/kʙ       0.000000e+00 ( 0.000000e+00 +/- 0.000000e+00) [K]
    Coulombic Fourier/kʙ    0.000000e+00 ( 0.000000e+00 +/- 0.000000e+00) [K]
Molecule-molecule
    Van der Waals/kʙ       -7.739457e+01 (-5.172777e+02 +/- 0.000000e+00) [K]
    Van der Waals (Tail)/kʙ-1.846238e+00 (-1.054459e+01 +/- 0.000000e+00) [K]
    Coulombic Real/kʙ       3.966227e+01 (-1.693110e+02 +/- 0.000000e+00) [K]
    Coulombic Fourier/kʙ    1.092905e+01 (-1.794446e+01 +/- 0.000000e+00) [K]
    Molecule Intra/kʙ       0.000000e+00 ( 0.000000e+00 +/- 0.000000e+00) [K]

Current cycle: 700 out of 6000
===============================================================================

Box:      33.50673   0.00000   0.00000  Average:  33.30254   0.00000   0.00000
           0.00000  33.50673   0.00000             0.00000  33.30254   0.00000
           0.00000   0.00000  33.50673             0.00000   0.00000  33.30254
Lengths:  33.50673  33.50673  33.50673  Average:  33.30254  33.30254  33.30254
Angles:   90.00000  90.00000  90.00000  Average:  90.00000  90.00000  90.00000
Rectangular boundary conditions

net charge:   0.00000000

component 0 (CO2) lambda:  0 occupancy:  1 (1.000000)
    net charge:   0.00000000 [e]

Amount of molecules per component :
-------------------------------------------------------------------------------
Component 0 (CO2)
    molecules:      2.000000e+01 molecules  (1.471469e+01 +/- 0.000000e+00)
    number density: 5.316598e-04 molec./A^3 (3.977416e-04 +/- 0.000000e+00)
    density:        3.884398e+01 kg/m^3     (2.905968e+01 +/- 0.000000e+00)

Average pressure tensor: 
-------------------------------------------------------------------------------
 1.1890e+01 -2.2618e-01  9.2865e-02 +/- 0.0000e+00 0.0000e+00 0.0000e+00 [bar]
-2.2618e-01  1.2901e+01 -9.7204e-01 +/- 0.0000e+00 0.0000e+00 0.0000e+00 [bar]
 9.2865e-02 -9.7204e-01  1.3633e+01 +/- 0.0000e+00 0.0000e+00 0.0000e+00 [bar]
Ideal-gas pressure:   1.372855e+01 +/ 0.000000e+00 [bar]
Excess pressure:     -9.204191e-01 +/ 0.000000e+00 [bar]
Pressure:             1.280813e+01 +/ 0.000000e+00 [bar]

Total potential energy/kʙ  -7.749539e+02 (-7.278871e+02 +/- 0.000000e+00) [K]
-------------------------------------------------------------------------------
ExternalField-molecule
    Van der Waals/kʙ        0.000000e+00 ( 0.000000e+00 +/- 0.000000e+00) [K]
Framework-molecule
    Van der Waals/kʙ        0.000000e+00 ( 0.000000e+00 +/- 0.000000e+00) [K]
    Van der Waals (Tail)/kʙ 0.000000e+00 ( 0.000000e+00 +/- 0.000000e+00) [K]
    Coulombic Real/kʙ       0.000000e+00 ( 0.000000e+00 +/- 0.000000e+00) [K]
    Coulombic Fourier/kʙ    0.000000e+00 ( 0.000000e+00 +/- 0.000000e+00) [K]
Molecule-molecule
    Van der Waals/kʙ       -7.314793e+02 (-5.309209e+02 +/- 0.000000e+00) [K]
    Van der Waals (Tail)/kʙ-1.974695e+01 (-1.091473e+01 +/- 0.000000e+00) [K]
    Coulombic Real/kʙ      -7.461508e+01 (-1.685072e+02 +/- 0.000000e+00) [K]
    Coulombic Fourier/kʙ    5.088741e+01 (-1.754433e+01 +/- 0.000000e+00) [K]
    Molecule Intra/kʙ       0.000000e+00 ( 0.000000e+00 +/- 0.000000e+00) [K]

Current cycle: 800 out of 6000
===============================================================================

Box:      33.19694   0.00000   0.00000  Average:  33.29844   0.00000   0.00000
           0.00000  33.19694   0.00000             0.00000  33.29844   0.00000
           0.00000   0.00000  33.19694             0.00000   0.00000  33.29844
Lengths:  33.19694  33.19694  33.19694  Average:  33.29844  33.29844  33.29844
Angles:   90.00000  90.00000  90.00000  Average:  90.00000  90.00000  90.00000
Rectangular boundary conditions

net charge:   0.00000000

component 0 (CO2) lambda:  0 occupancy:  1 (1.000000)
    net charge:   0.00000000 [e]

Amount of molecules per component :
-------------------------------------------------------------------------------
Component 0 (CO2)
    molecules:      2.100000e+01 molecules  (1.481024e+01 +/- 0.000000e+00)
    number density: 5.740173e-04 molec./A^3 (4.004854e-04 +/- 0.000000e+00)
    density:        4.193869e+01 kg/m^3     (2.926015e+01 +/- 0.000000e+00)

Average pressure tensor: 
-------------------------------------------------------------------------------
 1.2182e+01 -1.5219e-01  2.6229e-01 +/- 0.0000e+00 0.0000e+00 0.0000e+00 [bar]
-1.5219e-01  1.2879e+01 -9.0513e-01 +/- 0.0000e+00 0.0000e+00 0.0000e+00 [bar]
 2.6229e-01 -9.0513e-01  1.3476e+01 +/- 0.0000e+00 0.0000e+00 0.0000e+00 [bar]
Ideal-gas pressure:   1.382326e+01 +/ 0.000000e+00 [bar]
Excess pressure:     -9.774430e-01 +/ 0.000000e+00 [bar]
Pressure:             1.284582e+01 +/ 0.000000e+00 [bar]

Total potential energy/kʙ  -1.986888e+03 (-7.430019e+02 +/- 0.000000e+00) [K]
-------------------------------------------------------------------------------
ExternalField-molecule
    Van der Waals/kʙ        0.000000e+00 ( 0.000000e+00 +/- 0.000000e+00) [K]
Framework-molecule
    Van der Waals/kʙ        0.000000e+00 ( 0.000000e+00 +/- 0.000000e+00) [K]
    Van der Waals (Tail)/kʙ 0.000000e+00 ( 0.000000e+00 +/- 0.000000e+00) [K]
    Coulombic Real/kʙ       0.000000e+00 ( 0.000000e+00 +/- 0.000000e+00) [K]
    Coulombic Fourier/kʙ    0.000000e+00 ( 0.000000e+00 +/- 0.000000e+00) [K]
Molecule-molecule
    Van der Waals/kʙ       -1.383013e+03 (-5.459392e+02 +/- 0.000000e+00) [K]
    Van der Waals (Tail)/kʙ-2.238621e+01 (-1.125410e+01 +/- 0.000000e+00) [K]
    Coulombic Real/kʙ      -4.617171e+02 (-1.657274e+02 +/- 0.000000e+00) [K]
    Coulombic Fourier/kʙ   -1.197713e+02 (-2.008109e+01 +/- 0.000000e+00) [K]
    Molecule Intra/kʙ       0.000000e+00 ( 0.000000e+00 +/- 0.000000e+00) [K]

Current cycle: 900 out of 6000
===============================================================================

Box:      33.44535   0.00000   0.00000  Average:  33.30349   0.00000   0.00000
           0.00000  33.44535   0.00000             0.00000  33.30349   0.00000
           0.00000   0.00000  33.44535             0.00000   0.00000  33.30349
Lengths:  33.44535  33.44535  33.44535  Average:  33.30349  33.30349  33.30349
Angles:   90.00000  90.00000  90.00000  Average:  90.00000  90.00000  90.00000
Rectangular boundary conditions

net charge:   0.00000000

component 0 (CO2) lambda:  0 occupancy:  1 (1.000000)
    net charge:   0.00000000 [e]

Amount of molecules per component :
-------------------------------------------------------------------------------
Component 0 (CO2)
    molecules:      2.000000e+01 molecules  (1.503996e+01 +/- 0.000000e+00)
    number density: 5.345925e-04 molec./A^3 (4.065625e-04 +/- 0.000000e+00)
    density:        3.905824e+01 kg/m^3     (2.970415e+01 +/- 0.000000e+00)

Average pressure tensor: 
-------------------------------------------------------------------------------
 1.2413e+01 -2.0362e-01  3.1456e-01 +/- 0.0000e+00 0.0000e+00 0.0000e+00 [bar]
-2.0362e-01  1.3059e+01 -7.7291e-01 +/- 0.0000e+00 0.0000e+00 0.0000e+00 [bar]
 3.1456e-01 -7.7291e-01  1.3358e+01 +/- 0.0000e+00 0.0000e+00 0.0000e+00 [bar]
Ideal-gas pressure:   1.403301e+01 +/ 0.000000e+00 [bar]
Excess pressure:     -1.089625e+00 +/ 0.000000e+00 [bar]
Pressure:             1.294339e+01 +/ 0.000000e+00 [bar]

Total potential energy/kʙ  -1.269767e+03 (-7.448260e+02 +/- 0.000000e+00) [K]
-------------------------------------------------------------------------------
ExternalField-molecule
    Van der Waals/kʙ        0.000000e+00 ( 0.000000e+00 +/- 0.000000e+00) [K]
Framework-molecule
    Van der Waals/kʙ        0.000000e+00 ( 0.000000e+00 +/- 0.000000e+00) [K]
    Van der Waals (Tail)/kʙ 0.000000e+00 ( 0.000000e+00 +/- 0.000000e+00) [K]
    Coulombic Real/kʙ       0.000000e+00 ( 0.000000e+00 +/- 0.000000e+00) [K]
    Coulombic Fourier/kʙ    0.000000e+00 ( 0.000000e+00 +/- 0.000000e+00) [K]
Molecule-molecule
    Van der Waals/kʙ       -7.247487e+02 (-5.491966e+02 +/- 0.000000e+00) [K]
    Van der Waals (Tail)/kʙ-1.985588e+01 (-1.166145e+01 +/- 0.000000e+00) [K]
    Coulombic Real/kʙ      -4.717631e+02 (-1.635628e+02 +/- 0.000000e+00) [K]
    Coulombic Fourier/kʙ   -5.339954e+01 (-2.040512e+01 +/- 0.000000e+00) [K]
    Molecule Intra/kʙ       0.000000e+00 ( 0.000000e+00 +/- 0.000000e+00) [K]

Current cycle: 1000 out of 6000
===============================================================================

Box:      33.43060   0.00000   0.00000  Average:  33.32191   0.00000   0.00000
           0.00000  33.43060   0.00000             0.00000  33.32191   0.00000
           0.00000   0.00000  33.43060             0.00000   0.00000  33.32191
Lengths:  33.43060  33.43060  33.43060  Average:  33.32191  33.32191  33.32191
Angles:   90.00000  90.00000  90.00000  Average:  90.00000  90.00000  90.00000
Rectangular boundary conditions

net charge:   0.00000000

component 0 (CO2) lambda:  0 occupancy:  1 (1.000000)
    net charge:   0.00000000 [e]

Amount of molecules per component :
-------------------------------------------------------------------------------
Component 0 (CO2)
    molecules:      1.800000e+01 molecules  (1.524775e+01 +/- 0.000000e+00)
    number density: 4.817703e-04 molec./A^3 (4.114655e-04 +/- 0.000000e+00)
    density:        3.519897e+01 kg/m^3     (3.006237e+01 +/- 0.000000e+00)

Average pressure tensor: 
-------------------------------------------------------------------------------
 1.2526e+01 -1.4813e-01  6.8961e-02 +/- 0.0000e+00 0.0000e+00 0.0000e+00 [bar]
-1.4813e-01  1.3183e+01 -5.7843e-01 +/- 0.0000e+00 0.0000e+00 0.0000e+00 [bar]
 6.8961e-02 -5.7843e-01  1.3282e+01 +/- 0.0000e+00 0.0000e+00 0.0000e+00 [bar]
Ideal-gas pressure:   1.420225e+01 +/ 0.000000e+00 [bar]
Excess pressure:     -1.205497e+00 +/ 0.000000e+00 [bar]
Pressure:             1.299675e+01 +/ 0.000000e+00 [bar]

Total potential energy/kʙ  -4.329569e+02 (-7.842552e+02 +/- 0.000000e+00) [K]
-------------------------------------------------------------------------------
ExternalField-molecule
    Van der Waals/kʙ        0.000000e+00 ( 0.000000e+00 +/- 0.000000e+00) [K]
Framework-molecule
    Van der Waals/kʙ        0.000000e+00 ( 0.000000e+00 +/- 0.000000e+00) [K]
    Van der Waals (Tail)/kʙ 0.000000e+00 ( 0.000000e+00 +/- 0.000000e+00) [K]
    Coulombic Real/kʙ       0.000000e+00 ( 0.000000e+00 +/- 0.000000e+00) [K]
    Coulombic Fourier/kʙ    0.000000e+00 ( 0.000000e+00 +/- 0.000000e+00) [K]
Molecule-molecule
    Van der Waals/kʙ        2.233602e+02 (-5.763634e+02 +/- 0.000000e+00) [K]
    Van der Waals (Tail)/kʙ-1.610456e+01 (-1.199573e+01 +/- 0.000000e+00) [K]
    Coulombic Real/kʙ      -6.595588e+02 (-1.764387e+02 +/- 0.000000e+00) [K]
    Coulombic Fourier/kʙ    1.934623e+01 (-1.945739e+01 +/- 0.000000e+00) [K]
    Molecule Intra/kʙ       0.000000e+00 ( 0.000000e+00 +/- 0.000000e+00) [K]

Current cycle: 1100 out of 6000
===============================================================================

Box:      33.51878   0.00000   0.00000  Average:  33.33074   0.00000   0.00000
           0.00000  33.51878   0.00000             0.00000  33.33074   0.00000
           0.00000   0.00000  33.51878             0.00000   0.00000  33.33074
Lengths:  33.51878  33.51878  33.51878  Average:  33.33074  33.33074  33.33074
Angles:   90.00000  90.00000  90.00000  Average:  90.00000  90.00000  90.00000
Rectangular boundary conditions

net charge:   0.00000000

component 0 (CO2) lambda:  0 occupancy:  1 (1.000000)
    net charge:   0.00000000 [e]

Amount of molecules per component :
-------------------------------------------------------------------------------
Component 0 (CO2)
    molecules:      1.800000e+01 molecules  (1.545232e+01 +/- 0.000000e+00)
    number density: 4.779780e-04 molec./A^3 (4.166924e-04 +/- 0.000000e+00)
    density:        3.492189e+01 kg/m^3     (3.044426e+01 +/- 0.000000e+00)

Average pressure tensor: 
-------------------------------------------------------------------------------
 1.2826e+01 -2.2280e-01  2.0029e-01 +/- 0.0000e+00 0.0000e+00 0.0000e+00 [bar]
-2.2280e-01  1.3738e+01 -6.2297e-01 +/- 0.0000e+00 0.0000e+00 0.0000e+00 [bar]
 2.0029e-01 -6.2297e-01  1.3248e+01 +/- 0.0000e+00 0.0000e+00 0.0000e+00 [bar]
Ideal-gas pressure:   1.438266e+01 +/ 0.000000e+00 [bar]
Excess pressure:     -1.112116e+00 +/ 0.000000e+00 [bar]
Pressure:             1.327055e+01 +/ 0.000000e+00 [bar]

Total potential energy/kʙ  -1.825726e+03 (-8.242456e+02 +/- 0.000000e+00) [K]
-------------------------------------------------------------------------------
ExternalField-molecule
    Van der Waals/kʙ        0.000000e+00 ( 0.000000e+00 +/- 0.000000e+00) [K]
Framework-molecule
    Van der Waals/kʙ        0.000000e+00 ( 0.000000e+00 +/- 0.000000e+00) [K]
    Van der Waals (Tail)/kʙ 0.000000e+00 ( 0.000000e+00 +/- 0.000000e+00) [K]
    Coulombic Real/kʙ       0.000000e+00 ( 0.000000e+00 +/- 0.000000e+00) [K]
    Coulombic Fourier/kʙ    0.000000e+00 ( 0.000000e+00 +/- 0.000000e+00) [K]
Molecule-molecule
    Van der Waals/kʙ       -1.272557e+03 (-6.178219e+02 +/- 0.000000e+00) [K]
    Van der Waals (Tail)/kʙ-1.597779e+01 (-1.236994e+01 +/- 0.000000e+00) [K]
    Coulombic Real/kʙ      -4.325500e+02 (-1.747125e+02 +/- 0.000000e+00) [K]
    Coulombic Fourier/kʙ   -1.046408e+02 (-1.934120e+01 +/- 0.000000e+00) [K]
    Molecule Intra/kʙ       0.000000e+00 ( 0.000000e+00 +/- 0.000000e+00) [K]

Current cycle: 1200 out of 6000
===============================================================================

Box:      33.55360   0.00000   0.00000  Average:  33.34605   0.00000   0.00000
           0.00000  33.55360   0.00000             0.00000  33.34605   0.00000
           0.00000   0.00000  33.55360             0.00000   0.00000  33.34605
Lengths:  33.55360  33.55360  33.55360  Average:  33.34605  33.34605  33.34605
Angles:   90.00000  90.00000  90.00000  Average:  90.00000  90.00000  90.00000
Rectangular boundary conditions

net charge:   0.00000000

component 0 (CO2) lambda:  0 occupancy:  1 (1.000000)
    net charge:   0.00000000 [e]

Amount of molecules per component :
-------------------------------------------------------------------------------
Component 0 (CO2)
    molecules:      1.800000e+01 molecules  (1.606661e+01 +/- 0.000000e+00)
    number density: 4.764913e-04 molec./A^3 (4.324867e-04 +/- 0.000000e+00)
    density:        3.481327e+01 kg/m^3     (3.159822e+01 +/- 0.000000e+00)

Average pressure tensor: 
-------------------------------------------------------------------------------
 1.3302e+01 -3.6080e-01  1.5706e-01 +/- 0.0000e+00 0.0000e+00 0.0000e+00 [bar]
-3.6080e-01  1.3838e+01 -3.7631e-01 +/- 0.0000e+00 0.0000e+00 0.0000e+00 [bar]
 1.5706e-01 -3.7631e-01  1.3483e+01 +/- 0.0000e+00 0.0000e+00 0.0000e+00 [bar]
Ideal-gas pressure:   1.492782e+01 +/ 0.000000e+00 [bar]
Excess pressure:     -1.386958e+00 +/ 0.000000e+00 [bar]
Pressure:             1.354087e+01 +/ 0.000000e+00 [bar]

Total potential energy/kʙ  -1.963941e+03 (-9.393703e+02 +/- 0.000000e+00) [K]
-------------------------------------------------------------------------------
ExternalField-molecule
    Van der Waals/kʙ        0.000000e+00 ( 0.000000e+00 +/- 0.000000e+00) [K]
Framework-molecule
    Van der Waals/kʙ        0.000000e+00 ( 0.000000e+00 +/- 0.000000e+00) [K]
    Van der Waals (Tail)/kʙ 0.000000e+00 ( 0.000000e+00 +/- 0.000000e+00) [K]
    Coulombic Real/kʙ       0.000000e+00 ( 0.000000e+00 +/- 0.000000e+00) [K]
    Coulombic Fourier/kʙ    0.000000e+00 ( 0.000000e+00 +/- 0.000000e+00) [K]
Molecule-molecule
    Van der Waals/kʙ       -1.427480e+03 (-7.003525e+02 +/- 0.000000e+00) [K]
    Van der Waals (Tail)/kʙ-1.592809e+01 (-1.341570e+01 +/- 0.000000e+00) [K]
    Coulombic Real/kʙ      -5.540038e+02 (-2.024547e+02 +/- 0.000000e+00) [K]
    Coulombic Fourier/kʙ    3.347087e+01 (-2.314747e+01 +/- 0.000000e+00) [K]
    Molecule Intra/kʙ       0.000000e+00 ( 0.000000e+00 +/- 0.000000e+00) [K]

Current cycle: 1300 out of 6000
===============================================================================

Box:      33.69780   0.00000   0.00000  Average:  33.35824   0.00000   0.00000
           0.00000  33.69780   0.00000             0.00000  33.35824   0.00000
           0.00000   0.00000  33.69780             0.00000   0.00000  33.35824
Lengths:  33.69780  33.69780  33.69780  Average:  33.35824  33.35824  33.35824
Angles:   90.00000  90.00000  90.00000  Average:  90.00000  90.00000  90.00000
Rectangular boundary conditions

net charge:   0.00000000

component 0 (CO2) lambda:  0 occupancy:  1 (1.000000)
    net charge:   0.00000000 [e]

Amount of molecules per component :
-------------------------------------------------------------------------------
Component 0 (CO2)
    molecules:      2.100000e+01 molecules  (1.603689e+01 +/- 0.000000e+00)
    number density: 5.488005e-04 molec./A^3 (4.312700e-04 +/- 0.000000e+00)
    density:        4.009630e+01 kg/m^3     (3.150932e+01 +/- 0.000000e+00)

Average pressure tensor: 
-------------------------------------------------------------------------------
 1.3526e+01 -2.1618e-01 -2.5001e-02 +/- 0.0000e+00 0.0000e+00 0.0000e+00 [bar]
-2.1618e-01  1.3862e+01 -4.1339e-01 +/- 0.0000e+00 0.0000e+00 0.0000e+00 [bar]
-2.5001e-02 -4.1339e-01  1.3409e+01 +/- 0.0000e+00 0.0000e+00 0.0000e+00 [bar]
Ideal-gas pressure:   1.488583e+01 +/ 0.000000e+00 [bar]
Excess pressure:     -1.286884e+00 +/ 0.000000e+00 [bar]
Pressure:             1.359894e+01 +/ 0.000000e+00 [bar]

Total potential energy/kʙ  -3.182368e+03 (-9.377625e+02 +/- 0.000000e+00) [K]
-------------------------------------------------------------------------------
ExternalField-molecule
    Van der Waals/kʙ        0.000000e+00 ( 0.000000e+00 +/- 0.000000e+00) [K]
Framework-molecule
    Van der Waals/kʙ        0.000000e+00 ( 0.000000e+00 +/- 0.000000e+00) [K]
    Van der Waals (Tail)/kʙ 0.000000e+00 ( 0.000000e+00 +/- 0.000000e+00) [K]
    Coulombic Real/kʙ       0.000000e+00 ( 0.000000e+00 +/- 0.000000e+00) [K]
    Coulombic Fourier/kʙ    0.000000e+00 ( 0.000000e+00 +/- 0.000000e+00) [K]
Molecule-molecule
    Van der Waals/kʙ       -2.095224e+03 (-6.938785e+02 +/- 0.000000e+00) [K]
    Van der Waals (Tail)/kʙ-2.140277e+01 (-1.335448e+01 +/- 0.000000e+00) [K]
    Coulombic Real/kʙ      -1.007919e+03 (-2.066726e+02 +/- 0.000000e+00) [K]
    Coulombic Fourier/kʙ   -5.782273e+01 (-2.385690e+01 +/- 0.000000e+00) [K]
    Molecule Intra/kʙ       0.000000e+00 ( 0.000000e+00 +/- 0.000000e+00) [K]

Current cycle: 1400 out of 6000
===============================================================================

Box:      33.47638   0.00000   0.00000  Average:  33.36763   0.00000   0.00000
           0.00000  33.47638   0.00000             0.00000  33.36763   0.00000
           0.00000   0.00000  33.47638             0.00000   0.00000  33.36763
Lengths:  33.47638  33.47638  33.47638  Average:  33.36763  33.36763  33.36763
Angles:   90.00000  90.00000  90.00000  Average:  90.00000  90.00000  90.00000
Rectangular boundary conditions

net charge:   0.00000000

component 0 (CO2) lambda:  0 occupancy:  1 (1.000000)
    net charge:   0.00000000 [e]

Amount of molecules per component :
-------------------------------------------------------------------------------
Component 0 (CO2)
    molecules:      1.800000e+01 molecules  (1.622627e+01 +/- 0.000000e+00)
    number density: 4.797964e-04 molec./A^3 (4.359955e-04 +/- 0.000000e+00)
    density:        3.505474e+01 kg/m^3     (3.185458e+01 +/- 0.000000e+00)

Average pressure tensor: 
-------------------------------------------------------------------------------
 1.3405e+01 -1.0326e-01 -8.2943e-02 +/- 0.0000e+00 0.0000e+00 0.0000e+00 [bar]
-1.0326e-01  1.3640e+01 -4.6590e-01 +/- 0.0000e+00 0.0000e+00 0.0000e+00 [bar]
-8.2943e-02 -4.6590e-01  1.3297e+01 +/- 0.0000e+00 0.0000e+00 0.0000e+00 [bar]
Ideal-gas pressure:   1.504893e+01 +/ 0.000000e+00 [bar]
Excess pressure:     -1.601328e+00 +/ 0.000000e+00 [bar]
Pressure:             1.344761e+01 +/ 0.000000e+00 [bar]

Total potential energy/kʙ  -1.111932e+03 (-9.589810e+02 +/- 0.000000e+00) [K]
-------------------------------------------------------------------------------
ExternalField-molecule
    Van der Waals/kʙ        0.000000e+00 ( 0.000000e+00 +/- 0.000000e+00) [K]
Framework-molecule
    Van der Waals/kʙ        0.000000e+00 ( 0.000000e+00 +/- 0.000000e+00) [K]
    Van der Waals (Tail)/kʙ 0.000000e+00 ( 0.000000e+00 +/- 0.000000e+00) [K]
    Coulombic Real/kʙ       0.000000e+00 ( 0.000000e+00 +/- 0.000000e+00) [K]
    Coulombic Fourier/kʙ    0.000000e+00 ( 0.000000e+00 +/- 0.000000e+00) [K]
Molecule-molecule
    Van der Waals/kʙ       -7.981944e+02 (-7.117281e+02 +/- 0.000000e+00) [K]
    Van der Waals (Tail)/kʙ-1.603857e+01 (-1.375094e+01 +/- 0.000000e+00) [K]
    Coulombic Real/kʙ      -2.620488e+02 (-2.106983e+02 +/- 0.000000e+00) [K]
    Coulombic Fourier/kʙ   -3.564990e+01 (-2.280364e+01 +/- 0.000000e+00) [K]
    Molecule Intra/kʙ       0.000000e+00 ( 0.000000e+00 +/- 0.000000e+00) [K]

Current cycle: 1500 out of 6000
===============================================================================

Box:      33.34877   0.00000   0.00000  Average:  33.37052   0.00000   0.00000
           0.00000  33.34877   0.00000             0.00000  33.37052   0.00000
           0.00000   0.00000  33.34877             0.00000   0.00000  33.37052
[...]
    number density: 5.466121e-04 molec./A^3 (5.280405e-04 +/- 1.439411e-04)
    density:        3.993642e+01 kg/m^3     (3.857954e+01 +/- 1.051659e+01)

Average pressure tensor: 
-------------------------------------------------------------------------------
 1.5116e+01 -5.3769e-03 -2.4874e-01 +/- 3.2537e+00 3.3195e-01 6.6632e-01 [bar]
-5.3769e-03  1.6172e+01 -8.7754e-02 +/- 3.3195e-01 4.8240e+00 9.5517e-01 [bar]
-2.4874e-01 -8.7754e-02  1.5170e+01 +/- 6.6632e-01 9.5517e-01 2.2893e+00 [bar]
Ideal-gas pressure:   1.822598e+01 +/ 4.968309e+00 [bar]
Excess pressure:     -2.740162e+00 +/ 1.670520e+00 [bar]
Pressure:             1.548582e+01 +/ 3.390709e+00 [bar]

Total potential energy/kʙ  -1.223313e+03 (-1.593081e+03 +/- 1.002428e+03) [K]
-------------------------------------------------------------------------------
ExternalField-molecule
    Van der Waals/kʙ        0.000000e+00 ( 0.000000e+00 +/- 0.000000e+00) [K]
Framework-molecule
    Van der Waals/kʙ        0.000000e+00 ( 0.000000e+00 +/- 0.000000e+00) [K]
    Van der Waals (Tail)/kʙ 0.000000e+00 ( 0.000000e+00 +/- 0.000000e+00) [K]
    Coulombic Real/kʙ       0.000000e+00 ( 0.000000e+00 +/- 0.000000e+00) [K]
    Coulombic Fourier/kʙ    0.000000e+00 ( 0.000000e+00 +/- 0.000000e+00) [K]
Molecule-molecule
    Van der Waals/kʙ       -5.899329e+02 (-1.183746e+03 +/- 7.352772e+02) [K]
    Van der Waals (Tail)/kʙ-2.131743e+01 (-2.121860e+01 +/- 1.243111e+01) [K]
    Coulombic Real/kʙ      -6.123079e+02 (-3.540760e+02 +/- 2.300881e+02) [K]
    Coulombic Fourier/kʙ    2.455424e-01 (-3.403994e+01 +/- 2.663878e+01) [K]
    Molecule Intra/kʙ       0.000000e+00 ( 0.000000e+00 +/- 0.000000e+00) [K]

Current cycle: 5800 out of 6000
===============================================================================

Box:      33.65707   0.00000   0.00000  Average:  33.54515   0.00000   0.00000
           0.00000  33.65707   0.00000             0.00000  33.54515   0.00000
           0.00000   0.00000  33.65707             0.00000   0.00000  33.54515
Lengths:  33.65707  33.65707  33.65707  Average:  33.54515  33.54515  33.54515
Angles:   90.00000  90.00000  90.00000  Average:  90.00000  90.00000  90.00000
Rectangular boundary conditions

net charge:   0.00000000

component 0 (CO2) lambda:  0 occupancy:  1 (1.000000)
    net charge:   0.00000000 [e]

Amount of molecules per component :
-------------------------------------------------------------------------------
Component 0 (CO2)
    molecules:      1.900000e+01 molecules  (2.002706e+01 +/- 5.633906e+00)
    number density: 4.983389e-04 molec./A^3 (5.284440e-04 +/- 1.364140e-04)
    density:        3.640949e+01 kg/m^3     (3.860902e+01 +/- 9.966643e+00)

Average pressure tensor: 
-------------------------------------------------------------------------------
 1.5099e+01  3.9964e-02 -2.2836e-01 +/- 3.0876e+00 4.3585e-01 6.4937e-01 [bar]
 3.9964e-02  1.6243e+01 -2.6230e-02 +/- 4.3585e-01 4.7052e+00 1.0632e+00 [bar]
-2.2836e-01 -2.6230e-02  1.5197e+01 +/- 6.4937e-01 1.0632e+00 2.2561e+00 [bar]
Ideal-gas pressure:   1.823991e+01 +/ 4.708502e+00 [bar]
Excess pressure:     -2.726881e+00 +/ 1.522632e+00 [bar]
Pressure:             1.551303e+01 +/ 3.277730e+00 [bar]

Total potential energy/kʙ  -7.803913e+02 (-1.593413e+03 +/- 9.417270e+02) [K]
-------------------------------------------------------------------------------
ExternalField-molecule
    Van der Waals/kʙ        0.000000e+00 ( 0.000000e+00 +/- 0.000000e+00) [K]
Framework-molecule
    Van der Waals/kʙ        0.000000e+00 ( 0.000000e+00 +/- 0.000000e+00) [K]
    Van der Waals (Tail)/kʙ 0.000000e+00 ( 0.000000e+00 +/- 0.000000e+00) [K]
    Coulombic Real/kʙ       0.000000e+00 ( 0.000000e+00 +/- 0.000000e+00) [K]
    Coulombic Fourier/kʙ    0.000000e+00 ( 0.000000e+00 +/- 0.000000e+00) [K]
Molecule-molecule
    Van der Waals/kʙ       -4.499602e+02 (-1.185272e+03 +/- 6.950943e+02) [K]
    Van der Waals (Tail)/kʙ-1.758387e+01 (-2.125488e+01 +/- 1.176389e+01) [K]
    Coulombic Real/kʙ      -2.620159e+02 (-3.531857e+02 +/- 2.132850e+02) [K]
    Coulombic Fourier/kʙ   -5.083133e+01 (-3.369970e+01 +/- 2.347921e+01) [K]
    Molecule Intra/kʙ       0.000000e+00 ( 0.000000e+00 +/- 0.000000e+00) [K]

Current cycle: 5900 out of 6000
===============================================================================

Box:      33.69887   0.00000   0.00000  Average:  33.54742   0.00000   0.00000
           0.00000  33.69887   0.00000             0.00000  33.54742   0.00000
           0.00000   0.00000  33.69887             0.00000   0.00000  33.54742
Lengths:  33.69887  33.69887  33.69887  Average:  33.54742  33.54742  33.54742
Angles:   90.00000  90.00000  90.00000  Average:  90.00000  90.00000  90.00000
Rectangular boundary conditions

net charge:   0.00000000

component 0 (CO2) lambda:  0 occupancy:  1 (1.000000)
    net charge:   0.00000000 [e]

Amount of molecules per component :
-------------------------------------------------------------------------------
Component 0 (CO2)
    molecules:      1.600000e+01 molecules  (2.002796e+01 +/- 5.352005e+00)
    number density: 4.180942e-04 molec./A^3 (5.283945e-04 +/- 1.294685e-04)
    density:        3.054668e+01 kg/m^3     (3.860541e+01 +/- 9.459187e+00)

Average pressure tensor: 
-------------------------------------------------------------------------------
 1.5190e+01  1.2721e-02 -2.9557e-01 +/- 3.1639e+00 3.4216e-01 7.0433e-01 [bar]
 1.2721e-02  1.6259e+01 -1.6888e-02 +/- 3.4216e-01 4.4765e+00 1.0298e+00 [bar]
-2.9557e-01 -1.6888e-02  1.5191e+01 +/- 7.0433e-01 1.0298e+00 2.1689e+00 [bar]
Ideal-gas pressure:   1.823820e+01 +/ 4.468767e+00 [bar]
Excess pressure:     -2.691575e+00 +/ 1.352143e+00 [bar]
Pressure:             1.554663e+01 +/ 3.205596e+00 [bar]

Total potential energy/kʙ  -1.009663e+03 (-1.596223e+03 +/- 8.999215e+02) [K]
-------------------------------------------------------------------------------
ExternalField-molecule
    Van der Waals/kʙ        0.000000e+00 ( 0.000000e+00 +/- 0.000000e+00) [K]
Framework-molecule
    Van der Waals/kʙ        0.000000e+00 ( 0.000000e+00 +/- 0.000000e+00) [K]
    Van der Waals (Tail)/kʙ 0.000000e+00 ( 0.000000e+00 +/- 0.000000e+00) [K]
    Coulombic Real/kʙ       0.000000e+00 ( 0.000000e+00 +/- 0.000000e+00) [K]
    Coulombic Fourier/kʙ    0.000000e+00 ( 0.000000e+00 +/- 0.000000e+00) [K]
Molecule-molecule
    Van der Waals/kʙ       -7.515884e+02 (-1.185669e+03 +/- 6.609172e+02) [K]
    Van der Waals (Tail)/kʙ-1.242311e+01 (-2.123803e+01 +/- 1.111326e+01) [K]
    Coulombic Real/kʙ      -1.813888e+02 (-3.553669e+02 +/- 2.074374e+02) [K]
    Coulombic Fourier/kʙ   -6.426274e+01 (-3.394918e+01 +/- 2.256431e+01) [K]
    Molecule Intra/kʙ       0.000000e+00 ( 0.000000e+00 +/- 0.000000e+00) [K]


Energy statistics             |  Energy [K]   | Recomputed [K]|  Drift [K]    |
===============================================================================
Total potential energy/kʙ     | -1.945511e+03 | -1.942880e+03 | -2.631047e+00 |
    external field VDW/kʙ     |  0.000000e+00 |  0.000000e+00 |  0.000000e+00 |
    external field Real/kʙ    |  0.000000e+00 |  0.000000e+00 |  0.000000e+00 |
    framework-molecule VDW/kʙ |  0.000000e+00 |  0.000000e+00 |  0.000000e+00 |
    framework-molecule Real/kʙ|  0.000000e+00 |  0.000000e+00 |  0.000000e+00 |
    molecule-molecule VDW/kʙ  | -1.478626e+03 | -1.475639e+03 | -2.987152e+00 |
    molecule-molecule Real/kʙ | -3.697098e+02 | -3.700659e+02 |  3.561054e-01 |
    Van der Waals (Tail)/kʙ   | -1.740768e+01 | -1.740768e+01 |  0.000000e+00 |
    Ewald Fourier/kʙ          |  1.037540e+03 |  1.037540e+03 | -1.504073e-12 |
    Ewald self/kʙ             | -3.489689e+05 | -3.489689e+05 |  0.000000e+00 |
    Ewald exclusion/kʙ        |  3.478516e+05 |  3.478516e+05 |  0.000000e+00 |
    intra VDW/kʙ              |  0.000000e+00 |  0.000000e+00 |  0.000000e+00 |
    intra Coulombic/kʙ        |  0.000000e+00 |  0.000000e+00 |  0.000000e+00 |
    polarization/kʙ           |  0.000000e+00 |  0.000000e+00 |  0.000000e+00 |
    dU/dlambda VDW/kʙ         |  0.000000e+00 |  0.000000e+00 |  0.000000e+00 |
    dU/dlambda Real/kʙ        |  0.000000e+00 |  0.000000e+00 |  0.000000e+00 |
    dU/dlambda Ewald/kʙ       |  0.000000e+00 |  0.000000e+00 |  0.000000e+00 |
-------------------------------------------------------------------------------


Monte-Carlo moves statistics
===============================================================================

    Gibbs volume         all:                2979
    Gibbs volume         total:              5983
    Gibbs volume         constructed:        5983
    Gibbs volume         accepted:           2383
    Gibbs volume         fraction:       0.398295
    Gibbs volume         max-change:     0.051868

Component 0 [CO2]
    Reinsertion (CBMC)   all:              149282
    Reinsertion (CBMC)   total:            149282
    Reinsertion (CBMC)   constructed:      149282
    Reinsertion (CBMC)   accepted:         112519
    Reinsertion (CBMC)   fraction:       0.753735
    Reinsertion (CBMC)   max-change:     0.000000

    Gibbs swap (CBMC)    all:              298748
    Gibbs swap (CBMC)    total:            597259
    Gibbs swap (CBMC)    constructed:      569396
    Gibbs swap (CBMC)    accepted:          42684
    Gibbs swap (CBMC)    fraction:       0.071466
    Gibbs swap (CBMC)    max-change:     0.000000

    Translation          all:              149647
    Translation          total:             49920      49941      49786
    Translation          constructed:       49860      49916      49735
    Translation          accepted:          44195      44655      44048
    Translation          fraction:       0.885317   0.894155   0.884747
    Translation          max-change:     1.500000   1.500000   1.500000

    Rotation             all:              149241
    Rotation             total:             49702      50003      49536
    Rotation             constructed:       49690      49984      49527
    Rotation             accepted:          43832      44010      43697
    Rotation             fraction:       0.881896   0.880147   0.882126
    Rotation             max-change:     1.500000   1.500000   1.500000



Production run counting of the MC moves summed over systems and components
===============================================================================

Reinsertion (CBMC)                   298805 (19.9203 [%])
Gibbs volume                           5983 (0.3989 [%])
Gibbs swap (CBMC)                    597259 (39.8173 [%])
Translation                          299866 (19.9911 [%])
Rotation                             298087 (19.8725 [%])

Production count MC-steps:          1500000 [-]
               All summed:          1500000 [-]
               difference:                0 [-]


Production run CPU timings of the MC moves
===============================================================================

Component 0 CO2

Rotation                              4.368913 [s]
    Ewald                             3.479360 [s]
    ExternalField-Molecule            0.005153 [s]
    Framework-Molecule                0.005448 [s]
    Molecule-Molecule                 0.524062 [s]
    Overhead                          0.354890 [s]

Reinsertion (CBMC)                    9.957240 [s]
    Ewald                             3.480144 [s]
    NonEwald                          6.194618 [s]
    Overhead                          0.282478 [s]

Translation                           4.365758 [s]
    Ewald                             3.472507 [s]
    ExternalField-Molecule            0.005021 [s]
    Framework-Molecule                0.008066 [s]
    Molecule-Molecule                 0.531239 [s]
    Overhead                          0.348925 [s]



Gibbs swap (CBMC)                   119.131576 [s]
    Ewald                            13.425672 [s]
    NonEwald                        104.312097 [s]
    Tail                              1.009160 [s]

Gibbs volume                         15.546602 [s]
    Ewald                             4.320163 [s]
    NonEwald                         10.701019 [s]
    Tail                              0.448887 [s]

Property sampling                     0.228088 [s]
Energy/pressure sampling:             0.261491 [s]


Production run CPU timings of the MC moves summed over systems and components
===============================================================================


Translation                          18.409844 [s]
    Ewald                             8.347956 [s]
    ExternalField-Molecule            0.009817 [s]
    Framework-Molecule                0.016196 [s]
    Molecule-Molecule                 9.373813 [s]
    Overhead                          0.662062 [s]

Rotation                             18.268611 [s]
    Ewald                             8.314190 [s]
    ExternalField-Molecule            0.010356 [s]
    Framework-Molecule                0.010792 [s]
    Molecule-Molecule                 9.243518 [s]
    Overhead                          0.689755 [s]

Reinsertion (CBMC)                   76.186686 [s]
    Ewald                             7.957097 [s]
    NonEwald                         67.861279 [s]
    Overhead                          0.368310 [s]

Gibbs volume                         31.197652 [s]
    Ewald                             8.661220 [s]
    NonEwald                         21.481991 [s]
    Tail                              0.898418 [s]
    Overhead                          0.156023 [s]

Gibbs swap (CBMC)                   209.664438 [s]
    Ewald                            25.568067 [s]
    NonEwald                        181.601906 [s]
    Tail                              1.749090 [s]
    Overhead                          0.745375 [s]

Property sampling:                    0.466815 [s]
Energy/pressure sampling:             7.109295 [s]

Production simulation time:         362.046127 [s]
                All summed:         361.303341 [s]
                  Overhead:           0.742786 [s]


Initalization simulation time:      114.348530 [s]
Equilibration simulation time:        0.000000 [s]
Production simulation time:         362.046127 [s]
Total simulation time:              476.394657 [s]


Energy averages and statistics:
===============================================================================

Framework-molecule energy:
-------------------------------------------------------------------------------



Framework-molecule energy contributions per energy type:
-------------------------------------------------------------------------------



Inter-molecular energy:
-------------------------------------------------------------------------------

    Inter-molecular energy/kʙ 0-0 [CO2-CO2]:
    ---------------------------------------------------------------------------
        Block[  0] -9.308322e+02
        Block[  1] -1.050004e+03
        Block[  2] -1.394354e+03
        Block[  3] -2.023005e+03
        Block[  4] -2.633590e+03
        -----------------------------------------------------------------------
        Average  -1.606357e+03 +/-  8.864985e+02 [K]



Inter-molecular energy contributions per energy type:
-------------------------------------------------------------------------------

    Van der Waals energy/kʙ 0-0 [CO2-CO2]:
    ---------------------------------------------------------------------------
        Block[  0] -6.942931e+02
        Block[  1] -7.839812e+02
        Block[  2] -1.031918e+03
        Block[  3] -1.517848e+03
        Block[  4] -1.932615e+03
        -----------------------------------------------------------------------
        Average  -1.192131e+03 +/-  6.494019e+02 [K]

    VDW Tail-Correction energy/kʙ 0-0 [CO2-CO2]:
    ---------------------------------------------------------------------------
        Block[  0] -1.339476e+01
        Block[  1] -1.471498e+01
        Block[  2] -1.779908e+01
        Block[  3] -2.688594e+01
        Block[  4] -3.394569e+01
        -----------------------------------------------------------------------
        Average  -2.134809e+01 +/-  1.091530e+01 [K]

    Coulomb Real energy/kʙ 0-0 [CO2-CO2]:
    ---------------------------------------------------------------------------
        Block[  0] -1.995251e+02
        Block[  1] -2.324514e+02
        Block[  2] -3.129223e+02
        Block[  3] -4.456252e+02
        Block[  4] -6.018118e+02
        -----------------------------------------------------------------------
        Average  -3.584672e+02 +/-  2.059017e+02 [K]

    Coulomb Fourier energy/kʙ 0-0 [CO2-CO2]:
    ---------------------------------------------------------------------------
        Block[  0] -2.361929e+01
        Block[  1] -1.885677e+01
        Block[  2] -3.171468e+01
        Block[  3] -3.264557e+01
        Block[  4] -6.521675e+01
        -----------------------------------------------------------------------
        Average  -3.441061e+01 +/-  2.253332e+01 [K]


Total energy/kʙ
-------------------------------------------------------------------------------
    Block[  0] -9.308322e+02
    Block[  1] -1.050004e+03
    Block[  2] -1.394354e+03
    Block[  3] -2.023005e+03
    Block[  4] -2.633590e+03
    ---------------------------------------------------------------------------
    Average  -1.606357e+03 +/-  8.864985e+02 [K]

Pressure averages and statistics:
===============================================================================

Average pressure tensor: 
-------------------------------------------------------------------------------
 1.5191e+01  6.9314e-03 -3.2327e-01 +/- 3.0738e+00 3.1513e-01 7.2975e-01 [bar]
 6.9314e-03  1.6241e+01 -1.2926e-02 +/- 3.1513e-01 4.2166e+00 9.9212e-01 [bar]
-3.2327e-01 -1.2926e-02  1.5190e+01 +/- 7.2975e-01 9.9212e-01 2.1089e+00 [bar]

    Block[  0]  1.492656e+06
    Block[  1]  1.561831e+06
    Block[  2]  1.701830e+06
    Block[  3]  2.064892e+06
    Block[  4]  2.317863e+06
    ---------------------------------------------------------------------------
    Ideal gas pressure   1.827815e+06 +/-  2.630819e-02 [Pa]
                         1.827815e+01 +/-  4.368581e+00 [bar]


    Block[  0] -1.381888e+05
    Block[  1] -2.436028e+05
    Block[  2] -2.295218e+05
    Block[  3] -3.183693e+05
    Block[  4] -4.389990e+05
    ---------------------------------------------------------------------------
    Excess pressure  -2.737363e+05 +/-  1.395474e+05 [Pa]
                     -2.737363e+00 +/-  1.395474e+00 [bar]


    Block[  0]  1.354467e+06
    Block[  1]  1.318228e+06
    Block[  2]  1.472309e+06
    Block[  3]  1.746523e+06
    Block[  4]  1.878864e+06
    ---------------------------------------------------------------------------
    Pressure average   1.554078e+06 +/-  3.070443e+05 [Pa]
                       1.554078e+01 +/-  3.070443e+00 [bar]


Enthalpy of adsorption
===============================================================================

Component 0 [CO2]
-------------------------------------------------------------------------------
    Block[  0] -3.814872e+02
    Block[  1] -3.893363e+02
    Block[  2] -4.086778e+02
    Block[  3] -4.193363e+02
    Block[  4] -4.590592e+02
    ---------------------------------------------------------------------------
    Enthalpy of adsorption: -4.115794e+02 +/-  3.787594e+01 [K]
                            -3.422062e+00 +/-  3.149182e-01 [kJ/mol]
    Warning: need to subtract the ideal-gas energy.


Densities
===============================================================================

Component 0 (CO2)
    Block[  0] 16.065
    Block[  1] 16.90416666666667
    Block[  2] 18.565833333333334
    Block[  3] 22.873333333333335
    Block[  4] 25.96916666666667
    -----------------------------------------------------------------------
    Density average   2.007550e+01 +/-  5.229786e+00 [molecules]
    Density average   5.295518e-04 +/-  1.265659e-04 [molec/A^3]
    Density average   3.868996e+01 +/-  9.247121e+00 [kg.m⁻³]

