Compiler and run-time data
===============================================================================
RASPA 3.0.4

Random seed: 4263072164

Compiled as a 64-bits application
Compiler: gcc Ubuntu Clang 18.1.3 (1ubuntu1)
Compile Date = Mar 15 2025, Compile Time = 19:39:45

2025-06-02 13:38:55.122191
Simulation started on Mon, Jun 02
The start time was 13:38:00

Hostname:    c060
OS type:     Linux on x86_64
OS release:  6.8.0-58-generic
OS version:  #60-Ubuntu SMP PREEMPT_DYNAMIC Fri Mar 14 18:29:48 UTC 2025


Mutual consistent basic set of units:
===============================================================================

Unit of temperature: 1 [K]
Unit of length:      1e-10 [m]
Unit of time:        1e-12 [s]
Unit of mass:        1.6605402e-27 [kg]
Unit of charge:      1.60217733e-19 [C/particle]


Boltzmann constant (internal units):          0.8314464919307584 [-]
represents conversion from energy (internal units) to temperature (in Kelvin)

Derived units and their conversion factors:
===============================================================================

Unit of energy:                           1.6605402000000002e-23 [J]
Unit of energy:                           10.000008872307538 [J.mol⁻¹]
Unit of velocity:                         100 [m.s⁻¹]
Unit of force:                            1.6605402000000002e-13 [N]
Unit of diffusion:                        1.0000000000000002e-08 [m².s⁻¹]
Unit of acceleration:                     1.0000000000000002e-08 [m².s⁻¹]
Unit of torque:                           1.6605402000000002e-23 [N.m]
Unit of pressure:                         16605402 [Pa]
Unit of volume:                           1e-30 [m³]
Unit of density:                          1660.5402 [kg.m⁻³]
Unit of dynamic viscosity:                1.6605401999999997e-05 [N.s.m⁻²]
Unit of enthalpy:                         1.6605402000000002e-23 [J]
Unit of polarizability:                   1.5458657349975198e-35 [-]
Unit of Coulomb potential:                167101.08000665612 [K]
Unit of dielectric constant:              1.5458657349975193e-05 [s².C².kg⁻¹.m⁻³]
Unit of dipole moment:                    1.60217733e-29 [C.m]
Unit of Debye:                            4.803206799099162 [C.m]
Unit of electric potential:               0.00010364272224473431 [V]
Unit of electric field:                   1036427.222447343 [V.m⁻¹]
Unit of isothermal compressibility:       6.02213665167516e-08 [Pa⁻¹]
Unit of heat capacity:                    10.000008872307538 [J.mol⁻¹.K⁻¹]
Unit of volumetric expansion coefficient: 1 [K⁻¹]


Internal conversion factors:
===============================================================================

Energy (internal units) to Kelvin:      1.202724284692786 [-]
Kelvin to energy (internal units):      0.8314457542157567 [-]


System definitions
===============================================================================

Temperature:          250 [K]
Beta:                 0.0048108928702210625 [-]
Pressure:             8e+06 [Pa]
Helium void fraction: 1 [-]

Box:      30.00000   0.00000   0.00000
           0.00000  30.00000   0.00000
           0.00000   0.00000  30.00000
Lengths:  30.00000  30.00000  30.00000
Angles:   90.00000  90.00000  90.00000
Rectangular boundary conditions



Property measurement settings
===============================================================================




Pseudo-atoms
===============================================================================

  0 - C_co2    framework-atom: false
  1 - O_co2    framework-atom: false

  0 - C_co2    mass: 12.00000, charge:  0.70000
  1 - O_co2    mass: 15.99940, charge: -0.35000

  0 - C_co2    polarizability:  0.00000
  1 - O_co2    polarizability:  0.00000

  0 - J. J. Potoff et al., AIChE J. 2001, 47, 1676–1682.
  1 - J. J. Potoff et al., AIChE J. 2001, 47, 1676–1682.

Force field status
===============================================================================

Cutoff Framework-Molecule VDW:  10.00000 [Å]
Cutoff Molecule-Molecule VDW:   10.00000 [Å]
Cutoff Coulomb:                 10.00000 [Å]

Overlap-criteria VDW:           1.000000e+05 [K]

C_co2    - C_co2    Lennard-Jones p₀/kʙ:  27.00000 [K], p₁:  2.80000 [Å]
                                  shift:   0.00000 [K], tailcorrections: true
C_co2    - O_co2    Lennard-Jones p₀/kʙ:  46.18441 [K], p₁:  2.92500 [Å]
                                  shift:   0.00000 [K], tailcorrections: true
O_co2    - O_co2    Lennard-Jones p₀/kʙ:  79.00000 [K], p₁:  3.05000 [Å]
                                  shift:   0.00000 [K], tailcorrections: true

Ewald precision: 1e-06
Ewald alpha: 0.32079885109097883
Ewald k-vectors: 10 10 10


Component definitions
===============================================================================

Component 0 [CO2]

    Type: Adsorbate

    Critical temperature:  304.1282 [K]
    Critical pressure:     7377300 [Pa]
    Acentric factor:       0.22394 [-]

    Mol-fraction:                 1 [-]
    Swappable:                   false

    Mass:                         43.9988 [-]
    Bulk fluid density:           0 [-]
    Compressibility:              0 [-]
    Excess molecules:             0 [-]

    Number Of Atoms:    3
    CBMC starting bead: 0
      0: O_co2  position  0.00000 -0.00000  1.16000, charge -0.35000
      1: C_co2  position  0.00000 -0.00000  0.00000, charge  0.70000
      2: O_co2  position  0.00000 -0.00000 -1.16000, charge -0.35000
    Diagonalized inertia-vector:      43.05758528 43.05758528 0.00000000
    Translational degrees of freedom: 3
    Rotational degrees of freedom:    2
    Shape of the molecule is: 'Linear'
    Net-charge:        0.00000000 [e]

    Move probabilities:
    Translation:                   0.331126 [-]
    Random translation:            0.000000 [-]
    Rotation:                      0.331126 [-]
    Random rotation:               0.000000 [-]
    Volume change:                 0.006623 [-]
    Reinsertion (CBMC):            0.331126 [-]
    Identity change (CBMC):        0.000000 [-]
    Swap:                          0.000000 [-]
    Swap (CBMC):                   0.000000 [-]
    Swap (CFCMC):                  0.000000 [-]
    Swap (CB/CFCMC):               0.000000 [-]
    Gibbs volume:                  0.000000 [-]
    Gibbs swap (CBMC):             0.000000 [-]
    Gibbs swap (CFCMC):            0.000000 [-]
    Widom:                         0.000000 [-]
    Widom (CFCMC):                 0.000000 [-]
    Widom (CB/CFCMC):              0.000000 [-]
    Parallel tempering:            0.000000 [-]
    Hybrid MC:                     0.000000 [-]

    number of blocking-pockets: 0

    number of bonds: 0





Number of pseudo-atoms
===============================================================================

Component   0 (CO2)
-------------------------------------------------------------------------------
    index   0 (C_co2): 200 atoms
    index   1 (O_co2): 400 atoms

Total number of pseudo-atoms:
-------------------------------------------------------------------------------
    index   0 (C_co2): 200 atoms
    index   1 (O_co2): 400 atoms




Energy status Recomputed from scratch
===============================================================================

Total potential energy/kʙ       -9.448652e+04 [K]
    external field VDW/kʙ        0.000000e+00 [K]
    external field Real/kʙ       0.000000e+00 [K]
    framework-molecule VDW/kʙ    0.000000e+00 [K]
    framework-molecule Real/kʙ   0.000000e+00 [K]
    molecule-molecule VDW/kʙ    -7.357158e+04 [K]
    molecule-molecule Real/kʙ   -1.358810e+04 [K]
    Van der Waals (Tail)/kʙ     -4.753406e+03 [K]
    Ewald Fourier/kʙ             2.648827e+04 [K]
    Ewald self/kʙ               -4.445846e+06 [K]
    Ewald exclusion/kʙ           4.416785e+06 [K]
    intra VDW/kʙ                 0.000000e+00 [K]
    intra Coulombic/kʙ           0.000000e+00 [K]
    polarization/kʙ              0.000000e+00 [K]
    dU/dlambda VDW/kʙ            0.000000e+00 [K]
    dU/dlambda Real/kʙ           0.000000e+00 [K]
    dU/dlambda Ewald/kʙ          0.000000e+00 [K]





Initialization: Current cycle: 0 out of 1000
===============================================================================

Box:      30.53781   0.00000   0.00000
           0.00000  30.53781   0.00000
           0.00000   0.00000  30.53781
Lengths:  30.53781  30.53781  30.53781
Angles:   90.00000  90.00000  90.00000
Rectangular boundary conditions

net charge:   0.00000000

component   0 (CO2) lambda:  0 occupancy:  1 (1.000000)
    net charge:   0.00000000 [e]

Amount of molecules per component :
-------------------------------------------------------------------------------
Component 0 (CO2)
    molecules:         2.000000e+02 molecules
    number density:    7.022897e-03 molec/A^3
    density:           5.131049e+02 kg/m^3

Total potential energy/kʙ       -1.268827e+05 [K]
-------------------------------------------------------------------------------
    external field VDW/kʙ        0.000000e+00 [K]
    external field Real/kʙ       0.000000e+00 [K]
    framework-molecule VDW/kʙ    0.000000e+00 [K]
    framework-molecule Real/kʙ   0.000000e+00 [K]
    molecule-molecule VDW/kʙ    -1.005967e+05 [K]
    molecule-molecule Real/kʙ   -1.694831e+04 [K]
    Van der Waals (Tail)/kʙ     -4.506662e+03 [K]
    Ewald Fourier/kʙ             2.423070e+04 [K]
    Ewald self/kʙ               -4.445846e+06 [K]
    Ewald exclusion/kʙ           4.416785e+06 [K]
    intra VDW/kʙ                 0.000000e+00 [K]
    intra Coulombic/kʙ           0.000000e+00 [K]
    polarization/kʙ              0.000000e+00 [K]
    dU/dlambda VDW/kʙ            0.000000e+00 [K]
    dU/dlambda Real/kʙ           0.000000e+00 [K]
    dU/dlambda Ewald/kʙ          0.000000e+00 [K]


Initialization: Current cycle: 100 out of 1000
===============================================================================

Box:      28.21924   0.00000   0.00000
           0.00000  28.21924   0.00000
           0.00000   0.00000  28.21924
Lengths:  28.21924  28.21924  28.21924
Angles:   90.00000  90.00000  90.00000
Rectangular boundary conditions

net charge:   0.00000000

component   0 (CO2) lambda:  0 occupancy:  1 (1.000000)
    net charge:   0.00000000 [e]

Amount of molecules per component :
-------------------------------------------------------------------------------
Component 0 (CO2)
    molecules:         2.000000e+02 molecules
    number density:    8.900087e-03 molec/A^3
    density:           6.502556e+02 kg/m^3

Total potential energy/kʙ       -2.036008e+05 [K]
-------------------------------------------------------------------------------
    external field VDW/kʙ        0.000000e+00 [K]
    external field Real/kʙ       0.000000e+00 [K]
    framework-molecule VDW/kʙ    0.000000e+00 [K]
    framework-molecule Real/kʙ   0.000000e+00 [K]
    molecule-molecule VDW/kʙ    -1.475329e+05 [K]
    molecule-molecule Real/kʙ   -3.929413e+04 [K]
    Van der Waals (Tail)/kʙ     -5.711273e+03 [K]
    Ewald Fourier/kʙ             1.799920e+04 [K]
    Ewald self/kʙ               -4.445846e+06 [K]
    Ewald exclusion/kʙ           4.416785e+06 [K]
    intra VDW/kʙ                 0.000000e+00 [K]
    intra Coulombic/kʙ           0.000000e+00 [K]
    polarization/kʙ              0.000000e+00 [K]
    dU/dlambda VDW/kʙ            0.000000e+00 [K]
    dU/dlambda Real/kʙ           0.000000e+00 [K]
    dU/dlambda Ewald/kʙ          0.000000e+00 [K]


Initialization: Current cycle: 200 out of 1000
===============================================================================

Box:      25.68317   0.00000   0.00000
           0.00000  25.68317   0.00000
           0.00000   0.00000  25.68317
Lengths:  25.68317  25.68317  25.68317
Angles:   90.00000  90.00000  90.00000
Rectangular boundary conditions

net charge:   0.00000000

component   0 (CO2) lambda:  0 occupancy:  1 (1.000000)
    net charge:   0.00000000 [e]

Amount of molecules per component :
-------------------------------------------------------------------------------
Component 0 (CO2)
    molecules:         2.000000e+02 molecules
    number density:    1.180550e-02 molec/A^3
    density:           8.625299e+02 kg/m^3

Total potential energy/kʙ       -2.496427e+05 [K]
-------------------------------------------------------------------------------
    external field VDW/kʙ        0.000000e+00 [K]
    external field Real/kʙ       0.000000e+00 [K]
    framework-molecule VDW/kʙ    0.000000e+00 [K]
    framework-molecule Real/kʙ   0.000000e+00 [K]
    molecule-molecule VDW/kʙ    -1.852746e+05 [K]
    molecule-molecule Real/kʙ   -4.428512e+04 [K]
    Van der Waals (Tail)/kʙ     -7.575704e+03 [K]
    Ewald Fourier/kʙ             1.655438e+04 [K]
    Ewald self/kʙ               -4.445846e+06 [K]
    Ewald exclusion/kʙ           4.416785e+06 [K]
    intra VDW/kʙ                 0.000000e+00 [K]
    intra Coulombic/kʙ           0.000000e+00 [K]
    polarization/kʙ              0.000000e+00 [K]
    dU/dlambda VDW/kʙ            0.000000e+00 [K]
    dU/dlambda Real/kʙ           0.000000e+00 [K]
    dU/dlambda Ewald/kʙ          0.000000e+00 [K]


Initialization: Current cycle: 300 out of 1000
===============================================================================

Box:      25.06115   0.00000   0.00000
           0.00000  25.06115   0.00000
           0.00000   0.00000  25.06115
Lengths:  25.06115  25.06115  25.06115
Angles:   90.00000  90.00000  90.00000
Rectangular boundary conditions

net charge:   0.00000000

component   0 (CO2) lambda:  0 occupancy:  1 (1.000000)
    net charge:   0.00000000 [e]

Amount of molecules per component :
-------------------------------------------------------------------------------
Component 0 (CO2)
    molecules:         2.000000e+02 molecules
    number density:    1.270653e-02 molec/A^3
    density:           9.283606e+02 kg/m^3

Total potential energy/kʙ       -2.643036e+05 [K]
-------------------------------------------------------------------------------
    external field VDW/kʙ        0.000000e+00 [K]
    external field Real/kʙ       0.000000e+00 [K]
    framework-molecule VDW/kʙ    0.000000e+00 [K]
    framework-molecule Real/kʙ   0.000000e+00 [K]
    molecule-molecule VDW/kʙ    -1.862994e+05 [K]
    molecule-molecule Real/kʙ   -5.661784e+04 [K]
    Van der Waals (Tail)/kʙ     -8.153903e+03 [K]
    Ewald Fourier/kʙ             1.582932e+04 [K]
    Ewald self/kʙ               -4.445846e+06 [K]
    Ewald exclusion/kʙ           4.416785e+06 [K]
    intra VDW/kʙ                 0.000000e+00 [K]
    intra Coulombic/kʙ           0.000000e+00 [K]
    polarization/kʙ              0.000000e+00 [K]
    dU/dlambda VDW/kʙ            0.000000e+00 [K]
    dU/dlambda Real/kʙ           0.000000e+00 [K]
    dU/dlambda Ewald/kʙ          0.000000e+00 [K]


Initialization: Current cycle: 400 out of 1000
===============================================================================

Box:      24.52145   0.00000   0.00000
           0.00000  24.52145   0.00000
           0.00000   0.00000  24.52145
Lengths:  24.52145  24.52145  24.52145
Angles:   90.00000  90.00000  90.00000
Rectangular boundary conditions

net charge:   0.00000000

component   0 (CO2) lambda:  0 occupancy:  1 (1.000000)
    net charge:   0.00000000 [e]

Amount of molecules per component :
-------------------------------------------------------------------------------
Component 0 (CO2)
    molecules:         2.000000e+02 molecules
    number density:    1.356411e-02 molec/A^3
    density:           9.910172e+02 kg/m^3

Total potential energy/kʙ       -2.885582e+05 [K]
-------------------------------------------------------------------------------
    external field VDW/kʙ        0.000000e+00 [K]
    external field Real/kʙ       0.000000e+00 [K]
    framework-molecule VDW/kʙ    0.000000e+00 [K]
    framework-molecule Real/kʙ   0.000000e+00 [K]
    molecule-molecule VDW/kʙ    -2.080980e+05 [K]
    molecule-molecule Real/kʙ   -5.656260e+04 [K]
    Van der Waals (Tail)/kʙ     -8.704224e+03 [K]
    Ewald Fourier/kʙ             1.386832e+04 [K]
    Ewald self/kʙ               -4.445846e+06 [K]
    Ewald exclusion/kʙ           4.416785e+06 [K]
    intra VDW/kʙ                 0.000000e+00 [K]
    intra Coulombic/kʙ           0.000000e+00 [K]
    polarization/kʙ              0.000000e+00 [K]
    dU/dlambda VDW/kʙ            0.000000e+00 [K]
    dU/dlambda Real/kʙ           0.000000e+00 [K]
    dU/dlambda Ewald/kʙ          0.000000e+00 [K]


Initialization: Current cycle: 500 out of 1000
===============================================================================

Box:      23.88671   0.00000   0.00000
           0.00000  23.88671   0.00000
           0.00000   0.00000  23.88671
Lengths:  23.88671  23.88671  23.88671
Angles:   90.00000  90.00000  90.00000
Rectangular boundary conditions

net charge:   0.00000000

component   0 (CO2) lambda:  0 occupancy:  1 (1.000000)
    net charge:   0.00000000 [e]

Amount of molecules per component :
-------------------------------------------------------------------------------
Component 0 (CO2)
    molecules:         2.000000e+02 molecules
    number density:    1.467443e-02 molec/A^3
    density:           1.072139e+03 kg/m^3

Total potential energy/kʙ       -3.049994e+05 [K]
-------------------------------------------------------------------------------
    external field VDW/kʙ        0.000000e+00 [K]
    external field Real/kʙ       0.000000e+00 [K]
    framework-molecule VDW/kʙ    0.000000e+00 [K]
    framework-molecule Real/kʙ   0.000000e+00 [K]
    molecule-molecule VDW/kʙ    -2.073444e+05 [K]
    molecule-molecule Real/kʙ   -7.146276e+04 [K]
    Van der Waals (Tail)/kʙ     -9.416723e+03 [K]
    Ewald Fourier/kʙ             1.228616e+04 [K]
    Ewald self/kʙ               -4.445846e+06 [K]
    Ewald exclusion/kʙ           4.416785e+06 [K]
    intra VDW/kʙ                 0.000000e+00 [K]
    intra Coulombic/kʙ           0.000000e+00 [K]
    polarization/kʙ              0.000000e+00 [K]
    dU/dlambda VDW/kʙ            0.000000e+00 [K]
    dU/dlambda Real/kʙ           0.000000e+00 [K]
    dU/dlambda Ewald/kʙ          0.000000e+00 [K]


Initialization: Current cycle: 600 out of 1000
===============================================================================

Box:      24.01289   0.00000   0.00000
           0.00000  24.01289   0.00000
           0.00000   0.00000  24.01289
Lengths:  24.01289  24.01289  24.01289
Angles:   90.00000  90.00000  90.00000
Rectangular boundary conditions

net charge:   0.00000000

component   0 (CO2) lambda:  0 occupancy:  1 (1.000000)
    net charge:   0.00000000 [e]

Amount of molecules per component :
-------------------------------------------------------------------------------
Component 0 (CO2)
    molecules:         2.000000e+02 molecules
    number density:    1.444430e-02 molec/A^3
    density:           1.055325e+03 kg/m^3

Total potential energy/kʙ       -3.028049e+05 [K]
-------------------------------------------------------------------------------
    external field VDW/kʙ        0.000000e+00 [K]
    external field Real/kʙ       0.000000e+00 [K]
    framework-molecule VDW/kʙ    0.000000e+00 [K]
    framework-molecule Real/kʙ   0.000000e+00 [K]
    molecule-molecule VDW/kʙ    -2.113606e+05 [K]
    molecule-molecule Real/kʙ   -6.687105e+04 [K]
    Van der Waals (Tail)/kʙ     -9.269049e+03 [K]
    Ewald Fourier/kʙ             1.375744e+04 [K]
    Ewald self/kʙ               -4.445846e+06 [K]
    Ewald exclusion/kʙ           4.416785e+06 [K]
    intra VDW/kʙ                 0.000000e+00 [K]
    intra Coulombic/kʙ           0.000000e+00 [K]
    polarization/kʙ              0.000000e+00 [K]
    dU/dlambda VDW/kʙ            0.000000e+00 [K]
    dU/dlambda Real/kʙ           0.000000e+00 [K]
    dU/dlambda Ewald/kʙ          0.000000e+00 [K]


Initialization: Current cycle: 700 out of 1000
===============================================================================

Box:      23.89391   0.00000   0.00000
           0.00000  23.89391   0.00000
           0.00000   0.00000  23.89391
Lengths:  23.89391  23.89391  23.89391
Angles:   90.00000  90.00000  90.00000
Rectangular boundary conditions

net charge:   0.00000000

component   0 (CO2) lambda:  0 occupancy:  1 (1.000000)
    net charge:   0.00000000 [e]

Amount of molecules per component :
-------------------------------------------------------------------------------
Component 0 (CO2)
    molecules:         2.000000e+02 molecules
    number density:    1.466116e-02 molec/A^3
    density:           1.071170e+03 kg/m^3

Total potential energy/kʙ       -3.222209e+05 [K]
-------------------------------------------------------------------------------
    external field VDW/kʙ        0.000000e+00 [K]
    external field Real/kʙ       0.000000e+00 [K]
    framework-molecule VDW/kʙ    0.000000e+00 [K]
    framework-molecule Real/kʙ   0.000000e+00 [K]
    molecule-molecule VDW/kʙ    -2.273941e+05 [K]
    molecule-molecule Real/kʙ   -6.917729e+04 [K]
    Van der Waals (Tail)/kʙ     -9.408212e+03 [K]
    Ewald Fourier/kʙ             1.282034e+04 [K]
    Ewald self/kʙ               -4.445846e+06 [K]
    Ewald exclusion/kʙ           4.416785e+06 [K]
    intra VDW/kʙ                 0.000000e+00 [K]
    intra Coulombic/kʙ           0.000000e+00 [K]
    polarization/kʙ              0.000000e+00 [K]
    dU/dlambda VDW/kʙ            0.000000e+00 [K]
    dU/dlambda Real/kʙ           0.000000e+00 [K]
    dU/dlambda Ewald/kʙ          0.000000e+00 [K]


Initialization: Current cycle: 800 out of 1000
===============================================================================

Box:      23.97004   0.00000   0.00000
           0.00000  23.97004   0.00000
           0.00000   0.00000  23.97004
Lengths:  23.97004  23.97004  23.97004
Angles:   90.00000  90.00000  90.00000
Rectangular boundary conditions

net charge:   0.00000000

component   0 (CO2) lambda:  0 occupancy:  1 (1.000000)
    net charge:   0.00000000 [e]

Amount of molecules per component :
-------------------------------------------------------------------------------
Component 0 (CO2)
    molecules:         2.000000e+02 molecules
    number density:    1.452191e-02 molec/A^3
    density:           1.060995e+03 kg/m^3

Total potential energy/kʙ       -3.127485e+05 [K]
-------------------------------------------------------------------------------
    external field VDW/kʙ        0.000000e+00 [K]
    external field Real/kʙ       0.000000e+00 [K]
    framework-molecule VDW/kʙ    0.000000e+00 [K]
    framework-molecule Real/kʙ   0.000000e+00 [K]
    molecule-molecule VDW/kʙ    -2.182454e+05 [K]
    molecule-molecule Real/kʙ   -6.921785e+04 [K]
    Van der Waals (Tail)/kʙ     -9.318850e+03 [K]
    Ewald Fourier/kʙ             1.309524e+04 [K]
    Ewald self/kʙ               -4.445846e+06 [K]
    Ewald exclusion/kʙ           4.416785e+06 [K]
    intra VDW/kʙ                 0.000000e+00 [K]
    intra Coulombic/kʙ           0.000000e+00 [K]
    polarization/kʙ              0.000000e+00 [K]
    dU/dlambda VDW/kʙ            0.000000e+00 [K]
    dU/dlambda Real/kʙ           0.000000e+00 [K]
    dU/dlambda Ewald/kʙ          0.000000e+00 [K]


Initialization: Current cycle: 900 out of 1000
===============================================================================

Box:      23.88440   0.00000   0.00000
           0.00000  23.88440   0.00000
           0.00000   0.00000  23.88440
Lengths:  23.88440  23.88440  23.88440
Angles:   90.00000  90.00000  90.00000
Rectangular boundary conditions

net charge:   0.00000000

component   0 (CO2) lambda:  0 occupancy:  1 (1.000000)
    net charge:   0.00000000 [e]

Amount of molecules per component :
-------------------------------------------------------------------------------
Component 0 (CO2)
    molecules:         2.000000e+02 molecules
    number density:    1.467868e-02 molec/A^3
    density:           1.072450e+03 kg/m^3

Total potential energy/kʙ       -3.131701e+05 [K]
-------------------------------------------------------------------------------
    external field VDW/kʙ        0.000000e+00 [K]
    external field Real/kʙ       0.000000e+00 [K]
    framework-molecule VDW/kʙ    0.000000e+00 [K]
    framework-molecule Real/kʙ   0.000000e+00 [K]
    molecule-molecule VDW/kʙ    -2.205113e+05 [K]
    molecule-molecule Real/kʙ   -6.611350e+04 [K]
    Van der Waals (Tail)/kʙ     -9.419455e+03 [K]
    Ewald Fourier/kʙ             1.193585e+04 [K]
    Ewald self/kʙ               -4.445846e+06 [K]
    Ewald exclusion/kʙ           4.416785e+06 [K]
    intra VDW/kʙ                 0.000000e+00 [K]
    intra Coulombic/kʙ           0.000000e+00 [K]
    polarization/kʙ              0.000000e+00 [K]
    dU/dlambda VDW/kʙ            0.000000e+00 [K]
    dU/dlambda Real/kʙ           0.000000e+00 [K]
    dU/dlambda Ewald/kʙ          0.000000e+00 [K]


Current cycle: 0 out of 5000
===============================================================================

Box:      23.95153   0.00000   0.00000  Average:  23.95153   0.00000   0.00000
           0.00000  23.95153   0.00000             0.00000  23.95153   0.00000
           0.00000   0.00000  23.95153             0.00000   0.00000  23.95153
Lengths:  23.95153  23.95153  23.95153  Average:  23.95153  23.95153  23.95153
Angles:   90.00000  90.00000  90.00000  Average:  90.00000  90.00000  90.00000
Rectangular boundary conditions

net charge:   0.00000000

component 0 (CO2) lambda:  0 occupancy:  1 (1.000000)
    net charge:   0.00000000 [e]

Amount of molecules per component :
-------------------------------------------------------------------------------
Component 0 (CO2)
    molecules:      2.000000e+02 molecules  (2.000000e+02 +/- 0.000000e+00)
    number density: 1.455560e-02 molec./A^3 (1.455560e-02 +/- 0.000000e+00)
    density:        1.063457e+03 kg/m^3     (1.063457e+03 +/- 0.000000e+00)

Average pressure tensor: 
-------------------------------------------------------------------------------
 5.0240e+02  0.0000e+00  0.0000e+00 +/- 0.0000e+00 0.0000e+00 0.0000e+00 [bar]
 0.0000e+00  5.0240e+02  0.0000e+00 +/- 0.0000e+00 0.0000e+00 0.0000e+00 [bar]
 0.0000e+00  0.0000e+00  5.0240e+02 +/- 0.0000e+00 0.0000e+00 0.0000e+00 [bar]
Ideal-gas pressure:   5.024049e+02 +/ 0.000000e+00 [bar]
Excess pressure:      0.000000e+00 +/ 0.000000e+00 [bar]
Pressure:             5.024049e+02 +/ 0.000000e+00 [bar]

Total potential energy/kʙ  -3.049135e+05 (-3.049135e+05 +/- 0.000000e+00) [K]
-------------------------------------------------------------------------------
ExternalField-molecule
    Van der Waals/kʙ        0.000000e+00 ( 0.000000e+00 +/- 0.000000e+00) [K]
Framework-molecule
    Van der Waals/kʙ        0.000000e+00 ( 0.000000e+00 +/- 0.000000e+00) [K]
    Van der Waals (Tail)/kʙ 0.000000e+00 ( 0.000000e+00 +/- 0.000000e+00) [K]
    Coulombic Real/kʙ       0.000000e+00 ( 0.000000e+00 +/- 0.000000e+00) [K]
    Coulombic Fourier/kʙ    0.000000e+00 ( 0.000000e+00 +/- 0.000000e+00) [K]
Molecule-molecule
    Van der Waals/kʙ       -2.200892e+05 (-2.200892e+05 +/- 0.000000e+00) [K]
    Van der Waals (Tail)/kʙ-9.340472e+03 (-9.340472e+03 +/- 0.000000e+00) [K]
    Coulombic Real/kʙ      -6.082160e+04 (-6.082160e+04 +/- 0.000000e+00) [K]
    Coulombic Fourier/kʙ   -1.466231e+04 (-1.466231e+04 +/- 0.000000e+00) [K]
    Molecule Intra/kʙ       0.000000e+00 ( 0.000000e+00 +/- 0.000000e+00) [K]

Current cycle: 100 out of 5000
===============================================================================

Box:      24.18001   0.00000   0.00000  Average:  24.00424   0.00000   0.00000
           0.00000  24.18001   0.00000             0.00000  24.00424   0.00000
           0.00000   0.00000  24.18001             0.00000   0.00000  24.00424
Lengths:  24.18001  24.18001  24.18001  Average:  24.00424  24.00424  24.00424
Angles:   90.00000  90.00000  90.00000  Average:  90.00000  90.00000  90.00000
Rectangular boundary conditions

net charge:   0.00000000

component 0 (CO2) lambda:  0 occupancy:  1 (1.000000)
    net charge:   0.00000000 [e]

Amount of molecules per component :
-------------------------------------------------------------------------------
Component 0 (CO2)
    molecules:      2.000000e+02 molecules  (2.000000e+02 +/- 0.000000e+00)
    number density: 1.414688e-02 molec./A^3 (1.446424e-02 +/- 0.000000e+00)
    density:        1.033595e+03 kg/m^3     (1.056782e+03 +/- 0.000000e+00)

Average pressure tensor: 
-------------------------------------------------------------------------------
 9.8843e+01 -9.0308e+01  1.8443e+01 +/- 0.0000e+00 0.0000e+00 0.0000e+00 [bar]
-9.0308e+01 -1.0421e+02 -1.2911e+01 +/- 0.0000e+00 0.0000e+00 0.0000e+00 [bar]
 1.8443e+01 -1.2911e+01  1.8634e+02 +/- 0.0000e+00 0.0000e+00 0.0000e+00 [bar]
Ideal-gas pressure:   4.992515e+02 +/ 0.000000e+00 [bar]
Excess pressure:     -4.389285e+02 +/ 0.000000e+00 [bar]
Pressure:             6.032303e+01 +/ 0.000000e+00 [bar]

Total potential energy/kʙ  -2.971151e+05 (-3.036351e+05 +/- 0.000000e+00) [K]
-------------------------------------------------------------------------------
ExternalField-molecule
    Van der Waals/kʙ        0.000000e+00 ( 0.000000e+00 +/- 0.000000e+00) [K]
Framework-molecule
    Van der Waals/kʙ        0.000000e+00 ( 0.000000e+00 +/- 0.000000e+00) [K]
    Van der Waals (Tail)/kʙ 0.000000e+00 ( 0.000000e+00 +/- 0.000000e+00) [K]
    Coulombic Real/kʙ       0.000000e+00 ( 0.000000e+00 +/- 0.000000e+00) [K]
    Coulombic Fourier/kʙ    0.000000e+00 ( 0.000000e+00 +/- 0.000000e+00) [K]
Molecule-molecule
    Van der Waals/kʙ       -2.122526e+05 (-2.172903e+05 +/- 0.000000e+00) [K]
    Van der Waals (Tail)/kʙ-9.078189e+03 (-9.252554e+03 +/- 0.000000e+00) [K]
    Coulombic Real/kʙ      -6.185376e+04 (-6.200599e+04 +/- 0.000000e+00) [K]
    Coulombic Fourier/kʙ   -1.393057e+04 (-1.508618e+04 +/- 0.000000e+00) [K]
    Molecule Intra/kʙ       0.000000e+00 ( 0.000000e+00 +/- 0.000000e+00) [K]

Current cycle: 200 out of 5000
===============================================================================

Box:      24.17885   0.00000   0.00000  Average:  24.11958   0.00000   0.00000
           0.00000  24.17885   0.00000             0.00000  24.11958   0.00000
           0.00000   0.00000  24.17885             0.00000   0.00000  24.11958
Lengths:  24.17885  24.17885  24.17885  Average:  24.11958  24.11958  24.11958
Angles:   90.00000  90.00000  90.00000  Average:  90.00000  90.00000  90.00000
Rectangular boundary conditions

net charge:   0.00000000

component 0 (CO2) lambda:  0 occupancy:  1 (1.000000)
    net charge:   0.00000000 [e]

Amount of molecules per component :
-------------------------------------------------------------------------------
Component 0 (CO2)
    molecules:      2.000000e+02 molecules  (2.000000e+02 +/- 0.000000e+00)
    number density: 1.414891e-02 molec./A^3 (1.425861e-02 +/- 0.000000e+00)
    density:        1.033743e+03 kg/m^3     (1.041758e+03 +/- 0.000000e+00)

Average pressure tensor: 
-------------------------------------------------------------------------------
 1.0844e+02  1.2090e+01 -1.0211e+02 +/- 0.0000e+00 0.0000e+00 0.0000e+00 [bar]
 1.2090e+01 -1.4699e+02 -2.2261e+01 +/- 0.0000e+00 0.0000e+00 0.0000e+00 [bar]
-1.0211e+02 -2.2261e+01  8.8710e+01 +/- 0.0000e+00 0.0000e+00 0.0000e+00 [bar]
Ideal-gas pressure:   4.921538e+02 +/ 0.000000e+00 [bar]
Excess pressure:     -4.754345e+02 +/ 0.000000e+00 [bar]
Pressure:             1.671923e+01 +/ 0.000000e+00 [bar]

Total potential energy/kʙ  -2.993634e+05 (-2.991353e+05 +/- 0.000000e+00) [K]
-------------------------------------------------------------------------------
ExternalField-molecule
    Van der Waals/kʙ        0.000000e+00 ( 0.000000e+00 +/- 0.000000e+00) [K]
Framework-molecule
    Van der Waals/kʙ        0.000000e+00 ( 0.000000e+00 +/- 0.000000e+00) [K]
    Van der Waals (Tail)/kʙ 0.000000e+00 ( 0.000000e+00 +/- 0.000000e+00) [K]
    Coulombic Real/kʙ       0.000000e+00 ( 0.000000e+00 +/- 0.000000e+00) [K]
    Coulombic Fourier/kʙ    0.000000e+00 ( 0.000000e+00 +/- 0.000000e+00) [K]
Molecule-molecule
    Van der Waals/kʙ       -2.115350e+05 (-2.145952e+05 +/- 0.000000e+00) [K]
    Van der Waals (Tail)/kʙ-9.079493e+03 (-9.130843e+03 +/- 0.000000e+00) [K]
    Coulombic Real/kʙ      -6.306030e+04 (-6.054635e+04 +/- 0.000000e+00) [K]
    Coulombic Fourier/kʙ   -1.568862e+04 (-1.486289e+04 +/- 0.000000e+00) [K]
    Molecule Intra/kʙ       0.000000e+00 ( 0.000000e+00 +/- 0.000000e+00) [K]

Current cycle: 300 out of 5000
===============================================================================

Box:      24.11054   0.00000   0.00000  Average:  24.20335   0.00000   0.00000
           0.00000  24.11054   0.00000             0.00000  24.20335   0.00000
           0.00000   0.00000  24.11054             0.00000   0.00000  24.20335
Lengths:  24.11054  24.11054  24.11054  Average:  24.20335  24.20335  24.20335
Angles:   90.00000  90.00000  90.00000  Average:  90.00000  90.00000  90.00000
Rectangular boundary conditions

net charge:   0.00000000

component 0 (CO2) lambda:  0 occupancy:  1 (1.000000)
    net charge:   0.00000000 [e]

Amount of molecules per component :
-------------------------------------------------------------------------------
Component 0 (CO2)
    molecules:      2.000000e+02 molecules  (2.000000e+02 +/- 0.000000e+00)
    number density: 1.426951e-02 molec./A^3 (1.411206e-02 +/- 0.000000e+00)
    density:        1.042555e+03 kg/m^3     (1.031052e+03 +/- 0.000000e+00)

Average pressure tensor: 
-------------------------------------------------------------------------------
 8.4128e+01  3.8523e+01 -3.2681e+01 +/- 0.0000e+00 0.0000e+00 0.0000e+00 [bar]
 3.8523e+01 -1.8338e+01 -5.3152e+01 +/- 0.0000e+00 0.0000e+00 0.0000e+00 [bar]
-3.2681e+01 -5.3152e+01  7.2009e+01 +/- 0.0000e+00 0.0000e+00 0.0000e+00 [bar]
Ideal-gas pressure:   4.870956e+02 +/ 0.000000e+00 [bar]
Excess pressure:     -4.411628e+02 +/ 0.000000e+00 [bar]
Pressure:             4.593287e+01 +/ 0.000000e+00 [bar]

Total potential energy/kʙ  -2.999083e+05 (-2.966103e+05 +/- 0.000000e+00) [K]
-------------------------------------------------------------------------------
ExternalField-molecule
    Van der Waals/kʙ        0.000000e+00 ( 0.000000e+00 +/- 0.000000e+00) [K]
Framework-molecule
    Van der Waals/kʙ        0.000000e+00 ( 0.000000e+00 +/- 0.000000e+00) [K]
    Van der Waals (Tail)/kʙ 0.000000e+00 ( 0.000000e+00 +/- 0.000000e+00) [K]
    Coulombic Real/kʙ       0.000000e+00 ( 0.000000e+00 +/- 0.000000e+00) [K]
    Coulombic Fourier/kʙ    0.000000e+00 ( 0.000000e+00 +/- 0.000000e+00) [K]
Molecule-molecule
    Van der Waals/kʙ       -2.085427e+05 (-2.116527e+05 +/- 0.000000e+00) [K]
    Van der Waals (Tail)/kʙ-9.156887e+03 (-9.052063e+03 +/- 0.000000e+00) [K]
    Coulombic Real/kʙ      -6.767452e+04 (-6.109416e+04 +/- 0.000000e+00) [K]
    Coulombic Fourier/kʙ   -1.453422e+04 (-1.481144e+04 +/- 0.000000e+00) [K]
    Molecule Intra/kʙ       0.000000e+00 ( 0.000000e+00 +/- 0.000000e+00) [K]

Current cycle: 400 out of 5000
===============================================================================

Box:      24.16425   0.00000   0.00000  Average:  24.21508   0.00000   0.00000
           0.00000  24.16425   0.00000             0.00000  24.21508   0.00000
           0.00000   0.00000  24.16425             0.00000   0.00000  24.21508
Lengths:  24.16425  24.16425  24.16425  Average:  24.21508  24.21508  24.21508
Angles:   90.00000  90.00000  90.00000  Average:  90.00000  90.00000  90.00000
Rectangular boundary conditions

net charge:   0.00000000

component 0 (CO2) lambda:  0 occupancy:  1 (1.000000)
    net charge:   0.00000000 [e]

Amount of molecules per component :
-------------------------------------------------------------------------------
Component 0 (CO2)
    molecules:      2.000000e+02 molecules  (2.000000e+02 +/- 0.000000e+00)
    number density: 1.417457e-02 molec./A^3 (1.409048e-02 +/- 0.000000e+00)
    density:        1.035618e+03 kg/m^3     (1.029474e+03 +/- 0.000000e+00)

Average pressure tensor: 
-------------------------------------------------------------------------------
 9.5229e+01  1.8753e+01 -1.4447e+00 +/- 0.0000e+00 0.0000e+00 0.0000e+00 [bar]
 1.8753e+01  2.0846e+01 -4.8050e+01 +/- 0.0000e+00 0.0000e+00 0.0000e+00 [bar]
-1.4447e+00 -4.8050e+01  9.6963e+01 +/- 0.0000e+00 0.0000e+00 0.0000e+00 [bar]
Ideal-gas pressure:   4.863505e+02 +/ 0.000000e+00 [bar]
Excess pressure:     -4.153379e+02 +/ 0.000000e+00 [bar]
Pressure:             7.101265e+01 +/ 0.000000e+00 [bar]

Total potential energy/kʙ  -3.065441e+05 (-2.975807e+05 +/- 0.000000e+00) [K]
-------------------------------------------------------------------------------
ExternalField-molecule
    Van der Waals/kʙ        0.000000e+00 ( 0.000000e+00 +/- 0.000000e+00) [K]
Framework-molecule
    Van der Waals/kʙ        0.000000e+00 ( 0.000000e+00 +/- 0.000000e+00) [K]
    Van der Waals (Tail)/kʙ 0.000000e+00 ( 0.000000e+00 +/- 0.000000e+00) [K]
    Coulombic Real/kʙ       0.000000e+00 ( 0.000000e+00 +/- 0.000000e+00) [K]
    Coulombic Fourier/kʙ    0.000000e+00 ( 0.000000e+00 +/- 0.000000e+00) [K]
Molecule-molecule
    Van der Waals/kʙ       -2.122759e+05 (-2.110977e+05 +/- 0.000000e+00) [K]
    Van der Waals (Tail)/kʙ-9.095959e+03 (-9.041694e+03 +/- 0.000000e+00) [K]
    Coulombic Real/kʙ      -6.826523e+04 (-6.233484e+04 +/- 0.000000e+00) [K]
    Coulombic Fourier/kʙ   -1.690700e+04 (-1.510648e+04 +/- 0.000000e+00) [K]
    Molecule Intra/kʙ       0.000000e+00 ( 0.000000e+00 +/- 0.000000e+00) [K]

Current cycle: 500 out of 5000
===============================================================================

Box:      24.27734   0.00000   0.00000  Average:  24.22151   0.00000   0.00000
           0.00000  24.27734   0.00000             0.00000  24.22151   0.00000
           0.00000   0.00000  24.27734             0.00000   0.00000  24.22151
Lengths:  24.27734  24.27734  24.27734  Average:  24.22151  24.22151  24.22151
Angles:   90.00000  90.00000  90.00000  Average:  90.00000  90.00000  90.00000
Rectangular boundary conditions

net charge:   0.00000000

component 0 (CO2) lambda:  0 occupancy:  1 (1.000000)
    net charge:   0.00000000 [e]

Amount of molecules per component :
-------------------------------------------------------------------------------
Component 0 (CO2)
    molecules:      2.000000e+02 molecules  (2.000000e+02 +/- 0.000000e+00)
    number density: 1.397740e-02 molec./A^3 (1.407857e-02 +/- 0.000000e+00)
    density:        1.021213e+03 kg/m^3     (1.028604e+03 +/- 0.000000e+00)

Average pressure tensor: 
-------------------------------------------------------------------------------
 5.6817e+01 -7.5456e+00  8.0942e+00 +/- 0.0000e+00 0.0000e+00 0.0000e+00 [bar]
-7.5456e+00  6.1864e+01 -5.4125e+01 +/- 0.0000e+00 0.0000e+00 0.0000e+00 [bar]
 8.0942e+00 -5.4125e+01  7.7939e+01 +/- 0.0000e+00 0.0000e+00 0.0000e+00 [bar]
Ideal-gas pressure:   4.859395e+02 +/ 0.000000e+00 [bar]
Excess pressure:     -4.203993e+02 +/ 0.000000e+00 [bar]
Pressure:             6.554016e+01 +/ 0.000000e+00 [bar]

Total potential energy/kʙ  -2.927693e+05 (-2.978828e+05 +/- 0.000000e+00) [K]
-------------------------------------------------------------------------------
ExternalField-molecule
    Van der Waals/kʙ        0.000000e+00 ( 0.000000e+00 +/- 0.000000e+00) [K]
Framework-molecule
    Van der Waals/kʙ        0.000000e+00 ( 0.000000e+00 +/- 0.000000e+00) [K]
    Van der Waals (Tail)/kʙ 0.000000e+00 ( 0.000000e+00 +/- 0.000000e+00) [K]
    Coulombic Real/kʙ       0.000000e+00 ( 0.000000e+00 +/- 0.000000e+00) [K]
    Coulombic Fourier/kʙ    0.000000e+00 ( 0.000000e+00 +/- 0.000000e+00) [K]
Molecule-molecule
    Van der Waals/kʙ       -2.092663e+05 (-2.111647e+05 +/- 0.000000e+00) [K]
    Van der Waals (Tail)/kʙ-8.969436e+03 (-9.032385e+03 +/- 0.000000e+00) [K]
    Coulombic Real/kʙ      -5.941253e+04 (-6.247013e+04 +/- 0.000000e+00) [K]
    Coulombic Fourier/kʙ   -1.512102e+04 (-1.521559e+04 +/- 0.000000e+00) [K]
    Molecule Intra/kʙ       0.000000e+00 ( 0.000000e+00 +/- 0.000000e+00) [K]

Current cycle: 600 out of 5000
===============================================================================

Box:      24.15481   0.00000   0.00000  Average:  24.22905   0.00000   0.00000
           0.00000  24.15481   0.00000             0.00000  24.22905   0.00000
           0.00000   0.00000  24.15481             0.00000   0.00000  24.22905
Lengths:  24.15481  24.15481  24.15481  Average:  24.22905  24.22905  24.22905
Angles:   90.00000  90.00000  90.00000  Average:  90.00000  90.00000  90.00000
Rectangular boundary conditions

net charge:   0.00000000

component 0 (CO2) lambda:  0 occupancy:  1 (1.000000)
    net charge:   0.00000000 [e]

Amount of molecules per component :
-------------------------------------------------------------------------------
Component 0 (CO2)
    molecules:      2.000000e+02 molecules  (2.000000e+02 +/- 0.000000e+00)
    number density: 1.419120e-02 molec./A^3 (1.406504e-02 +/- 0.000000e+00)
    density:        1.036833e+03 kg/m^3     (1.027616e+03 +/- 0.000000e+00)

Average pressure tensor: 
-------------------------------------------------------------------------------
 6.8919e+01 -4.9565e+00  2.0671e+01 +/- 0.0000e+00 0.0000e+00 0.0000e+00 [bar]
-4.9565e+00  1.0313e+02 -5.1814e+01 +/- 0.0000e+00 0.0000e+00 0.0000e+00 [bar]
 2.0671e+01 -5.1814e+01  7.3066e+01 +/- 0.0000e+00 0.0000e+00 0.0000e+00 [bar]
Ideal-gas pressure:   4.854725e+02 +/ 0.000000e+00 [bar]
Excess pressure:     -4.037689e+02 +/ 0.000000e+00 [bar]
Pressure:             8.170366e+01 +/ 0.000000e+00 [bar]

Total potential energy/kʙ  -2.994846e+05 (-2.972191e+05 +/- 0.000000e+00) [K]
-------------------------------------------------------------------------------
ExternalField-molecule
    Van der Waals/kʙ        0.000000e+00 ( 0.000000e+00 +/- 0.000000e+00) [K]
Framework-molecule
    Van der Waals/kʙ        0.000000e+00 ( 0.000000e+00 +/- 0.000000e+00) [K]
    Van der Waals (Tail)/kʙ 0.000000e+00 ( 0.000000e+00 +/- 0.000000e+00) [K]
    Coulombic Real/kʙ       0.000000e+00 ( 0.000000e+00 +/- 0.000000e+00) [K]
    Coulombic Fourier/kʙ    0.000000e+00 ( 0.000000e+00 +/- 0.000000e+00) [K]
Molecule-molecule
    Van der Waals/kʙ       -2.134666e+05 (-2.108370e+05 +/- 0.000000e+00) [K]
    Van der Waals (Tail)/kʙ-9.106633e+03 (-9.025234e+03 +/- 0.000000e+00) [K]
    Coulombic Real/kʙ      -6.066186e+04 (-6.212765e+04 +/- 0.000000e+00) [K]
    Coulombic Fourier/kʙ   -1.624950e+04 (-1.522919e+04 +/- 0.000000e+00) [K]
    Molecule Intra/kʙ       0.000000e+00 ( 0.000000e+00 +/- 0.000000e+00) [K]

Current cycle: 700 out of 5000
===============================================================================

Box:      24.13400   0.00000   0.00000  Average:  24.19175   0.00000   0.00000
           0.00000  24.13400   0.00000             0.00000  24.19175   0.00000
           0.00000   0.00000  24.13400             0.00000   0.00000  24.19175
Lengths:  24.13400  24.13400  24.13400  Average:  24.19175  24.19175  24.19175
Angles:   90.00000  90.00000  90.00000  Average:  90.00000  90.00000  90.00000
Rectangular boundary conditions

net charge:   0.00000000

component 0 (CO2) lambda:  0 occupancy:  1 (1.000000)
    net charge:   0.00000000 [e]

Amount of molecules per component :
-------------------------------------------------------------------------------
Component 0 (CO2)
    molecules:      2.000000e+02 molecules  (2.000000e+02 +/- 0.000000e+00)
    number density: 1.422794e-02 molec./A^3 (1.413110e-02 +/- 0.000000e+00)
    density:        1.039518e+03 kg/m^3     (1.032442e+03 +/- 0.000000e+00)

Average pressure tensor: 
-------------------------------------------------------------------------------
 6.2510e+01  1.1095e+01  2.6428e+01 +/- 0.0000e+00 0.0000e+00 0.0000e+00 [bar]
 1.1095e+01  1.0191e+02 -2.9777e+01 +/- 0.0000e+00 0.0000e+00 0.0000e+00 [bar]
 2.6428e+01 -2.9777e+01  5.1172e+01 +/- 0.0000e+00 0.0000e+00 0.0000e+00 [bar]
Ideal-gas pressure:   4.877526e+02 +/ 0.000000e+00 [bar]
Excess pressure:     -4.158902e+02 +/ 0.000000e+00 [bar]
Pressure:             7.186233e+01 +/ 0.000000e+00 [bar]

Total potential energy/kʙ  -3.017730e+05 (-2.983802e+05 +/- 0.000000e+00) [K]
-------------------------------------------------------------------------------
ExternalField-molecule
    Van der Waals/kʙ        0.000000e+00 ( 0.000000e+00 +/- 0.000000e+00) [K]
Framework-molecule
    Van der Waals/kʙ        0.000000e+00 ( 0.000000e+00 +/- 0.000000e+00) [K]
    Van der Waals (Tail)/kʙ 0.000000e+00 ( 0.000000e+00 +/- 0.000000e+00) [K]
    Coulombic Real/kʙ       0.000000e+00 ( 0.000000e+00 +/- 0.000000e+00) [K]
    Coulombic Fourier/kʙ    0.000000e+00 ( 0.000000e+00 +/- 0.000000e+00) [K]
Molecule-molecule
    Van der Waals/kʙ       -2.124548e+05 (-2.116566e+05 +/- 0.000000e+00) [K]
    Van der Waals (Tail)/kʙ-9.130209e+03 (-9.062086e+03 +/- 0.000000e+00) [K]
    Coulombic Real/kʙ      -6.474025e+04 (-6.236062e+04 +/- 0.000000e+00) [K]
    Coulombic Fourier/kʙ   -1.544772e+04 (-1.530095e+04 +/- 0.000000e+00) [K]
    Molecule Intra/kʙ       0.000000e+00 ( 0.000000e+00 +/- 0.000000e+00) [K]

Current cycle: 800 out of 5000
===============================================================================

Box:      24.16723   0.00000   0.00000  Average:  24.17365   0.00000   0.00000
           0.00000  24.16723   0.00000             0.00000  24.17365   0.00000
           0.00000   0.00000  24.16723             0.00000   0.00000  24.17365
Lengths:  24.16723  24.16723  24.16723  Average:  24.17365  24.17365  24.17365
Angles:   90.00000  90.00000  90.00000  Average:  90.00000  90.00000  90.00000
Rectangular boundary conditions

net charge:   0.00000000

component 0 (CO2) lambda:  0 occupancy:  1 (1.000000)
    net charge:   0.00000000 [e]

Amount of molecules per component :
-------------------------------------------------------------------------------
Component 0 (CO2)
    molecules:      2.000000e+02 molecules  (2.000000e+02 +/- 0.000000e+00)
    number density: 1.416933e-02 molec./A^3 (1.416271e-02 +/- 0.000000e+00)
    density:        1.035235e+03 kg/m^3     (1.034752e+03 +/- 0.000000e+00)

Average pressure tensor: 
-------------------------------------------------------------------------------
 7.9695e+01  1.9284e+01  1.5775e+01 +/- 0.0000e+00 0.0000e+00 0.0000e+00 [bar]
 1.9284e+01  9.1385e+01 -3.4068e+01 +/- 0.0000e+00 0.0000e+00 0.0000e+00 [bar]
 1.5775e+01 -3.4068e+01  6.3301e+01 +/- 0.0000e+00 0.0000e+00 0.0000e+00 [bar]
Ideal-gas pressure:   4.888438e+02 +/ 0.000000e+00 [bar]
Excess pressure:     -4.107166e+02 +/ 0.000000e+00 [bar]
Pressure:             7.812725e+01 +/ 0.000000e+00 [bar]

Total potential energy/kʙ  -2.970877e+05 (-2.987107e+05 +/- 0.000000e+00) [K]
-------------------------------------------------------------------------------
ExternalField-molecule
    Van der Waals/kʙ        0.000000e+00 ( 0.000000e+00 +/- 0.000000e+00) [K]
Framework-molecule
    Van der Waals/kʙ        0.000000e+00 ( 0.000000e+00 +/- 0.000000e+00) [K]
    Van der Waals (Tail)/kʙ 0.000000e+00 ( 0.000000e+00 +/- 0.000000e+00) [K]
    Coulombic Real/kʙ       0.000000e+00 ( 0.000000e+00 +/- 0.000000e+00) [K]
    Coulombic Fourier/kʙ    0.000000e+00 ( 0.000000e+00 +/- 0.000000e+00) [K]
Molecule-molecule
    Van der Waals/kʙ       -2.135526e+05 (-2.119696e+05 +/- 0.000000e+00) [K]
    Van der Waals (Tail)/kʙ-9.092598e+03 (-9.083123e+03 +/- 0.000000e+00) [K]
    Coulombic Real/kʙ      -5.914803e+04 (-6.236250e+04 +/- 0.000000e+00) [K]
    Coulombic Fourier/kʙ   -1.529439e+04 (-1.529553e+04 +/- 0.000000e+00) [K]
    Molecule Intra/kʙ       0.000000e+00 ( 0.000000e+00 +/- 0.000000e+00) [K]

Current cycle: 900 out of 5000
===============================================================================

Box:      24.00678   0.00000   0.00000  Average:  24.16623   0.00000   0.00000
           0.00000  24.00678   0.00000             0.00000  24.16623   0.00000
           0.00000   0.00000  24.00678             0.00000   0.00000  24.16623
Lengths:  24.00678  24.00678  24.00678  Average:  24.16623  24.16623  24.16623
Angles:   90.00000  90.00000  90.00000  Average:  90.00000  90.00000  90.00000
Rectangular boundary conditions

net charge:   0.00000000

component 0 (CO2) lambda:  0 occupancy:  1 (1.000000)
    net charge:   0.00000000 [e]

Amount of molecules per component :
-------------------------------------------------------------------------------
Component 0 (CO2)
    molecules:      2.000000e+02 molecules  (2.000000e+02 +/- 0.000000e+00)
    number density: 1.445533e-02 molec./A^3 (1.417573e-02 +/- 0.000000e+00)
    density:        1.056131e+03 kg/m^3     (1.035703e+03 +/- 0.000000e+00)

Average pressure tensor: 
-------------------------------------------------------------------------------
 8.2964e+01  1.1674e+01 -2.5600e+00 +/- 0.0000e+00 0.0000e+00 0.0000e+00 [bar]
 1.1674e+01  7.7434e+01 -3.4686e+01 +/- 0.0000e+00 0.0000e+00 0.0000e+00 [bar]
-2.5600e+00 -3.4686e+01  8.7163e+01 +/- 0.0000e+00 0.0000e+00 0.0000e+00 [bar]
Ideal-gas pressure:   4.892932e+02 +/ 0.000000e+00 [bar]
Excess pressure:     -4.067728e+02 +/ 0.000000e+00 [bar]
Pressure:             8.252043e+01 +/ 0.000000e+00 [bar]

Total potential energy/kʙ  -3.070283e+05 (-2.988999e+05 +/- 0.000000e+00) [K]
-------------------------------------------------------------------------------
ExternalField-molecule
    Van der Waals/kʙ        0.000000e+00 ( 0.000000e+00 +/- 0.000000e+00) [K]
Framework-molecule
    Van der Waals/kʙ        0.000000e+00 ( 0.000000e+00 +/- 0.000000e+00) [K]
    Van der Waals (Tail)/kʙ 0.000000e+00 ( 0.000000e+00 +/- 0.000000e+00) [K]
    Coulombic Real/kʙ       0.000000e+00 ( 0.000000e+00 +/- 0.000000e+00) [K]
    Coulombic Fourier/kʙ    0.000000e+00 ( 0.000000e+00 +/- 0.000000e+00) [K]
Molecule-molecule
    Van der Waals/kʙ       -2.179970e+05 (-2.122077e+05 +/- 0.000000e+00) [K]
    Van der Waals (Tail)/kʙ-9.276128e+03 (-9.096459e+03 +/- 0.000000e+00) [K]
    Coulombic Real/kʙ      -6.401894e+04 (-6.228293e+04 +/- 0.000000e+00) [K]
    Coulombic Fourier/kʙ   -1.573630e+04 (-1.531283e+04 +/- 0.000000e+00) [K]
    Molecule Intra/kʙ       0.000000e+00 ( 0.000000e+00 +/- 0.000000e+00) [K]

Current cycle: 1000 out of 5000
===============================================================================

Box:      24.25837   0.00000   0.00000  Average:  24.15163   0.00000   0.00000
           0.00000  24.25837   0.00000             0.00000  24.15163   0.00000
           0.00000   0.00000  24.25837             0.00000   0.00000  24.15163
Lengths:  24.25837  24.25837  24.25837  Average:  24.15163  24.15163  24.15163
Angles:   90.00000  90.00000  90.00000  Average:  90.00000  90.00000  90.00000
Rectangular boundary conditions

net charge:   0.00000000

component 0 (CO2) lambda:  0 occupancy:  1 (1.000000)
    net charge:   0.00000000 [e]

Amount of molecules per component :
-------------------------------------------------------------------------------
Component 0 (CO2)
    molecules:      2.000000e+02 molecules  (2.000000e+02 +/- 0.000000e+00)
    number density: 1.401023e-02 molec./A^3 (1.420143e-02 +/- 0.000000e+00)
    density:        1.023612e+03 kg/m^3     (1.037581e+03 +/- 0.000000e+00)

Average pressure tensor: 
-------------------------------------------------------------------------------
 7.7539e+01  1.2962e+01 -1.7118e+01 +/- 0.0000e+00 0.0000e+00 0.0000e+00 [bar]
 1.2962e+01  5.0985e+01 -2.9522e+01 +/- 0.0000e+00 0.0000e+00 0.0000e+00 [bar]
-1.7118e+01 -2.9522e+01  8.2737e+01 +/- 0.0000e+00 0.0000e+00 0.0000e+00 [bar]
Ideal-gas pressure:   4.901801e+02 +/ 0.000000e+00 [bar]
Excess pressure:     -4.197594e+02 +/ 0.000000e+00 [bar]
Pressure:             7.042067e+01 +/ 0.000000e+00 [bar]

Total potential energy/kʙ  -2.944951e+05 (-2.993608e+05 +/- 0.000000e+00) [K]
-------------------------------------------------------------------------------
ExternalField-molecule
    Van der Waals/kʙ        0.000000e+00 ( 0.000000e+00 +/- 0.000000e+00) [K]
Framework-molecule
    Van der Waals/kʙ        0.000000e+00 ( 0.000000e+00 +/- 0.000000e+00) [K]
    Van der Waals (Tail)/kʙ 0.000000e+00 ( 0.000000e+00 +/- 0.000000e+00) [K]
    Coulombic Real/kʙ       0.000000e+00 ( 0.000000e+00 +/- 0.000000e+00) [K]
    Coulombic Fourier/kʙ    0.000000e+00 ( 0.000000e+00 +/- 0.000000e+00) [K]
Molecule-molecule
    Van der Waals/kʙ       -2.135829e+05 (-2.128757e+05 +/- 0.000000e+00) [K]
    Van der Waals (Tail)/kʙ-8.990505e+03 (-9.111715e+03 +/- 0.000000e+00) [K]
    Coulombic Real/kʙ      -5.695713e+04 (-6.202078e+04 +/- 0.000000e+00) [K]
    Coulombic Fourier/kʙ   -1.496453e+04 (-1.535256e+04 +/- 0.000000e+00) [K]
    Molecule Intra/kʙ       0.000000e+00 ( 0.000000e+00 +/- 0.000000e+00) [K]

Current cycle: 1100 out of 5000
===============================================================================

Box:      23.93545   0.00000   0.00000  Average:  24.14303   0.00000   0.00000
           0.00000  23.93545   0.00000             0.00000  24.14303   0.00000
           0.00000   0.00000  23.93545             0.00000   0.00000  24.14303
Lengths:  23.93545  23.93545  23.93545  Average:  24.14303  24.14303  24.14303
Angles:   90.00000  90.00000  90.00000  Average:  90.00000  90.00000  90.00000
Rectangular boundary conditions

net charge:   0.00000000

component 0 (CO2) lambda:  0 occupancy:  1 (1.000000)
    net charge:   0.00000000 [e]

Amount of molecules per component :
-------------------------------------------------------------------------------
Component 0 (CO2)
    molecules:      2.000000e+02 molecules  (2.000000e+02 +/- 0.000000e+00)
    number density: 1.458497e-02 molec./A^3 (1.421642e-02 +/- 0.000000e+00)
    density:        1.065603e+03 kg/m^3     (1.038676e+03 +/- 0.000000e+00)

Average pressure tensor: 
-------------------------------------------------------------------------------
 7.7340e+01  9.2150e+00 -9.7084e+00 +/- 0.0000e+00 0.0000e+00 0.0000e+00 [bar]
 9.2150e+00  5.4389e+01 -2.0488e+01 +/- 0.0000e+00 0.0000e+00 0.0000e+00 [bar]
-9.7084e+00 -2.0488e+01  8.1509e+01 +/- 0.0000e+00 0.0000e+00 0.0000e+00 [bar]
Ideal-gas pressure:   4.906975e+02 +/ 0.000000e+00 [bar]
Excess pressure:     -4.196179e+02 +/ 0.000000e+00 [bar]
Pressure:             7.107959e+01 +/ 0.000000e+00 [bar]

Total potential energy/kʙ  -3.058628e+05 (-2.996457e+05 +/- 0.000000e+00) [K]
-------------------------------------------------------------------------------
ExternalField-molecule
    Van der Waals/kʙ        0.000000e+00 ( 0.000000e+00 +/- 0.000000e+00) [K]
Framework-molecule
    Van der Waals/kʙ        0.000000e+00 ( 0.000000e+00 +/- 0.000000e+00) [K]
    Van der Waals (Tail)/kʙ 0.000000e+00 ( 0.000000e+00 +/- 0.000000e+00) [K]
    Coulombic Real/kʙ       0.000000e+00 ( 0.000000e+00 +/- 0.000000e+00) [K]
    Coulombic Fourier/kʙ    0.000000e+00 ( 0.000000e+00 +/- 0.000000e+00) [K]
Molecule-molecule
    Van der Waals/kʙ       -2.182508e+05 (-2.131149e+05 +/- 0.000000e+00) [K]
    Van der Waals (Tail)/kʙ-9.359317e+03 (-9.122273e+03 +/- 0.000000e+00) [K]
    Coulombic Real/kʙ      -6.252403e+04 (-6.204494e+04 +/- 0.000000e+00) [K]
    Coulombic Fourier/kʙ   -1.572867e+04 (-1.536353e+04 +/- 0.000000e+00) [K]
    Molecule Intra/kʙ       0.000000e+00 ( 0.000000e+00 +/- 0.000000e+00) [K]

Current cycle: 1200 out of 5000
===============================================================================

Box:      23.96078   0.00000   0.00000  Average:  24.13177   0.00000   0.00000
           0.00000  23.96078   0.00000             0.00000  24.13177   0.00000
           0.00000   0.00000  23.96078             0.00000   0.00000  24.13177
Lengths:  23.96078  23.96078  23.96078  Average:  24.13177  24.13177  24.13177
Angles:   90.00000  90.00000  90.00000  Average:  90.00000  90.00000  90.00000
Rectangular boundary conditions

net charge:   0.00000000

component 0 (CO2) lambda:  0 occupancy:  1 (1.000000)
    net charge:   0.00000000 [e]

Amount of molecules per component :
-------------------------------------------------------------------------------
Component 0 (CO2)
    molecules:      2.000000e+02 molecules  (2.000000e+02 +/- 0.000000e+00)
    number density: 1.453874e-02 molec./A^3 (1.423631e-02 +/- 0.000000e+00)
    density:        1.062226e+03 kg/m^3     (1.040129e+03 +/- 0.000000e+00)

Average pressure tensor: 
-------------------------------------------------------------------------------
 9.1879e+01  1.0525e+01 -1.5844e+00 +/- 0.0000e+00 0.0000e+00 0.0000e+00 [bar]
 1.0525e+01  6.7252e+01 -1.0615e+01 +/- 0.0000e+00 0.0000e+00 0.0000e+00 [bar]
-1.5844e+00 -1.0615e+01  9.6356e+01 +/- 0.0000e+00 0.0000e+00 0.0000e+00 [bar]
Ideal-gas pressure:   4.913843e+02 +/ 0.000000e+00 [bar]
Excess pressure:     -4.062220e+02 +/ 0.000000e+00 [bar]
Pressure:             8.516230e+01 +/ 0.000000e+00 [bar]

Total potential energy/kʙ  -3.026556e+05 (-3.001774e+05 +/- 0.000000e+00) [K]
-------------------------------------------------------------------------------
ExternalField-molecule
    Van der Waals/kʙ        0.000000e+00 ( 0.000000e+00 +/- 0.000000e+00) [K]
Framework-molecule
    Van der Waals/kʙ        0.000000e+00 ( 0.000000e+00 +/- 0.000000e+00) [K]
    Van der Waals (Tail)/kʙ 0.000000e+00 ( 0.000000e+00 +/- 0.000000e+00) [K]
    Coulombic Real/kʙ       0.000000e+00 ( 0.000000e+00 +/- 0.000000e+00) [K]
    Coulombic Fourier/kʙ    0.000000e+00 ( 0.000000e+00 +/- 0.000000e+00) [K]
Molecule-molecule
    Van der Waals/kʙ       -2.090542e+05 (-2.131925e+05 +/- 0.000000e+00) [K]
    Van der Waals (Tail)/kʙ-9.329655e+03 (-9.138553e+03 +/- 0.000000e+00) [K]
    Coulombic Real/kʙ      -6.872583e+04 (-6.241175e+04 +/- 0.000000e+00) [K]
    Coulombic Fourier/kʙ   -1.554591e+04 (-1.543456e+04 +/- 0.000000e+00) [K]
    Molecule Intra/kʙ       0.000000e+00 ( 0.000000e+00 +/- 0.000000e+00) [K]

Current cycle: 1300 out of 5000
===============================================================================

Box:      24.18408   0.00000   0.00000  Average:  24.13231   0.00000   0.00000
           0.00000  24.18408   0.00000             0.00000  24.13231   0.00000
           0.00000   0.00000  24.18408             0.00000   0.00000  24.13231
Lengths:  24.18408  24.18408  24.18408  Average:  24.13231  24.13231  24.13231
Angles:   90.00000  90.00000  90.00000  Average:  90.00000  90.00000  90.00000
Rectangular boundary conditions

net charge:   0.00000000

component 0 (CO2) lambda:  0 occupancy:  1 (1.000000)
    net charge:   0.00000000 [e]

Amount of molecules per component :
-------------------------------------------------------------------------------
Component 0 (CO2)
    molecules:      2.000000e+02 molecules  (2.000000e+02 +/- 0.000000e+00)
    number density: 1.413974e-02 molec./A^3 (1.423517e-02 +/- 0.000000e+00)
    density:        1.033074e+03 kg/m^3     (1.040046e+03 +/- 0.000000e+00)

Average pressure tensor: 
-------------------------------------------------------------------------------
 8.6212e+01  1.1749e+01  4.0856e+00 +/- 0.0000e+00 0.0000e+00 0.0000e+00 [bar]
 1.1749e+01  8.8067e+01 -2.5563e+01 +/- 0.0000e+00 0.0000e+00 0.0000e+00 [bar]
 4.0856e+00 -2.5563e+01  9.3567e+01 +/- 0.0000e+00 0.0000e+00 0.0000e+00 [bar]
Ideal-gas pressure:   4.913447e+02 +/ 0.000000e+00 [bar]
Excess pressure:     -4.020629e+02 +/ 0.000000e+00 [bar]
Pressure:             8.928178e+01 +/ 0.000000e+00 [bar]

Total potential energy/kʙ  -2.936884e+05 (-2.999053e+05 +/- 0.000000e+00) [K]
-------------------------------------------------------------------------------
ExternalField-molecule
    Van der Waals/kʙ        0.000000e+00 ( 0.000000e+00 +/- 0.000000e+00) [K]
Framework-molecule
    Van der Waals/kʙ        0.000000e+00 ( 0.000000e+00 +/- 0.000000e+00) [K]
    Van der Waals (Tail)/kʙ 0.000000e+00 ( 0.000000e+00 +/- 0.000000e+00) [K]
    Coulombic Real/kʙ       0.000000e+00 ( 0.000000e+00 +/- 0.000000e+00) [K]
    Coulombic Fourier/kʙ    0.000000e+00 ( 0.000000e+00 +/- 0.000000e+00) [K]
Molecule-molecule
    Van der Waals/kʙ       -2.151413e+05 (-2.131933e+05 +/- 0.000000e+00) [K]
    Van der Waals (Tail)/kʙ-9.073611e+03 (-9.140007e+03 +/- 0.000000e+00) [K]
    Coulombic Real/kʙ      -5.499325e+04 (-6.219026e+04 +/- 0.000000e+00) [K]
    Coulombic Fourier/kʙ   -1.448021e+04 (-1.538177e+04 +/- 0.000000e+00) [K]
    Molecule Intra/kʙ       0.000000e+00 ( 0.000000e+00 +/- 0.000000e+00) [K]

Current cycle: 1400 out of 5000
===============================================================================

Box:      24.17395   0.00000   0.00000  Average:  24.14199   0.00000   0.00000
           0.00000  24.17395   0.00000             0.00000  24.14199   0.00000
           0.00000   0.00000  24.17395             0.00000   0.00000  24.14199
Lengths:  24.17395  24.17395  24.17395  Average:  24.14199  24.14199  24.14199
Angles:   90.00000  90.00000  90.00000  Average:  90.00000  90.00000  90.00000
Rectangular boundary conditions

net charge:   0.00000000

component 0 (CO2) lambda:  0 occupancy:  1 (1.000000)
    net charge:   0.00000000 [e]

Amount of molecules per component :
-------------------------------------------------------------------------------
Component 0 (CO2)
    molecules:      2.000000e+02 molecules  (2.000000e+02 +/- 0.000000e+00)
    number density: 1.415751e-02 molec./A^3 (1.421804e-02 +/- 0.000000e+00)
    density:        1.034372e+03 kg/m^3     (1.038795e+03 +/- 0.000000e+00)

Average pressure tensor: 
-------------------------------------------------------------------------------
 8.3613e+01  1.3836e+01 -1.1578e+00 +/- 0.0000e+00 0.0000e+00 0.0000e+00 [bar]
 1.3836e+01  8.2794e+01 -2.0079e+01 +/- 0.0000e+00 0.0000e+00 0.0000e+00 [bar]
-1.1578e+00 -2.0079e+01  7.7725e+01 +/- 0.0000e+00 0.0000e+00 0.0000e+00 [bar]
Ideal-gas pressure:   4.907536e+02 +/ 0.000000e+00 [bar]
Excess pressure:     -4.093760e+02 +/ 0.000000e+00 [bar]
Pressure:             8.137763e+01 +/ 0.000000e+00 [bar]

Total potential energy/kʙ  -2.897290e+05 (-2.992690e+05 +/- 0.000000e+00) [K]
-------------------------------------------------------------------------------
ExternalField-molecule
    Van der Waals/kʙ        0.000000e+00 ( 0.000000e+00 +/- 0.000000e+00) [K]
Framework-molecule
    Van der Waals/kʙ        0.000000e+00 ( 0.000000e+00 +/- 0.000000e+00) [K]
    Van der Waals (Tail)/kʙ 0.000000e+00 ( 0.000000e+00 +/- 0.000000e+00) [K]
    Coulombic Real/kʙ       0.000000e+00 ( 0.000000e+00 +/- 0.000000e+00) [K]
    Coulombic Fourier/kʙ    0.000000e+00 ( 0.000000e+00 +/- 0.000000e+00) [K]
Molecule-molecule
    Van der Waals/kʙ       -2.124790e+05 (-2.131371e+05 +/- 0.000000e+00) [K]
    Van der Waals (Tail)/kʙ-9.085016e+03 (-9.130735e+03 +/- 0.000000e+00) [K]
    Coulombic Real/kʙ      -5.391938e+04 (-6.175020e+04 +/- 0.000000e+00) [K]
    Coulombic Fourier/kʙ   -1.424565e+04 (-1.525098e+04 +/- 0.000000e+00) [K]
    Molecule Intra/kʙ       0.000000e+00 ( 0.000000e+00 +/- 0.000000e+00) [K]

Current cycle: 1500 out of 5000
===============================================================================

Box:      24.07383   0.00000   0.00000  Average:  24.14382   0.00000   0.00000
           0.00000  24.07383   0.00000             0.00000  24.14382   0.00000
           0.00000   0.00000  24.07383             0.00000   0.00000  24.14382
Lengths:  24.07383  24.07383  24.07383  Average:  24.14382  24.14382  24.14382
Angles:   90.00000  90.00000  90.00000  Average:  90.00000  90.00000  90.00000
Rectangular boundary conditions

net charge:   0.00000000

component 0 (CO2) lambda:  0 occupancy:  1 (1.000000)
    net charge:   0.00000000 [e]

Amount of molecules per component :
-------------------------------------------------------------------------------
Component 0 (CO2)
    molecules:      2.000000e+02 molecules  (2.000000e+02 +/- 0.000000e+00)
    number density: 1.433490e-02 molec./A^3 (1.421460e-02 +/- 0.000000e+00)
    density:        1.047332e+03 kg/m^3     (1.038543e+03 +/- 0.000000e+00)

Average pressure tensor: 
-------------------------------------------------------------------------------
 7.0425e+01  1.3223e+01 -2.8412e+00 +/- 0.0000e+00 0.0000e+00 0.0000e+00 [bar]
 1.3223e+01  7.1429e+01 -7.7600e+00 +/- 0.0000e+00 0.0000e+00 0.0000e+00 [bar]
-2.8412e+00 -7.7600e+00  7.5064e+01 +/- 0.0000e+00 0.0000e+00 0.0000e+00 [bar]
Ideal-gas pressure:   4.906348e+02 +/ 0.000000e+00 [bar]
Excess pressure:     -4.183286e+02 +/ 0.000000e+00 [bar]
Pressure:             7.230614e+01 +/ 0.000000e+00 [bar]

Total potential energy/kʙ  -3.021186e+05 (-2.989298e+05 +/- 0.000000e+00) [K]
-------------------------------------------------------------------------------
ExternalField-molecule
    Van der Waals/kʙ        0.000000e+00 ( 0.000000e+00 +/- 0.000000e+00) [K]
Framework-molecule
    Van der Waals/kʙ        0.000000e+00 ( 0.000000e+00 +/- 0.000000e+00) [K]
    Van der Waals (Tail)/kʙ 0.000000e+00 ( 0.000000e+00 +/- 0.000000e+00) [K]
    Coulombic Real/kʙ       0.000000e+00 ( 0.000000e+00 +/- 0.000000e+00) [K]
    Coulombic Fourier/kʙ    0.000000e+00 ( 0.000000e+00 +/- 0.000000e+00) [K]
Molecule-molecule
    Van der Waals/kʙ       -2.137433e+05 (-2.132189e+05 +/- 0.000000e+00) [K]
    Van der Waals (Tail)/kʙ-9.198843e+03 (-9.126782e+03 +/- 0.000000e+00) [K]
    Coulombic Real/kʙ      -6.272640e+04 (-6.135559e+04 +/- 0.000000e+00) [K]
    Coulombic Fourier/kʙ   -1.645013e+04 (-1.522845e+04 +/- 0.000000e+00) [K]
    Molecule Intra/kʙ       0.000000e+00 ( 0.000000e+00 +/- 0.000000e+00) [K]

Current cycle: 1600 out of 5000
===============================================================================

Box:      23.59441   0.00000   0.00000  Average:  24.12485   0.00000   0.00000
           0.00000  23.59441   0.00000             0.00000  24.12485   0.00000
           0.00000   0.00000  23.59441             0.00000   0.00000  24.12485
Lengths:  23.59441  23.59441  23.59441  Average:  24.12485  24.12485  24.12485
Angles:   90.00000  90.00000  90.00000  Average:  90.00000  90.00000  90.00000
Rectangular boundary conditions

net charge:   0.00000000

component 0 (CO2) lambda:  0 occupancy:  1 (1.000000)
    net charge:   0.00000000 [e]

Amount of molecules per component :
-------------------------------------------------------------------------------
Component 0 (CO2)
    molecules:      2.000000e+02 molecules  (2.000000e+02 +/- 0.000000e+00)
    number density: 1.522658e-02 molec./A^3 (1.424886e-02 +/- 0.000000e+00)
    density:        1.112480e+03 kg/m^3     (1.041046e+03 +/- 0.000000e+00)

Average pressure tensor: 
-------------------------------------------------------------------------------
 7.8955e+01  2.2225e+01 -9.7774e-01 +/- 0.0000e+00 0.0000e+00 0.0000e+00 [bar]
 2.2225e+01  8.1819e+01 -3.3277e+00 +/- 0.0000e+00 0.0000e+00 0.0000e+00 [bar]
-9.7774e-01 -3.3277e+00  7.8582e+01 +/- 0.0000e+00 0.0000e+00 0.0000e+00 [bar]
Ideal-gas pressure:   4.918173e+02 +/ 0.000000e+00 [bar]
Excess pressure:     -4.120322e+02 +/ 0.000000e+00 [bar]
Pressure:             7.978510e+01 +/ 0.000000e+00 [bar]

Total potential energy/kʙ  -3.257918e+05 (-2.999646e+05 +/- 0.000000e+00) [K]
-------------------------------------------------------------------------------
ExternalField-molecule
    Van der Waals/kʙ        0.000000e+00 ( 0.000000e+00 +/- 0.000000e+00) [K]
Framework-molecule
    Van der Waals/kʙ        0.000000e+00 ( 0.000000e+00 +/- 0.000000e+00) [K]
    Van der Waals (Tail)/kʙ 0.000000e+00 ( 0.000000e+00 +/- 0.000000e+00) [K]
    Coulombic Real/kʙ       0.000000e+00 ( 0.000000e+00 +/- 0.000000e+00) [K]
    Coulombic Fourier/kʙ    0.000000e+00 ( 0.000000e+00 +/- 0.000000e+00) [K]
Molecule-molecule
    Van der Waals/kʙ       -2.288566e+05 (-2.137312e+05 +/- 0.000000e+00) [K]
    Van der Waals (Tail)/kʙ-9.771048e+03 (-9.150913e+03 +/- 0.000000e+00) [K]
    Coulombic Real/kʙ      -7.067001e+04 (-6.180013e+04 +/- 0.000000e+00) [K]
    Coulombic Fourier/kʙ   -1.649411e+04 (-1.528236e+04 +/- 0.000000e+00) [K]
    Molecule Intra/kʙ       0.000000e+00 ( 0.000000e+00 +/- 0.000000e+00) [K]

Current cycle: 1700 out of 5000
===============================================================================

Box:      23.74119   0.00000   0.00000  Average:  24.09956   0.00000   0.00000
           0.00000  23.74119   0.00000             0.00000  24.09956   0.00000
           0.00000   0.00000  23.74119             0.00000   0.00000  24.09956
Lengths:  23.74119  23.74119  23.74119  Average:  24.09956  24.09956  24.09956
Angles:   90.00000  90.00000  90.00000  Average:  90.00000  90.00000  90.00000
Rectangular boundary conditions

net charge:   0.00000000

component 0 (CO2) lambda:  0 occupancy:  1 (1.000000)
    net charge:   0.00000000 [e]

Amount of molecules per component :
-------------------------------------------------------------------------------
Component 0 (CO2)
    molecules:      2.000000e+02 molecules  (2.000000e+02 +/- 0.000000e+00)
    number density: 1.494591e-02 molec./A^3 (1.429508e-02 +/- 0.000000e+00)
    density:        1.091974e+03 kg/m^3     (1.044423e+03 +/- 0.000000e+00)

Average pressure tensor: 
-------------------------------------------------------------------------------
 7.9688e+01  2.9423e+01 -1.0547e+01 +/- 0.0000e+00 0.0000e+00 0.0000e+00 [bar]
 2.9423e+01  8.0495e+01  5.1755e+00 +/- 0.0000e+00 0.0000e+00 0.0000e+00 [bar]
-1.0547e+01  5.1755e+00  7.9856e+01 +/- 0.0000e+00 0.0000e+00 0.0000e+00 [bar]
Ideal-gas pressure:   4.934126e+02 +/ 0.000000e+00 [bar]
Excess pressure:     -4.133994e+02 +/ 0.000000e+00 [bar]
Pressure:             8.001317e+01 +/ 0.000000e+00 [bar]

Total potential energy/kʙ  -3.285251e+05 (-3.013033e+05 +/- 0.000000e+00) [K]
-------------------------------------------------------------------------------
ExternalField-molecule
    Van der Waals/kʙ        0.000000e+00 ( 0.000000e+00 +/- 0.000000e+00) [K]
Framework-molecule
    Van der Waals/kʙ        0.000000e+00 ( 0.000000e+00 +/- 0.000000e+00) [K]
    Van der Waals (Tail)/kʙ 0.000000e+00 ( 0.000000e+00 +/- 0.000000e+00) [K]
    Coulombic Real/kʙ       0.000000e+00 ( 0.000000e+00 +/- 0.000000e+00) [K]
    Coulombic Fourier/kʙ    0.000000e+00 ( 0.000000e+00 +/- 0.000000e+00) [K]
Molecule-molecule
    Van der Waals/kʙ       -2.223019e+05 (-2.144189e+05 +/- 0.000000e+00) [K]
    Van der Waals (Tail)/kʙ-9.590936e+03 (-9.178953e+03 +/- 0.000000e+00) [K]
    Coulombic Real/kʙ      -7.881650e+04 (-6.232940e+04 +/- 0.000000e+00) [K]
    Coulombic Fourier/kʙ   -1.781577e+04 (-1.537607e+04 +/- 0.000000e+00) [K]
    Molecule Intra/kʙ       0.000000e+00 ( 0.000000e+00 +/- 0.000000e+00) [K]

Current cycle: 1800 out of 5000
===============================================================================

Box:      23.60673   0.00000   0.00000  Average:  24.07398   0.00000   0.00000
           0.00000  23.60673   0.00000             0.00000  24.07398   0.00000
           0.00000   0.00000  23.60673             0.00000   0.00000  24.07398
Lengths:  23.60673  23.60673  23.60673  Average:  24.07398  24.07398  24.07398
Angles:   90.00000  90.00000  90.00000  Average:  90.00000  90.00000  90.00000
Rectangular boundary conditions

net charge:   0.00000000

component 0 (CO2) lambda:  0 occupancy:  1 (1.000000)
    net charge:   0.00000000 [e]

Amount of molecules per component :
-------------------------------------------------------------------------------
Component 0 (CO2)
    molecules:      2.000000e+02 molecules  (2.000000e+02 +/- 0.000000e+00)
    number density: 1.520276e-02 molec./A^3 (1.434215e-02 +/- 0.000000e+00)
    density:        1.110740e+03 kg/m^3     (1.047862e+03 +/- 0.000000e+00)

Average pressure tensor: 
-------------------------------------------------------------------------------
 8.9328e+01  3.2159e+01 -1.1004e+01 +/- 0.0000e+00 0.0000e+00 0.0000e+00 [bar]
 3.2159e+01  7.4294e+01  1.7276e+01 +/- 0.0000e+00 0.0000e+00 0.0000e+00 [bar]
-1.1004e+01  1.7276e+01  8.0917e+01 +/- 0.0000e+00 0.0000e+00 0.0000e+00 [bar]
Ideal-gas pressure:   4.950373e+02 +/ 0.000000e+00 [bar]
Excess pressure:     -4.135242e+02 +/ 0.000000e+00 [bar]
Pressure:             8.151301e+01 +/ 0.000000e+00 [bar]

Total potential energy/kʙ  -3.256933e+05 (-3.027022e+05 +/- 0.000000e+00) [K]
-------------------------------------------------------------------------------
ExternalField-molecule
    Van der Waals/kʙ        0.000000e+00 ( 0.000000e+00 +/- 0.000000e+00) [K]
Framework-molecule
    Van der Waals/kʙ        0.000000e+00 ( 0.000000e+00 +/- 0.000000e+00) [K]
    Van der Waals (Tail)/kʙ 0.000000e+00 ( 0.000000e+00 +/- 0.000000e+00) [K]
    Coulombic Real/kʙ       0.000000e+00 ( 0.000000e+00 +/- 0.000000e+00) [K]
    Coulombic Fourier/kʙ    0.000000e+00 ( 0.000000e+00 +/- 0.000000e+00) [K]
Molecule-molecule
    Van der Waals/kʙ       -2.304281e+05 (-2.151767e+05 +/- 0.000000e+00) [K]
    Van der Waals (Tail)/kʙ-9.755763e+03 (-9.209852e+03 +/- 0.000000e+00) [K]
    Coulombic Real/kʙ      -6.917077e+04 (-6.286289e+04 +/- 0.000000e+00) [K]
    Coulombic Fourier/kʙ   -1.633872e+04 (-1.545281e+04 +/- 0.000000e+00) [K]
    Molecule Intra/kʙ       0.000000e+00 ( 0.000000e+00 +/- 0.000000e+00) [K]

Current cycle: 1900 out of 5000
===============================================================================

Box:      23.42223   0.00000   0.00000  Average:  24.04598   0.00000   0.00000
           0.00000  23.42223   0.00000             0.00000  24.04598   0.00000
           0.00000   0.00000  23.42223             0.00000   0.00000  24.04598
Lengths:  23.42223  23.42223  23.42223  Average:  24.04598  24.04598  24.04598
Angles:   90.00000  90.00000  90.00000  Average:  90.00000  90.00000  90.00000
Rectangular boundary conditions

net charge:   0.00000000

component 0 (CO2) lambda:  0 occupancy:  1 (1.000000)
    net charge:   0.00000000 [e]

Amount of molecules per component :
-------------------------------------------------------------------------------
Component 0 (CO2)
    molecules:      2.000000e+02 molecules  (2.000000e+02 +/- 0.000000e+00)
    number density: 1.556486e-02 molec./A^3 (1.439417e-02 +/- 0.000000e+00)
    density:        1.137195e+03 kg/m^3     (1.051663e+03 +/- 0.000000e+00)

Average pressure tensor: 
-------------------------------------------------------------------------------
 8.7701e+01  2.6206e+01 -1.4163e+01 +/- 0.0000e+00 0.0000e+00 0.0000e+00 [bar]
 2.6206e+01  6.4437e+01  2.4776e+01 +/- 0.0000e+00 0.0000e+00 0.0000e+00 [bar]
-1.4163e+01  2.4776e+01  8.0487e+01 +/- 0.0000e+00 0.0000e+00 0.0000e+00 [bar]
Ideal-gas pressure:   4.968330e+02 +/ 0.000000e+00 [bar]
Excess pressure:     -4.192912e+02 +/ 0.000000e+00 [bar]
Pressure:             7.754189e+01 +/ 0.000000e+00 [bar]

Total potential energy/kʙ  -3.324861e+05 (-3.041324e+05 +/- 0.000000e+00) [K]
-------------------------------------------------------------------------------
ExternalField-molecule
    Van der Waals/kʙ        0.000000e+00 ( 0.000000e+00 +/- 0.000000e+00) [K]
Framework-molecule
    Van der Waals/kʙ        0.000000e+00 ( 0.000000e+00 +/- 0.000000e+00) [K]
    Van der Waals (Tail)/kʙ 0.000000e+00 ( 0.000000e+00 +/- 0.000000e+00) [K]
    Coulombic Real/kʙ       0.000000e+00 ( 0.000000e+00 +/- 0.000000e+00) [K]
    Coulombic Fourier/kʙ    0.000000e+00 ( 0.000000e+00 +/- 0.000000e+00) [K]
Molecule-molecule
    Van der Waals/kʙ       -2.362161e+05 (-2.161731e+05 +/- 0.000000e+00) [K]
    Van der Waals (Tail)/kʙ-9.988121e+03 (-9.241789e+03 +/- 0.000000e+00) [K]
    Coulombic Real/kʙ      -6.978890e+04 (-6.320706e+04 +/- 0.000000e+00) [K]
    Coulombic Fourier/kʙ   -1.649305e+04 (-1.551049e+04 +/- 0.000000e+00) [K]
    Molecule Intra/kʙ       0.000000e+00 ( 0.000000e+00 +/- 0.000000e+00) [K]

Current cycle: 2000 out of 5000
===============================================================================

Box:      23.69498   0.00000   0.00000  Average:  24.01776   0.00000   0.00000
           0.00000  23.69498   0.00000             0.00000  24.01776   0.00000
           0.00000   0.00000  23.69498             0.00000   0.00000  24.01776
Lengths:  23.69498  23.69498  23.69498  Average:  24.01776  24.01776  24.01776
Angles:   90.00000  90.00000  90.00000  Average:  90.00000  90.00000  90.00000
Rectangular boundary conditions

net charge:   0.00000000

component 0 (CO2) lambda:  0 occupancy:  1 (1.000000)
    net charge:   0.00000000 [e]

Amount of molecules per component :
-------------------------------------------------------------------------------
Component 0 (CO2)
    molecules:      2.000000e+02 molecules  (2.000000e+02 +/- 0.000000e+00)
    number density: 1.503352e-02 molec./A^3 (1.444688e-02 +/- 0.000000e+00)
    density:        1.098375e+03 kg/m^3     (1.055514e+03 +/- 0.000000e+00)

Average pressure tensor: 
-------------------------------------------------------------------------------
 8.3718e+01  2.6048e+01 -9.9822e+00 +/- 0.0000e+00 0.0000e+00 0.0000e+00 [bar]
 2.6048e+01  7.0095e+01  1.9052e+01 +/- 0.0000e+00 0.0000e+00 0.0000e+00 [bar]
-9.9822e+00  1.9052e+01  8.4376e+01 +/- 0.0000e+00 0.0000e+00 0.0000e+00 [bar]
Ideal-gas pressure:   4.986523e+02 +/ 0.000000e+00 [bar]
Excess pressure:     -4.192561e+02 +/ 0.000000e+00 [bar]
Pressure:             7.939619e+01 +/ 0.000000e+00 [bar]

Total potential energy/kʙ  -3.281271e+05 (-3.055154e+05 +/- 0.000000e+00) [K]
-------------------------------------------------------------------------------
ExternalField-molecule
    Van der Waals/kʙ        0.000000e+00 ( 0.000000e+00 +/- 0.000000e+00) [K]
Framework-molecule
    Van der Waals/kʙ        0.000000e+00 ( 0.000000e+00 +/- 0.000000e+00) [K]
    Van der Waals (Tail)/kʙ 0.000000e+00 ( 0.000000e+00 +/- 0.000000e+00) [K]
    Coulombic Real/kʙ       0.000000e+00 ( 0.000000e+00 +/- 0.000000e+00) [K]
    Coulombic Fourier/kʙ    0.000000e+00 ( 0.000000e+00 +/- 0.000000e+00) [K]
Molecule-molecule
    Van der Waals/kʙ       -2.330406e+05 (-2.171670e+05 +/- 0.000000e+00) [K]
    Van der Waals (Tail)/kʙ-9.647158e+03 (-9.274080e+03 +/- 0.000000e+00) [K]
    Coulombic Real/kʙ      -6.888601e+04 (-6.350985e+04 +/- 0.000000e+00) [K]
    Coulombic Fourier/kʙ   -1.655325e+04 (-1.556449e+04 +/- 0.000000e+00) [K]
    Molecule Intra/kʙ       0.000000e+00 ( 0.000000e+00 +/- 0.000000e+00) [K]

Current cycle: 2100 out of 5000
===============================================================================

Box:      23.76699   0.00000   0.00000  Average:  24.00296   0.00000   0.00000
           0.00000  23.76699   0.00000             0.00000  24.00296   0.00000
           0.00000   0.00000  23.76699             0.00000   0.00000  24.00296
Lengths:  23.76699  23.76699  23.76699  Average:  24.00296  24.00296  24.00296
Angles:   90.00000  90.00000  90.00000  Average:  90.00000  90.00000  90.00000
Rectangular boundary conditions

net charge:   0.00000000

component 0 (CO2) lambda:  0 occupancy:  1 (1.000000)
    net charge:   0.00000000 [e]

Amount of molecules per component :
-------------------------------------------------------------------------------
Component 0 (CO2)
    molecules:      2.000000e+02 molecules  (2.000000e+02 +/- 0.000000e+00)
    number density: 1.489730e-02 molec./A^3 (1.447383e-02 +/- 0.000000e+00)
    density:        1.088422e+03 kg/m^3     (1.057483e+03 +/- 0.000000e+00)

Average pressure tensor: 
-------------------------------------------------------------------------------
 8.4079e+01  2.4314e+01 -1.4405e+01 +/- 0.0000e+00 0.0000e+00 0.0000e+00 [bar]
 2.4314e+01  5.2323e+01  1.9892e+01 +/- 0.0000e+00 0.0000e+00 0.0000e+00 [bar]
-1.4405e+01  1.9892e+01  9.1057e+01 +/- 0.0000e+00 0.0000e+00 0.0000e+00 [bar]
Ideal-gas pressure:   4.995824e+02 +/ 0.000000e+00 [bar]
Excess pressure:     -4.237629e+02 +/ 0.000000e+00 [bar]
Pressure:             7.581947e+01 +/ 0.000000e+00 [bar]

Total potential energy/kʙ  -3.103082e+05 (-3.060411e+05 +/- 0.000000e+00) [K]
-------------------------------------------------------------------------------
ExternalField-molecule
    Van der Waals/kʙ        0.000000e+00 ( 0.000000e+00 +/- 0.000000e+00) [K]
Framework-molecule
    Van der Waals/kʙ        0.000000e+00 ( 0.000000e+00 +/- 0.000000e+00) [K]
    Van der Waals (Tail)/kʙ 0.000000e+00 ( 0.000000e+00 +/- 0.000000e+00) [K]
[...]
    Coulombic Fourier/kʙ    0.000000e+00 ( 0.000000e+00 +/- 0.000000e+00) [K]
Molecule-molecule
    Van der Waals/kʙ       -2.285157e+05 (-2.189873e+05 +/- 4.781135e+03) [K]
    Van der Waals (Tail)/kʙ-9.697572e+03 (-9.357607e+03 +/- 1.926415e+02) [K]
    Coulombic Real/kʙ      -6.429802e+04 (-6.384724e+04 +/- 1.459458e+03) [K]
    Coulombic Fourier/kʙ   -1.574051e+04 (-1.567136e+04 +/- 2.742137e+02) [K]
    Molecule Intra/kʙ       0.000000e+00 ( 0.000000e+00 +/- 0.000000e+00) [K]

Current cycle: 4700 out of 5000
===============================================================================

Box:      23.93288   0.00000   0.00000  Average:  23.94244   0.00000   0.00000
           0.00000  23.93288   0.00000             0.00000  23.94244   0.00000
           0.00000   0.00000  23.93288             0.00000   0.00000  23.94244
Lengths:  23.93288  23.93288  23.93288  Average:  23.94244  23.94244  23.94244
Angles:   90.00000  90.00000  90.00000  Average:  90.00000  90.00000  90.00000
Rectangular boundary conditions

net charge:   0.00000000

component 0 (CO2) lambda:  0 occupancy:  1 (1.000000)
    net charge:   0.00000000 [e]

Amount of molecules per component :
-------------------------------------------------------------------------------
Component 0 (CO2)
    molecules:      2.000000e+02 molecules  (2.000000e+02 +/- 0.000000e+00)
    number density: 1.458965e-02 molec./A^3 (1.458031e-02 +/- 2.906767e-04)
    density:        1.065945e+03 kg/m^3     (1.065263e+03 +/- 2.123733e+01)

Average pressure tensor: 
-------------------------------------------------------------------------------
 1.1124e+02 -3.4865e+00 -2.6643e+01 +/- 4.8570e+01 5.0719e+01 6.7075e+01 [bar]
-3.4865e+00  6.7220e+01  1.6539e+01 +/- 5.0719e+01 3.3713e+01 5.0428e+01 [bar]
-2.6643e+01  1.6539e+01  9.2621e+01 +/- 6.7075e+01 5.0428e+01 3.2000e+01 [bar]
Ideal-gas pressure:   5.032578e+02 +/ 1.003307e+01 [bar]
Excess pressure:     -4.128982e+02 +/ 1.025576e+01 [bar]
Pressure:             9.035960e+01 +/ 1.846266e+01 [bar]

Total potential energy/kʙ  -3.080781e+05 (-3.078862e+05 +/- 6.612073e+03) [K]
-------------------------------------------------------------------------------
ExternalField-molecule
    Van der Waals/kʙ        0.000000e+00 ( 0.000000e+00 +/- 0.000000e+00) [K]
Framework-molecule
    Van der Waals/kʙ        0.000000e+00 ( 0.000000e+00 +/- 0.000000e+00) [K]
    Van der Waals (Tail)/kʙ 0.000000e+00 ( 0.000000e+00 +/- 0.000000e+00) [K]
    Coulombic Real/kʙ       0.000000e+00 ( 0.000000e+00 +/- 0.000000e+00) [K]
    Coulombic Fourier/kʙ    0.000000e+00 ( 0.000000e+00 +/- 0.000000e+00) [K]
Molecule-molecule
    Van der Waals/kʙ       -2.208862e+05 (-2.190873e+05 +/- 4.739096e+03) [K]
    Van der Waals (Tail)/kʙ-9.362322e+03 (-9.359483e+03 +/- 1.917341e+02) [K]
    Coulombic Real/kʙ      -6.245834e+04 (-6.378168e+04 +/- 1.527424e+03) [K]
    Coulombic Fourier/kʙ   -1.537123e+04 (-1.565782e+04 +/- 2.845531e+02) [K]
    Molecule Intra/kʙ       0.000000e+00 ( 0.000000e+00 +/- 0.000000e+00) [K]

Current cycle: 4800 out of 5000
===============================================================================

Box:      23.87486   0.00000   0.00000  Average:  23.94328   0.00000   0.00000
           0.00000  23.87486   0.00000             0.00000  23.94328   0.00000
           0.00000   0.00000  23.87486             0.00000   0.00000  23.94328
Lengths:  23.87486  23.87486  23.87486  Average:  23.94328  23.94328  23.94328
Angles:   90.00000  90.00000  90.00000  Average:  90.00000  90.00000  90.00000
Rectangular boundary conditions

net charge:   0.00000000

component 0 (CO2) lambda:  0 occupancy:  1 (1.000000)
    net charge:   0.00000000 [e]

Amount of molecules per component :
-------------------------------------------------------------------------------
Component 0 (CO2)
    molecules:      2.000000e+02 molecules  (2.000000e+02 +/- 0.000000e+00)
    number density: 1.469629e-02 molec./A^3 (1.457866e-02 +/- 2.909028e-04)
    density:        1.073736e+03 kg/m^3     (1.065142e+03 +/- 2.125386e+01)

Average pressure tensor: 
-------------------------------------------------------------------------------
 1.0994e+02 -3.5986e+00 -2.5452e+01 +/- 4.6352e+01 4.6878e+01 6.7638e+01 [bar]
-3.5986e+00  6.2316e+01  1.5563e+01 +/- 4.6878e+01 4.0323e+01 5.0245e+01 [bar]
-2.5452e+01  1.5563e+01  8.7601e+01 +/- 6.7638e+01 5.0245e+01 4.3104e+01 [bar]
Ideal-gas pressure:   5.032009e+02 +/ 1.004088e+01 [bar]
Excess pressure:     -4.165827e+02 +/ 1.787592e+01 [bar]
Pressure:             8.661816e+01 +/ 2.391667e+01 [bar]

Total potential energy/kʙ  -3.048870e+05 (-3.078090e+05 +/- 6.635654e+03) [K]
-------------------------------------------------------------------------------
ExternalField-molecule
    Van der Waals/kʙ        0.000000e+00 ( 0.000000e+00 +/- 0.000000e+00) [K]
Framework-molecule
    Van der Waals/kʙ        0.000000e+00 ( 0.000000e+00 +/- 0.000000e+00) [K]
    Van der Waals (Tail)/kʙ 0.000000e+00 ( 0.000000e+00 +/- 0.000000e+00) [K]
    Coulombic Real/kʙ       0.000000e+00 ( 0.000000e+00 +/- 0.000000e+00) [K]
    Coulombic Fourier/kʙ    0.000000e+00 ( 0.000000e+00 +/- 0.000000e+00) [K]
Molecule-molecule
    Van der Waals/kʙ       -2.166038e+05 (-2.190430e+05 +/- 4.746192e+03) [K]
    Van der Waals (Tail)/kʙ-9.430751e+03 (-9.357450e+03 +/- 1.921630e+02) [K]
    Coulombic Real/kʙ      -6.247451e+04 (-6.374723e+04 +/- 1.546474e+03) [K]
    Coulombic Fourier/kʙ   -1.637797e+04 (-1.566134e+04 +/- 2.788432e+02) [K]
    Molecule Intra/kʙ       0.000000e+00 ( 0.000000e+00 +/- 0.000000e+00) [K]

Current cycle: 4900 out of 5000
===============================================================================

Box:      24.14877   0.00000   0.00000  Average:  23.94469   0.00000   0.00000
           0.00000  24.14877   0.00000             0.00000  23.94469   0.00000
           0.00000   0.00000  24.14877             0.00000   0.00000  23.94469
Lengths:  24.14877  24.14877  24.14877  Average:  23.94469  23.94469  23.94469
Angles:   90.00000  90.00000  90.00000  Average:  90.00000  90.00000  90.00000
Rectangular boundary conditions

net charge:   0.00000000

component 0 (CO2) lambda:  0 occupancy:  1 (1.000000)
    net charge:   0.00000000 [e]

Amount of molecules per component :
-------------------------------------------------------------------------------
Component 0 (CO2)
    molecules:      2.000000e+02 molecules  (2.000000e+02 +/- 0.000000e+00)
    number density: 1.420185e-02 molec./A^3 (1.457599e-02 +/- 2.913825e-04)
    density:        1.037612e+03 kg/m^3     (1.064947e+03 +/- 2.128890e+01)

Average pressure tensor: 
-------------------------------------------------------------------------------
 1.0966e+02  2.6742e-01 -2.5750e+01 +/- 4.5816e+01 3.4854e+01 6.6944e+01 [bar]
 2.6742e-01  6.2814e+01  1.2473e+01 +/- 3.4854e+01 3.8261e+01 5.1007e+01 [bar]
-2.5750e+01  1.2473e+01  8.4632e+01 +/- 6.6944e+01 5.1007e+01 4.7853e+01 [bar]
Ideal-gas pressure:   5.031086e+02 +/ 1.005743e+01 [bar]
Excess pressure:     -4.174065e+02 +/ 1.878184e+01 [bar]
Pressure:             8.570213e+01 +/ 2.477688e+01 [bar]

Total potential energy/kʙ  -2.959625e+05 (-3.077385e+05 +/- 6.654464e+03) [K]
-------------------------------------------------------------------------------
ExternalField-molecule
    Van der Waals/kʙ        0.000000e+00 ( 0.000000e+00 +/- 0.000000e+00) [K]
Framework-molecule
    Van der Waals/kʙ        0.000000e+00 ( 0.000000e+00 +/- 0.000000e+00) [K]
    Van der Waals (Tail)/kʙ 0.000000e+00 ( 0.000000e+00 +/- 0.000000e+00) [K]
    Coulombic Real/kʙ       0.000000e+00 ( 0.000000e+00 +/- 0.000000e+00) [K]
    Coulombic Fourier/kʙ    0.000000e+00 ( 0.000000e+00 +/- 0.000000e+00) [K]
Molecule-molecule
    Van der Waals/kʙ       -2.118483e+05 (-2.190041e+05 +/- 4.752958e+03) [K]
    Van der Waals (Tail)/kʙ-9.113470e+03 (-9.355787e+03 +/- 1.925008e+02) [K]
    Coulombic Real/kʙ      -5.936769e+04 (-6.371033e+04 +/- 1.567617e+03) [K]
    Coulombic Fourier/kʙ   -1.563303e+04 (-1.566833e+04 +/- 2.737348e+02) [K]
    Molecule Intra/kʙ       0.000000e+00 ( 0.000000e+00 +/- 0.000000e+00) [K]


Energy statistics             |  Energy [K]   | Recomputed [K]|  Drift [K]    |
===============================================================================
Total potential energy/kʙ     | -3.063926e+05 | -3.063926e+05 | -4.616137e-10 |
    external field VDW/kʙ     |  0.000000e+00 |  0.000000e+00 |  0.000000e+00 |
    external field Real/kʙ    |  0.000000e+00 |  0.000000e+00 |  0.000000e+00 |
    framework-molecule VDW/kʙ |  0.000000e+00 |  0.000000e+00 |  0.000000e+00 |
    framework-molecule Real/kʙ|  0.000000e+00 |  0.000000e+00 |  0.000000e+00 |
    molecule-molecule VDW/kʙ  | -2.178247e+05 | -2.178247e+05 |  7.000777e-11 |
    molecule-molecule Real/kʙ | -6.363082e+04 | -6.363082e+04 | -5.775641e-10 |
    Van der Waals (Tail)/kʙ   | -9.374743e+03 | -9.374743e+03 |  0.000000e+00 |
    Ewald Fourier/kʙ          |  1.349937e+04 |  1.349937e+04 |  4.594260e-11 |
    Ewald self/kʙ             | -4.445846e+06 | -4.445846e+06 |  0.000000e+00 |
    Ewald exclusion/kʙ        |  4.416785e+06 |  4.416785e+06 |  0.000000e+00 |
    intra VDW/kʙ              |  0.000000e+00 |  0.000000e+00 |  0.000000e+00 |
    intra Coulombic/kʙ        |  0.000000e+00 |  0.000000e+00 |  0.000000e+00 |
    polarization/kʙ           |  0.000000e+00 |  0.000000e+00 |  0.000000e+00 |
    dU/dlambda VDW/kʙ         |  0.000000e+00 |  0.000000e+00 |  0.000000e+00 |
    dU/dlambda Real/kʙ        |  0.000000e+00 |  0.000000e+00 |  0.000000e+00 |
    dU/dlambda Ewald/kʙ       |  0.000000e+00 |  0.000000e+00 |  0.000000e+00 |
-------------------------------------------------------------------------------


Monte-Carlo moves statistics
===============================================================================

    Volume change        all:                6688
    Volume change        total:              6688
    Volume change        constructed:        6688
    Volume change        accepted:           2433
    Volume change        fraction:       0.363786
    Volume change        max-change:     0.040000

Component 0 [CO2]
    Reinsertion (CBMC)   all:              331119
    Reinsertion (CBMC)   total:            331119
    Reinsertion (CBMC)   constructed:      294122
    Reinsertion (CBMC)   accepted:           4786
    Reinsertion (CBMC)   fraction:       0.014454
    Reinsertion (CBMC)   max-change:     0.000000

    Translation          all:              331054
    Translation          total:            110122     110423     110509
    Translation          constructed:      110119     110365     110508
    Translation          accepted:          45552      39219      50613
    Translation          fraction:       0.413650   0.355171   0.457999
    Translation          max-change:     0.866097   1.040000   0.750000

    Rotation             all:              331139
    Rotation             total:            110790     110078     110271
    Rotation             constructed:      110790     110078     110271
    Rotation             accepted:          58893      51757      53752
    Rotation             fraction:       0.531573   0.470185   0.487454
    Rotation             max-change:     0.620690   0.758621   0.714286



Production run counting of the MC moves summed over systems and components
===============================================================================

Volume change                          6688 (0.6688 [%])
Reinsertion (CBMC)                   331119 (33.1119 [%])
Translation                          331054 (33.1054 [%])
Rotation                             331139 (33.1139 [%])

Production count MC-steps:          1000000 [-]
               All summed:          1000000 [-]
               difference:                0 [-]


Production run CPU timings of the MC moves
===============================================================================

Component 0 CO2

Rotation                             48.298128 [s]
    Ewald                            24.756258 [s]
    ExternalField-Molecule            0.014114 [s]
    Framework-Molecule                0.016830 [s]
    Molecule-Molecule                21.458459 [s]
    Overhead                          2.052467 [s]

Reinsertion (CBMC)                  169.140628 [s]
    Ewald                            22.079351 [s]
    NonEwald                        146.718451 [s]
    Overhead                          0.342826 [s]

Translation                          48.091657 [s]
    Ewald                            24.740690 [s]
    ExternalField-Molecule            0.012950 [s]
    Framework-Molecule                0.019221 [s]
    Molecule-Molecule                21.595425 [s]
    Overhead                          1.723371 [s]



Volume change                         40.934356 [s]
    Ewald                             17.912758 [s]
    NonEwald                          21.551181 [s]
    Tail                               1.243350 [s]

Property sampling                     0.283687 [s]
Energy/pressure sampling:             7.063097 [s]


Production run CPU timings of the MC moves summed over systems and components
===============================================================================


Translation                          48.091657 [s]
    Ewald                            24.740690 [s]
    ExternalField-Molecule            0.012950 [s]
    Framework-Molecule                0.019221 [s]
    Molecule-Molecule                21.595425 [s]
    Overhead                          1.723371 [s]

Rotation                             48.298128 [s]
    Ewald                            24.756258 [s]
    ExternalField-Molecule            0.014114 [s]
    Framework-Molecule                0.016830 [s]
    Molecule-Molecule                21.458459 [s]
    Overhead                          2.052467 [s]

Volume change                        40.934356 [s]
    Ewald                            17.912758 [s]
    NonEwald                         21.551181 [s]
    Tail                              1.243350 [s]
    Overhead                          0.227067 [s]

Reinsertion (CBMC)                  169.140628 [s]
    Ewald                            22.079351 [s]
    NonEwald                        146.718451 [s]
    Overhead                          0.342826 [s]

Property sampling:                    0.283687 [s]
Energy/pressure sampling:             7.063097 [s]

Production simulation time:         314.620882 [s]
                All summed:         313.811553 [s]
                  Overhead:           0.809329 [s]


Initalization simulation time:       60.902960 [s]
Equilibration simulation time:        0.000000 [s]
Production simulation time:         314.620882 [s]
Total simulation time:              375.523842 [s]


Energy averages and statistics:
===============================================================================

Framework-molecule energy:
-------------------------------------------------------------------------------



Framework-molecule energy contributions per energy type:
-------------------------------------------------------------------------------



Inter-molecular energy:
-------------------------------------------------------------------------------

    Inter-molecular energy/kʙ 0-0 [CO2-CO2]:
    ---------------------------------------------------------------------------
        Block[  0] -2.994095e+05
        Block[  1] -3.113952e+05
        Block[  2] -3.130336e+05
        Block[  3] -3.087322e+05
        Block[  4] -3.058450e+05
        -----------------------------------------------------------------------
        Average  -3.076831e+05 +/-  6.666454e+03 [K]



Inter-molecular energy contributions per energy type:
-------------------------------------------------------------------------------

    Van der Waals energy/kʙ 0-0 [CO2-CO2]:
    ---------------------------------------------------------------------------
        Block[  0] -2.128687e+05
        Block[  1] -2.213066e+05
        Block[  2] -2.228826e+05
        Block[  3] -2.195178e+05
        Block[  4] -2.183121e+05
        -----------------------------------------------------------------------
        Average  -2.189776e+05 +/-  4.756902e+03 [K]

    VDW Tail-Correction energy/kʙ 0-0 [CO2-CO2]:
    ---------------------------------------------------------------------------
        Block[  0] -9.112927e+03
        Block[  1] -9.431503e+03
        Block[  2] -9.528894e+03
        Block[  3] -9.378369e+03
        Block[  4] -9.324588e+03
        -----------------------------------------------------------------------
        Average  -9.355256e+03 +/-  1.924888e+02 [K]

    Coulomb Real energy/kʙ 0-0 [CO2-CO2]:
    ---------------------------------------------------------------------------
        Block[  0] -6.207142e+04
        Block[  1] -6.489451e+04
        Block[  2] -6.466286e+04
        Block[  3] -6.418949e+04
        Block[  4] -6.256608e+04
        -----------------------------------------------------------------------
        Average  -6.367687e+04 +/-  1.586082e+03 [K]

    Coulomb Fourier energy/kʙ 0-0 [CO2-CO2]:
    ---------------------------------------------------------------------------
        Block[  0] -1.535644e+04
        Block[  1] -1.576266e+04
        Block[  2] -1.595922e+04
        Block[  3] -1.564649e+04
        Block[  4] -1.564226e+04
        -----------------------------------------------------------------------
        Average  -1.567341e+04 +/-  2.718607e+02 [K]


Total energy/kʙ
-------------------------------------------------------------------------------
    Block[  0] -2.994095e+05
    Block[  1] -3.113952e+05
    Block[  2] -3.130336e+05
    Block[  3] -3.087322e+05
    Block[  4] -3.058450e+05
    ---------------------------------------------------------------------------
    Average  -3.076831e+05 +/-  6.666454e+03 [K]

Pressure averages and statistics:
===============================================================================

Average pressure tensor: 
-------------------------------------------------------------------------------
 1.0752e+02  2.8900e+00 -2.9830e+01 +/- 4.4685e+01 2.9228e+01 6.5075e+01 [bar]
 2.8900e+00  6.4185e+01  1.0659e+01 +/- 2.9228e+01 3.5756e+01 5.1927e+01 [bar]
-2.9830e+01  1.0659e+01  8.5247e+01 +/- 6.5075e+01 5.1927e+01 4.3460e+01 [bar]

    Block[  0]  4.901867e+07
    Block[  1]  5.070977e+07
    Block[  2]  5.118318e+07
    Block[  3]  5.044792e+07
    Block[  4]  5.016986e+07
    ---------------------------------------------------------------------------
    Ideal gas pressure   5.030588e+07 +/-  6.060356e-02 [Pa]
                         5.030588e+02 +/-  1.006346e+01 [bar]


    Block[  0] -4.194191e+07
    Block[  1] -4.193605e+07
    Block[  2] -4.004588e+07
    Block[  3] -4.091985e+07
    Block[  4] -4.385960e+07
    ---------------------------------------------------------------------------
    Excess pressure  -4.174066e+07 +/-  1.768224e+06 [Pa]
                     -4.174066e+02 +/-  1.768224e+01 [bar]


    Block[  0]  7.076760e+06
    Block[  1]  8.773722e+06
    Block[  2]  1.113730e+07
    Block[  3]  9.528077e+06
    Block[  4]  6.310268e+06
    ---------------------------------------------------------------------------
    Pressure average   8.565225e+06 +/-  2.394971e+06 [Pa]
                       8.565225e+01 +/-  2.394971e+01 [bar]


Enthalpy of adsorption
===============================================================================

No fluctuating components present.


Densities
===============================================================================

Component 0 (CO2)
    Block[  0] 200
    Block[  1] 200
    Block[  2] 200
    Block[  3] 200
    Block[  4] 200
    -----------------------------------------------------------------------
    Density average   2.000000e+02 +/-  0.000000e+00 [molecules]
    Density average   1.457455e-02 +/-  2.915572e-04 [molec/A^3]
    Density average   1.064841e+03 +/-  2.130167e+01 [kg.m⁻³]

