Compiler and run-time data
===============================================================================
RASPA 3.0.4

Random seed: 3490375041

Compiled as a 64-bits application
Compiler: gcc Ubuntu Clang 18.1.3 (1ubuntu1)
Compile Date = Mar 15 2025, Compile Time = 19:39:45

2025-06-03 09:35:50.149436
Simulation started on Tue, Jun 03
The start time was 09:35:00

Hostname:    c062
OS type:     Linux on x86_64
OS release:  6.8.0-58-generic
OS version:  #60-Ubuntu SMP PREEMPT_DYNAMIC Fri Mar 14 18:29:48 UTC 2025


Mutual consistent basic set of units:
===============================================================================

Unit of temperature: 1 [K]
Unit of length:      1e-10 [m]
Unit of time:        1e-12 [s]
Unit of mass:        1.6605402e-27 [kg]
Unit of charge:      1.60217733e-19 [C/particle]


Boltzmann constant (internal units):          0.8314464919307584 [-]
represents conversion from energy (internal units) to temperature (in Kelvin)

Derived units and their conversion factors:
===============================================================================

Unit of energy:                           1.6605402000000002e-23 [J]
Unit of energy:                           10.000008872307538 [J.mol⁻¹]
Unit of velocity:                         100 [m.s⁻¹]
Unit of force:                            1.6605402000000002e-13 [N]
Unit of diffusion:                        1.0000000000000002e-08 [m².s⁻¹]
Unit of acceleration:                     1.0000000000000002e-08 [m².s⁻¹]
Unit of torque:                           1.6605402000000002e-23 [N.m]
Unit of pressure:                         16605402 [Pa]
Unit of volume:                           1e-30 [m³]
Unit of density:                          1660.5402 [kg.m⁻³]
Unit of dynamic viscosity:                1.6605401999999997e-05 [N.s.m⁻²]
Unit of enthalpy:                         1.6605402000000002e-23 [J]
Unit of polarizability:                   1.5458657349975198e-35 [-]
Unit of Coulomb potential:                167101.08000665612 [K]
Unit of dielectric constant:              1.5458657349975193e-05 [s².C².kg⁻¹.m⁻³]
Unit of dipole moment:                    1.60217733e-29 [C.m]
Unit of Debye:                            4.803206799099162 [C.m]
Unit of electric potential:               0.00010364272224473431 [V]
Unit of electric field:                   1036427.222447343 [V.m⁻¹]
Unit of isothermal compressibility:       6.02213665167516e-08 [Pa⁻¹]
Unit of heat capacity:                    10.000008872307538 [J.mol⁻¹.K⁻¹]
Unit of volumetric expansion coefficient: 1 [K⁻¹]


Internal conversion factors:
===============================================================================

Energy (internal units) to Kelvin:      1.202724284692786 [-]
Kelvin to energy (internal units):      0.8314457542157567 [-]


System definitions
===============================================================================

Temperature:          250 [K]
Beta:                 0.0048108928702210625 [-]
Pressure:             2e+07 [Pa]
Helium void fraction: 1 [-]

Box:      30.00000   0.00000   0.00000
           0.00000  30.00000   0.00000
           0.00000   0.00000  30.00000
Lengths:  30.00000  30.00000  30.00000
Angles:   90.00000  90.00000  90.00000
Rectangular boundary conditions



Property measurement settings
===============================================================================




Pseudo-atoms
===============================================================================

  0 - C_co2    framework-atom: false
  1 - O_co2    framework-atom: false

  0 - C_co2    mass: 12.00000, charge:  0.70000
  1 - O_co2    mass: 15.99940, charge: -0.35000

  0 - C_co2    polarizability:  0.00000
  1 - O_co2    polarizability:  0.00000

  0 - J. J. Potoff et al., AIChE J. 2001, 47, 1676–1682.
  1 - J. J. Potoff et al., AIChE J. 2001, 47, 1676–1682.

Force field status
===============================================================================

Cutoff Framework-Molecule VDW:  10.00000 [Å]
Cutoff Molecule-Molecule VDW:   10.00000 [Å]
Cutoff Coulomb:                 10.00000 [Å]

Overlap-criteria VDW:           1.000000e+05 [K]

C_co2    - C_co2    Lennard-Jones p₀/kʙ:  27.00000 [K], p₁:  2.80000 [Å]
                                  shift:   0.00000 [K], tailcorrections: true
C_co2    - O_co2    Lennard-Jones p₀/kʙ:  46.18441 [K], p₁:  2.92500 [Å]
                                  shift:   0.00000 [K], tailcorrections: true
O_co2    - O_co2    Lennard-Jones p₀/kʙ:  79.00000 [K], p₁:  3.05000 [Å]
                                  shift:   0.00000 [K], tailcorrections: true

Ewald precision: 1e-06
Ewald alpha: 0.32079885109097883
Ewald k-vectors: 10 10 10


Component definitions
===============================================================================

Component 0 [CO2]

    Type: Adsorbate

    Critical temperature:  304.1282 [K]
    Critical pressure:     7377300 [Pa]
    Acentric factor:       0.22394 [-]

    Mol-fraction:                 1 [-]
    Swappable:                   false

    Mass:                         43.9988 [-]
    Bulk fluid density:           0 [-]
    Compressibility:              0 [-]
    Excess molecules:             0 [-]

    Number Of Atoms:    3
    CBMC starting bead: 0
      0: O_co2  position  0.00000 -0.00000  1.16000, charge -0.35000
      1: C_co2  position  0.00000 -0.00000  0.00000, charge  0.70000
      2: O_co2  position  0.00000 -0.00000 -1.16000, charge -0.35000
    Diagonalized inertia-vector:      43.05758528 43.05758528 0.00000000
    Translational degrees of freedom: 3
    Rotational degrees of freedom:    2
    Shape of the molecule is: 'Linear'
    Net-charge:        0.00000000 [e]

    Move probabilities:
    Translation:                   0.331126 [-]
    Random translation:            0.000000 [-]
    Rotation:                      0.331126 [-]
    Random rotation:               0.000000 [-]
    Volume change:                 0.006623 [-]
    Reinsertion (CBMC):            0.331126 [-]
    Identity change (CBMC):        0.000000 [-]
    Swap:                          0.000000 [-]
    Swap (CBMC):                   0.000000 [-]
    Swap (CFCMC):                  0.000000 [-]
    Swap (CB/CFCMC):               0.000000 [-]
    Gibbs volume:                  0.000000 [-]
    Gibbs swap (CBMC):             0.000000 [-]
    Gibbs swap (CFCMC):            0.000000 [-]
    Widom:                         0.000000 [-]
    Widom (CFCMC):                 0.000000 [-]
    Widom (CB/CFCMC):              0.000000 [-]
    Parallel tempering:            0.000000 [-]
    Hybrid MC:                     0.000000 [-]

    number of blocking-pockets: 0

    number of bonds: 0





Number of pseudo-atoms
===============================================================================

Component   0 (CO2)
-------------------------------------------------------------------------------
    index   0 (C_co2): 150 atoms
    index   1 (O_co2): 300 atoms

Total number of pseudo-atoms:
-------------------------------------------------------------------------------
    index   0 (C_co2): 150 atoms
    index   1 (O_co2): 300 atoms




Energy status Recomputed from scratch
===============================================================================

Total potential energy/kʙ       -4.667017e+04 [K]
    external field VDW/kʙ        0.000000e+00 [K]
    external field Real/kʙ       0.000000e+00 [K]
    framework-molecule VDW/kʙ    0.000000e+00 [K]
    framework-molecule Real/kʙ   0.000000e+00 [K]
    molecule-molecule VDW/kʙ    -3.201442e+04 [K]
    molecule-molecule Real/kʙ   -1.032970e+04 [K]
    Van der Waals (Tail)/kʙ     -2.673791e+03 [K]
    Ewald Fourier/kʙ             2.014403e+04 [K]
    Ewald self/kʙ               -3.334385e+06 [K]
    Ewald exclusion/kʙ           3.312589e+06 [K]
    intra VDW/kʙ                 0.000000e+00 [K]
    intra Coulombic/kʙ           0.000000e+00 [K]
    polarization/kʙ              0.000000e+00 [K]
    dU/dlambda VDW/kʙ            0.000000e+00 [K]
    dU/dlambda Real/kʙ           0.000000e+00 [K]
    dU/dlambda Ewald/kʙ          0.000000e+00 [K]





Initialization: Current cycle: 0 out of 1000
===============================================================================

Box:      30.00000   0.00000   0.00000
           0.00000  30.00000   0.00000
           0.00000   0.00000  30.00000
Lengths:  30.00000  30.00000  30.00000
Angles:   90.00000  90.00000  90.00000
Rectangular boundary conditions

net charge:   0.00000000

component   0 (CO2) lambda:  0 occupancy:  1 (1.000000)
    net charge:   0.00000000 [e]

Amount of molecules per component :
-------------------------------------------------------------------------------
Component 0 (CO2)
    molecules:         1.500000e+02 molecules
    number density:    5.555556e-03 molec/A^3
    density:           4.058984e+02 kg/m^3

Total potential energy/kʙ       -7.915970e+04 [K]
-------------------------------------------------------------------------------
    external field VDW/kʙ        0.000000e+00 [K]
    external field Real/kʙ       0.000000e+00 [K]
    framework-molecule VDW/kʙ    0.000000e+00 [K]
    framework-molecule Real/kʙ   0.000000e+00 [K]
    molecule-molecule VDW/kʙ    -6.219106e+04 [K]
    molecule-molecule Real/kʙ   -1.173536e+04 [K]
    Van der Waals (Tail)/kʙ     -2.673791e+03 [K]
    Ewald Fourier/kʙ             1.923679e+04 [K]
    Ewald self/kʙ               -3.334385e+06 [K]
    Ewald exclusion/kʙ           3.312589e+06 [K]
    intra VDW/kʙ                 0.000000e+00 [K]
    intra Coulombic/kʙ           0.000000e+00 [K]
    polarization/kʙ              0.000000e+00 [K]
    dU/dlambda VDW/kʙ            0.000000e+00 [K]
    dU/dlambda Real/kʙ           0.000000e+00 [K]
    dU/dlambda Ewald/kʙ          0.000000e+00 [K]


Initialization: Current cycle: 100 out of 1000
===============================================================================

Box:      25.74203   0.00000   0.00000
           0.00000  25.74203   0.00000
           0.00000   0.00000  25.74203
Lengths:  25.74203  25.74203  25.74203
Angles:   90.00000  90.00000  90.00000
Rectangular boundary conditions

net charge:   0.00000000

component   0 (CO2) lambda:  0 occupancy:  1 (1.000000)
    net charge:   0.00000000 [e]

Amount of molecules per component :
-------------------------------------------------------------------------------
Component 0 (CO2)
    molecules:         1.500000e+02 molecules
    number density:    8.793521e-03 molec/A^3
    density:           6.424697e+02 kg/m^3

Total potential energy/kʙ       -1.479108e+05 [K]
-------------------------------------------------------------------------------
    external field VDW/kʙ        0.000000e+00 [K]
    external field Real/kʙ       0.000000e+00 [K]
    framework-molecule VDW/kʙ    0.000000e+00 [K]
    framework-molecule Real/kʙ   0.000000e+00 [K]
    molecule-molecule VDW/kʙ    -1.076062e+05 [K]
    molecule-molecule Real/kʙ   -2.718045e+04 [K]
    Van der Waals (Tail)/kʙ     -4.232166e+03 [K]
    Ewald Fourier/kʙ             1.290421e+04 [K]
    Ewald self/kʙ               -3.334385e+06 [K]
    Ewald exclusion/kʙ           3.312589e+06 [K]
    intra VDW/kʙ                 0.000000e+00 [K]
    intra Coulombic/kʙ           0.000000e+00 [K]
    polarization/kʙ              0.000000e+00 [K]
    dU/dlambda VDW/kʙ            0.000000e+00 [K]
    dU/dlambda Real/kʙ           0.000000e+00 [K]
    dU/dlambda Ewald/kʙ          0.000000e+00 [K]


Initialization: Current cycle: 200 out of 1000
===============================================================================

Box:      24.30429   0.00000   0.00000
           0.00000  24.30429   0.00000
           0.00000   0.00000  24.30429
Lengths:  24.30429  24.30429  24.30429
Angles:   90.00000  90.00000  90.00000
Rectangular boundary conditions

net charge:   0.00000000

component   0 (CO2) lambda:  0 occupancy:  1 (1.000000)
    net charge:   0.00000000 [e]

Amount of molecules per component :
-------------------------------------------------------------------------------
Component 0 (CO2)
    molecules:         1.500000e+02 molecules
    number density:    1.044823e-02 molec/A^3
    density:           7.633654e+02 kg/m^3

Total potential energy/kʙ       -1.702043e+05 [K]
-------------------------------------------------------------------------------
    external field VDW/kʙ        0.000000e+00 [K]
    external field Real/kʙ       0.000000e+00 [K]
    framework-molecule VDW/kʙ    0.000000e+00 [K]
    framework-molecule Real/kʙ   0.000000e+00 [K]
    molecule-molecule VDW/kʙ    -1.224936e+05 [K]
    molecule-molecule Real/kʙ   -3.457550e+04 [K]
    Van der Waals (Tail)/kʙ     -5.028548e+03 [K]
    Ewald Fourier/kʙ             1.368959e+04 [K]
    Ewald self/kʙ               -3.334385e+06 [K]
    Ewald exclusion/kʙ           3.312589e+06 [K]
    intra VDW/kʙ                 0.000000e+00 [K]
    intra Coulombic/kʙ           0.000000e+00 [K]
    polarization/kʙ              0.000000e+00 [K]
    dU/dlambda VDW/kʙ            0.000000e+00 [K]
    dU/dlambda Real/kʙ           0.000000e+00 [K]
    dU/dlambda Ewald/kʙ          0.000000e+00 [K]


Initialization: Current cycle: 300 out of 1000
===============================================================================

Box:      22.35343   0.00000   0.00000
           0.00000  22.35343   0.00000
           0.00000   0.00000  22.35343
Lengths:  22.35343  22.35343  22.35343
Angles:   90.00000  90.00000  90.00000
Rectangular boundary conditions

net charge:   0.00000000

component   0 (CO2) lambda:  0 occupancy:  1 (1.000000)
    net charge:   0.00000000 [e]

Amount of molecules per component :
-------------------------------------------------------------------------------
Component 0 (CO2)
    molecules:         1.500000e+02 molecules
    number density:    1.342947e-02 molec/A^3
    density:           9.811801e+02 kg/m^3

Total potential energy/kʙ       -2.156609e+05 [K]
-------------------------------------------------------------------------------
    external field VDW/kʙ        0.000000e+00 [K]
    external field Real/kʙ       0.000000e+00 [K]
    framework-molecule VDW/kʙ    0.000000e+00 [K]
    framework-molecule Real/kʙ   0.000000e+00 [K]
    molecule-molecule VDW/kʙ    -1.465585e+05 [K]
    molecule-molecule Real/kʙ   -5.085030e+04 [K]
    Van der Waals (Tail)/kʙ     -6.463367e+03 [K]
    Ewald Fourier/kʙ             1.000757e+04 [K]
    Ewald self/kʙ               -3.334385e+06 [K]
    Ewald exclusion/kʙ           3.312589e+06 [K]
    intra VDW/kʙ                 0.000000e+00 [K]
    intra Coulombic/kʙ           0.000000e+00 [K]
    polarization/kʙ              0.000000e+00 [K]
    dU/dlambda VDW/kʙ            0.000000e+00 [K]
    dU/dlambda Real/kʙ           0.000000e+00 [K]
    dU/dlambda Ewald/kʙ          0.000000e+00 [K]


Initialization: Current cycle: 400 out of 1000
===============================================================================

Box:      21.93132   0.00000   0.00000
           0.00000  21.93132   0.00000
           0.00000   0.00000  21.93132
Lengths:  21.93132  21.93132  21.93132
Angles:   90.00000  90.00000  90.00000
Rectangular boundary conditions

net charge:   0.00000000

component   0 (CO2) lambda:  0 occupancy:  1 (1.000000)
    net charge:   0.00000000 [e]

Amount of molecules per component :
-------------------------------------------------------------------------------
Component 0 (CO2)
    molecules:         1.500000e+02 molecules
    number density:    1.421992e-02 molec/A^3
    density:           1.038932e+03 kg/m^3

Total potential energy/kʙ       -2.170160e+05 [K]
-------------------------------------------------------------------------------
    external field VDW/kʙ        0.000000e+00 [K]
    external field Real/kʙ       0.000000e+00 [K]
    framework-molecule VDW/kʙ    0.000000e+00 [K]
    framework-molecule Real/kʙ   0.000000e+00 [K]
    molecule-molecule VDW/kʙ    -1.547950e+05 [K]
    molecule-molecule Real/kʙ   -4.430208e+04 [K]
    Van der Waals (Tail)/kʙ     -6.843797e+03 [K]
    Ewald Fourier/kʙ             1.072121e+04 [K]
    Ewald self/kʙ               -3.334385e+06 [K]
    Ewald exclusion/kʙ           3.312589e+06 [K]
    intra VDW/kʙ                 0.000000e+00 [K]
    intra Coulombic/kʙ           0.000000e+00 [K]
    polarization/kʙ              0.000000e+00 [K]
    dU/dlambda VDW/kʙ            0.000000e+00 [K]
    dU/dlambda Real/kʙ           0.000000e+00 [K]
    dU/dlambda Ewald/kʙ          0.000000e+00 [K]


Initialization: Current cycle: 500 out of 1000
===============================================================================

Box:      21.79856   0.00000   0.00000
           0.00000  21.79856   0.00000
           0.00000   0.00000  21.79856
Lengths:  21.79856  21.79856  21.79856
Angles:   90.00000  90.00000  90.00000
Rectangular boundary conditions

net charge:   0.00000000

component   0 (CO2) lambda:  0 occupancy:  1 (1.000000)
    net charge:   0.00000000 [e]

Amount of molecules per component :
-------------------------------------------------------------------------------
Component 0 (CO2)
    molecules:         1.500000e+02 molecules
    number density:    1.448130e-02 molec/A^3
    density:           1.058029e+03 kg/m^3

Total potential energy/kʙ       -2.274626e+05 [K]
-------------------------------------------------------------------------------
    external field VDW/kʙ        0.000000e+00 [K]
    external field Real/kʙ       0.000000e+00 [K]
    framework-molecule VDW/kʙ    0.000000e+00 [K]
    framework-molecule Real/kʙ   0.000000e+00 [K]
    molecule-molecule VDW/kʙ    -1.610423e+05 [K]
    molecule-molecule Real/kʙ   -4.746629e+04 [K]
    Van der Waals (Tail)/kʙ     -6.969594e+03 [K]
    Ewald Fourier/kʙ             9.811895e+03 [K]
    Ewald self/kʙ               -3.334385e+06 [K]
    Ewald exclusion/kʙ           3.312589e+06 [K]
    intra VDW/kʙ                 0.000000e+00 [K]
    intra Coulombic/kʙ           0.000000e+00 [K]
    polarization/kʙ              0.000000e+00 [K]
    dU/dlambda VDW/kʙ            0.000000e+00 [K]
    dU/dlambda Real/kʙ           0.000000e+00 [K]
    dU/dlambda Ewald/kʙ          0.000000e+00 [K]


Initialization: Current cycle: 600 out of 1000
===============================================================================

Box:      21.58788   0.00000   0.00000
           0.00000  21.58788   0.00000
           0.00000   0.00000  21.58788
Lengths:  21.58788  21.58788  21.58788
Angles:   90.00000  90.00000  90.00000
Rectangular boundary conditions

net charge:   0.00000000

component   0 (CO2) lambda:  0 occupancy:  1 (1.000000)
    net charge:   0.00000000 [e]

Amount of molecules per component :
-------------------------------------------------------------------------------
Component 0 (CO2)
    molecules:         1.500000e+02 molecules
    number density:    1.490943e-02 molec/A^3
    density:           1.089309e+03 kg/m^3

Total potential energy/kʙ       -2.311401e+05 [K]
-------------------------------------------------------------------------------
    external field VDW/kʙ        0.000000e+00 [K]
    external field Real/kʙ       0.000000e+00 [K]
    framework-molecule VDW/kʙ    0.000000e+00 [K]
    framework-molecule Real/kʙ   0.000000e+00 [K]
    molecule-molecule VDW/kʙ    -1.632821e+05 [K]
    molecule-molecule Real/kʙ   -4.922309e+04 [K]
    Van der Waals (Tail)/kʙ     -7.175647e+03 [K]
    Ewald Fourier/kʙ             1.033701e+04 [K]
    Ewald self/kʙ               -3.334385e+06 [K]
    Ewald exclusion/kʙ           3.312589e+06 [K]
    intra VDW/kʙ                 0.000000e+00 [K]
    intra Coulombic/kʙ           0.000000e+00 [K]
    polarization/kʙ              0.000000e+00 [K]
    dU/dlambda VDW/kʙ            0.000000e+00 [K]
    dU/dlambda Real/kʙ           0.000000e+00 [K]
    dU/dlambda Ewald/kʙ          0.000000e+00 [K]


Initialization: Current cycle: 700 out of 1000
===============================================================================

Box:      21.61034   0.00000   0.00000
           0.00000  21.61034   0.00000
           0.00000   0.00000  21.61034
Lengths:  21.61034  21.61034  21.61034
Angles:   90.00000  90.00000  90.00000
Rectangular boundary conditions

net charge:   0.00000000

component   0 (CO2) lambda:  0 occupancy:  1 (1.000000)
    net charge:   0.00000000 [e]

Amount of molecules per component :
-------------------------------------------------------------------------------
Component 0 (CO2)
    molecules:         1.500000e+02 molecules
    number density:    1.486301e-02 molec/A^3
    density:           1.085917e+03 kg/m^3

Total potential energy/kʙ       -2.309997e+05 [K]
-------------------------------------------------------------------------------
    external field VDW/kʙ        0.000000e+00 [K]
    external field Real/kʙ       0.000000e+00 [K]
    framework-molecule VDW/kʙ    0.000000e+00 [K]
    framework-molecule Real/kʙ   0.000000e+00 [K]
    molecule-molecule VDW/kʙ    -1.668296e+05 [K]
    molecule-molecule Real/kʙ   -4.571046e+04 [K]
    Van der Waals (Tail)/kʙ     -7.153304e+03 [K]
    Ewald Fourier/kʙ             1.048998e+04 [K]
    Ewald self/kʙ               -3.334385e+06 [K]
    Ewald exclusion/kʙ           3.312589e+06 [K]
    intra VDW/kʙ                 0.000000e+00 [K]
    intra Coulombic/kʙ           0.000000e+00 [K]
    polarization/kʙ              0.000000e+00 [K]
    dU/dlambda VDW/kʙ            0.000000e+00 [K]
    dU/dlambda Real/kʙ           0.000000e+00 [K]
    dU/dlambda Ewald/kʙ          0.000000e+00 [K]


Initialization: Current cycle: 800 out of 1000
===============================================================================

Box:      21.33823   0.00000   0.00000
           0.00000  21.33823   0.00000
           0.00000   0.00000  21.33823
Lengths:  21.33823  21.33823  21.33823
Angles:   90.00000  90.00000  90.00000
Rectangular boundary conditions

net charge:   0.00000000

component   0 (CO2) lambda:  0 occupancy:  1 (1.000000)
    net charge:   0.00000000 [e]

Amount of molecules per component :
-------------------------------------------------------------------------------
Component 0 (CO2)
    molecules:         1.500000e+02 molecules
    number density:    1.543890e-02 molec/A^3
    density:           1.127992e+03 kg/m^3

Total potential energy/kʙ       -2.398346e+05 [K]
-------------------------------------------------------------------------------
    external field VDW/kʙ        0.000000e+00 [K]
    external field Real/kʙ       0.000000e+00 [K]
    framework-molecule VDW/kʙ    0.000000e+00 [K]
    framework-molecule Real/kʙ   0.000000e+00 [K]
    molecule-molecule VDW/kʙ    -1.697709e+05 [K]
    molecule-molecule Real/kʙ   -5.061787e+04 [K]
    Van der Waals (Tail)/kʙ     -7.430470e+03 [K]
    Ewald Fourier/kʙ             9.780873e+03 [K]
    Ewald self/kʙ               -3.334385e+06 [K]
    Ewald exclusion/kʙ           3.312589e+06 [K]
    intra VDW/kʙ                 0.000000e+00 [K]
    intra Coulombic/kʙ           0.000000e+00 [K]
    polarization/kʙ              0.000000e+00 [K]
    dU/dlambda VDW/kʙ            0.000000e+00 [K]
    dU/dlambda Real/kʙ           0.000000e+00 [K]
    dU/dlambda Ewald/kʙ          0.000000e+00 [K]


Initialization: Current cycle: 900 out of 1000
===============================================================================

Box:      21.53769   0.00000   0.00000
           0.00000  21.53769   0.00000
           0.00000   0.00000  21.53769
Lengths:  21.53769  21.53769  21.53769
Angles:   90.00000  90.00000  90.00000
Rectangular boundary conditions

net charge:   0.00000000

component   0 (CO2) lambda:  0 occupancy:  1 (1.000000)
    net charge:   0.00000000 [e]

Amount of molecules per component :
-------------------------------------------------------------------------------
Component 0 (CO2)
    molecules:         1.500000e+02 molecules
    number density:    1.501392e-02 molec/A^3
    density:           1.096943e+03 kg/m^3

Total potential energy/kʙ       -2.355821e+05 [K]
-------------------------------------------------------------------------------
    external field VDW/kʙ        0.000000e+00 [K]
    external field Real/kʙ       0.000000e+00 [K]
    framework-molecule VDW/kʙ    0.000000e+00 [K]
    framework-molecule Real/kʙ   0.000000e+00 [K]
    molecule-molecule VDW/kʙ    -1.686040e+05 [K]
    molecule-molecule Real/kʙ   -4.880984e+04 [K]
    Van der Waals (Tail)/kʙ     -7.225936e+03 [K]
    Ewald Fourier/kʙ             1.085394e+04 [K]
    Ewald self/kʙ               -3.334385e+06 [K]
    Ewald exclusion/kʙ           3.312589e+06 [K]
    intra VDW/kʙ                 0.000000e+00 [K]
    intra Coulombic/kʙ           0.000000e+00 [K]
    polarization/kʙ              0.000000e+00 [K]
    dU/dlambda VDW/kʙ            0.000000e+00 [K]
    dU/dlambda Real/kʙ           0.000000e+00 [K]
    dU/dlambda Ewald/kʙ          0.000000e+00 [K]


Current cycle: 0 out of 5000
===============================================================================

Box:      21.75862   0.00000   0.00000  Average:  21.75862   0.00000   0.00000
           0.00000  21.75862   0.00000             0.00000  21.75862   0.00000
           0.00000   0.00000  21.75862             0.00000   0.00000  21.75862
Lengths:  21.75862  21.75862  21.75862  Average:  21.75862  21.75862  21.75862
Angles:   90.00000  90.00000  90.00000  Average:  90.00000  90.00000  90.00000
Rectangular boundary conditions

net charge:   0.00000000

component 0 (CO2) lambda:  0 occupancy:  1 (1.000000)
    net charge:   0.00000000 [e]

Amount of molecules per component :
-------------------------------------------------------------------------------
Component 0 (CO2)
    molecules:      1.500000e+02 molecules  (1.500000e+02 +/- 0.000000e+00)
    number density: 1.456121e-02 molec./A^3 (1.456121e-02 +/- 0.000000e+00)
    density:        1.063867e+03 kg/m^3     (1.063867e+03 +/- 0.000000e+00)

Average pressure tensor: 
-------------------------------------------------------------------------------
 5.0260e+02  0.0000e+00  0.0000e+00 +/- 0.0000e+00 0.0000e+00 0.0000e+00 [bar]
 0.0000e+00  5.0260e+02  0.0000e+00 +/- 0.0000e+00 0.0000e+00 0.0000e+00 [bar]
 0.0000e+00  0.0000e+00  5.0260e+02 +/- 0.0000e+00 0.0000e+00 0.0000e+00 [bar]
Ideal-gas pressure:   5.025985e+02 +/ 0.000000e+00 [bar]
Excess pressure:      0.000000e+00 +/ 0.000000e+00 [bar]
Pressure:             5.025985e+02 +/ 0.000000e+00 [bar]

Total potential energy/kʙ  -2.366654e+05 (-2.366654e+05 +/- 0.000000e+00) [K]
-------------------------------------------------------------------------------
ExternalField-molecule
    Van der Waals/kʙ        0.000000e+00 ( 0.000000e+00 +/- 0.000000e+00) [K]
Framework-molecule
    Van der Waals/kʙ        0.000000e+00 ( 0.000000e+00 +/- 0.000000e+00) [K]
    Van der Waals (Tail)/kʙ 0.000000e+00 ( 0.000000e+00 +/- 0.000000e+00) [K]
    Coulombic Real/kʙ       0.000000e+00 ( 0.000000e+00 +/- 0.000000e+00) [K]
    Coulombic Fourier/kʙ    0.000000e+00 ( 0.000000e+00 +/- 0.000000e+00) [K]
Molecule-molecule
    Van der Waals/kʙ       -1.657060e+05 (-1.657060e+05 +/- 0.000000e+00) [K]
    Van der Waals (Tail)/kʙ-7.008054e+03 (-7.008054e+03 +/- 0.000000e+00) [K]
    Coulombic Real/kʙ      -5.136275e+04 (-5.136275e+04 +/- 0.000000e+00) [K]
    Coulombic Fourier/kʙ   -1.258857e+04 (-1.258857e+04 +/- 0.000000e+00) [K]
    Molecule Intra/kʙ       0.000000e+00 ( 0.000000e+00 +/- 0.000000e+00) [K]

Current cycle: 100 out of 5000
===============================================================================

Box:      21.44412   0.00000   0.00000  Average:  21.54297   0.00000   0.00000
           0.00000  21.44412   0.00000             0.00000  21.54297   0.00000
           0.00000   0.00000  21.44412             0.00000   0.00000  21.54297
Lengths:  21.44412  21.44412  21.44412  Average:  21.54297  21.54297  21.54297
Angles:   90.00000  90.00000  90.00000  Average:  90.00000  90.00000  90.00000
Rectangular boundary conditions

net charge:   0.00000000

component 0 (CO2) lambda:  0 occupancy:  1 (1.000000)
    net charge:   0.00000000 [e]

Amount of molecules per component :
-------------------------------------------------------------------------------
Component 0 (CO2)
    molecules:      1.500000e+02 molecules  (1.500000e+02 +/- 0.000000e+00)
    number density: 1.521131e-02 molec./A^3 (1.500576e-02 +/- 0.000000e+00)
    density:        1.111364e+03 kg/m^3     (1.096347e+03 +/- 0.000000e+00)

Average pressure tensor: 
-------------------------------------------------------------------------------
-1.2798e+02  2.3022e+02 -6.9230e+01 +/- 0.0000e+00 0.0000e+00 0.0000e+00 [bar]
 2.3022e+02  1.5267e+02  1.7205e+02 +/- 0.0000e+00 0.0000e+00 0.0000e+00 [bar]
-6.9230e+01  1.7205e+02  6.6755e+01 +/- 0.0000e+00 0.0000e+00 0.0000e+00 [bar]
Ideal-gas pressure:   5.179427e+02 +/ 0.000000e+00 [bar]
Excess pressure:     -4.874634e+02 +/ 0.000000e+00 [bar]
Pressure:             3.047937e+01 +/ 0.000000e+00 [bar]

Total potential energy/kʙ  -2.404244e+05 (-2.385142e+05 +/- 0.000000e+00) [K]
-------------------------------------------------------------------------------
ExternalField-molecule
    Van der Waals/kʙ        0.000000e+00 ( 0.000000e+00 +/- 0.000000e+00) [K]
Framework-molecule
    Van der Waals/kʙ        0.000000e+00 ( 0.000000e+00 +/- 0.000000e+00) [K]
    Van der Waals (Tail)/kʙ 0.000000e+00 ( 0.000000e+00 +/- 0.000000e+00) [K]
    Coulombic Real/kʙ       0.000000e+00 ( 0.000000e+00 +/- 0.000000e+00) [K]
    Coulombic Fourier/kʙ    0.000000e+00 ( 0.000000e+00 +/- 0.000000e+00) [K]
Molecule-molecule
    Van der Waals/kʙ       -1.742512e+05 (-1.684698e+05 +/- 0.000000e+00) [K]
    Van der Waals (Tail)/kʙ-7.320936e+03 (-7.179530e+03 +/- 0.000000e+00) [K]
    Coulombic Real/kʙ      -4.778311e+04 (-5.104822e+04 +/- 0.000000e+00) [K]
    Coulombic Fourier/kʙ   -1.106915e+04 (-1.181673e+04 +/- 0.000000e+00) [K]
    Molecule Intra/kʙ       0.000000e+00 ( 0.000000e+00 +/- 0.000000e+00) [K]

Current cycle: 200 out of 5000
===============================================================================

Box:      21.23552   0.00000   0.00000  Average:  21.47727   0.00000   0.00000
           0.00000  21.23552   0.00000             0.00000  21.47727   0.00000
           0.00000   0.00000  21.23552             0.00000   0.00000  21.47727
Lengths:  21.23552  21.23552  21.23552  Average:  21.47727  21.47727  21.47727
Angles:   90.00000  90.00000  90.00000  Average:  90.00000  90.00000  90.00000
Rectangular boundary conditions

net charge:   0.00000000

component 0 (CO2) lambda:  0 occupancy:  1 (1.000000)
    net charge:   0.00000000 [e]

Amount of molecules per component :
-------------------------------------------------------------------------------
Component 0 (CO2)
    molecules:      1.500000e+02 molecules  (1.500000e+02 +/- 0.000000e+00)
    number density: 1.566400e-02 molec./A^3 (1.514382e-02 +/- 0.000000e+00)
    density:        1.144438e+03 kg/m^3     (1.106433e+03 +/- 0.000000e+00)

Average pressure tensor: 
-------------------------------------------------------------------------------
-5.2206e+01  2.8726e+02 -2.7351e+01 +/- 0.0000e+00 0.0000e+00 0.0000e+00 [bar]
 2.8726e+02  1.4962e+02  6.1541e+01 +/- 0.0000e+00 0.0000e+00 0.0000e+00 [bar]
-2.7351e+01  6.1541e+01  2.0621e+02 +/- 0.0000e+00 0.0000e+00 0.0000e+00 [bar]
Ideal-gas pressure:   5.227079e+02 +/ 0.000000e+00 [bar]
Excess pressure:     -4.215013e+02 +/ 0.000000e+00 [bar]
Pressure:             1.012067e+02 +/ 0.000000e+00 [bar]

Total potential energy/kʙ  -2.375878e+05 (-2.402275e+05 +/- 0.000000e+00) [K]
-------------------------------------------------------------------------------
ExternalField-molecule
    Van der Waals/kʙ        0.000000e+00 ( 0.000000e+00 +/- 0.000000e+00) [K]
Framework-molecule
    Van der Waals/kʙ        0.000000e+00 ( 0.000000e+00 +/- 0.000000e+00) [K]
    Van der Waals (Tail)/kʙ 0.000000e+00 ( 0.000000e+00 +/- 0.000000e+00) [K]
    Coulombic Real/kʙ       0.000000e+00 ( 0.000000e+00 +/- 0.000000e+00) [K]
    Coulombic Fourier/kʙ    0.000000e+00 ( 0.000000e+00 +/- 0.000000e+00) [K]
Molecule-molecule
    Van der Waals/kʙ       -1.666981e+05 (-1.704870e+05 +/- 0.000000e+00) [K]
    Van der Waals (Tail)/kʙ-7.538806e+03 (-7.268117e+03 +/- 0.000000e+00) [K]
    Coulombic Real/kʙ      -5.203609e+04 (-5.063373e+04 +/- 0.000000e+00) [K]
    Coulombic Fourier/kʙ   -1.131478e+04 (-1.183867e+04 +/- 0.000000e+00) [K]
    Molecule Intra/kʙ       0.000000e+00 ( 0.000000e+00 +/- 0.000000e+00) [K]

Current cycle: 300 out of 5000
===============================================================================

Box:      21.38097   0.00000   0.00000  Average:  21.46950   0.00000   0.00000
           0.00000  21.38097   0.00000             0.00000  21.46950   0.00000
           0.00000   0.00000  21.38097             0.00000   0.00000  21.46950
Lengths:  21.38097  21.38097  21.38097  Average:  21.46950  21.46950  21.46950
Angles:   90.00000  90.00000  90.00000  Average:  90.00000  90.00000  90.00000
Rectangular boundary conditions

net charge:   0.00000000

component 0 (CO2) lambda:  0 occupancy:  1 (1.000000)
    net charge:   0.00000000 [e]

Amount of molecules per component :
-------------------------------------------------------------------------------
Component 0 (CO2)
    molecules:      1.500000e+02 molecules  (1.500000e+02 +/- 0.000000e+00)
    number density: 1.534649e-02 molec./A^3 (1.515979e-02 +/- 0.000000e+00)
    density:        1.121241e+03 kg/m^3     (1.107601e+03 +/- 0.000000e+00)

Average pressure tensor: 
-------------------------------------------------------------------------------
-4.8506e+01  1.7521e+02 -7.8907e+01 +/- 0.0000e+00 0.0000e+00 0.0000e+00 [bar]
 1.7521e+02  1.8097e+02  1.2163e+01 +/- 0.0000e+00 0.0000e+00 0.0000e+00 [bar]
-7.8907e+01  1.2163e+01  2.7439e+02 +/- 0.0000e+00 0.0000e+00 0.0000e+00 [bar]
Ideal-gas pressure:   5.232594e+02 +/ 0.000000e+00 [bar]
Excess pressure:     -3.876402e+02 +/ 0.000000e+00 [bar]
Pressure:             1.356191e+02 +/ 0.000000e+00 [bar]

Total potential energy/kʙ  -2.401519e+05 (-2.406464e+05 +/- 0.000000e+00) [K]
-------------------------------------------------------------------------------
ExternalField-molecule
    Van der Waals/kʙ        0.000000e+00 ( 0.000000e+00 +/- 0.000000e+00) [K]
Framework-molecule
    Van der Waals/kʙ        0.000000e+00 ( 0.000000e+00 +/- 0.000000e+00) [K]
    Van der Waals (Tail)/kʙ 0.000000e+00 ( 0.000000e+00 +/- 0.000000e+00) [K]
    Coulombic Real/kʙ       0.000000e+00 ( 0.000000e+00 +/- 0.000000e+00) [K]
    Coulombic Fourier/kʙ    0.000000e+00 ( 0.000000e+00 +/- 0.000000e+00) [K]
Molecule-molecule
    Van der Waals/kʙ       -1.681077e+05 (-1.709813e+05 +/- 0.000000e+00) [K]
    Van der Waals (Tail)/kʙ-7.385993e+03 (-7.278992e+03 +/- 0.000000e+00) [K]
    Coulombic Real/kʙ      -5.282862e+04 (-5.056314e+04 +/- 0.000000e+00) [K]
    Coulombic Fourier/kʙ   -1.182962e+04 (-1.182297e+04 +/- 0.000000e+00) [K]
    Molecule Intra/kʙ       0.000000e+00 ( 0.000000e+00 +/- 0.000000e+00) [K]

Current cycle: 400 out of 5000
===============================================================================

Box:      21.39872   0.00000   0.00000  Average:  21.47295   0.00000   0.00000
           0.00000  21.39872   0.00000             0.00000  21.47295   0.00000
           0.00000   0.00000  21.39872             0.00000   0.00000  21.47295
Lengths:  21.39872  21.39872  21.39872  Average:  21.47295  21.47295  21.47295
Angles:   90.00000  90.00000  90.00000  Average:  90.00000  90.00000  90.00000
Rectangular boundary conditions

net charge:   0.00000000

component 0 (CO2) lambda:  0 occupancy:  1 (1.000000)
    net charge:   0.00000000 [e]

Amount of molecules per component :
-------------------------------------------------------------------------------
Component 0 (CO2)
    molecules:      1.500000e+02 molecules  (1.500000e+02 +/- 0.000000e+00)
    number density: 1.530834e-02 molec./A^3 (1.515218e-02 +/- 0.000000e+00)
    density:        1.118454e+03 kg/m^3     (1.107044e+03 +/- 0.000000e+00)

Average pressure tensor: 
-------------------------------------------------------------------------------
-2.7646e+01  1.7815e+02 -7.9833e+01 +/- 0.0000e+00 0.0000e+00 0.0000e+00 [bar]
 1.7815e+02  1.9163e+02  6.1674e+01 +/- 0.0000e+00 0.0000e+00 0.0000e+00 [bar]
-7.9833e+01  6.1674e+01  2.2634e+02 +/- 0.0000e+00 0.0000e+00 0.0000e+00 [bar]
Ideal-gas pressure:   5.229967e+02 +/ 0.000000e+00 [bar]
Excess pressure:     -3.928888e+02 +/ 0.000000e+00 [bar]
Pressure:             1.301079e+02 +/ 0.000000e+00 [bar]

Total potential energy/kʙ  -2.428017e+05 (-2.408105e+05 +/- 0.000000e+00) [K]
-------------------------------------------------------------------------------
ExternalField-molecule
    Van der Waals/kʙ        0.000000e+00 ( 0.000000e+00 +/- 0.000000e+00) [K]
Framework-molecule
    Van der Waals/kʙ        0.000000e+00 ( 0.000000e+00 +/- 0.000000e+00) [K]
    Van der Waals (Tail)/kʙ 0.000000e+00 ( 0.000000e+00 +/- 0.000000e+00) [K]
    Coulombic Real/kʙ       0.000000e+00 ( 0.000000e+00 +/- 0.000000e+00) [K]
    Coulombic Fourier/kʙ    0.000000e+00 ( 0.000000e+00 +/- 0.000000e+00) [K]
Molecule-molecule
    Van der Waals/kʙ       -1.701852e+05 (-1.707978e+05 +/- 0.000000e+00) [K]
    Van der Waals (Tail)/kʙ-7.367634e+03 (-7.272101e+03 +/- 0.000000e+00) [K]
    Coulombic Real/kʙ      -5.358037e+04 (-5.088661e+04 +/- 0.000000e+00) [K]
    Coulombic Fourier/kʙ   -1.166850e+04 (-1.185406e+04 +/- 0.000000e+00) [K]
    Molecule Intra/kʙ       0.000000e+00 ( 0.000000e+00 +/- 0.000000e+00) [K]

Current cycle: 500 out of 5000
===============================================================================

Box:      21.35002   0.00000   0.00000  Average:  21.45953   0.00000   0.00000
           0.00000  21.35002   0.00000             0.00000  21.45953   0.00000
           0.00000   0.00000  21.35002             0.00000   0.00000  21.45953
Lengths:  21.35002  21.35002  21.35002  Average:  21.45953  21.45953  21.45953
Angles:   90.00000  90.00000  90.00000  Average:  90.00000  90.00000  90.00000
Rectangular boundary conditions

net charge:   0.00000000

component 0 (CO2) lambda:  0 occupancy:  1 (1.000000)
    net charge:   0.00000000 [e]

Amount of molecules per component :
-------------------------------------------------------------------------------
Component 0 (CO2)
    molecules:      1.500000e+02 molecules  (1.500000e+02 +/- 0.000000e+00)
    number density: 1.541333e-02 molec./A^3 (1.518069e-02 +/- 0.000000e+00)
    density:        1.126124e+03 kg/m^3     (1.109127e+03 +/- 0.000000e+00)

Average pressure tensor: 
-------------------------------------------------------------------------------
 9.9462e+01  1.0691e+02 -5.3483e+01 +/- 0.0000e+00 0.0000e+00 0.0000e+00 [bar]
 1.0691e+02  2.2051e+02  6.7672e+01 +/- 0.0000e+00 0.0000e+00 0.0000e+00 [bar]
-5.3483e+01  6.7672e+01  1.9681e+02 +/- 0.0000e+00 0.0000e+00 0.0000e+00 [bar]
Ideal-gas pressure:   5.239807e+02 +/ 0.000000e+00 [bar]
Excess pressure:     -3.517210e+02 +/ 0.000000e+00 [bar]
Pressure:             1.722597e+02 +/ 0.000000e+00 [bar]

Total potential energy/kʙ  -2.453443e+05 (-2.410242e+05 +/- 0.000000e+00) [K]
-------------------------------------------------------------------------------
ExternalField-molecule
    Van der Waals/kʙ        0.000000e+00 ( 0.000000e+00 +/- 0.000000e+00) [K]
Framework-molecule
    Van der Waals/kʙ        0.000000e+00 ( 0.000000e+00 +/- 0.000000e+00) [K]
    Van der Waals (Tail)/kʙ 0.000000e+00 ( 0.000000e+00 +/- 0.000000e+00) [K]
    Coulombic Real/kʙ       0.000000e+00 ( 0.000000e+00 +/- 0.000000e+00) [K]
    Coulombic Fourier/kʙ    0.000000e+00 ( 0.000000e+00 +/- 0.000000e+00) [K]
Molecule-molecule
    Van der Waals/kʙ       -1.752438e+05 (-1.709968e+05 +/- 0.000000e+00) [K]
    Van der Waals (Tail)/kʙ-7.418165e+03 (-7.291182e+03 +/- 0.000000e+00) [K]
    Coulombic Real/kʙ      -5.075429e+04 (-5.089319e+04 +/- 0.000000e+00) [K]
    Coulombic Fourier/kʙ   -1.192808e+04 (-1.184310e+04 +/- 0.000000e+00) [K]
    Molecule Intra/kʙ       0.000000e+00 ( 0.000000e+00 +/- 0.000000e+00) [K]

Current cycle: 600 out of 5000
===============================================================================

Box:      21.34532   0.00000   0.00000  Average:  21.45122   0.00000   0.00000
           0.00000  21.34532   0.00000             0.00000  21.45122   0.00000
           0.00000   0.00000  21.34532             0.00000   0.00000  21.45122
Lengths:  21.34532  21.34532  21.34532  Average:  21.45122  21.45122  21.45122
Angles:   90.00000  90.00000  90.00000  Average:  90.00000  90.00000  90.00000
Rectangular boundary conditions

net charge:   0.00000000

component 0 (CO2) lambda:  0 occupancy:  1 (1.000000)
    net charge:   0.00000000 [e]

Amount of molecules per component :
-------------------------------------------------------------------------------
Component 0 (CO2)
    molecules:      1.500000e+02 molecules  (1.500000e+02 +/- 0.000000e+00)
    number density: 1.542352e-02 molec./A^3 (1.519825e-02 +/- 0.000000e+00)
    density:        1.126868e+03 kg/m^3     (1.110410e+03 +/- 0.000000e+00)

Average pressure tensor: 
-------------------------------------------------------------------------------
 1.4508e+02  7.0669e+01 -1.0949e+01 +/- 0.0000e+00 0.0000e+00 0.0000e+00 [bar]
 7.0669e+01  2.3292e+02  3.5494e+01 +/- 0.0000e+00 0.0000e+00 0.0000e+00 [bar]
-1.0949e+01  3.5494e+01  2.3484e+02 +/- 0.0000e+00 0.0000e+00 0.0000e+00 [bar]
Ideal-gas pressure:   5.245868e+02 +/ 0.000000e+00 [bar]
Excess pressure:     -3.203098e+02 +/ 0.000000e+00 [bar]
Pressure:             2.042770e+02 +/ 0.000000e+00 [bar]

Total potential energy/kʙ  -2.403718e+05 (-2.408337e+05 +/- 0.000000e+00) [K]
-------------------------------------------------------------------------------
ExternalField-molecule
    Van der Waals/kʙ        0.000000e+00 ( 0.000000e+00 +/- 0.000000e+00) [K]
Framework-molecule
    Van der Waals/kʙ        0.000000e+00 ( 0.000000e+00 +/- 0.000000e+00) [K]
    Van der Waals (Tail)/kʙ 0.000000e+00 ( 0.000000e+00 +/- 0.000000e+00) [K]
    Coulombic Real/kʙ       0.000000e+00 ( 0.000000e+00 +/- 0.000000e+00) [K]
    Coulombic Fourier/kʙ    0.000000e+00 ( 0.000000e+00 +/- 0.000000e+00) [K]
Molecule-molecule
    Van der Waals/kʙ       -1.692827e+05 (-1.710845e+05 +/- 0.000000e+00) [K]
    Van der Waals (Tail)/kʙ-7.423066e+03 (-7.308409e+03 +/- 0.000000e+00) [K]
    Coulombic Real/kʙ      -5.173842e+04 (-5.057287e+04 +/- 0.000000e+00) [K]
    Coulombic Fourier/kʙ   -1.192759e+04 (-1.186795e+04 +/- 0.000000e+00) [K]
    Molecule Intra/kʙ       0.000000e+00 ( 0.000000e+00 +/- 0.000000e+00) [K]

Current cycle: 700 out of 5000
===============================================================================

Box:      21.72055   0.00000   0.00000  Average:  21.47252   0.00000   0.00000
           0.00000  21.72055   0.00000             0.00000  21.47252   0.00000
           0.00000   0.00000  21.72055             0.00000   0.00000  21.47252
Lengths:  21.72055  21.72055  21.72055  Average:  21.47252  21.47252  21.47252
Angles:   90.00000  90.00000  90.00000  Average:  90.00000  90.00000  90.00000
Rectangular boundary conditions

net charge:   0.00000000

component 0 (CO2) lambda:  0 occupancy:  1 (1.000000)
    net charge:   0.00000000 [e]

Amount of molecules per component :
-------------------------------------------------------------------------------
Component 0 (CO2)
    molecules:      1.500000e+02 molecules  (1.500000e+02 +/- 0.000000e+00)
    number density: 1.463791e-02 molec./A^3 (1.515376e-02 +/- 0.000000e+00)
    density:        1.069471e+03 kg/m^3     (1.107159e+03 +/- 0.000000e+00)

Average pressure tensor: 
-------------------------------------------------------------------------------
 1.4201e+02  7.5949e+01 -2.1188e+01 +/- 0.0000e+00 0.0000e+00 0.0000e+00 [bar]
 7.5949e+01  2.7897e+02  2.3136e+01 +/- 0.0000e+00 0.0000e+00 0.0000e+00 [bar]
-2.1188e+01  2.3136e+01  2.4654e+02 +/- 0.0000e+00 0.0000e+00 0.0000e+00 [bar]
Ideal-gas pressure:   5.230509e+02 +/ 0.000000e+00 [bar]
Excess pressure:     -3.005474e+02 +/ 0.000000e+00 [bar]
Pressure:             2.225036e+02 +/ 0.000000e+00 [bar]

Total potential energy/kʙ  -2.261277e+05 (-2.395810e+05 +/- 0.000000e+00) [K]
-------------------------------------------------------------------------------
ExternalField-molecule
    Van der Waals/kʙ        0.000000e+00 ( 0.000000e+00 +/- 0.000000e+00) [K]
Framework-molecule
    Van der Waals/kʙ        0.000000e+00 ( 0.000000e+00 +/- 0.000000e+00) [K]
    Van der Waals (Tail)/kʙ 0.000000e+00 ( 0.000000e+00 +/- 0.000000e+00) [K]
    Coulombic Real/kʙ       0.000000e+00 ( 0.000000e+00 +/- 0.000000e+00) [K]
    Coulombic Fourier/kʙ    0.000000e+00 ( 0.000000e+00 +/- 0.000000e+00) [K]
Molecule-molecule
    Van der Waals/kʙ       -1.653702e+05 (-1.704728e+05 +/- 0.000000e+00) [K]
    Van der Waals (Tail)/kʙ-7.044967e+03 (-7.288054e+03 +/- 0.000000e+00) [K]
    Coulombic Real/kʙ      -4.216478e+04 (-4.996167e+04 +/- 0.000000e+00) [K]
    Coulombic Fourier/kʙ   -1.154774e+04 (-1.185841e+04 +/- 0.000000e+00) [K]
    Molecule Intra/kʙ       0.000000e+00 ( 0.000000e+00 +/- 0.000000e+00) [K]

Current cycle: 800 out of 5000
===============================================================================

Box:      21.66787   0.00000   0.00000  Average:  21.49280   0.00000   0.00000
           0.00000  21.66787   0.00000             0.00000  21.49280   0.00000
           0.00000   0.00000  21.66787             0.00000   0.00000  21.49280
Lengths:  21.66787  21.66787  21.66787  Average:  21.49280  21.49280  21.49280
Angles:   90.00000  90.00000  90.00000  Average:  90.00000  90.00000  90.00000
Rectangular boundary conditions

net charge:   0.00000000

component 0 (CO2) lambda:  0 occupancy:  1 (1.000000)
    net charge:   0.00000000 [e]

Amount of molecules per component :
-------------------------------------------------------------------------------
Component 0 (CO2)
    molecules:      1.500000e+02 molecules  (1.500000e+02 +/- 0.000000e+00)
    number density: 1.474492e-02 molec./A^3 (1.511131e-02 +/- 0.000000e+00)
    density:        1.077289e+03 kg/m^3     (1.104058e+03 +/- 0.000000e+00)

Average pressure tensor: 
-------------------------------------------------------------------------------
 1.3790e+02  8.0393e+01 -5.3263e+01 +/- 0.0000e+00 0.0000e+00 0.0000e+00 [bar]
 8.0393e+01  2.7102e+02  2.0508e+01 +/- 0.0000e+00 0.0000e+00 0.0000e+00 [bar]
-5.3263e+01  2.0508e+01  2.3801e+02 +/- 0.0000e+00 0.0000e+00 0.0000e+00 [bar]
Ideal-gas pressure:   5.215860e+02 +/ 0.000000e+00 [bar]
Excess pressure:     -3.059429e+02 +/ 0.000000e+00 [bar]
Pressure:             2.156431e+02 +/ 0.000000e+00 [bar]

Total potential energy/kʙ  -2.325778e+05 (-2.387145e+05 +/- 0.000000e+00) [K]
-------------------------------------------------------------------------------
ExternalField-molecule
    Van der Waals/kʙ        0.000000e+00 ( 0.000000e+00 +/- 0.000000e+00) [K]
Framework-molecule
    Van der Waals/kʙ        0.000000e+00 ( 0.000000e+00 +/- 0.000000e+00) [K]
    Van der Waals (Tail)/kʙ 0.000000e+00 ( 0.000000e+00 +/- 0.000000e+00) [K]
    Coulombic Real/kʙ       0.000000e+00 ( 0.000000e+00 +/- 0.000000e+00) [K]
    Coulombic Fourier/kʙ    0.000000e+00 ( 0.000000e+00 +/- 0.000000e+00) [K]
Molecule-molecule
    Van der Waals/kʙ       -1.653170e+05 (-1.700801e+05 +/- 0.000000e+00) [K]
    Van der Waals (Tail)/kʙ-7.096472e+03 (-7.269610e+03 +/- 0.000000e+00) [K]
    Coulombic Real/kʙ      -4.728272e+04 (-4.944398e+04 +/- 0.000000e+00) [K]
    Coulombic Fourier/kʙ   -1.288163e+04 (-1.192090e+04 +/- 0.000000e+00) [K]
    Molecule Intra/kʙ       0.000000e+00 ( 0.000000e+00 +/- 0.000000e+00) [K]

Current cycle: 900 out of 5000
===============================================================================

Box:      21.98286   0.00000   0.00000  Average:  21.52159   0.00000   0.00000
           0.00000  21.98286   0.00000             0.00000  21.52159   0.00000
           0.00000   0.00000  21.98286             0.00000   0.00000  21.52159
Lengths:  21.98286  21.98286  21.98286  Average:  21.52159  21.52159  21.52159
Angles:   90.00000  90.00000  90.00000  Average:  90.00000  90.00000  90.00000
Rectangular boundary conditions

net charge:   0.00000000

component 0 (CO2) lambda:  0 occupancy:  1 (1.000000)
    net charge:   0.00000000 [e]

Amount of molecules per component :
-------------------------------------------------------------------------------
Component 0 (CO2)
    molecules:      1.500000e+02 molecules  (1.500000e+02 +/- 0.000000e+00)
    number density: 1.412013e-02 molec./A^3 (1.505222e-02 +/- 0.000000e+00)
    density:        1.031641e+03 kg/m^3     (1.099741e+03 +/- 0.000000e+00)

Average pressure tensor: 
-------------------------------------------------------------------------------
 1.3516e+02  9.2653e+01 -6.4390e+01 +/- 0.0000e+00 0.0000e+00 0.0000e+00 [bar]
 9.2653e+01  2.8937e+02 -7.7632e+00 +/- 0.0000e+00 0.0000e+00 0.0000e+00 [bar]
-6.4390e+01 -7.7632e+00  2.6459e+02 +/- 0.0000e+00 0.0000e+00 0.0000e+00 [bar]
Ideal-gas pressure:   5.195463e+02 +/ 0.000000e+00 [bar]
Excess pressure:     -2.898388e+02 +/ 0.000000e+00 [bar]
Pressure:             2.297075e+02 +/ 0.000000e+00 [bar]

Total potential energy/kʙ  -2.245984e+05 (-2.377445e+05 +/- 0.000000e+00) [K]
-------------------------------------------------------------------------------
ExternalField-molecule
    Van der Waals/kʙ        0.000000e+00 ( 0.000000e+00 +/- 0.000000e+00) [K]
Framework-molecule
    Van der Waals/kʙ        0.000000e+00 ( 0.000000e+00 +/- 0.000000e+00) [K]
    Van der Waals (Tail)/kʙ 0.000000e+00 ( 0.000000e+00 +/- 0.000000e+00) [K]
    Coulombic Real/kʙ       0.000000e+00 ( 0.000000e+00 +/- 0.000000e+00) [K]
    Coulombic Fourier/kʙ    0.000000e+00 ( 0.000000e+00 +/- 0.000000e+00) [K]
Molecule-molecule
    Van der Waals/kʙ       -1.577837e+05 (-1.692169e+05 +/- 0.000000e+00) [K]
    Van der Waals (Tail)/kʙ-6.795767e+03 (-7.243877e+03 +/- 0.000000e+00) [K]
    Coulombic Real/kʙ      -4.816564e+04 (-4.938602e+04 +/- 0.000000e+00) [K]
    Coulombic Fourier/kʙ   -1.185334e+04 (-1.189772e+04 +/- 0.000000e+00) [K]
    Molecule Intra/kʙ       0.000000e+00 ( 0.000000e+00 +/- 0.000000e+00) [K]

Current cycle: 1000 out of 5000
===============================================================================

Box:      21.48378   0.00000   0.00000  Average:  21.53452   0.00000   0.00000
           0.00000  21.48378   0.00000             0.00000  21.53452   0.00000
           0.00000   0.00000  21.48378             0.00000   0.00000  21.53452
Lengths:  21.48378  21.48378  21.48378  Average:  21.53452  21.53452  21.53452
Angles:   90.00000  90.00000  90.00000  Average:  90.00000  90.00000  90.00000
Rectangular boundary conditions

net charge:   0.00000000

component 0 (CO2) lambda:  0 occupancy:  1 (1.000000)
    net charge:   0.00000000 [e]

Amount of molecules per component :
-------------------------------------------------------------------------------
Component 0 (CO2)
    molecules:      1.500000e+02 molecules  (1.500000e+02 +/- 0.000000e+00)
    number density: 1.512723e-02 molec./A^3 (1.502551e-02 +/- 0.000000e+00)
    density:        1.105221e+03 kg/m^3     (1.097789e+03 +/- 0.000000e+00)

Average pressure tensor: 
-------------------------------------------------------------------------------
 1.2775e+02  8.1978e+01 -7.8774e+01 +/- 0.0000e+00 0.0000e+00 0.0000e+00 [bar]
 8.1978e+01  2.6225e+02 -1.7647e+01 +/- 0.0000e+00 0.0000e+00 0.0000e+00 [bar]
-7.8774e+01 -1.7647e+01  2.6347e+02 +/- 0.0000e+00 0.0000e+00 0.0000e+00 [bar]
Ideal-gas pressure:   5.186242e+02 +/ 0.000000e+00 [bar]
Excess pressure:     -3.008005e+02 +/ 0.000000e+00 [bar]
Pressure:             2.178237e+02 +/ 0.000000e+00 [bar]

Total potential energy/kʙ  -2.409387e+05 (-2.374372e+05 +/- 0.000000e+00) [K]
-------------------------------------------------------------------------------
ExternalField-molecule
    Van der Waals/kʙ        0.000000e+00 ( 0.000000e+00 +/- 0.000000e+00) [K]
Framework-molecule
    Van der Waals/kʙ        0.000000e+00 ( 0.000000e+00 +/- 0.000000e+00) [K]
    Van der Waals (Tail)/kʙ 0.000000e+00 ( 0.000000e+00 +/- 0.000000e+00) [K]
    Coulombic Real/kʙ       0.000000e+00 ( 0.000000e+00 +/- 0.000000e+00) [K]
    Coulombic Fourier/kʙ    0.000000e+00 ( 0.000000e+00 +/- 0.000000e+00) [K]
Molecule-molecule
    Van der Waals/kʙ       -1.702297e+05 (-1.690349e+05 +/- 0.000000e+00) [K]
    Van der Waals (Tail)/kʙ-7.280469e+03 (-7.232323e+03 +/- 0.000000e+00) [K]
    Coulombic Real/kʙ      -5.155044e+04 (-4.927322e+04 +/- 0.000000e+00) [K]
    Coulombic Fourier/kʙ   -1.187811e+04 (-1.189681e+04 +/- 0.000000e+00) [K]
    Molecule Intra/kʙ       0.000000e+00 ( 0.000000e+00 +/- 0.000000e+00) [K]

Current cycle: 1100 out of 5000
===============================================================================

Box:      21.30630   0.00000   0.00000  Average:  21.52519   0.00000   0.00000
           0.00000  21.30630   0.00000             0.00000  21.52519   0.00000
           0.00000   0.00000  21.30630             0.00000   0.00000  21.52519
Lengths:  21.30630  21.30630  21.30630  Average:  21.52519  21.52519  21.52519
Angles:   90.00000  90.00000  90.00000  Average:  90.00000  90.00000  90.00000
Rectangular boundary conditions

net charge:   0.00000000

component 0 (CO2) lambda:  0 occupancy:  1 (1.000000)
    net charge:   0.00000000 [e]

Amount of molecules per component :
-------------------------------------------------------------------------------
Component 0 (CO2)
    molecules:      1.500000e+02 molecules  (1.500000e+02 +/- 0.000000e+00)
    number density: 1.550841e-02 molec./A^3 (1.504511e-02 +/- 0.000000e+00)
    density:        1.133071e+03 kg/m^3     (1.099222e+03 +/- 0.000000e+00)

Average pressure tensor: 
-------------------------------------------------------------------------------
 1.3973e+02  8.9843e+01 -5.0613e+01 +/- 0.0000e+00 0.0000e+00 0.0000e+00 [bar]
 8.9843e+01  2.3405e+02 -2.3813e+01 +/- 0.0000e+00 0.0000e+00 0.0000e+00 [bar]
-5.0613e+01 -2.3813e+01  2.7244e+02 +/- 0.0000e+00 0.0000e+00 0.0000e+00 [bar]
Ideal-gas pressure:   5.193009e+02 +/ 0.000000e+00 [bar]
Excess pressure:     -3.038973e+02 +/ 0.000000e+00 [bar]
Pressure:             2.154037e+02 +/ 0.000000e+00 [bar]

Total potential energy/kʙ  -2.411480e+05 (-2.373223e+05 +/- 0.000000e+00) [K]
-------------------------------------------------------------------------------
ExternalField-molecule
    Van der Waals/kʙ        0.000000e+00 ( 0.000000e+00 +/- 0.000000e+00) [K]
Framework-molecule
    Van der Waals/kʙ        0.000000e+00 ( 0.000000e+00 +/- 0.000000e+00) [K]
    Van der Waals (Tail)/kʙ 0.000000e+00 ( 0.000000e+00 +/- 0.000000e+00) [K]
    Coulombic Real/kʙ       0.000000e+00 ( 0.000000e+00 +/- 0.000000e+00) [K]
    Coulombic Fourier/kʙ    0.000000e+00 ( 0.000000e+00 +/- 0.000000e+00) [K]
Molecule-molecule
    Van der Waals/kʙ       -1.769027e+05 (-1.692074e+05 +/- 0.000000e+00) [K]
    Van der Waals (Tail)/kʙ-7.463926e+03 (-7.241119e+03 +/- 0.000000e+00) [K]
    Coulombic Real/kʙ      -4.546874e+04 (-4.898285e+04 +/- 0.000000e+00) [K]
    Coulombic Fourier/kʙ   -1.131263e+04 (-1.189093e+04 +/- 0.000000e+00) [K]
    Molecule Intra/kʙ       0.000000e+00 ( 0.000000e+00 +/- 0.000000e+00) [K]

Current cycle: 1200 out of 5000
===============================================================================

Box:      21.04726   0.00000   0.00000  Average:  21.49665   0.00000   0.00000
           0.00000  21.04726   0.00000             0.00000  21.49665   0.00000
           0.00000   0.00000  21.04726             0.00000   0.00000  21.49665
Lengths:  21.04726  21.04726  21.04726  Average:  21.49665  21.49665  21.49665
Angles:   90.00000  90.00000  90.00000  Average:  90.00000  90.00000  90.00000
Rectangular boundary conditions

net charge:   0.00000000

component 0 (CO2) lambda:  0 occupancy:  1 (1.000000)
    net charge:   0.00000000 [e]

Amount of molecules per component :
-------------------------------------------------------------------------------
Component 0 (CO2)
    molecules:      1.500000e+02 molecules  (1.500000e+02 +/- 0.000000e+00)
    number density: 1.608810e-02 molec./A^3 (1.510663e-02 +/- 0.000000e+00)
    density:        1.175424e+03 kg/m^3     (1.103716e+03 +/- 0.000000e+00)

Average pressure tensor: 
-------------------------------------------------------------------------------
 1.5132e+02  1.0127e+02 -4.2118e+01 +/- 0.0000e+00 0.0000e+00 0.0000e+00 [bar]
 1.0127e+02  2.0266e+02 -3.1234e+01 +/- 0.0000e+00 0.0000e+00 0.0000e+00 [bar]
-4.2118e+01 -3.1234e+01  3.0104e+02 +/- 0.0000e+00 0.0000e+00 0.0000e+00 [bar]
Ideal-gas pressure:   5.214243e+02 +/ 0.000000e+00 [bar]
Excess pressure:     -3.030845e+02 +/ 0.000000e+00 [bar]
Pressure:             2.183398e+02 +/ 0.000000e+00 [bar]

Total potential energy/kʙ  -2.485083e+05 (-2.383540e+05 +/- 0.000000e+00) [K]
-------------------------------------------------------------------------------
ExternalField-molecule
    Van der Waals/kʙ        0.000000e+00 ( 0.000000e+00 +/- 0.000000e+00) [K]
Framework-molecule
    Van der Waals/kʙ        0.000000e+00 ( 0.000000e+00 +/- 0.000000e+00) [K]
    Van der Waals (Tail)/kʙ 0.000000e+00 ( 0.000000e+00 +/- 0.000000e+00) [K]
    Coulombic Real/kʙ       0.000000e+00 ( 0.000000e+00 +/- 0.000000e+00) [K]
    Coulombic Fourier/kʙ    0.000000e+00 ( 0.000000e+00 +/- 0.000000e+00) [K]
Molecule-molecule
    Van der Waals/kʙ       -1.778734e+05 (-1.701073e+05 +/- 0.000000e+00) [K]
    Van der Waals (Tail)/kʙ-7.742919e+03 (-7.273333e+03 +/- 0.000000e+00) [K]
    Coulombic Real/kʙ      -4.995235e+04 (-4.906576e+04 +/- 0.000000e+00) [K]
    Coulombic Fourier/kʙ   -1.293963e+04 (-1.190764e+04 +/- 0.000000e+00) [K]
    Molecule Intra/kʙ       0.000000e+00 ( 0.000000e+00 +/- 0.000000e+00) [K]

Current cycle: 1300 out of 5000
===============================================================================

Box:      21.42489   0.00000   0.00000  Average:  21.47831   0.00000   0.00000
           0.00000  21.42489   0.00000             0.00000  21.47831   0.00000
           0.00000   0.00000  21.42489             0.00000   0.00000  21.47831
Lengths:  21.42489  21.42489  21.42489  Average:  21.47831  21.47831  21.47831
Angles:   90.00000  90.00000  90.00000  Average:  90.00000  90.00000  90.00000
Rectangular boundary conditions

net charge:   0.00000000

component 0 (CO2) lambda:  0 occupancy:  1 (1.000000)
    net charge:   0.00000000 [e]

Amount of molecules per component :
-------------------------------------------------------------------------------
Component 0 (CO2)
    molecules:      1.500000e+02 molecules  (1.500000e+02 +/- 0.000000e+00)
    number density: 1.525231e-02 molec./A^3 (1.514580e-02 +/- 0.000000e+00)
    density:        1.114360e+03 kg/m^3     (1.106578e+03 +/- 0.000000e+00)

Average pressure tensor: 
-------------------------------------------------------------------------------
 1.6879e+02  9.4050e+01 -3.6205e+01 +/- 0.0000e+00 0.0000e+00 0.0000e+00 [bar]
 9.4050e+01  1.9399e+02 -1.7926e+01 +/- 0.0000e+00 0.0000e+00 0.0000e+00 [bar]
-3.6205e+01 -1.7926e+01  2.9827e+02 +/- 0.0000e+00 0.0000e+00 0.0000e+00 [bar]
Ideal-gas pressure:   5.227762e+02 +/ 0.000000e+00 [bar]
Excess pressure:     -3.024261e+02 +/ 0.000000e+00 [bar]
Pressure:             2.203502e+02 +/ 0.000000e+00 [bar]

Total potential energy/kʙ  -2.402640e+05 (-2.390086e+05 +/- 0.000000e+00) [K]
-------------------------------------------------------------------------------
ExternalField-molecule
    Van der Waals/kʙ        0.000000e+00 ( 0.000000e+00 +/- 0.000000e+00) [K]
Framework-molecule
    Van der Waals/kʙ        0.000000e+00 ( 0.000000e+00 +/- 0.000000e+00) [K]
    Van der Waals (Tail)/kʙ 0.000000e+00 ( 0.000000e+00 +/- 0.000000e+00) [K]
    Coulombic Real/kʙ       0.000000e+00 ( 0.000000e+00 +/- 0.000000e+00) [K]
    Coulombic Fourier/kʙ    0.000000e+00 ( 0.000000e+00 +/- 0.000000e+00) [K]
Molecule-molecule
    Van der Waals/kʙ       -1.664934e+05 (-1.705175e+05 +/- 0.000000e+00) [K]
    Van der Waals (Tail)/kʙ-7.340669e+03 (-7.289717e+03 +/- 0.000000e+00) [K]
    Coulombic Real/kʙ      -5.295663e+04 (-4.921889e+04 +/- 0.000000e+00) [K]
    Coulombic Fourier/kʙ   -1.347332e+04 (-1.198251e+04 +/- 0.000000e+00) [K]
    Molecule Intra/kʙ       0.000000e+00 ( 0.000000e+00 +/- 0.000000e+00) [K]

Current cycle: 1400 out of 5000
===============================================================================

Box:      21.68046   0.00000   0.00000  Average:  21.48653   0.00000   0.00000
           0.00000  21.68046   0.00000             0.00000  21.48653   0.00000
           0.00000   0.00000  21.68046             0.00000   0.00000  21.48653
Lengths:  21.68046  21.68046  21.68046  Average:  21.48653  21.48653  21.48653
Angles:   90.00000  90.00000  90.00000  Average:  90.00000  90.00000  90.00000
Rectangular boundary conditions

net charge:   0.00000000

component 0 (CO2) lambda:  0 occupancy:  1 (1.000000)
    net charge:   0.00000000 [e]

Amount of molecules per component :
-------------------------------------------------------------------------------
Component 0 (CO2)
    molecules:      1.500000e+02 molecules  (1.500000e+02 +/- 0.000000e+00)
    number density: 1.471925e-02 molec./A^3 (1.512836e-02 +/- 0.000000e+00)
    density:        1.075414e+03 kg/m^3     (1.105304e+03 +/- 0.000000e+00)

Average pressure tensor: 
-------------------------------------------------------------------------------
 1.6970e+02  7.9359e+01 -4.8734e+01 +/- 0.0000e+00 0.0000e+00 0.0000e+00 [bar]
 7.9359e+01  1.5972e+02 -2.8155e+01 +/- 0.0000e+00 0.0000e+00 0.0000e+00 [bar]
-4.8734e+01 -2.8155e+01  2.9908e+02 +/- 0.0000e+00 0.0000e+00 0.0000e+00 [bar]
Ideal-gas pressure:   5.221745e+02 +/ 0.000000e+00 [bar]
Excess pressure:     -3.126767e+02 +/ 0.000000e+00 [bar]
Pressure:             2.094978e+02 +/ 0.000000e+00 [bar]

Total potential energy/kʙ  -2.341053e+05 (-2.386791e+05 +/- 0.000000e+00) [K]
-------------------------------------------------------------------------------
ExternalField-molecule
    Van der Waals/kʙ        0.000000e+00 ( 0.000000e+00 +/- 0.000000e+00) [K]
Framework-molecule
    Van der Waals/kʙ        0.000000e+00 ( 0.000000e+00 +/- 0.000000e+00) [K]
    Van der Waals (Tail)/kʙ 0.000000e+00 ( 0.000000e+00 +/- 0.000000e+00) [K]
    Coulombic Real/kʙ       0.000000e+00 ( 0.000000e+00 +/- 0.000000e+00) [K]
    Coulombic Fourier/kʙ    0.000000e+00 ( 0.000000e+00 +/- 0.000000e+00) [K]
Molecule-molecule
    Van der Waals/kʙ       -1.668045e+05 (-1.703591e+05 +/- 0.000000e+00) [K]
    Van der Waals (Tail)/kʙ-7.084117e+03 (-7.279634e+03 +/- 0.000000e+00) [K]
    Coulombic Real/kʙ      -4.802703e+04 (-4.906421e+04 +/- 0.000000e+00) [K]
    Coulombic Fourier/kʙ   -1.218971e+04 (-1.197613e+04 +/- 0.000000e+00) [K]
    Molecule Intra/kʙ       0.000000e+00 ( 0.000000e+00 +/- 0.000000e+00) [K]

Current cycle: 1500 out of 5000
===============================================================================

Box:      21.47776   0.00000   0.00000  Average:  21.49294   0.00000   0.00000
           0.00000  21.47776   0.00000             0.00000  21.49294   0.00000
           0.00000   0.00000  21.47776             0.00000   0.00000  21.49294
Lengths:  21.47776  21.47776  21.47776  Average:  21.49294  21.49294  21.49294
Angles:   90.00000  90.00000  90.00000  Average:  90.00000  90.00000  90.00000
Rectangular boundary conditions

net charge:   0.00000000

component 0 (CO2) lambda:  0 occupancy:  1 (1.000000)
    net charge:   0.00000000 [e]

Amount of molecules per component :
-------------------------------------------------------------------------------
Component 0 (CO2)
    molecules:      1.500000e+02 molecules  (1.500000e+02 +/- 0.000000e+00)
    number density: 1.513994e-02 molec./A^3 (1.511460e-02 +/- 0.000000e+00)
    density:        1.106150e+03 kg/m^3     (1.104299e+03 +/- 0.000000e+00)

Average pressure tensor: 
-------------------------------------------------------------------------------
 1.3471e+02  7.3228e+01 -6.7021e+01 +/- 0.0000e+00 0.0000e+00 0.0000e+00 [bar]
 7.3228e+01  1.5791e+02 -2.6977e+01 +/- 0.0000e+00 0.0000e+00 0.0000e+00 [bar]
-6.7021e+01 -2.6977e+01  3.0458e+02 +/- 0.0000e+00 0.0000e+00 0.0000e+00 [bar]
Ideal-gas pressure:   5.216995e+02 +/ 0.000000e+00 [bar]
Excess pressure:     -3.226343e+02 +/ 0.000000e+00 [bar]
Pressure:             1.990653e+02 +/ 0.000000e+00 [bar]

Total potential energy/kʙ  -2.408318e+05 (-2.383816e+05 +/- 0.000000e+00) [K]
-------------------------------------------------------------------------------
ExternalField-molecule
    Van der Waals/kʙ        0.000000e+00 ( 0.000000e+00 +/- 0.000000e+00) [K]
Framework-molecule
    Van der Waals/kʙ        0.000000e+00 ( 0.000000e+00 +/- 0.000000e+00) [K]
    Van der Waals (Tail)/kʙ 0.000000e+00 ( 0.000000e+00 +/- 0.000000e+00) [K]
    Coulombic Real/kʙ       0.000000e+00 ( 0.000000e+00 +/- 0.000000e+00) [K]
    Coulombic Fourier/kʙ    0.000000e+00 ( 0.000000e+00 +/- 0.000000e+00) [K]
Molecule-molecule
    Van der Waals/kʙ       -1.733951e+05 (-1.701869e+05 +/- 0.000000e+00) [K]
    Van der Waals (Tail)/kʙ-7.286586e+03 (-7.272898e+03 +/- 0.000000e+00) [K]
    Coulombic Real/kʙ      -4.779906e+04 (-4.893149e+04 +/- 0.000000e+00) [K]
    Coulombic Fourier/kʙ   -1.235103e+04 (-1.199032e+04 +/- 0.000000e+00) [K]
    Molecule Intra/kʙ       0.000000e+00 ( 0.000000e+00 +/- 0.000000e+00) [K]

Current cycle: 1600 out of 5000
===============================================================================

Box:      21.47573   0.00000   0.00000  Average:  21.48790   0.00000   0.00000
           0.00000  21.47573   0.00000             0.00000  21.48790   0.00000
           0.00000   0.00000  21.47573             0.00000   0.00000  21.48790
Lengths:  21.47573  21.47573  21.47573  Average:  21.48790  21.48790  21.48790
Angles:   90.00000  90.00000  90.00000  Average:  90.00000  90.00000  90.00000
Rectangular boundary conditions

net charge:   0.00000000

component 0 (CO2) lambda:  0 occupancy:  1 (1.000000)
    net charge:   0.00000000 [e]

Amount of molecules per component :
-------------------------------------------------------------------------------
Component 0 (CO2)
    molecules:      1.500000e+02 molecules  (1.500000e+02 +/- 0.000000e+00)
    number density: 1.514424e-02 molec./A^3 (1.512501e-02 +/- 0.000000e+00)
    density:        1.106464e+03 kg/m^3     (1.105059e+03 +/- 0.000000e+00)

Average pressure tensor: 
-------------------------------------------------------------------------------
 1.2484e+02  7.0884e+01 -6.5650e+01 +/- 0.0000e+00 0.0000e+00 0.0000e+00 [bar]
 7.0884e+01  1.6950e+02 -2.1660e+01 +/- 0.0000e+00 0.0000e+00 0.0000e+00 [bar]
-6.5650e+01 -2.1660e+01  3.0445e+02 +/- 0.0000e+00 0.0000e+00 0.0000e+00 [bar]
Ideal-gas pressure:   5.220588e+02 +/ 0.000000e+00 [bar]
Excess pressure:     -3.224630e+02 +/ 0.000000e+00 [bar]
Pressure:             1.995959e+02 +/ 0.000000e+00 [bar]

Total potential energy/kʙ  -2.433569e+05 (-2.386261e+05 +/- 0.000000e+00) [K]
-------------------------------------------------------------------------------
ExternalField-molecule
    Van der Waals/kʙ        0.000000e+00 ( 0.000000e+00 +/- 0.000000e+00) [K]
Framework-molecule
    Van der Waals/kʙ        0.000000e+00 ( 0.000000e+00 +/- 0.000000e+00) [K]
    Van der Waals (Tail)/kʙ 0.000000e+00 ( 0.000000e+00 +/- 0.000000e+00) [K]
    Coulombic Real/kʙ       0.000000e+00 ( 0.000000e+00 +/- 0.000000e+00) [K]
    Coulombic Fourier/kʙ    0.000000e+00 ( 0.000000e+00 +/- 0.000000e+00) [K]
Molecule-molecule
    Van der Waals/kʙ       -1.710482e+05 (-1.702364e+05 +/- 0.000000e+00) [K]
    Van der Waals (Tail)/kʙ-7.288656e+03 (-7.276980e+03 +/- 0.000000e+00) [K]
    Coulombic Real/kʙ      -5.187629e+04 (-4.905911e+04 +/- 0.000000e+00) [K]
    Coulombic Fourier/kʙ   -1.314369e+04 (-1.205361e+04 +/- 0.000000e+00) [K]
    Molecule Intra/kʙ       0.000000e+00 ( 0.000000e+00 +/- 0.000000e+00) [K]

Current cycle: 1700 out of 5000
===============================================================================

Box:      21.33983   0.00000   0.00000  Average:  21.47968   0.00000   0.00000
           0.00000  21.33983   0.00000             0.00000  21.47968   0.00000
           0.00000   0.00000  21.33983             0.00000   0.00000  21.47968
Lengths:  21.33983  21.33983  21.33983  Average:  21.47968  21.47968  21.47968
Angles:   90.00000  90.00000  90.00000  Average:  90.00000  90.00000  90.00000
Rectangular boundary conditions

net charge:   0.00000000

component 0 (CO2) lambda:  0 occupancy:  1 (1.000000)
    net charge:   0.00000000 [e]

Amount of molecules per component :
-------------------------------------------------------------------------------
Component 0 (CO2)
    molecules:      1.500000e+02 molecules  (1.500000e+02 +/- 0.000000e+00)
    number density: 1.543541e-02 molec./A^3 (1.514230e-02 +/- 0.000000e+00)
    density:        1.127737e+03 kg/m^3     (1.106322e+03 +/- 0.000000e+00)

Average pressure tensor: 
-------------------------------------------------------------------------------
 1.2152e+02  6.3462e+01 -6.8741e+01 +/- 0.0000e+00 0.0000e+00 0.0000e+00 [bar]
 6.3462e+01  1.6437e+02 -1.6198e+01 +/- 0.0000e+00 0.0000e+00 0.0000e+00 [bar]
-6.8741e+01 -1.6198e+01  2.8821e+02 +/- 0.0000e+00 0.0000e+00 0.0000e+00 [bar]
Ideal-gas pressure:   5.226556e+02 +/ 0.000000e+00 [bar]
Excess pressure:     -3.312872e+02 +/ 0.000000e+00 [bar]
Pressure:             1.913683e+02 +/ 0.000000e+00 [bar]

Total potential energy/kʙ  -2.444187e+05 (-2.391527e+05 +/- 0.000000e+00) [K]
-------------------------------------------------------------------------------
ExternalField-molecule
    Van der Waals/kʙ        0.000000e+00 ( 0.000000e+00 +/- 0.000000e+00) [K]
Framework-molecule
    Van der Waals/kʙ        0.000000e+00 ( 0.000000e+00 +/- 0.000000e+00) [K]
    Van der Waals (Tail)/kʙ 0.000000e+00 ( 0.000000e+00 +/- 0.000000e+00) [K]
    Coulombic Real/kʙ       0.000000e+00 ( 0.000000e+00 +/- 0.000000e+00) [K]
    Coulombic Fourier/kʙ    0.000000e+00 ( 0.000000e+00 +/- 0.000000e+00) [K]
Molecule-molecule
    Van der Waals/kʙ       -1.722739e+05 (-1.704651e+05 +/- 0.000000e+00) [K]
    Van der Waals (Tail)/kʙ-7.428790e+03 (-7.284715e+03 +/- 0.000000e+00) [K]
    Coulombic Real/kʙ      -5.218246e+04 (-4.931835e+04 +/- 0.000000e+00) [K]
    Coulombic Fourier/kʙ   -1.253355e+04 (-1.208453e+04 +/- 0.000000e+00) [K]
    Molecule Intra/kʙ       0.000000e+00 ( 0.000000e+00 +/- 0.000000e+00) [K]

Current cycle: 1800 out of 5000
===============================================================================

Box:      21.25640   0.00000   0.00000  Average:  21.46756   0.00000   0.00000
           0.00000  21.25640   0.00000             0.00000  21.46756   0.00000
           0.00000   0.00000  21.25640             0.00000   0.00000  21.46756
Lengths:  21.25640  21.25640  21.25640  Average:  21.46756  21.46756  21.46756
Angles:   90.00000  90.00000  90.00000  Average:  90.00000  90.00000  90.00000
Rectangular boundary conditions

net charge:   0.00000000

component 0 (CO2) lambda:  0 occupancy:  1 (1.000000)
    net charge:   0.00000000 [e]

Amount of molecules per component :
-------------------------------------------------------------------------------
Component 0 (CO2)
    molecules:      1.500000e+02 molecules  (1.500000e+02 +/- 0.000000e+00)
    number density: 1.561788e-02 molec./A^3 (1.516816e-02 +/- 0.000000e+00)
    density:        1.141069e+03 kg/m^3     (1.108212e+03 +/- 0.000000e+00)

Average pressure tensor: 
-------------------------------------------------------------------------------
 1.4444e+02  6.0113e+01 -6.4296e+01 +/- 0.0000e+00 0.0000e+00 0.0000e+00 [bar]
 6.0113e+01  1.4900e+02 -6.6912e+00 +/- 0.0000e+00 0.0000e+00 0.0000e+00 [bar]
-6.4296e+01 -6.6912e+00  2.8782e+02 +/- 0.0000e+00 0.0000e+00 0.0000e+00 [bar]
Ideal-gas pressure:   5.235482e+02 +/ 0.000000e+00 [bar]
Excess pressure:     -3.297962e+02 +/ 0.000000e+00 [bar]
Pressure:             1.937520e+02 +/ 0.000000e+00 [bar]

Total potential energy/kʙ  -2.529095e+05 (-2.397795e+05 +/- 0.000000e+00) [K]
-------------------------------------------------------------------------------
ExternalField-molecule
    Van der Waals/kʙ        0.000000e+00 ( 0.000000e+00 +/- 0.000000e+00) [K]
Framework-molecule
    Van der Waals/kʙ        0.000000e+00 ( 0.000000e+00 +/- 0.000000e+00) [K]
    Van der Waals (Tail)/kʙ 0.000000e+00 ( 0.000000e+00 +/- 0.000000e+00) [K]
    Coulombic Real/kʙ       0.000000e+00 ( 0.000000e+00 +/- 0.000000e+00) [K]
    Coulombic Fourier/kʙ    0.000000e+00 ( 0.000000e+00 +/- 0.000000e+00) [K]
Molecule-molecule
    Van der Waals/kʙ       -1.783708e+05 (-1.707690e+05 +/- 0.000000e+00) [K]
    Van der Waals (Tail)/kʙ-7.516610e+03 (-7.296604e+03 +/- 0.000000e+00) [K]
    Coulombic Real/kʙ      -5.406289e+04 (-4.959515e+04 +/- 0.000000e+00) [K]
    Coulombic Fourier/kʙ   -1.295913e+04 (-1.211881e+04 +/- 0.000000e+00) [K]
    Molecule Intra/kʙ       0.000000e+00 ( 0.000000e+00 +/- 0.000000e+00) [K]

Current cycle: 1900 out of 5000
===============================================================================

Box:      21.29442   0.00000   0.00000  Average:  21.46198   0.00000   0.00000
           0.00000  21.29442   0.00000             0.00000  21.46198   0.00000
           0.00000   0.00000  21.29442             0.00000   0.00000  21.46198
Lengths:  21.29442  21.29442  21.29442  Average:  21.46198  21.46198  21.46198
Angles:   90.00000  90.00000  90.00000  Average:  90.00000  90.00000  90.00000
Rectangular boundary conditions

net charge:   0.00000000

component 0 (CO2) lambda:  0 occupancy:  1 (1.000000)
    net charge:   0.00000000 [e]

Amount of molecules per component :
-------------------------------------------------------------------------------
Component 0 (CO2)
    molecules:      1.500000e+02 molecules  (1.500000e+02 +/- 0.000000e+00)
    number density: 1.553438e-02 molec./A^3 (1.517982e-02 +/- 0.000000e+00)
    density:        1.134968e+03 kg/m^3     (1.109063e+03 +/- 0.000000e+00)

Average pressure tensor: 
-------------------------------------------------------------------------------
 1.4590e+02  5.8331e+01 -6.4775e+01 +/- 0.0000e+00 0.0000e+00 0.0000e+00 [bar]
 5.8331e+01  1.3346e+02 -5.6644e+00 +/- 0.0000e+00 0.0000e+00 0.0000e+00 [bar]
-6.4775e+01 -5.6644e+00  2.6224e+02 +/- 0.0000e+00 0.0000e+00 0.0000e+00 [bar]
Ideal-gas pressure:   5.239505e+02 +/ 0.000000e+00 [bar]
Excess pressure:     -3.434169e+02 +/ 0.000000e+00 [bar]
Pressure:             1.805336e+02 +/ 0.000000e+00 [bar]

Total potential energy/kʙ  -2.516475e+05 (-2.402075e+05 +/- 0.000000e+00) [K]
-------------------------------------------------------------------------------
ExternalField-molecule
    Van der Waals/kʙ        0.000000e+00 ( 0.000000e+00 +/- 0.000000e+00) [K]
Framework-molecule
    Van der Waals/kʙ        0.000000e+00 ( 0.000000e+00 +/- 0.000000e+00) [K]
    Van der Waals (Tail)/kʙ 0.000000e+00 ( 0.000000e+00 +/- 0.000000e+00) [K]
    Coulombic Real/kʙ       0.000000e+00 ( 0.000000e+00 +/- 0.000000e+00) [K]
    Coulombic Fourier/kʙ    0.000000e+00 ( 0.000000e+00 +/- 0.000000e+00) [K]
Molecule-molecule
    Van der Waals/kʙ       -1.773670e+05 (-1.710146e+05 +/- 0.000000e+00) [K]
    Van der Waals (Tail)/kʙ-7.476422e+03 (-7.301163e+03 +/- 0.000000e+00) [K]
    Coulombic Real/kʙ      -5.453103e+04 (-4.975244e+04 +/- 0.000000e+00) [K]
    Coulombic Fourier/kʙ   -1.227302e+04 (-1.213930e+04 +/- 0.000000e+00) [K]
    Molecule Intra/kʙ       0.000000e+00 ( 0.000000e+00 +/- 0.000000e+00) [K]

Current cycle: 2000 out of 5000
===============================================================================

Box:      21.53879   0.00000   0.00000  Average:  21.46327   0.00000   0.00000
           0.00000  21.53879   0.00000             0.00000  21.46327   0.00000
           0.00000   0.00000  21.53879             0.00000   0.00000  21.46327
Lengths:  21.53879  21.53879  21.53879  Average:  21.46327  21.46327  21.46327
Angles:   90.00000  90.00000  90.00000  Average:  90.00000  90.00000  90.00000
Rectangular boundary conditions

net charge:   0.00000000

component 0 (CO2) lambda:  0 occupancy:  1 (1.000000)
    net charge:   0.00000000 [e]

Amount of molecules per component :
-------------------------------------------------------------------------------
Component 0 (CO2)
    molecules:      1.500000e+02 molecules  (1.500000e+02 +/- 0.000000e+00)
    number density: 1.501162e-02 molec./A^3 (1.517689e-02 +/- 0.000000e+00)
    density:        1.096774e+03 kg/m^3     (1.108850e+03 +/- 0.000000e+00)

Average pressure tensor: 
-------------------------------------------------------------------------------
 1.4075e+02  5.9398e+01 -5.7016e+01 +/- 0.0000e+00 0.0000e+00 0.0000e+00 [bar]
 5.9398e+01  1.3855e+02 -5.0572e+00 +/- 0.0000e+00 0.0000e+00 0.0000e+00 [bar]
-5.7016e+01 -5.0572e+00  2.5202e+02 +/- 0.0000e+00 0.0000e+00 0.0000e+00 [bar]
Ideal-gas pressure:   5.238496e+02 +/ 0.000000e+00 [bar]
Excess pressure:     -3.467430e+02 +/ 0.000000e+00 [bar]
Pressure:             1.771066e+02 +/ 0.000000e+00 [bar]

Total potential energy/kʙ  -2.364923e+05 (-2.400573e+05 +/- 0.000000e+00) [K]
-------------------------------------------------------------------------------
ExternalField-molecule
    Van der Waals/kʙ        0.000000e+00 ( 0.000000e+00 +/- 0.000000e+00) [K]
Framework-molecule
    Van der Waals/kʙ        0.000000e+00 ( 0.000000e+00 +/- 0.000000e+00) [K]
    Van der Waals (Tail)/kʙ 0.000000e+00 ( 0.000000e+00 +/- 0.000000e+00) [K]
    Coulombic Real/kʙ       0.000000e+00 ( 0.000000e+00 +/- 0.000000e+00) [K]
    Coulombic Fourier/kʙ    0.000000e+00 ( 0.000000e+00 +/- 0.000000e+00) [K]
Molecule-molecule
    Van der Waals/kʙ       -1.666268e+05 (-1.709402e+05 +/- 0.000000e+00) [K]
    Van der Waals (Tail)/kʙ-7.224827e+03 (-7.298430e+03 +/- 0.000000e+00) [K]
    Coulombic Real/kʙ      -5.029043e+04 (-4.968413e+04 +/- 0.000000e+00) [K]
    Coulombic Fourier/kʙ   -1.235025e+04 (-1.213446e+04 +/- 0.000000e+00) [K]
    Molecule Intra/kʙ       0.000000e+00 ( 0.000000e+00 +/- 0.000000e+00) [K]

Current cycle: 2100 out of 5000
===============================================================================

Box:      21.83715   0.00000   0.00000  Average:  21.47231   0.00000   0.00000
           0.00000  21.83715   0.00000             0.00000  21.47231   0.00000
           0.00000   0.00000  21.83715             0.00000   0.00000  21.47231
Lengths:  21.83715  21.83715  21.83715  Average:  21.47231  21.47231  21.47231
Angles:   90.00000  90.00000  90.00000  Average:  90.00000  90.00000  90.00000
Rectangular boundary conditions

net charge:   0.00000000

component 0 (CO2) lambda:  0 occupancy:  1 (1.000000)
    net charge:   0.00000000 [e]

Amount of molecules per component :
-------------------------------------------------------------------------------
Component 0 (CO2)
    molecules:      1.500000e+02 molecules  (1.500000e+02 +/- 0.000000e+00)
    number density: 1.440468e-02 molec./A^3 (1.515782e-02 +/- 0.000000e+00)
    density:        1.052430e+03 kg/m^3     (1.107456e+03 +/- 0.000000e+00)

Average pressure tensor: 
-------------------------------------------------------------------------------
 1.5298e+02  5.8257e+01 -4.7403e+01 +/- 0.0000e+00 0.0000e+00 0.0000e+00 [bar]
 5.8257e+01  1.4950e+02 -5.6675e+00 +/- 0.0000e+00 0.0000e+00 0.0000e+00 [bar]
-4.7403e+01 -5.6675e+00  2.4565e+02 +/- 0.0000e+00 0.0000e+00 0.0000e+00 [bar]
Ideal-gas pressure:   5.231913e+02 +/ 0.000000e+00 [bar]
Excess pressure:     -3.404816e+02 +/ 0.000000e+00 [bar]
Pressure:             1.827096e+02 +/ 0.000000e+00 [bar]

Total potential energy/kʙ  -2.281079e+05 (-2.396454e+05 +/- 0.000000e+00) [K]
-------------------------------------------------------------------------------
ExternalField-molecule
    Van der Waals/kʙ        0.000000e+00 ( 0.000000e+00 +/- 0.000000e+00) [K]
Framework-molecule
    Van der Waals/kʙ        0.000000e+00 ( 0.000000e+00 +/- 0.000000e+00) [K]
    Van der Waals (Tail)/kʙ 0.000000e+00 ( 0.000000e+00 +/- 0.000000e+00) [K]
[...]
    Coulombic Fourier/kʙ    0.000000e+00 ( 0.000000e+00 +/- 0.000000e+00) [K]
Molecule-molecule
    Van der Waals/kʙ       -1.617035e+05 (-1.688791e+05 +/- 3.296873e+03) [K]
    Van der Waals (Tail)/kʙ-7.023722e+03 (-7.220453e+03 +/- 1.233440e+02) [K]
    Coulombic Real/kʙ      -4.528343e+04 (-4.901484e+04 +/- 1.787531e+03) [K]
    Coulombic Fourier/kʙ   -1.137910e+04 (-1.191970e+04 +/- 3.582153e+02) [K]
    Molecule Intra/kʙ       0.000000e+00 ( 0.000000e+00 +/- 0.000000e+00) [K]

Current cycle: 4700 out of 5000
===============================================================================

Box:      21.51928   0.00000   0.00000  Average:  21.54311   0.00000   0.00000
           0.00000  21.51928   0.00000             0.00000  21.54311   0.00000
           0.00000   0.00000  21.51928             0.00000   0.00000  21.54311
Lengths:  21.51928  21.51928  21.51928  Average:  21.54311  21.54311  21.54311
Angles:   90.00000  90.00000  90.00000  Average:  90.00000  90.00000  90.00000
Rectangular boundary conditions

net charge:   0.00000000

component 0 (CO2) lambda:  0 occupancy:  1 (1.000000)
    net charge:   0.00000000 [e]

Amount of molecules per component :
-------------------------------------------------------------------------------
Component 0 (CO2)
    molecules:      1.500000e+02 molecules  (1.500000e+02 +/- 0.000000e+00)
    number density: 1.505247e-02 molec./A^3 (1.500928e-02 +/- 2.632756e-04)
    density:        1.099759e+03 kg/m^3     (1.096603e+03 +/- 1.923537e+01)

Average pressure tensor: 
-------------------------------------------------------------------------------
 1.4136e+02  1.2197e+01 -3.7152e+00 +/- 6.3128e+01 7.8676e+01 7.4524e+01 [bar]
 1.2197e+01  1.8365e+02 -4.5091e+01 +/- 7.8676e+01 1.3817e+02 5.1323e+01 [bar]
-3.7152e+00 -4.5091e+01  2.0888e+02 +/- 7.4524e+01 5.1323e+01 5.5305e+01 [bar]
Ideal-gas pressure:   5.180640e+02 +/ 9.087289e+00 [bar]
Excess pressure:     -3.401034e+02 +/ 5.232940e+01 [bar]
Pressure:             1.779607e+02 +/ 4.789156e+01 [bar]

Total potential energy/kʙ  -2.355161e+05 (-2.369326e+05 +/- 5.255945e+03) [K]
-------------------------------------------------------------------------------
ExternalField-molecule
    Van der Waals/kʙ        0.000000e+00 ( 0.000000e+00 +/- 0.000000e+00) [K]
Framework-molecule
    Van der Waals/kʙ        0.000000e+00 ( 0.000000e+00 +/- 0.000000e+00) [K]
    Van der Waals (Tail)/kʙ 0.000000e+00 ( 0.000000e+00 +/- 0.000000e+00) [K]
    Coulombic Real/kʙ       0.000000e+00 ( 0.000000e+00 +/- 0.000000e+00) [K]
    Coulombic Fourier/kʙ    0.000000e+00 ( 0.000000e+00 +/- 0.000000e+00) [K]
Molecule-molecule
    Van der Waals/kʙ       -1.683407e+05 (-1.688529e+05 +/- 3.291612e+03) [K]
    Van der Waals (Tail)/kʙ-7.244488e+03 (-7.219352e+03 +/- 1.235286e+02) [K]
    Coulombic Real/kʙ      -4.848762e+04 (-4.895793e+04 +/- 1.719075e+03) [K]
    Coulombic Fourier/kʙ   -1.144320e+04 (-1.190237e+04 +/- 3.681218e+02) [K]
    Molecule Intra/kʙ       0.000000e+00 ( 0.000000e+00 +/- 0.000000e+00) [K]

Current cycle: 4800 out of 5000
===============================================================================

Box:      21.92764   0.00000   0.00000  Average:  21.54882   0.00000   0.00000
           0.00000  21.92764   0.00000             0.00000  21.54882   0.00000
           0.00000   0.00000  21.92764             0.00000   0.00000  21.54882
Lengths:  21.92764  21.92764  21.92764  Average:  21.54882  21.54882  21.54882
Angles:   90.00000  90.00000  90.00000  Average:  90.00000  90.00000  90.00000
Rectangular boundary conditions

net charge:   0.00000000

component 0 (CO2) lambda:  0 occupancy:  1 (1.000000)
    net charge:   0.00000000 [e]

Amount of molecules per component :
-------------------------------------------------------------------------------
Component 0 (CO2)
    molecules:      1.500000e+02 molecules  (1.500000e+02 +/- 0.000000e+00)
    number density: 1.422706e-02 molec./A^3 (1.499759e-02 +/- 2.675023e-04)
    density:        1.039454e+03 kg/m^3     (1.095750e+03 +/- 1.954417e+01)

Average pressure tensor: 
-------------------------------------------------------------------------------
 1.3967e+02  1.4302e+01 -1.2440e+00 +/- 6.2366e+01 6.7085e+01 7.6583e+01 [bar]
 1.4302e+01  1.8075e+02 -4.7351e+01 +/- 6.7085e+01 1.3946e+02 5.1953e+01 [bar]
-1.2440e+00 -4.7351e+01  2.1692e+02 +/- 7.6583e+01 5.1953e+01 6.0558e+01 [bar]
Ideal-gas pressure:   5.176608e+02 +/ 9.233178e+00 [bar]
Excess pressure:     -3.385475e+02 +/ 4.865554e+01 [bar]
Pressure:             1.791133e+02 +/ 4.436181e+01 [bar]

Total potential energy/kʙ  -2.319450e+05 (-2.367859e+05 +/- 5.255364e+03) [K]
-------------------------------------------------------------------------------
ExternalField-molecule
    Van der Waals/kʙ        0.000000e+00 ( 0.000000e+00 +/- 0.000000e+00) [K]
Framework-molecule
    Van der Waals/kʙ        0.000000e+00 ( 0.000000e+00 +/- 0.000000e+00) [K]
    Van der Waals (Tail)/kʙ 0.000000e+00 ( 0.000000e+00 +/- 0.000000e+00) [K]
    Coulombic Real/kʙ       0.000000e+00 ( 0.000000e+00 +/- 0.000000e+00) [K]
    Coulombic Fourier/kʙ    0.000000e+00 ( 0.000000e+00 +/- 0.000000e+00) [K]
Molecule-molecule
    Van der Waals/kʙ       -1.647035e+05 (-1.687131e+05 +/- 3.313898e+03) [K]
    Van der Waals (Tail)/kʙ-6.847235e+03 (-7.213996e+03 +/- 1.257826e+02) [K]
    Coulombic Real/kʙ      -4.904925e+04 (-4.895922e+04 +/- 1.714954e+03) [K]
    Coulombic Fourier/kʙ   -1.134497e+04 (-1.189958e+04 +/- 3.679946e+02) [K]
    Molecule Intra/kʙ       0.000000e+00 ( 0.000000e+00 +/- 0.000000e+00) [K]

Current cycle: 4900 out of 5000
===============================================================================

Box:      21.85141   0.00000   0.00000  Average:  21.55365   0.00000   0.00000
           0.00000  21.85141   0.00000             0.00000  21.55365   0.00000
           0.00000   0.00000  21.85141             0.00000   0.00000  21.55365
Lengths:  21.85141  21.85141  21.85141  Average:  21.55365  21.55365  21.55365
Angles:   90.00000  90.00000  90.00000  Average:  90.00000  90.00000  90.00000
Rectangular boundary conditions

net charge:   0.00000000

component 0 (CO2) lambda:  0 occupancy:  1 (1.000000)
    net charge:   0.00000000 [e]

Amount of molecules per component :
-------------------------------------------------------------------------------
Component 0 (CO2)
    molecules:      1.500000e+02 molecules  (1.500000e+02 +/- 0.000000e+00)
    number density: 1.437649e-02 molec./A^3 (1.498761e-02 +/- 2.733030e-04)
    density:        1.050371e+03 kg/m^3     (1.095020e+03 +/- 1.996799e+01)

Average pressure tensor: 
-------------------------------------------------------------------------------
 1.4033e+02  1.1377e+01  1.1445e+00 +/- 5.5480e+01 7.0162e+01 7.8423e+01 [bar]
 1.1377e+01  1.7550e+02 -4.7572e+01 +/- 7.0162e+01 1.4270e+02 5.1938e+01 [bar]
 1.1445e+00 -4.7572e+01  2.1704e+02 +/- 7.8423e+01 5.1938e+01 5.9770e+01 [bar]
Ideal-gas pressure:   5.173162e+02 +/ 9.433397e+00 [bar]
Excess pressure:     -3.396907e+02 +/ 4.932652e+01 [bar]
Pressure:             1.776256e+02 +/ 4.559631e+01 [bar]

Total potential energy/kʙ  -2.246274e+05 (-2.366886e+05 +/- 5.274990e+03) [K]
-------------------------------------------------------------------------------
ExternalField-molecule
    Van der Waals/kʙ        0.000000e+00 ( 0.000000e+00 +/- 0.000000e+00) [K]
Framework-molecule
    Van der Waals/kʙ        0.000000e+00 ( 0.000000e+00 +/- 0.000000e+00) [K]
    Van der Waals (Tail)/kʙ 0.000000e+00 ( 0.000000e+00 +/- 0.000000e+00) [K]
    Coulombic Real/kʙ       0.000000e+00 ( 0.000000e+00 +/- 0.000000e+00) [K]
    Coulombic Fourier/kʙ    0.000000e+00 ( 0.000000e+00 +/- 0.000000e+00) [K]
Molecule-molecule
    Van der Waals/kʙ       -1.539244e+05 (-1.685745e+05 +/- 3.379732e+03) [K]
    Van der Waals (Tail)/kʙ-6.919150e+03 (-7.209237e+03 +/- 1.286927e+02) [K]
    Coulombic Real/kʙ      -5.141962e+04 (-4.900386e+04 +/- 1.734723e+03) [K]
    Coulombic Fourier/kʙ   -1.236425e+04 (-1.190102e+04 +/- 3.651371e+02) [K]
    Molecule Intra/kʙ       0.000000e+00 ( 0.000000e+00 +/- 0.000000e+00) [K]


Energy statistics             |  Energy [K]   | Recomputed [K]|  Drift [K]    |
===============================================================================
Total potential energy/kʙ     | -2.300915e+05 | -2.300915e+05 |  0.000000e+00 |
    external field VDW/kʙ     |  0.000000e+00 |  0.000000e+00 |  0.000000e+00 |
    external field Real/kʙ    |  0.000000e+00 |  0.000000e+00 |  0.000000e+00 |
    framework-molecule VDW/kʙ |  0.000000e+00 |  0.000000e+00 |  0.000000e+00 |
    framework-molecule Real/kʙ|  0.000000e+00 |  0.000000e+00 |  0.000000e+00 |
    molecule-molecule VDW/kʙ  | -1.674412e+05 | -1.674412e+05 |  0.000000e+00 |
    molecule-molecule Real/kʙ | -4.481107e+04 | -4.481107e+04 |  0.000000e+00 |
    Van der Waals (Tail)/kʙ   | -7.312880e+03 | -7.312880e+03 |  0.000000e+00 |
    Ewald Fourier/kʙ          |  1.126994e+04 |  1.126994e+04 |  0.000000e+00 |
    Ewald self/kʙ             | -3.334385e+06 | -3.334385e+06 |  0.000000e+00 |
    Ewald exclusion/kʙ        |  3.312589e+06 |  3.312589e+06 |  0.000000e+00 |
    intra VDW/kʙ              |  0.000000e+00 |  0.000000e+00 |  0.000000e+00 |
    intra Coulombic/kʙ        |  0.000000e+00 |  0.000000e+00 |  0.000000e+00 |
    polarization/kʙ           |  0.000000e+00 |  0.000000e+00 |  0.000000e+00 |
    dU/dlambda VDW/kʙ         |  0.000000e+00 |  0.000000e+00 |  0.000000e+00 |
    dU/dlambda Real/kʙ        |  0.000000e+00 |  0.000000e+00 |  0.000000e+00 |
    dU/dlambda Ewald/kʙ       |  0.000000e+00 |  0.000000e+00 |  0.000000e+00 |
-------------------------------------------------------------------------------


Monte-Carlo moves statistics
===============================================================================

    Volume change        all:                5108
    Volume change        total:              5108
    Volume change        constructed:        5108
    Volume change        accepted:           2938
    Volume change        fraction:       0.575176
    Volume change        max-change:     0.025000

Component 0 [CO2]
    Reinsertion (CBMC)   all:              247592
    Reinsertion (CBMC)   total:            247592
    Reinsertion (CBMC)   constructed:      212951
    Reinsertion (CBMC)   accepted:           2406
    Reinsertion (CBMC)   fraction:       0.009718
    Reinsertion (CBMC)   max-change:     0.000000

    Translation          all:              248484
    Translation          total:             82778      83012      82694
    Translation          constructed:       82778      81416      82694
    Translation          accepted:          40070      21816      43077
    Translation          fraction:       0.484066   0.262805   0.520921
    Translation          max-change:     0.672269   1.411765   0.600000

    Rotation             all:              248816
    Rotation             total:             82827      83422      82567
    Rotation             constructed:       82827      83422      82550
    Rotation             accepted:          41615      46514      31479
    Rotation             fraction:       0.502433   0.557575   0.381254
    Rotation             max-change:     0.666667   0.545455   0.988235



Production run counting of the MC moves summed over systems and components
===============================================================================

Volume change                          5108 (0.6811 [%])
Reinsertion (CBMC)                   247592 (33.0123 [%])
Translation                          248484 (33.1312 [%])
Rotation                             248816 (33.1755 [%])

Production count MC-steps:           750000 [-]
               All summed:           750000 [-]
               difference:                0 [-]


Production run CPU timings of the MC moves
===============================================================================

Component 0 CO2

Rotation                             35.293495 [s]
    Ewald                            18.607563 [s]
    ExternalField-Molecule            0.009194 [s]
    Framework-Molecule                0.008424 [s]
    Molecule-Molecule                15.181111 [s]
    Overhead                          1.487203 [s]

Reinsertion (CBMC)                  115.620800 [s]
    Ewald                            16.002293 [s]
    NonEwald                         99.391319 [s]
    Overhead                          0.227188 [s]

Translation                          35.019066 [s]
    Ewald                            18.465375 [s]
    ExternalField-Molecule            0.008403 [s]
    Framework-Molecule                0.014859 [s]
    Molecule-Molecule                15.215124 [s]
    Overhead                          1.315305 [s]



Volume change                         23.729181 [s]
    Ewald                             11.157804 [s]
    NonEwald                          11.762755 [s]
    Tail                               0.641299 [s]

Property sampling                     0.266292 [s]
Energy/pressure sampling:             5.154658 [s]


Production run CPU timings of the MC moves summed over systems and components
===============================================================================


Translation                          35.019066 [s]
    Ewald                            18.465375 [s]
    ExternalField-Molecule            0.008403 [s]
    Framework-Molecule                0.014859 [s]
    Molecule-Molecule                15.215124 [s]
    Overhead                          1.315305 [s]

Rotation                             35.293495 [s]
    Ewald                            18.607563 [s]
    ExternalField-Molecule            0.009194 [s]
    Framework-Molecule                0.008424 [s]
    Molecule-Molecule                15.181111 [s]
    Overhead                          1.487203 [s]

Volume change                        23.729181 [s]
    Ewald                            11.157804 [s]
    NonEwald                         11.762755 [s]
    Tail                              0.641299 [s]
    Overhead                          0.167323 [s]

Reinsertion (CBMC)                  115.620800 [s]
    Ewald                            16.002293 [s]
    NonEwald                         99.391319 [s]
    Overhead                          0.227188 [s]

Property sampling:                    0.266292 [s]
Energy/pressure sampling:             5.154658 [s]

Production simulation time:         215.666819 [s]
                All summed:         215.083492 [s]
                  Overhead:           0.583327 [s]


Initalization simulation time:       41.046121 [s]
Equilibration simulation time:        0.000000 [s]
Production simulation time:         215.666819 [s]
Total simulation time:              256.712940 [s]


Energy averages and statistics:
===============================================================================

Framework-molecule energy:
-------------------------------------------------------------------------------



Framework-molecule energy contributions per energy type:
-------------------------------------------------------------------------------



Inter-molecular energy:
-------------------------------------------------------------------------------

    Inter-molecular energy/kʙ 0-0 [CO2-CO2]:
    ---------------------------------------------------------------------------
        Block[  0] -2.374022e+05
        Block[  1] -2.427480e+05
        Block[  2] -2.308265e+05
        Block[  3] -2.364704e+05
        Block[  4] -2.355073e+05
        -----------------------------------------------------------------------
        Average  -2.365909e+05 +/-  5.302969e+03 [K]



Inter-molecular energy contributions per energy type:
-------------------------------------------------------------------------------

    Van der Waals energy/kʙ 0-0 [CO2-CO2]:
    ---------------------------------------------------------------------------
        Block[  0] -1.690229e+05
        Block[  1] -1.729007e+05
        Block[  2] -1.655983e+05
        Block[  3] -1.678045e+05
        Block[  4] -1.673320e+05
        -----------------------------------------------------------------------
        Average  -1.685317e+05 +/-  3.394354e+03 [K]

    VDW Tail-Correction energy/kʙ 0-0 [CO2-CO2]:
    ---------------------------------------------------------------------------
        Block[  0] -7.231842e+03
        Block[  1] -7.365755e+03
        Block[  2] -7.086879e+03
        Block[  3] -7.201891e+03
        Block[  4] -7.147838e+03
        -----------------------------------------------------------------------
        Average  -7.206841e+03 +/-  1.298731e+02 [K]

    Coulomb Real energy/kʙ 0-0 [CO2-CO2]:
    ---------------------------------------------------------------------------
        Block[  0] -4.925044e+04
        Block[  1] -5.011176e+04
        Block[  2] -4.657649e+04
        Block[  3] -4.958952e+04
        Block[  4] -4.928682e+04
        -----------------------------------------------------------------------
        Average  -4.896301e+04 +/-  1.710685e+03 [K]

    Coulomb Fourier energy/kʙ 0-0 [CO2-CO2]:
    ---------------------------------------------------------------------------
        Block[  0] -1.189700e+04
        Block[  1] -1.236976e+04
        Block[  2] -1.156487e+04
        Block[  3] -1.187453e+04
        Block[  4] -1.174062e+04
        -----------------------------------------------------------------------
        Average  -1.188936e+04 +/-  3.716535e+02 [K]


Total energy/kʙ
-------------------------------------------------------------------------------
    Block[  0] -2.374022e+05
    Block[  1] -2.427480e+05
    Block[  2] -2.308265e+05
    Block[  3] -2.364704e+05
    Block[  4] -2.355073e+05
    ---------------------------------------------------------------------------
    Average  -2.365909e+05 +/-  5.302969e+03 [K]

Pressure averages and statistics:
===============================================================================

Average pressure tensor: 
-------------------------------------------------------------------------------
 1.4021e+02  1.0113e+01  3.9308e+00 +/- 5.2095e+01 6.9341e+01 8.0741e+01 [bar]
 1.0113e+01  1.7224e+02 -4.4595e+01 +/- 6.9341e+01 1.4445e+02 5.1328e+01 [bar]
 3.9308e+00 -4.4595e+01  2.1649e+02 +/- 8.0741e+01 5.1328e+01 5.8565e+01 [bar]

    Block[  0]  5.186207e+07
    Block[  1]  5.290841e+07
    Block[  2]  5.086174e+07
    Block[  3]  5.163292e+07
    Block[  4]  5.131211e+07
    ---------------------------------------------------------------------------
    Ideal gas pressure   5.171545e+07 +/-  5.721880e-02 [Pa]
                         5.171545e+02 +/-  9.501411e+00 [bar]


    Block[  0] -3.003843e+07
    Block[  1] -3.927577e+07
    Block[  2] -3.301025e+07
    Block[  3] -3.085808e+07
    Block[  4] -3.723743e+07
    ---------------------------------------------------------------------------
    Excess pressure  -3.408399e+07 +/-  4.997754e+06 [Pa]
                     -3.408399e+02 +/-  4.997754e+01 [bar]


    Block[  0]  2.182364e+07
    Block[  1]  1.363264e+07
    Block[  2]  1.785148e+07
    Block[  3]  2.077484e+07
    Block[  4]  1.407468e+07
    ---------------------------------------------------------------------------
    Pressure average   1.763145e+07 +/-  4.651144e+06 [Pa]
                       1.763145e+02 +/-  4.651144e+01 [bar]


Enthalpy of adsorption
===============================================================================

No fluctuating components present.


Densities
===============================================================================

Component 0 (CO2)
    Block[  0] 150
    Block[  1] 150
    Block[  2] 150
    Block[  3] 150
    Block[  4] 150
    -----------------------------------------------------------------------
    Density average   1.500000e+02 +/-  0.000000e+00 [molecules]
    Density average   1.498292e-02 +/-  2.752735e-04 [molec/A^3]
    Density average   1.094678e+03 +/-  2.011195e+01 [kg.m⁻³]

