Compiler and run-time data
===============================================================================
RASPA 3.0.4

Random seed: 3273894720

Compiled as a 64-bits application
Compiler: gcc Clang 18.1.8
Compile Date = Mar 15 2025, Compile Time = 19:38:51

2025-06-03 15:10:37.491046
Simulation started on Tue, Jun 03
The start time was 15:10:00

Hostname:    1NNMVV3
OS type:     Linux on x86_64
OS release:  5.15.167.4-microsoft-standard-WSL2
OS version:  #1 SMP Tue Nov 5 00:21:55 UTC 2024


Mutual consistent basic set of units:
===============================================================================

Unit of temperature: 1 [K]
Unit of length:      1e-10 [m]
Unit of time:        1e-12 [s]
Unit of mass:        1.6605402e-27 [kg]
Unit of charge:      1.60217733e-19 [C/particle]


Boltzmann constant (internal units):          0.8314464919307584 [-]
represents conversion from energy (internal units) to temperature (in Kelvin)

Derived units and their conversion factors:
===============================================================================

Unit of energy:                           1.6605402000000002e-23 [J]
Unit of energy:                           10.000008872307538 [J.mol⁻¹]
Unit of velocity:                         100 [m.s⁻¹]
Unit of force:                            1.6605402000000002e-13 [N]
Unit of diffusion:                        1.0000000000000002e-08 [m².s⁻¹]
Unit of acceleration:                     1.0000000000000002e-08 [m².s⁻¹]
Unit of torque:                           1.6605402000000002e-23 [N.m]
Unit of pressure:                         16605402 [Pa]
Unit of volume:                           1e-30 [m³]
Unit of density:                          1660.5402 [kg.m⁻³]
Unit of dynamic viscosity:                1.6605401999999997e-05 [N.s.m⁻²]
Unit of enthalpy:                         1.6605402000000002e-23 [J]
Unit of polarizability:                   1.5458657349975198e-35 [-]
Unit of Coulomb potential:                167101.08000665612 [K]
Unit of dielectric constant:              1.5458657349975193e-05 [s².C².kg⁻¹.m⁻³]
Unit of dipole moment:                    1.60217733e-29 [C.m]
Unit of Debye:                            4.803206799099162 [C.m]
Unit of electric potential:               0.00010364272224473431 [V]
Unit of electric field:                   1036427.222447343 [V.m⁻¹]
Unit of isothermal compressibility:       6.02213665167516e-08 [Pa⁻¹]
Unit of heat capacity:                    10.000008872307538 [J.mol⁻¹.K⁻¹]
Unit of volumetric expansion coefficient: 1 [K⁻¹]


Internal conversion factors:
===============================================================================

Energy (internal units) to Kelvin:      1.202724284692786 [-]
Kelvin to energy (internal units):      0.8314457542157567 [-]


System definitions
===============================================================================

Temperature:          250 [K]
Beta:                 0.0048108928702210625 [-]
Pressure:             2e+07 [Pa]
Helium void fraction: 1 [-]

Box:      30.00000   0.00000   0.00000
           0.00000  30.00000   0.00000
           0.00000   0.00000  30.00000
Lengths:  30.00000  30.00000  30.00000
Angles:   90.00000  90.00000  90.00000
Rectangular boundary conditions



Property measurement settings
===============================================================================




Pseudo-atoms
===============================================================================

  0 - C_co2    framework-atom: false
  1 - O_co2    framework-atom: false

  0 - C_co2    mass: 12.00000, charge:  0.70000
  1 - O_co2    mass: 15.99940, charge: -0.35000

  0 - C_co2    polarizability:  0.00000
  1 - O_co2    polarizability:  0.00000

  0 - J. J. Potoff et al., AIChE J. 2001, 47, 1676–1682.
  1 - J. J. Potoff et al., AIChE J. 2001, 47, 1676–1682.

Force field status
===============================================================================

Cutoff Framework-Molecule VDW:  10.00000 [Å]
Cutoff Molecule-Molecule VDW:   10.00000 [Å]
Cutoff Coulomb:                 10.00000 [Å]

Overlap-criteria VDW:           1.000000e+05 [K]

C_co2    - C_co2    Lennard-Jones p₀/kʙ:  27.00000 [K], p₁:  2.80000 [Å]
                                  shift:   0.00000 [K], tailcorrections: true
C_co2    - O_co2    Lennard-Jones p₀/kʙ:  46.18441 [K], p₁:  2.92500 [Å]
                                  shift:   0.00000 [K], tailcorrections: true
O_co2    - O_co2    Lennard-Jones p₀/kʙ:  79.00000 [K], p₁:  3.05000 [Å]
                                  shift:   0.00000 [K], tailcorrections: true

Ewald precision: 1e-06
Ewald alpha: 0.32079885109097883
Ewald k-vectors: 10 10 10


Component definitions
===============================================================================

Component 0 [CO2]

    Type: Adsorbate

    Critical temperature:  304.1282 [K]
    Critical pressure:     7377300 [Pa]
    Acentric factor:       0.22394 [-]

    Mol-fraction:                 1 [-]
    Swappable:                   false

    Mass:                         43.9988 [-]
    Bulk fluid density:           0 [-]
    Compressibility:              0 [-]
    Excess molecules:             0 [-]

    Number Of Atoms:    3
    CBMC starting bead: 0
      0: O_co2  position  0.00000 -0.00000  1.16000, charge -0.35000
      1: C_co2  position  0.00000 -0.00000  0.00000, charge  0.70000
      2: O_co2  position  0.00000 -0.00000 -1.16000, charge -0.35000
    Diagonalized inertia-vector:      43.05758528 43.05758528 0.00000000
    Translational degrees of freedom: 3
    Rotational degrees of freedom:    2
    Shape of the molecule is: 'Linear'
    Net-charge:        0.00000000 [e]

    Move probabilities:
    Translation:                   0.331126 [-]
    Random translation:            0.000000 [-]
    Rotation:                      0.331126 [-]
    Random rotation:               0.000000 [-]
    Volume change:                 0.006623 [-]
    Reinsertion (CBMC):            0.331126 [-]
    Identity change (CBMC):        0.000000 [-]
    Swap:                          0.000000 [-]
    Swap (CBMC):                   0.000000 [-]
    Swap (CFCMC):                  0.000000 [-]
    Swap (CB/CFCMC):               0.000000 [-]
    Gibbs volume:                  0.000000 [-]
    Gibbs swap (CBMC):             0.000000 [-]
    Gibbs swap (CFCMC):            0.000000 [-]
    Widom:                         0.000000 [-]
    Widom (CFCMC):                 0.000000 [-]
    Widom (CB/CFCMC):              0.000000 [-]
    Parallel tempering:            0.000000 [-]
    Hybrid MC:                     0.000000 [-]

    number of blocking-pockets: 0

    number of bonds: 0





Number of pseudo-atoms
===============================================================================

Component   0 (CO2)
-------------------------------------------------------------------------------
    index   0 (C_co2): 150 atoms
    index   1 (O_co2): 300 atoms

Total number of pseudo-atoms:
-------------------------------------------------------------------------------
    index   0 (C_co2): 150 atoms
    index   1 (O_co2): 300 atoms




Energy status Recomputed from scratch
===============================================================================

Total potential energy/kʙ       -4.667017e+04 [K]
    external field VDW/kʙ        0.000000e+00 [K]
    external field Real/kʙ       0.000000e+00 [K]
    framework-molecule VDW/kʙ    0.000000e+00 [K]
    framework-molecule Real/kʙ   0.000000e+00 [K]
    molecule-molecule VDW/kʙ    -3.201442e+04 [K]
    molecule-molecule Real/kʙ   -1.032970e+04 [K]
    Van der Waals (Tail)/kʙ     -2.673791e+03 [K]
    Ewald Fourier/kʙ             2.014403e+04 [K]
    Ewald self/kʙ               -3.334385e+06 [K]
    Ewald exclusion/kʙ           3.312589e+06 [K]
    intra VDW/kʙ                 0.000000e+00 [K]
    intra Coulombic/kʙ           0.000000e+00 [K]
    polarization/kʙ              0.000000e+00 [K]
    dU/dlambda VDW/kʙ            0.000000e+00 [K]
    dU/dlambda Real/kʙ           0.000000e+00 [K]
    dU/dlambda Ewald/kʙ          0.000000e+00 [K]





Initialization: Current cycle: 0 out of 1000
===============================================================================

Box:      30.00000   0.00000   0.00000
           0.00000  30.00000   0.00000
           0.00000   0.00000  30.00000
Lengths:  30.00000  30.00000  30.00000
Angles:   90.00000  90.00000  90.00000
Rectangular boundary conditions

net charge:   0.00000000

component   0 (CO2) lambda:  0 occupancy:  1 (1.000000)
    net charge:   0.00000000 [e]

Amount of molecules per component :
-------------------------------------------------------------------------------
Component 0 (CO2)
    molecules:         1.500000e+02 molecules
    number density:    5.555556e-03 molec/A^3
    density:           4.058984e+02 kg/m^3

Total potential energy/kʙ       -5.046489e+04 [K]
-------------------------------------------------------------------------------
    external field VDW/kʙ        0.000000e+00 [K]
    external field Real/kʙ       0.000000e+00 [K]
    framework-molecule VDW/kʙ    0.000000e+00 [K]
    framework-molecule Real/kʙ   0.000000e+00 [K]
    molecule-molecule VDW/kʙ    -3.441828e+04 [K]
    molecule-molecule Real/kʙ   -1.088136e+04 [K]
    Van der Waals (Tail)/kʙ     -2.673791e+03 [K]
    Ewald Fourier/kʙ             1.930481e+04 [K]
    Ewald self/kʙ               -3.334385e+06 [K]
    Ewald exclusion/kʙ           3.312589e+06 [K]
    intra VDW/kʙ                 0.000000e+00 [K]
    intra Coulombic/kʙ           0.000000e+00 [K]
    polarization/kʙ              0.000000e+00 [K]
    dU/dlambda VDW/kʙ            0.000000e+00 [K]
    dU/dlambda Real/kʙ           0.000000e+00 [K]
    dU/dlambda Ewald/kʙ          0.000000e+00 [K]


Initialization: Current cycle: 100 out of 1000
===============================================================================

Box:      26.59781   0.00000   0.00000
           0.00000  26.59781   0.00000
           0.00000   0.00000  26.59781
Lengths:  26.59781  26.59781  26.59781
Angles:   90.00000  90.00000  90.00000
Rectangular boundary conditions

net charge:   0.00000000

component   0 (CO2) lambda:  0 occupancy:  1 (1.000000)
    net charge:   0.00000000 [e]

Amount of molecules per component :
-------------------------------------------------------------------------------
Component 0 (CO2)
    molecules:         1.500000e+02 molecules
    number density:    7.971745e-03 molec/A^3
    density:           5.824293e+02 kg/m^3

Total potential energy/kʙ       -1.349391e+05 [K]
-------------------------------------------------------------------------------
    external field VDW/kʙ        0.000000e+00 [K]
    external field Real/kʙ       0.000000e+00 [K]
    framework-molecule VDW/kʙ    0.000000e+00 [K]
    framework-molecule Real/kʙ   0.000000e+00 [K]
    molecule-molecule VDW/kʙ    -9.828845e+04 [K]
    molecule-molecule Real/kʙ   -2.620915e+04 [K]
    Van der Waals (Tail)/kʙ     -3.836660e+03 [K]
    Ewald Fourier/kʙ             1.519141e+04 [K]
    Ewald self/kʙ               -3.334385e+06 [K]
    Ewald exclusion/kʙ           3.312589e+06 [K]
    intra VDW/kʙ                 0.000000e+00 [K]
    intra Coulombic/kʙ           0.000000e+00 [K]
    polarization/kʙ              0.000000e+00 [K]
    dU/dlambda VDW/kʙ            0.000000e+00 [K]
    dU/dlambda Real/kʙ           0.000000e+00 [K]
    dU/dlambda Ewald/kʙ          0.000000e+00 [K]


Initialization: Current cycle: 200 out of 1000
===============================================================================

Box:      24.28947   0.00000   0.00000
           0.00000  24.28947   0.00000
           0.00000   0.00000  24.28947
Lengths:  24.28947  24.28947  24.28947
Angles:   90.00000  90.00000  90.00000
Rectangular boundary conditions

net charge:   0.00000000

component   0 (CO2) lambda:  0 occupancy:  1 (1.000000)
    net charge:   0.00000000 [e]

Amount of molecules per component :
-------------------------------------------------------------------------------
Component 0 (CO2)
    molecules:         1.500000e+02 molecules
    number density:    1.046737e-02 molec/A^3
    density:           7.647636e+02 kg/m^3

Total potential energy/kʙ       -1.704939e+05 [K]
-------------------------------------------------------------------------------
    external field VDW/kʙ        0.000000e+00 [K]
    external field Real/kʙ       0.000000e+00 [K]
    framework-molecule VDW/kʙ    0.000000e+00 [K]
    framework-molecule Real/kʙ   0.000000e+00 [K]
    molecule-molecule VDW/kʙ    -1.196174e+05 [K]
    molecule-molecule Real/kʙ   -3.638832e+04 [K]
    Van der Waals (Tail)/kʙ     -5.037758e+03 [K]
    Ewald Fourier/kʙ             1.234589e+04 [K]
    Ewald self/kʙ               -3.334385e+06 [K]
    Ewald exclusion/kʙ           3.312589e+06 [K]
    intra VDW/kʙ                 0.000000e+00 [K]
    intra Coulombic/kʙ           0.000000e+00 [K]
    polarization/kʙ              0.000000e+00 [K]
    dU/dlambda VDW/kʙ            0.000000e+00 [K]
    dU/dlambda Real/kʙ           0.000000e+00 [K]
    dU/dlambda Ewald/kʙ          0.000000e+00 [K]


Initialization: Current cycle: 300 out of 1000
===============================================================================

Box:      22.38107   0.00000   0.00000
           0.00000  22.38107   0.00000
           0.00000   0.00000  22.38107
Lengths:  22.38107  22.38107  22.38107
Angles:   90.00000  90.00000  90.00000
Rectangular boundary conditions

net charge:   0.00000000

component   0 (CO2) lambda:  0 occupancy:  1 (1.000000)
    net charge:   0.00000000 [e]

Amount of molecules per component :
-------------------------------------------------------------------------------
Component 0 (CO2)
    molecules:         1.500000e+02 molecules
    number density:    1.337977e-02 molec/A^3
    density:           9.775488e+02 kg/m^3

Total potential energy/kʙ       -2.072006e+05 [K]
-------------------------------------------------------------------------------
    external field VDW/kʙ        0.000000e+00 [K]
    external field Real/kʙ       0.000000e+00 [K]
    framework-molecule VDW/kʙ    0.000000e+00 [K]
    framework-molecule Real/kʙ   0.000000e+00 [K]
    molecule-molecule VDW/kʙ    -1.479927e+05 [K]
    molecule-molecule Real/kʙ   -4.248615e+04 [K]
    Van der Waals (Tail)/kʙ     -6.439446e+03 [K]
    Ewald Fourier/kʙ             1.151395e+04 [K]
    Ewald self/kʙ               -3.334385e+06 [K]
    Ewald exclusion/kʙ           3.312589e+06 [K]
    intra VDW/kʙ                 0.000000e+00 [K]
    intra Coulombic/kʙ           0.000000e+00 [K]
    polarization/kʙ              0.000000e+00 [K]
    dU/dlambda VDW/kʙ            0.000000e+00 [K]
    dU/dlambda Real/kʙ           0.000000e+00 [K]
    dU/dlambda Ewald/kʙ          0.000000e+00 [K]


Initialization: Current cycle: 400 out of 1000
===============================================================================

Box:      22.22266   0.00000   0.00000
           0.00000  22.22266   0.00000
           0.00000   0.00000  22.22266
Lengths:  22.22266  22.22266  22.22266
Angles:   90.00000  90.00000  90.00000
Rectangular boundary conditions

net charge:   0.00000000

component   0 (CO2) lambda:  0 occupancy:  1 (1.000000)
    net charge:   0.00000000 [e]

Amount of molecules per component :
-------------------------------------------------------------------------------
Component 0 (CO2)
    molecules:         1.500000e+02 molecules
    number density:    1.366793e-02 molec/A^3
    density:           9.986026e+02 kg/m^3

Total potential energy/kʙ       -2.146701e+05 [K]
-------------------------------------------------------------------------------
    external field VDW/kʙ        0.000000e+00 [K]
    external field Real/kʙ       0.000000e+00 [K]
    framework-molecule VDW/kʙ    0.000000e+00 [K]
    framework-molecule Real/kʙ   0.000000e+00 [K]
    molecule-molecule VDW/kʙ    -1.573331e+05 [K]
    molecule-molecule Real/kʙ   -3.995014e+04 [K]
    Van der Waals (Tail)/kʙ     -6.578135e+03 [K]
    Ewald Fourier/kʙ             1.098752e+04 [K]
    Ewald self/kʙ               -3.334385e+06 [K]
    Ewald exclusion/kʙ           3.312589e+06 [K]
    intra VDW/kʙ                 0.000000e+00 [K]
    intra Coulombic/kʙ           0.000000e+00 [K]
    polarization/kʙ              0.000000e+00 [K]
    dU/dlambda VDW/kʙ            0.000000e+00 [K]
    dU/dlambda Real/kʙ           0.000000e+00 [K]
    dU/dlambda Ewald/kʙ          0.000000e+00 [K]


Initialization: Current cycle: 500 out of 1000
===============================================================================

Box:      21.69642   0.00000   0.00000
           0.00000  21.69642   0.00000
           0.00000   0.00000  21.69642
Lengths:  21.69642  21.69642  21.69642
Angles:   90.00000  90.00000  90.00000
Rectangular boundary conditions

net charge:   0.00000000

component   0 (CO2) lambda:  0 occupancy:  1 (1.000000)
    net charge:   0.00000000 [e]

Amount of molecules per component :
-------------------------------------------------------------------------------
Component 0 (CO2)
    molecules:         1.500000e+02 molecules
    number density:    1.468680e-02 molec/A^3
    density:           1.073043e+03 kg/m^3

Total potential energy/kʙ       -2.264818e+05 [K]
-------------------------------------------------------------------------------
    external field VDW/kʙ        0.000000e+00 [K]
    external field Real/kʙ       0.000000e+00 [K]
    framework-molecule VDW/kʙ    0.000000e+00 [K]
    framework-molecule Real/kʙ   0.000000e+00 [K]
    molecule-molecule VDW/kʙ    -1.640944e+05 [K]
    molecule-molecule Real/kʙ   -4.392958e+04 [K]
    Van der Waals (Tail)/kʙ     -7.068498e+03 [K]
    Ewald Fourier/kʙ             1.040702e+04 [K]
    Ewald self/kʙ               -3.334385e+06 [K]
    Ewald exclusion/kʙ           3.312589e+06 [K]
    intra VDW/kʙ                 0.000000e+00 [K]
    intra Coulombic/kʙ           0.000000e+00 [K]
    polarization/kʙ              0.000000e+00 [K]
    dU/dlambda VDW/kʙ            0.000000e+00 [K]
    dU/dlambda Real/kʙ           0.000000e+00 [K]
    dU/dlambda Ewald/kʙ          0.000000e+00 [K]


Initialization: Current cycle: 600 out of 1000
===============================================================================

Box:      21.66022   0.00000   0.00000
           0.00000  21.66022   0.00000
           0.00000   0.00000  21.66022
Lengths:  21.66022  21.66022  21.66022
Angles:   90.00000  90.00000  90.00000
Rectangular boundary conditions

net charge:   0.00000000

component   0 (CO2) lambda:  0 occupancy:  1 (1.000000)
    net charge:   0.00000000 [e]

Amount of molecules per component :
-------------------------------------------------------------------------------
Component 0 (CO2)
    molecules:         1.500000e+02 molecules
    number density:    1.476055e-02 molec/A^3
    density:           1.078431e+03 kg/m^3

Total potential energy/kʙ       -2.273312e+05 [K]
-------------------------------------------------------------------------------
    external field VDW/kʙ        0.000000e+00 [K]
    external field Real/kʙ       0.000000e+00 [K]
    framework-molecule VDW/kʙ    0.000000e+00 [K]
    framework-molecule Real/kʙ   0.000000e+00 [K]
    molecule-molecule VDW/kʙ    -1.667323e+05 [K]
    molecule-molecule Real/kʙ   -4.309087e+04 [K]
    Van der Waals (Tail)/kʙ     -7.103995e+03 [K]
    Ewald Fourier/kʙ             1.139226e+04 [K]
    Ewald self/kʙ               -3.334385e+06 [K]
    Ewald exclusion/kʙ           3.312589e+06 [K]
    intra VDW/kʙ                 0.000000e+00 [K]
    intra Coulombic/kʙ           0.000000e+00 [K]
    polarization/kʙ              0.000000e+00 [K]
    dU/dlambda VDW/kʙ            0.000000e+00 [K]
    dU/dlambda Real/kʙ           0.000000e+00 [K]
    dU/dlambda Ewald/kʙ          0.000000e+00 [K]


Initialization: Current cycle: 700 out of 1000
===============================================================================

Box:      21.90961   0.00000   0.00000
           0.00000  21.90961   0.00000
           0.00000   0.00000  21.90961
Lengths:  21.90961  21.90961  21.90961
Angles:   90.00000  90.00000  90.00000
Rectangular boundary conditions

net charge:   0.00000000

component   0 (CO2) lambda:  0 occupancy:  1 (1.000000)
    net charge:   0.00000000 [e]

Amount of molecules per component :
-------------------------------------------------------------------------------
Component 0 (CO2)
    molecules:         1.500000e+02 molecules
    number density:    1.426223e-02 molec/A^3
    density:           1.042023e+03 kg/m^3

Total potential energy/kʙ       -2.267945e+05 [K]
-------------------------------------------------------------------------------
    external field VDW/kʙ        0.000000e+00 [K]
    external field Real/kʙ       0.000000e+00 [K]
    framework-molecule VDW/kʙ    0.000000e+00 [K]
    framework-molecule Real/kʙ   0.000000e+00 [K]
    molecule-molecule VDW/kʙ    -1.606362e+05 [K]
    molecule-molecule Real/kʙ   -4.731456e+04 [K]
    Van der Waals (Tail)/kʙ     -6.864161e+03 [K]
    Ewald Fourier/kʙ             9.816752e+03 [K]
    Ewald self/kʙ               -3.334385e+06 [K]
    Ewald exclusion/kʙ           3.312589e+06 [K]
    intra VDW/kʙ                 0.000000e+00 [K]
    intra Coulombic/kʙ           0.000000e+00 [K]
    polarization/kʙ              0.000000e+00 [K]
    dU/dlambda VDW/kʙ            0.000000e+00 [K]
    dU/dlambda Real/kʙ           0.000000e+00 [K]
    dU/dlambda Ewald/kʙ          0.000000e+00 [K]


Initialization: Current cycle: 800 out of 1000
===============================================================================

Box:      21.65655   0.00000   0.00000
           0.00000  21.65655   0.00000
           0.00000   0.00000  21.65655
Lengths:  21.65655  21.65655  21.65655
Angles:   90.00000  90.00000  90.00000
Rectangular boundary conditions

net charge:   0.00000000

component   0 (CO2) lambda:  0 occupancy:  1 (1.000000)
    net charge:   0.00000000 [e]

Amount of molecules per component :
-------------------------------------------------------------------------------
Component 0 (CO2)
    molecules:         1.500000e+02 molecules
    number density:    1.476805e-02 molec/A^3
    density:           1.078979e+03 kg/m^3

Total potential energy/kʙ       -2.319031e+05 [K]
-------------------------------------------------------------------------------
    external field VDW/kʙ        0.000000e+00 [K]
    external field Real/kʙ       0.000000e+00 [K]
    framework-molecule VDW/kʙ    0.000000e+00 [K]
    framework-molecule Real/kʙ   0.000000e+00 [K]
    molecule-molecule VDW/kʙ    -1.591542e+05 [K]
    molecule-molecule Real/kʙ   -5.347234e+04 [K]
    Van der Waals (Tail)/kʙ     -7.107604e+03 [K]
    Ewald Fourier/kʙ             9.627327e+03 [K]
    Ewald self/kʙ               -3.334385e+06 [K]
    Ewald exclusion/kʙ           3.312589e+06 [K]
    intra VDW/kʙ                 0.000000e+00 [K]
    intra Coulombic/kʙ           0.000000e+00 [K]
    polarization/kʙ              0.000000e+00 [K]
    dU/dlambda VDW/kʙ            0.000000e+00 [K]
    dU/dlambda Real/kʙ           0.000000e+00 [K]
    dU/dlambda Ewald/kʙ          0.000000e+00 [K]


Initialization: Current cycle: 900 out of 1000
===============================================================================

Box:      21.64161   0.00000   0.00000
           0.00000  21.64161   0.00000
           0.00000   0.00000  21.64161
Lengths:  21.64161  21.64161  21.64161
Angles:   90.00000  90.00000  90.00000
Rectangular boundary conditions

net charge:   0.00000000

component   0 (CO2) lambda:  0 occupancy:  1 (1.000000)
    net charge:   0.00000000 [e]

Amount of molecules per component :
-------------------------------------------------------------------------------
Component 0 (CO2)
    molecules:         1.500000e+02 molecules
    number density:    1.479866e-02 molec/A^3
    density:           1.081215e+03 kg/m^3

Total potential energy/kʙ       -2.379835e+05 [K]
-------------------------------------------------------------------------------
    external field VDW/kʙ        0.000000e+00 [K]
    external field Real/kʙ       0.000000e+00 [K]
    framework-molecule VDW/kʙ    0.000000e+00 [K]
    framework-molecule Real/kʙ   0.000000e+00 [K]
    molecule-molecule VDW/kʙ    -1.658950e+05 [K]
    molecule-molecule Real/kʙ   -5.333089e+04 [K]
    Van der Waals (Tail)/kʙ     -7.122333e+03 [K]
    Ewald Fourier/kʙ             1.016094e+04 [K]
    Ewald self/kʙ               -3.334385e+06 [K]
    Ewald exclusion/kʙ           3.312589e+06 [K]
    intra VDW/kʙ                 0.000000e+00 [K]
    intra Coulombic/kʙ           0.000000e+00 [K]
    polarization/kʙ              0.000000e+00 [K]
    dU/dlambda VDW/kʙ            0.000000e+00 [K]
    dU/dlambda Real/kʙ           0.000000e+00 [K]
    dU/dlambda Ewald/kʙ          0.000000e+00 [K]


Current cycle: 0 out of 5000
===============================================================================

Box:      21.46381   0.00000   0.00000  Average:  21.46381   0.00000   0.00000
           0.00000  21.46381   0.00000             0.00000  21.46381   0.00000
           0.00000   0.00000  21.46381             0.00000   0.00000  21.46381
Lengths:  21.46381  21.46381  21.46381  Average:  21.46381  21.46381  21.46381
Angles:   90.00000  90.00000  90.00000  Average:  90.00000  90.00000  90.00000
Rectangular boundary conditions

net charge:   0.00000000

component 0 (CO2) lambda:  0 occupancy:  1 (1.000000)
    net charge:   0.00000000 [e]

Amount of molecules per component :
-------------------------------------------------------------------------------
Component 0 (CO2)
    molecules:      1.500000e+02 molecules  (1.500000e+02 +/- 0.000000e+00)
    number density: 1.516949e-02 molec./A^3 (1.516949e-02 +/- 0.000000e+00)
    density:        1.108309e+03 kg/m^3     (1.108309e+03 +/- 0.000000e+00)

Average pressure tensor: 
-------------------------------------------------------------------------------
 5.2359e+02  0.0000e+00  0.0000e+00 +/- 0.0000e+00 0.0000e+00 0.0000e+00 [bar]
 0.0000e+00  5.2359e+02  0.0000e+00 +/- 0.0000e+00 0.0000e+00 0.0000e+00 [bar]
 0.0000e+00  0.0000e+00  5.2359e+02 +/- 0.0000e+00 0.0000e+00 0.0000e+00 [bar]
Ideal-gas pressure:   5.235939e+02 +/ 0.000000e+00 [bar]
Excess pressure:      0.000000e+00 +/ 0.000000e+00 [bar]
Pressure:             5.235939e+02 +/ 0.000000e+00 [bar]

Total potential energy/kʙ  -2.343643e+05 (-2.343643e+05 +/- 0.000000e+00) [K]
-------------------------------------------------------------------------------
ExternalField-molecule
    Van der Waals/kʙ        0.000000e+00 ( 0.000000e+00 +/- 0.000000e+00) [K]
Framework-molecule
    Van der Waals/kʙ        0.000000e+00 ( 0.000000e+00 +/- 0.000000e+00) [K]
    Van der Waals (Tail)/kʙ 0.000000e+00 ( 0.000000e+00 +/- 0.000000e+00) [K]
    Coulombic Real/kʙ       0.000000e+00 ( 0.000000e+00 +/- 0.000000e+00) [K]
    Coulombic Fourier/kʙ    0.000000e+00 ( 0.000000e+00 +/- 0.000000e+00) [K]
Molecule-molecule
    Van der Waals/kʙ       -1.701969e+05 (-1.701969e+05 +/- 0.000000e+00) [K]
    Van der Waals (Tail)/kʙ-7.300806e+03 (-7.300806e+03 +/- 0.000000e+00) [K]
    Coulombic Real/kʙ      -4.553579e+04 (-4.553579e+04 +/- 0.000000e+00) [K]
    Coulombic Fourier/kʙ   -1.133076e+04 (-1.133076e+04 +/- 0.000000e+00) [K]
    Molecule Intra/kʙ       0.000000e+00 ( 0.000000e+00 +/- 0.000000e+00) [K]

Current cycle: 100 out of 5000
===============================================================================

Box:      21.35040   0.00000   0.00000  Average:  21.54977   0.00000   0.00000
           0.00000  21.35040   0.00000             0.00000  21.54977   0.00000
           0.00000   0.00000  21.35040             0.00000   0.00000  21.54977
Lengths:  21.35040  21.35040  21.35040  Average:  21.54977  21.54977  21.54977
Angles:   90.00000  90.00000  90.00000  Average:  90.00000  90.00000  90.00000
Rectangular boundary conditions

net charge:   0.00000000

component 0 (CO2) lambda:  0 occupancy:  1 (1.000000)
    net charge:   0.00000000 [e]

Amount of molecules per component :
-------------------------------------------------------------------------------
Component 0 (CO2)
    molecules:      1.500000e+02 molecules  (1.500000e+02 +/- 0.000000e+00)
    number density: 1.541251e-02 molec./A^3 (1.499034e-02 +/- 0.000000e+00)
    density:        1.126064e+03 kg/m^3     (1.095220e+03 +/- 0.000000e+00)

Average pressure tensor: 
-------------------------------------------------------------------------------
 5.0960e+02  1.9542e+02  1.8098e+02 +/- 0.0000e+00 0.0000e+00 0.0000e+00 [bar]
 1.9542e+02  7.9898e+01  1.0784e+02 +/- 0.0000e+00 0.0000e+00 0.0000e+00 [bar]
 1.8098e+02  1.0784e+02  4.3157e+02 +/- 0.0000e+00 0.0000e+00 0.0000e+00 [bar]
Ideal-gas pressure:   5.174104e+02 +/ 0.000000e+00 [bar]
Excess pressure:     -1.770562e+02 +/ 0.000000e+00 [bar]
Pressure:             3.403542e+02 +/ 0.000000e+00 [bar]

Total potential energy/kʙ  -2.439778e+05 (-2.349672e+05 +/- 0.000000e+00) [K]
-------------------------------------------------------------------------------
ExternalField-molecule
    Van der Waals/kʙ        0.000000e+00 ( 0.000000e+00 +/- 0.000000e+00) [K]
Framework-molecule
    Van der Waals/kʙ        0.000000e+00 ( 0.000000e+00 +/- 0.000000e+00) [K]
    Van der Waals (Tail)/kʙ 0.000000e+00 ( 0.000000e+00 +/- 0.000000e+00) [K]
    Coulombic Real/kʙ       0.000000e+00 ( 0.000000e+00 +/- 0.000000e+00) [K]
    Coulombic Fourier/kʙ    0.000000e+00 ( 0.000000e+00 +/- 0.000000e+00) [K]
Molecule-molecule
    Van der Waals/kʙ       -1.731360e+05 (-1.675808e+05 +/- 0.000000e+00) [K]
    Van der Waals (Tail)/kʙ-7.417768e+03 (-7.228317e+03 +/- 0.000000e+00) [K]
    Coulombic Real/kʙ      -5.151104e+04 (-4.852978e+04 +/- 0.000000e+00) [K]
    Coulombic Fourier/kʙ   -1.191298e+04 (-1.162833e+04 +/- 0.000000e+00) [K]
    Molecule Intra/kʙ       0.000000e+00 ( 0.000000e+00 +/- 0.000000e+00) [K]

Current cycle: 200 out of 5000
===============================================================================

Box:      21.95889   0.00000   0.00000  Average:  21.59329   0.00000   0.00000
           0.00000  21.95889   0.00000             0.00000  21.59329   0.00000
           0.00000   0.00000  21.95889             0.00000   0.00000  21.59329
Lengths:  21.95889  21.95889  21.95889  Average:  21.59329  21.59329  21.59329
Angles:   90.00000  90.00000  90.00000  Average:  90.00000  90.00000  90.00000
Rectangular boundary conditions

net charge:   0.00000000

component 0 (CO2) lambda:  0 occupancy:  1 (1.000000)
    net charge:   0.00000000 [e]

Amount of molecules per component :
-------------------------------------------------------------------------------
Component 0 (CO2)
    molecules:      1.500000e+02 molecules  (1.500000e+02 +/- 0.000000e+00)
    number density: 1.416643e-02 molec./A^3 (1.490532e-02 +/- 0.000000e+00)
    density:        1.035024e+03 kg/m^3     (1.089008e+03 +/- 0.000000e+00)

Average pressure tensor: 
-------------------------------------------------------------------------------
 3.0332e+02  5.4600e+01  1.6682e+02 +/- 0.0000e+00 0.0000e+00 0.0000e+00 [bar]
 5.4600e+01  2.2838e+02  2.5442e+01 +/- 0.0000e+00 0.0000e+00 0.0000e+00 [bar]
 1.6682e+02  2.5442e+01  2.6012e+02 +/- 0.0000e+00 0.0000e+00 0.0000e+00 [bar]
Ideal-gas pressure:   5.144758e+02 +/ 0.000000e+00 [bar]
Excess pressure:     -2.505373e+02 +/ 0.000000e+00 [bar]
Pressure:             2.639385e+02 +/ 0.000000e+00 [bar]

Total potential energy/kʙ  -2.256810e+05 (-2.350340e+05 +/- 0.000000e+00) [K]
-------------------------------------------------------------------------------
ExternalField-molecule
    Van der Waals/kʙ        0.000000e+00 ( 0.000000e+00 +/- 0.000000e+00) [K]
Framework-molecule
    Van der Waals/kʙ        0.000000e+00 ( 0.000000e+00 +/- 0.000000e+00) [K]
    Van der Waals (Tail)/kʙ 0.000000e+00 ( 0.000000e+00 +/- 0.000000e+00) [K]
    Coulombic Real/kʙ       0.000000e+00 ( 0.000000e+00 +/- 0.000000e+00) [K]
    Coulombic Fourier/kʙ    0.000000e+00 ( 0.000000e+00 +/- 0.000000e+00) [K]
Molecule-molecule
    Van der Waals/kʙ       -1.599769e+05 (-1.672813e+05 +/- 0.000000e+00) [K]
    Van der Waals (Tail)/kʙ-6.818052e+03 (-7.171723e+03 +/- 0.000000e+00) [K]
    Coulombic Real/kʙ      -4.711312e+04 (-4.889490e+04 +/- 0.000000e+00) [K]
    Coulombic Fourier/kʙ   -1.177289e+04 (-1.168610e+04 +/- 0.000000e+00) [K]
    Molecule Intra/kʙ       0.000000e+00 ( 0.000000e+00 +/- 0.000000e+00) [K]

Current cycle: 300 out of 5000
===============================================================================

Box:      21.87271   0.00000   0.00000  Average:  21.62142   0.00000   0.00000
           0.00000  21.87271   0.00000             0.00000  21.62142   0.00000
           0.00000   0.00000  21.87271             0.00000   0.00000  21.62142
Lengths:  21.87271  21.87271  21.87271  Average:  21.62142  21.62142  21.62142
Angles:   90.00000  90.00000  90.00000  Average:  90.00000  90.00000  90.00000
Rectangular boundary conditions

net charge:   0.00000000

component 0 (CO2) lambda:  0 occupancy:  1 (1.000000)
    net charge:   0.00000000 [e]

Amount of molecules per component :
-------------------------------------------------------------------------------
Component 0 (CO2)
    molecules:      1.500000e+02 molecules  (1.500000e+02 +/- 0.000000e+00)
    number density: 1.433452e-02 molec./A^3 (1.484615e-02 +/- 0.000000e+00)
    density:        1.047305e+03 kg/m^3     (1.084685e+03 +/- 0.000000e+00)

Average pressure tensor: 
-------------------------------------------------------------------------------
 3.2337e+02  2.1899e+01  1.2289e+02 +/- 0.0000e+00 0.0000e+00 0.0000e+00 [bar]
 2.1899e+01  2.5995e+02  1.3270e+01 +/- 0.0000e+00 0.0000e+00 0.0000e+00 [bar]
 1.2289e+02  1.3270e+01  3.0670e+02 +/- 0.0000e+00 0.0000e+00 0.0000e+00 [bar]
Ideal-gas pressure:   5.124334e+02 +/ 0.000000e+00 [bar]
Excess pressure:     -2.157594e+02 +/ 0.000000e+00 [bar]
Pressure:             2.966740e+02 +/ 0.000000e+00 [bar]

Total potential energy/kʙ  -2.240704e+05 (-2.334907e+05 +/- 0.000000e+00) [K]
-------------------------------------------------------------------------------
ExternalField-molecule
    Van der Waals/kʙ        0.000000e+00 ( 0.000000e+00 +/- 0.000000e+00) [K]
Framework-molecule
    Van der Waals/kʙ        0.000000e+00 ( 0.000000e+00 +/- 0.000000e+00) [K]
    Van der Waals (Tail)/kʙ 0.000000e+00 ( 0.000000e+00 +/- 0.000000e+00) [K]
    Coulombic Real/kʙ       0.000000e+00 ( 0.000000e+00 +/- 0.000000e+00) [K]
    Coulombic Fourier/kʙ    0.000000e+00 ( 0.000000e+00 +/- 0.000000e+00) [K]
Molecule-molecule
    Van der Waals/kʙ       -1.617190e+05 (-1.666314e+05 +/- 0.000000e+00) [K]
    Van der Waals (Tail)/kʙ-6.898953e+03 (-7.147864e+03 +/- 0.000000e+00) [K]
    Coulombic Real/kʙ      -4.356819e+04 (-4.805060e+04 +/- 0.000000e+00) [K]
    Coulombic Fourier/kʙ   -1.188425e+04 (-1.166081e+04 +/- 0.000000e+00) [K]
    Molecule Intra/kʙ       0.000000e+00 ( 0.000000e+00 +/- 0.000000e+00) [K]

Current cycle: 400 out of 5000
===============================================================================

Box:      22.10789   0.00000   0.00000  Average:  21.70158   0.00000   0.00000
           0.00000  22.10789   0.00000             0.00000  21.70158   0.00000
           0.00000   0.00000  22.10789             0.00000   0.00000  21.70158
Lengths:  22.10789  22.10789  22.10789  Average:  21.70158  21.70158  21.70158
Angles:   90.00000  90.00000  90.00000  Average:  90.00000  90.00000  90.00000
Rectangular boundary conditions

net charge:   0.00000000

component 0 (CO2) lambda:  0 occupancy:  1 (1.000000)
    net charge:   0.00000000 [e]

Amount of molecules per component :
-------------------------------------------------------------------------------
Component 0 (CO2)
    molecules:      1.500000e+02 molecules  (1.500000e+02 +/- 0.000000e+00)
    number density: 1.388192e-02 molec./A^3 (1.468484e-02 +/- 0.000000e+00)
    density:        1.014237e+03 kg/m^3     (1.072899e+03 +/- 0.000000e+00)

Average pressure tensor: 
-------------------------------------------------------------------------------
 2.4260e+02  4.9472e+01  9.9606e+01 +/- 0.0000e+00 0.0000e+00 0.0000e+00 [bar]
 4.9472e+01  1.9668e+02  5.8827e+01 +/- 0.0000e+00 0.0000e+00 0.0000e+00 [bar]
 9.9606e+01  5.8827e+01  2.9239e+02 +/- 0.0000e+00 0.0000e+00 0.0000e+00 [bar]
Ideal-gas pressure:   5.068657e+02 +/ 0.000000e+00 [bar]
Excess pressure:     -2.629768e+02 +/ 0.000000e+00 [bar]
Pressure:             2.438888e+02 +/ 0.000000e+00 [bar]

Total potential energy/kʙ  -2.183163e+05 (-2.307970e+05 +/- 0.000000e+00) [K]
-------------------------------------------------------------------------------
ExternalField-molecule
    Van der Waals/kʙ        0.000000e+00 ( 0.000000e+00 +/- 0.000000e+00) [K]
Framework-molecule
    Van der Waals/kʙ        0.000000e+00 ( 0.000000e+00 +/- 0.000000e+00) [K]
    Van der Waals (Tail)/kʙ 0.000000e+00 ( 0.000000e+00 +/- 0.000000e+00) [K]
    Coulombic Real/kʙ       0.000000e+00 ( 0.000000e+00 +/- 0.000000e+00) [K]
    Coulombic Fourier/kʙ    0.000000e+00 ( 0.000000e+00 +/- 0.000000e+00) [K]
Molecule-molecule
    Van der Waals/kʙ       -1.600262e+05 (-1.648377e+05 +/- 0.000000e+00) [K]
    Van der Waals (Tail)/kʙ-6.681123e+03 (-7.064638e+03 +/- 0.000000e+00) [K]
    Coulombic Real/kʙ      -4.088757e+04 (-4.742819e+04 +/- 0.000000e+00) [K]
    Coulombic Fourier/kʙ   -1.072142e+04 (-1.146650e+04 +/- 0.000000e+00) [K]
    Molecule Intra/kʙ       0.000000e+00 ( 0.000000e+00 +/- 0.000000e+00) [K]

Current cycle: 500 out of 5000
===============================================================================

Box:      21.80060   0.00000   0.00000  Average:  21.72531   0.00000   0.00000
           0.00000  21.80060   0.00000             0.00000  21.72531   0.00000
           0.00000   0.00000  21.80060             0.00000   0.00000  21.72531
Lengths:  21.80060  21.80060  21.80060  Average:  21.72531  21.72531  21.72531
Angles:   90.00000  90.00000  90.00000  Average:  90.00000  90.00000  90.00000
Rectangular boundary conditions

net charge:   0.00000000

component 0 (CO2) lambda:  0 occupancy:  1 (1.000000)
    net charge:   0.00000000 [e]

Amount of molecules per component :
-------------------------------------------------------------------------------
Component 0 (CO2)
    molecules:      1.500000e+02 molecules  (1.500000e+02 +/- 0.000000e+00)
    number density: 1.447725e-02 molec./A^3 (1.463584e-02 +/- 0.000000e+00)
    density:        1.057733e+03 kg/m^3     (1.069320e+03 +/- 0.000000e+00)

Average pressure tensor: 
-------------------------------------------------------------------------------
 1.3430e+02  3.5625e+01  6.5473e+01 +/- 0.0000e+00 0.0000e+00 0.0000e+00 [bar]
 3.5625e+01  2.3495e+02  4.4316e+01 +/- 0.0000e+00 0.0000e+00 0.0000e+00 [bar]
 6.5473e+01  4.4316e+01  2.6034e+02 +/- 0.0000e+00 0.0000e+00 0.0000e+00 [bar]
Ideal-gas pressure:   5.051746e+02 +/ 0.000000e+00 [bar]
Excess pressure:     -2.953087e+02 +/ 0.000000e+00 [bar]
Pressure:             2.098658e+02 +/ 0.000000e+00 [bar]

Total potential energy/kʙ  -2.285399e+05 (-2.297148e+05 +/- 0.000000e+00) [K]
-------------------------------------------------------------------------------
ExternalField-molecule
    Van der Waals/kʙ        0.000000e+00 ( 0.000000e+00 +/- 0.000000e+00) [K]
Framework-molecule
    Van der Waals/kʙ        0.000000e+00 ( 0.000000e+00 +/- 0.000000e+00) [K]
    Van der Waals (Tail)/kʙ 0.000000e+00 ( 0.000000e+00 +/- 0.000000e+00) [K]
    Coulombic Real/kʙ       0.000000e+00 ( 0.000000e+00 +/- 0.000000e+00) [K]
    Coulombic Fourier/kʙ    0.000000e+00 ( 0.000000e+00 +/- 0.000000e+00) [K]
Molecule-molecule
    Van der Waals/kʙ       -1.611890e+05 (-1.640728e+05 +/- 0.000000e+00) [K]
    Van der Waals (Tail)/kʙ-6.967647e+03 (-7.038247e+03 +/- 0.000000e+00) [K]
    Coulombic Real/kʙ      -4.975069e+04 (-4.729342e+04 +/- 0.000000e+00) [K]
    Coulombic Fourier/kʙ   -1.063262e+04 (-1.131043e+04 +/- 0.000000e+00) [K]
    Molecule Intra/kʙ       0.000000e+00 ( 0.000000e+00 +/- 0.000000e+00) [K]

Current cycle: 600 out of 5000
===============================================================================

Box:      21.79341   0.00000   0.00000  Average:  21.72087   0.00000   0.00000
           0.00000  21.79341   0.00000             0.00000  21.72087   0.00000
           0.00000   0.00000  21.79341             0.00000   0.00000  21.72087
Lengths:  21.79341  21.79341  21.79341  Average:  21.72087  21.72087  21.72087
Angles:   90.00000  90.00000  90.00000  Average:  90.00000  90.00000  90.00000
Rectangular boundary conditions

net charge:   0.00000000

component 0 (CO2) lambda:  0 occupancy:  1 (1.000000)
    net charge:   0.00000000 [e]

Amount of molecules per component :
-------------------------------------------------------------------------------
Component 0 (CO2)
    molecules:      1.500000e+02 molecules  (1.500000e+02 +/- 0.000000e+00)
    number density: 1.449157e-02 molec./A^3 (1.464391e-02 +/- 0.000000e+00)
    density:        1.058779e+03 kg/m^3     (1.069909e+03 +/- 0.000000e+00)

Average pressure tensor: 
-------------------------------------------------------------------------------
 9.0365e+01  4.2632e+01  4.7539e+01 +/- 0.0000e+00 0.0000e+00 0.0000e+00 [bar]
 4.2632e+01  2.5388e+02  5.8051e+01 +/- 0.0000e+00 0.0000e+00 0.0000e+00 [bar]
 4.7539e+01  5.8051e+01  2.6201e+02 +/- 0.0000e+00 0.0000e+00 0.0000e+00 [bar]
Ideal-gas pressure:   5.054528e+02 +/ 0.000000e+00 [bar]
Excess pressure:     -3.033695e+02 +/ 0.000000e+00 [bar]
Pressure:             2.020833e+02 +/ 0.000000e+00 [bar]

Total potential energy/kʙ  -2.342294e+05 (-2.304327e+05 +/- 0.000000e+00) [K]
-------------------------------------------------------------------------------
ExternalField-molecule
    Van der Waals/kʙ        0.000000e+00 ( 0.000000e+00 +/- 0.000000e+00) [K]
Framework-molecule
    Van der Waals/kʙ        0.000000e+00 ( 0.000000e+00 +/- 0.000000e+00) [K]
    Van der Waals (Tail)/kʙ 0.000000e+00 ( 0.000000e+00 +/- 0.000000e+00) [K]
    Coulombic Real/kʙ       0.000000e+00 ( 0.000000e+00 +/- 0.000000e+00) [K]
    Coulombic Fourier/kʙ    0.000000e+00 ( 0.000000e+00 +/- 0.000000e+00) [K]
Molecule-molecule
    Van der Waals/kʙ       -1.646430e+05 (-1.642587e+05 +/- 0.000000e+00) [K]
    Van der Waals (Tail)/kʙ-6.974539e+03 (-7.039754e+03 +/- 0.000000e+00) [K]
    Coulombic Real/kʙ      -5.030784e+04 (-4.784001e+04 +/- 0.000000e+00) [K]
    Coulombic Fourier/kʙ   -1.230406e+04 (-1.129430e+04 +/- 0.000000e+00) [K]
    Molecule Intra/kʙ       0.000000e+00 ( 0.000000e+00 +/- 0.000000e+00) [K]

Current cycle: 700 out of 5000
===============================================================================

Box:      21.51464   0.00000   0.00000  Average:  21.70353   0.00000   0.00000
           0.00000  21.51464   0.00000             0.00000  21.70353   0.00000
           0.00000   0.00000  21.51464             0.00000   0.00000  21.70353
Lengths:  21.51464  21.51464  21.51464  Average:  21.70353  21.70353  21.70353
Angles:   90.00000  90.00000  90.00000  Average:  90.00000  90.00000  90.00000
Rectangular boundary conditions

net charge:   0.00000000

component 0 (CO2) lambda:  0 occupancy:  1 (1.000000)
    net charge:   0.00000000 [e]

Amount of molecules per component :
-------------------------------------------------------------------------------
Component 0 (CO2)
    molecules:      1.500000e+02 molecules  (1.500000e+02 +/- 0.000000e+00)
    number density: 1.506222e-02 molec./A^3 (1.467868e-02 +/- 0.000000e+00)
    density:        1.100472e+03 kg/m^3     (1.072450e+03 +/- 0.000000e+00)

Average pressure tensor: 
-------------------------------------------------------------------------------
 9.6298e+01  3.0278e+01  2.3375e+01 +/- 0.0000e+00 0.0000e+00 0.0000e+00 [bar]
 3.0278e+01  2.2491e+02  5.2853e+01 +/- 0.0000e+00 0.0000e+00 0.0000e+00 [bar]
 2.3375e+01  5.2853e+01  2.7400e+02 +/- 0.0000e+00 0.0000e+00 0.0000e+00 [bar]
Ideal-gas pressure:   5.066532e+02 +/ 0.000000e+00 [bar]
Excess pressure:     -3.082488e+02 +/ 0.000000e+00 [bar]
Pressure:             1.984043e+02 +/ 0.000000e+00 [bar]

Total potential energy/kʙ  -2.360378e+05 (-2.316395e+05 +/- 0.000000e+00) [K]
-------------------------------------------------------------------------------
ExternalField-molecule
    Van der Waals/kʙ        0.000000e+00 ( 0.000000e+00 +/- 0.000000e+00) [K]
Framework-molecule
    Van der Waals/kʙ        0.000000e+00 ( 0.000000e+00 +/- 0.000000e+00) [K]
    Van der Waals (Tail)/kʙ 0.000000e+00 ( 0.000000e+00 +/- 0.000000e+00) [K]
    Coulombic Real/kʙ       0.000000e+00 ( 0.000000e+00 +/- 0.000000e+00) [K]
    Coulombic Fourier/kʙ    0.000000e+00 ( 0.000000e+00 +/- 0.000000e+00) [K]
Molecule-molecule
    Van der Waals/kʙ       -1.668700e+05 (-1.649318e+05 +/- 0.000000e+00) [K]
    Van der Waals (Tail)/kʙ-7.249183e+03 (-7.061267e+03 +/- 0.000000e+00) [K]
    Coulombic Real/kʙ      -5.019114e+04 (-4.828285e+04 +/- 0.000000e+00) [K]
    Coulombic Fourier/kʙ   -1.172745e+04 (-1.136353e+04 +/- 0.000000e+00) [K]
    Molecule Intra/kʙ       0.000000e+00 ( 0.000000e+00 +/- 0.000000e+00) [K]

Current cycle: 800 out of 5000
===============================================================================

Box:      21.78904   0.00000   0.00000  Average:  21.71710   0.00000   0.00000
           0.00000  21.78904   0.00000             0.00000  21.71710   0.00000
           0.00000   0.00000  21.78904             0.00000   0.00000  21.71710
Lengths:  21.78904  21.78904  21.78904  Average:  21.71710  21.71710  21.71710
Angles:   90.00000  90.00000  90.00000  Average:  90.00000  90.00000  90.00000
Rectangular boundary conditions

net charge:   0.00000000

component 0 (CO2) lambda:  0 occupancy:  1 (1.000000)
    net charge:   0.00000000 [e]

Amount of molecules per component :
-------------------------------------------------------------------------------
Component 0 (CO2)
    molecules:      1.500000e+02 molecules  (1.500000e+02 +/- 0.000000e+00)
    number density: 1.450029e-02 molec./A^3 (1.465085e-02 +/- 0.000000e+00)
    density:        1.059416e+03 kg/m^3     (1.070416e+03 +/- 0.000000e+00)

Average pressure tensor: 
-------------------------------------------------------------------------------
 1.2646e+02  8.8609e+00 -5.2064e+00 +/- 0.0000e+00 0.0000e+00 0.0000e+00 [bar]
 8.8609e+00  2.1153e+02  4.2603e+01 +/- 0.0000e+00 0.0000e+00 0.0000e+00 [bar]
-5.2064e+00  4.2603e+01  3.0834e+02 +/- 0.0000e+00 0.0000e+00 0.0000e+00 [bar]
Ideal-gas pressure:   5.056925e+02 +/ 0.000000e+00 [bar]
Excess pressure:     -2.902508e+02 +/ 0.000000e+00 [bar]
Pressure:             2.154417e+02 +/ 0.000000e+00 [bar]

Total potential energy/kʙ  -2.288930e+05 (-2.310088e+05 +/- 0.000000e+00) [K]
-------------------------------------------------------------------------------
ExternalField-molecule
    Van der Waals/kʙ        0.000000e+00 ( 0.000000e+00 +/- 0.000000e+00) [K]
Framework-molecule
    Van der Waals/kʙ        0.000000e+00 ( 0.000000e+00 +/- 0.000000e+00) [K]
    Van der Waals (Tail)/kʙ 0.000000e+00 ( 0.000000e+00 +/- 0.000000e+00) [K]
    Coulombic Real/kʙ       0.000000e+00 ( 0.000000e+00 +/- 0.000000e+00) [K]
    Coulombic Fourier/kʙ    0.000000e+00 ( 0.000000e+00 +/- 0.000000e+00) [K]
Molecule-molecule
    Van der Waals/kʙ       -1.644407e+05 (-1.645124e+05 +/- 0.000000e+00) [K]
    Van der Waals (Tail)/kʙ-6.978735e+03 (-7.050154e+03 +/- 0.000000e+00) [K]
    Coulombic Real/kʙ      -4.683865e+04 (-4.809790e+04 +/- 0.000000e+00) [K]
    Coulombic Fourier/kʙ   -1.063493e+04 (-1.134835e+04 +/- 0.000000e+00) [K]
    Molecule Intra/kʙ       0.000000e+00 ( 0.000000e+00 +/- 0.000000e+00) [K]

Current cycle: 900 out of 5000
===============================================================================

Box:      21.89622   0.00000   0.00000  Average:  21.74346   0.00000   0.00000
           0.00000  21.89622   0.00000             0.00000  21.74346   0.00000
           0.00000   0.00000  21.89622             0.00000   0.00000  21.74346
Lengths:  21.89622  21.89622  21.89622  Average:  21.74346  21.74346  21.74346
Angles:   90.00000  90.00000  90.00000  Average:  90.00000  90.00000  90.00000
Rectangular boundary conditions

net charge:   0.00000000

component 0 (CO2) lambda:  0 occupancy:  1 (1.000000)
    net charge:   0.00000000 [e]

Amount of molecules per component :
-------------------------------------------------------------------------------
Component 0 (CO2)
    molecules:      1.500000e+02 molecules  (1.500000e+02 +/- 0.000000e+00)
    number density: 1.428841e-02 molec./A^3 (1.459812e-02 +/- 0.000000e+00)
    density:        1.043936e+03 kg/m^3     (1.066564e+03 +/- 0.000000e+00)

Average pressure tensor: 
-------------------------------------------------------------------------------
 1.0150e+02  3.5636e-01 -1.1778e+01 +/- 0.0000e+00 0.0000e+00 0.0000e+00 [bar]
 3.5636e-01  1.8682e+02  3.3483e+01 +/- 0.0000e+00 0.0000e+00 0.0000e+00 [bar]
-1.1778e+01  3.3483e+01  3.0127e+02 +/- 0.0000e+00 0.0000e+00 0.0000e+00 [bar]
Ideal-gas pressure:   5.038726e+02 +/ 0.000000e+00 [bar]
Excess pressure:     -3.073428e+02 +/ 0.000000e+00 [bar]
Pressure:             1.965298e+02 +/ 0.000000e+00 [bar]

Total potential energy/kʙ  -2.288273e+05 (-2.304270e+05 +/- 0.000000e+00) [K]
-------------------------------------------------------------------------------
ExternalField-molecule
    Van der Waals/kʙ        0.000000e+00 ( 0.000000e+00 +/- 0.000000e+00) [K]
Framework-molecule
    Van der Waals/kʙ        0.000000e+00 ( 0.000000e+00 +/- 0.000000e+00) [K]
    Van der Waals (Tail)/kʙ 0.000000e+00 ( 0.000000e+00 +/- 0.000000e+00) [K]
    Coulombic Real/kʙ       0.000000e+00 ( 0.000000e+00 +/- 0.000000e+00) [K]
    Coulombic Fourier/kʙ    0.000000e+00 ( 0.000000e+00 +/- 0.000000e+00) [K]
Molecule-molecule
    Van der Waals/kʙ       -1.589010e+05 (-1.638819e+05 +/- 0.000000e+00) [K]
    Van der Waals (Tail)/kʙ-6.876759e+03 (-7.024996e+03 +/- 0.000000e+00) [K]
    Coulombic Real/kʙ      -5.171356e+04 (-4.811604e+04 +/- 0.000000e+00) [K]
    Coulombic Fourier/kʙ   -1.133600e+04 (-1.140405e+04 +/- 0.000000e+00) [K]
    Molecule Intra/kʙ       0.000000e+00 ( 0.000000e+00 +/- 0.000000e+00) [K]

Current cycle: 1000 out of 5000
===============================================================================

Box:      21.44572   0.00000   0.00000  Average:  21.75405   0.00000   0.00000
           0.00000  21.44572   0.00000             0.00000  21.75405   0.00000
           0.00000   0.00000  21.44572             0.00000   0.00000  21.75405
Lengths:  21.44572  21.44572  21.44572  Average:  21.75405  21.75405  21.75405
Angles:   90.00000  90.00000  90.00000  Average:  90.00000  90.00000  90.00000
Rectangular boundary conditions

net charge:   0.00000000

component 0 (CO2) lambda:  0 occupancy:  1 (1.000000)
    net charge:   0.00000000 [e]

Amount of molecules per component :
-------------------------------------------------------------------------------
Component 0 (CO2)
    molecules:      1.500000e+02 molecules  (1.500000e+02 +/- 0.000000e+00)
    number density: 1.520790e-02 molec./A^3 (1.457680e-02 +/- 0.000000e+00)
    density:        1.111115e+03 kg/m^3     (1.065006e+03 +/- 0.000000e+00)

Average pressure tensor: 
-------------------------------------------------------------------------------
 1.1571e+02 -1.0595e+01 -2.7929e+01 +/- 0.0000e+00 0.0000e+00 0.0000e+00 [bar]
-1.0595e+01  1.9422e+02  4.3576e+01 +/- 0.0000e+00 0.0000e+00 0.0000e+00 [bar]
-2.7929e+01  4.3576e+01  2.6950e+02 +/- 0.0000e+00 0.0000e+00 0.0000e+00 [bar]
Ideal-gas pressure:   5.031365e+02 +/ 0.000000e+00 [bar]
Excess pressure:     -3.099920e+02 +/ 0.000000e+00 [bar]
Pressure:             1.931445e+02 +/ 0.000000e+00 [bar]

Total potential energy/kʙ  -2.311663e+05 (-2.300695e+05 +/- 0.000000e+00) [K]
-------------------------------------------------------------------------------
ExternalField-molecule
    Van der Waals/kʙ        0.000000e+00 ( 0.000000e+00 +/- 0.000000e+00) [K]
Framework-molecule
    Van der Waals/kʙ        0.000000e+00 ( 0.000000e+00 +/- 0.000000e+00) [K]
    Van der Waals (Tail)/kʙ 0.000000e+00 ( 0.000000e+00 +/- 0.000000e+00) [K]
    Coulombic Real/kʙ       0.000000e+00 ( 0.000000e+00 +/- 0.000000e+00) [K]
    Coulombic Fourier/kʙ    0.000000e+00 ( 0.000000e+00 +/- 0.000000e+00) [K]
Molecule-molecule
    Van der Waals/kʙ       -1.655176e+05 (-1.635973e+05 +/- 0.000000e+00) [K]
    Van der Waals (Tail)/kʙ-7.319294e+03 (-7.016888e+03 +/- 0.000000e+00) [K]
    Coulombic Real/kʙ      -4.749859e+04 (-4.808048e+04 +/- 0.000000e+00) [K]
    Coulombic Fourier/kʙ   -1.083080e+04 (-1.137491e+04 +/- 0.000000e+00) [K]
    Molecule Intra/kʙ       0.000000e+00 ( 0.000000e+00 +/- 0.000000e+00) [K]

Current cycle: 1100 out of 5000
===============================================================================

Box:      21.57508   0.00000   0.00000  Average:  21.72788   0.00000   0.00000
           0.00000  21.57508   0.00000             0.00000  21.72788   0.00000
           0.00000   0.00000  21.57508             0.00000   0.00000  21.72788
Lengths:  21.57508  21.57508  21.57508  Average:  21.72788  21.72788  21.72788
Angles:   90.00000  90.00000  90.00000  Average:  90.00000  90.00000  90.00000
Rectangular boundary conditions

net charge:   0.00000000

component 0 (CO2) lambda:  0 occupancy:  1 (1.000000)
    net charge:   0.00000000 [e]

Amount of molecules per component :
-------------------------------------------------------------------------------
Component 0 (CO2)
    molecules:      1.500000e+02 molecules  (1.500000e+02 +/- 0.000000e+00)
    number density: 1.493599e-02 molec./A^3 (1.463042e-02 +/- 0.000000e+00)
    density:        1.091249e+03 kg/m^3     (1.068923e+03 +/- 0.000000e+00)

Average pressure tensor: 
-------------------------------------------------------------------------------
 8.7295e+01 -1.1720e+01 -3.8501e+01 +/- 0.0000e+00 0.0000e+00 0.0000e+00 [bar]
-1.1720e+01  2.0606e+02  3.6423e+01 +/- 0.0000e+00 0.0000e+00 0.0000e+00 [bar]
-3.8501e+01  3.6423e+01  2.8891e+02 +/- 0.0000e+00 0.0000e+00 0.0000e+00 [bar]
Ideal-gas pressure:   5.049873e+02 +/ 0.000000e+00 [bar]
Excess pressure:     -3.109011e+02 +/ 0.000000e+00 [bar]
Pressure:             1.940862e+02 +/ 0.000000e+00 [bar]

Total potential energy/kʙ  -2.344880e+05 (-2.307441e+05 +/- 0.000000e+00) [K]
-------------------------------------------------------------------------------
ExternalField-molecule
    Van der Waals/kʙ        0.000000e+00 ( 0.000000e+00 +/- 0.000000e+00) [K]
Framework-molecule
    Van der Waals/kʙ        0.000000e+00 ( 0.000000e+00 +/- 0.000000e+00) [K]
    Van der Waals (Tail)/kʙ 0.000000e+00 ( 0.000000e+00 +/- 0.000000e+00) [K]
    Coulombic Real/kʙ       0.000000e+00 ( 0.000000e+00 +/- 0.000000e+00) [K]
    Coulombic Fourier/kʙ    0.000000e+00 ( 0.000000e+00 +/- 0.000000e+00) [K]
Molecule-molecule
    Van der Waals/kʙ       -1.651585e+05 (-1.641676e+05 +/- 0.000000e+00) [K]
    Van der Waals (Tail)/kʙ-7.188430e+03 (-7.040258e+03 +/- 0.000000e+00) [K]
    Coulombic Real/kʙ      -5.002287e+04 (-4.812694e+04 +/- 0.000000e+00) [K]
    Coulombic Fourier/kʙ   -1.211816e+04 (-1.140927e+04 +/- 0.000000e+00) [K]
    Molecule Intra/kʙ       0.000000e+00 ( 0.000000e+00 +/- 0.000000e+00) [K]

Current cycle: 1200 out of 5000
===============================================================================

Box:      21.85098   0.00000   0.00000  Average:  21.72640   0.00000   0.00000
           0.00000  21.85098   0.00000             0.00000  21.72640   0.00000
           0.00000   0.00000  21.85098             0.00000   0.00000  21.72640
Lengths:  21.85098  21.85098  21.85098  Average:  21.72640  21.72640  21.72640
Angles:   90.00000  90.00000  90.00000  Average:  90.00000  90.00000  90.00000
Rectangular boundary conditions

net charge:   0.00000000

component 0 (CO2) lambda:  0 occupancy:  1 (1.000000)
    net charge:   0.00000000 [e]

Amount of molecules per component :
-------------------------------------------------------------------------------
Component 0 (CO2)
    molecules:      1.500000e+02 molecules  (1.500000e+02 +/- 0.000000e+00)
    number density: 1.437733e-02 molec./A^3 (1.463293e-02 +/- 0.000000e+00)
    density:        1.050432e+03 kg/m^3     (1.069107e+03 +/- 0.000000e+00)

Average pressure tensor: 
-------------------------------------------------------------------------------
 8.8606e+01 -7.3582e-01 -2.9088e+01 +/- 0.0000e+00 0.0000e+00 0.0000e+00 [bar]
-7.3582e-01  1.8410e+02  4.3222e+01 +/- 0.0000e+00 0.0000e+00 0.0000e+00 [bar]
-2.9088e+01  4.3222e+01  2.8698e+02 +/- 0.0000e+00 0.0000e+00 0.0000e+00 [bar]
Ideal-gas pressure:   5.050739e+02 +/ 0.000000e+00 [bar]
Excess pressure:     -3.185138e+02 +/ 0.000000e+00 [bar]
Pressure:             1.865601e+02 +/ 0.000000e+00 [bar]

Total potential energy/kʙ  -2.267479e+05 (-2.309622e+05 +/- 0.000000e+00) [K]
-------------------------------------------------------------------------------
ExternalField-molecule
    Van der Waals/kʙ        0.000000e+00 ( 0.000000e+00 +/- 0.000000e+00) [K]
Framework-molecule
    Van der Waals/kʙ        0.000000e+00 ( 0.000000e+00 +/- 0.000000e+00) [K]
    Van der Waals (Tail)/kʙ 0.000000e+00 ( 0.000000e+00 +/- 0.000000e+00) [K]
    Coulombic Real/kʙ       0.000000e+00 ( 0.000000e+00 +/- 0.000000e+00) [K]
    Coulombic Fourier/kʙ    0.000000e+00 ( 0.000000e+00 +/- 0.000000e+00) [K]
Molecule-molecule
    Van der Waals/kʙ       -1.629321e+05 (-1.642243e+05 +/- 0.000000e+00) [K]
    Van der Waals (Tail)/kʙ-6.919555e+03 (-7.040286e+03 +/- 0.000000e+00) [K]
    Coulombic Real/kʙ      -4.661909e+04 (-4.829312e+04 +/- 0.000000e+00) [K]
    Coulombic Fourier/kʙ   -1.027717e+04 (-1.140455e+04 +/- 0.000000e+00) [K]
    Molecule Intra/kʙ       0.000000e+00 ( 0.000000e+00 +/- 0.000000e+00) [K]

Current cycle: 1300 out of 5000
===============================================================================

Box:      21.77072   0.00000   0.00000  Average:  21.72604   0.00000   0.00000
           0.00000  21.77072   0.00000             0.00000  21.72604   0.00000
           0.00000   0.00000  21.77072             0.00000   0.00000  21.72604
Lengths:  21.77072  21.77072  21.77072  Average:  21.72604  21.72604  21.72604
Angles:   90.00000  90.00000  90.00000  Average:  90.00000  90.00000  90.00000
Rectangular boundary conditions

net charge:   0.00000000

component 0 (CO2) lambda:  0 occupancy:  1 (1.000000)
    net charge:   0.00000000 [e]

Amount of molecules per component :
-------------------------------------------------------------------------------
Component 0 (CO2)
    molecules:      1.500000e+02 molecules  (1.500000e+02 +/- 0.000000e+00)
    number density: 1.453693e-02 molec./A^3 (1.463325e-02 +/- 0.000000e+00)
    density:        1.062093e+03 kg/m^3     (1.069130e+03 +/- 0.000000e+00)

Average pressure tensor: 
-------------------------------------------------------------------------------
 1.0953e+02 -2.5296e+01 -3.1136e+01 +/- 0.0000e+00 0.0000e+00 0.0000e+00 [bar]
-2.5296e+01  1.4914e+02  3.7069e+01 +/- 0.0000e+00 0.0000e+00 0.0000e+00 [bar]
-3.1136e+01  3.7069e+01  2.7398e+02 +/- 0.0000e+00 0.0000e+00 0.0000e+00 [bar]
Ideal-gas pressure:   5.050850e+02 +/ 0.000000e+00 [bar]
Excess pressure:     -3.275353e+02 +/ 0.000000e+00 [bar]
Pressure:             1.775497e+02 +/ 0.000000e+00 [bar]

Total potential energy/kʙ  -2.309780e+05 (-2.310856e+05 +/- 0.000000e+00) [K]
-------------------------------------------------------------------------------
ExternalField-molecule
    Van der Waals/kʙ        0.000000e+00 ( 0.000000e+00 +/- 0.000000e+00) [K]
Framework-molecule
    Van der Waals/kʙ        0.000000e+00 ( 0.000000e+00 +/- 0.000000e+00) [K]
    Van der Waals (Tail)/kʙ 0.000000e+00 ( 0.000000e+00 +/- 0.000000e+00) [K]
    Coulombic Real/kʙ       0.000000e+00 ( 0.000000e+00 +/- 0.000000e+00) [K]
    Coulombic Fourier/kʙ    0.000000e+00 ( 0.000000e+00 +/- 0.000000e+00) [K]
Molecule-molecule
    Van der Waals/kʙ       -1.628422e+05 (-1.642032e+05 +/- 0.000000e+00) [K]
    Van der Waals (Tail)/kʙ-6.996367e+03 (-7.039663e+03 +/- 0.000000e+00) [K]
    Coulombic Real/kʙ      -4.936039e+04 (-4.838409e+04 +/- 0.000000e+00) [K]
    Coulombic Fourier/kʙ   -1.177908e+04 (-1.145862e+04 +/- 0.000000e+00) [K]
    Molecule Intra/kʙ       0.000000e+00 ( 0.000000e+00 +/- 0.000000e+00) [K]

Current cycle: 1400 out of 5000
===============================================================================

Box:      21.46844   0.00000   0.00000  Average:  21.72108   0.00000   0.00000
           0.00000  21.46844   0.00000             0.00000  21.72108   0.00000
           0.00000   0.00000  21.46844             0.00000   0.00000  21.72108
Lengths:  21.46844  21.46844  21.46844  Average:  21.72108  21.72108  21.72108
Angles:   90.00000  90.00000  90.00000  Average:  90.00000  90.00000  90.00000
Rectangular boundary conditions

net charge:   0.00000000

component 0 (CO2) lambda:  0 occupancy:  1 (1.000000)
    net charge:   0.00000000 [e]

Amount of molecules per component :
-------------------------------------------------------------------------------
Component 0 (CO2)
    molecules:      1.500000e+02 molecules  (1.500000e+02 +/- 0.000000e+00)
    number density: 1.515968e-02 molec./A^3 (1.464305e-02 +/- 0.000000e+00)
    density:        1.107592e+03 kg/m^3     (1.069846e+03 +/- 0.000000e+00)

Average pressure tensor: 
-------------------------------------------------------------------------------
 1.3898e+02 -4.1055e+01 -2.5475e+01 +/- 0.0000e+00 0.0000e+00 0.0000e+00 [bar]
-4.1055e+01  1.5031e+02  2.8880e+01 +/- 0.0000e+00 0.0000e+00 0.0000e+00 [bar]
-2.5475e+01  2.8880e+01  2.6246e+02 +/- 0.0000e+00 0.0000e+00 0.0000e+00 [bar]
Ideal-gas pressure:   5.054233e+02 +/ 0.000000e+00 [bar]
Excess pressure:     -3.215080e+02 +/ 0.000000e+00 [bar]
Pressure:             1.839153e+02 +/ 0.000000e+00 [bar]

Total potential energy/kʙ  -2.313812e+05 (-2.309401e+05 +/- 0.000000e+00) [K]
-------------------------------------------------------------------------------
ExternalField-molecule
    Van der Waals/kʙ        0.000000e+00 ( 0.000000e+00 +/- 0.000000e+00) [K]
Framework-molecule
    Van der Waals/kʙ        0.000000e+00 ( 0.000000e+00 +/- 0.000000e+00) [K]
    Van der Waals (Tail)/kʙ 0.000000e+00 ( 0.000000e+00 +/- 0.000000e+00) [K]
    Coulombic Real/kʙ       0.000000e+00 ( 0.000000e+00 +/- 0.000000e+00) [K]
    Coulombic Fourier/kʙ    0.000000e+00 ( 0.000000e+00 +/- 0.000000e+00) [K]
Molecule-molecule
    Van der Waals/kʙ       -1.726769e+05 (-1.643689e+05 +/- 0.000000e+00) [K]
    Van der Waals (Tail)/kʙ-7.296086e+03 (-7.046167e+03 +/- 0.000000e+00) [K]
    Coulombic Real/kʙ      -4.040360e+04 (-4.808504e+04 +/- 0.000000e+00) [K]
    Coulombic Fourier/kʙ   -1.100465e+04 (-1.144001e+04 +/- 0.000000e+00) [K]
    Molecule Intra/kʙ       0.000000e+00 ( 0.000000e+00 +/- 0.000000e+00) [K]

Current cycle: 1500 out of 5000
===============================================================================

Box:      21.32027   0.00000   0.00000  Average:  21.70143   0.00000   0.00000
           0.00000  21.32027   0.00000             0.00000  21.70143   0.00000
           0.00000   0.00000  21.32027             0.00000   0.00000  21.70143
Lengths:  21.32027  21.32027  21.32027  Average:  21.70143  21.70143  21.70143
Angles:   90.00000  90.00000  90.00000  Average:  90.00000  90.00000  90.00000
Rectangular boundary conditions

net charge:   0.00000000

component 0 (CO2) lambda:  0 occupancy:  1 (1.000000)
    net charge:   0.00000000 [e]

Amount of molecules per component :
-------------------------------------------------------------------------------
Component 0 (CO2)
    molecules:      1.500000e+02 molecules  (1.500000e+02 +/- 0.000000e+00)
    number density: 1.547794e-02 molec./A^3 (1.468359e-02 +/- 0.000000e+00)
    density:        1.130845e+03 kg/m^3     (1.072808e+03 +/- 0.000000e+00)

Average pressure tensor: 
-------------------------------------------------------------------------------
 1.7995e+02 -4.9319e+01 -3.2544e+01 +/- 0.0000e+00 0.0000e+00 0.0000e+00 [bar]
-4.9319e+01  1.4770e+02  3.3080e+01 +/- 0.0000e+00 0.0000e+00 0.0000e+00 [bar]
-3.2544e+01  3.3080e+01  2.6285e+02 +/- 0.0000e+00 0.0000e+00 0.0000e+00 [bar]
Ideal-gas pressure:   5.068224e+02 +/ 0.000000e+00 [bar]
Excess pressure:     -3.099893e+02 +/ 0.000000e+00 [bar]
Pressure:             1.968332e+02 +/ 0.000000e+00 [bar]

Total potential energy/kʙ  -2.419777e+05 (-2.315591e+05 +/- 0.000000e+00) [K]
-------------------------------------------------------------------------------
ExternalField-molecule
    Van der Waals/kʙ        0.000000e+00 ( 0.000000e+00 +/- 0.000000e+00) [K]
Framework-molecule
    Van der Waals/kʙ        0.000000e+00 ( 0.000000e+00 +/- 0.000000e+00) [K]
    Van der Waals (Tail)/kʙ 0.000000e+00 ( 0.000000e+00 +/- 0.000000e+00) [K]
    Coulombic Real/kʙ       0.000000e+00 ( 0.000000e+00 +/- 0.000000e+00) [K]
    Coulombic Fourier/kʙ    0.000000e+00 ( 0.000000e+00 +/- 0.000000e+00) [K]
Molecule-molecule
    Van der Waals/kʙ       -1.677704e+05 (-1.647783e+05 +/- 0.000000e+00) [K]
    Van der Waals (Tail)/kʙ-7.449261e+03 (-7.067385e+03 +/- 0.000000e+00) [K]
    Coulombic Real/kʙ      -5.439353e+04 (-4.825228e+04 +/- 0.000000e+00) [K]
    Coulombic Fourier/kʙ   -1.236455e+04 (-1.146114e+04 +/- 0.000000e+00) [K]
    Molecule Intra/kʙ       0.000000e+00 ( 0.000000e+00 +/- 0.000000e+00) [K]

Current cycle: 1600 out of 5000
===============================================================================

Box:      21.47510   0.00000   0.00000  Average:  21.67633   0.00000   0.00000
           0.00000  21.47510   0.00000             0.00000  21.67633   0.00000
           0.00000   0.00000  21.47510             0.00000   0.00000  21.67633
Lengths:  21.47510  21.47510  21.47510  Average:  21.67633  21.67633  21.67633
Angles:   90.00000  90.00000  90.00000  Average:  90.00000  90.00000  90.00000
Rectangular boundary conditions

net charge:   0.00000000

component 0 (CO2) lambda:  0 occupancy:  1 (1.000000)
    net charge:   0.00000000 [e]

Amount of molecules per component :
-------------------------------------------------------------------------------
Component 0 (CO2)
    molecules:      1.500000e+02 molecules  (1.500000e+02 +/- 0.000000e+00)
    number density: 1.514558e-02 molec./A^3 (1.473618e-02 +/- 0.000000e+00)
    density:        1.106562e+03 kg/m^3     (1.076651e+03 +/- 0.000000e+00)

Average pressure tensor: 
-------------------------------------------------------------------------------
 2.0541e+02 -5.0586e+01 -3.7690e+01 +/- 0.0000e+00 0.0000e+00 0.0000e+00 [bar]
-5.0586e+01  1.5766e+02  1.2618e+01 +/- 0.0000e+00 0.0000e+00 0.0000e+00 [bar]
-3.7690e+01  1.2618e+01  2.6882e+02 +/- 0.0000e+00 0.0000e+00 0.0000e+00 [bar]
Ideal-gas pressure:   5.086378e+02 +/ 0.000000e+00 [bar]
Excess pressure:     -2.980091e+02 +/ 0.000000e+00 [bar]
Pressure:             2.106287e+02 +/ 0.000000e+00 [bar]

Total potential energy/kʙ  -2.454676e+05 (-2.325439e+05 +/- 0.000000e+00) [K]
-------------------------------------------------------------------------------
ExternalField-molecule
    Van der Waals/kʙ        0.000000e+00 ( 0.000000e+00 +/- 0.000000e+00) [K]
Framework-molecule
    Van der Waals/kʙ        0.000000e+00 ( 0.000000e+00 +/- 0.000000e+00) [K]
    Van der Waals (Tail)/kʙ 0.000000e+00 ( 0.000000e+00 +/- 0.000000e+00) [K]
    Coulombic Real/kʙ       0.000000e+00 ( 0.000000e+00 +/- 0.000000e+00) [K]
    Coulombic Fourier/kʙ    0.000000e+00 ( 0.000000e+00 +/- 0.000000e+00) [K]
Molecule-molecule
    Van der Waals/kʙ       -1.730927e+05 (-1.652709e+05 +/- 0.000000e+00) [K]
    Van der Waals (Tail)/kʙ-7.289299e+03 (-7.093093e+03 +/- 0.000000e+00) [K]
    Coulombic Real/kʙ      -5.192097e+04 (-4.863850e+04 +/- 0.000000e+00) [K]
    Coulombic Fourier/kʙ   -1.316460e+04 (-1.154142e+04 +/- 0.000000e+00) [K]
    Molecule Intra/kʙ       0.000000e+00 ( 0.000000e+00 +/- 0.000000e+00) [K]

Current cycle: 1700 out of 5000
===============================================================================

Box:      21.37361   0.00000   0.00000  Average:  21.65668   0.00000   0.00000
           0.00000  21.37361   0.00000             0.00000  21.65668   0.00000
           0.00000   0.00000  21.37361             0.00000   0.00000  21.65668
Lengths:  21.37361  21.37361  21.37361  Average:  21.65668  21.65668  21.65668
Angles:   90.00000  90.00000  90.00000  Average:  90.00000  90.00000  90.00000
Rectangular boundary conditions

net charge:   0.00000000

component 0 (CO2) lambda:  0 occupancy:  1 (1.000000)
    net charge:   0.00000000 [e]

Amount of molecules per component :
-------------------------------------------------------------------------------
Component 0 (CO2)
    molecules:      1.500000e+02 molecules  (1.500000e+02 +/- 0.000000e+00)
    number density: 1.536236e-02 molec./A^3 (1.477713e-02 +/- 0.000000e+00)
    density:        1.122400e+03 kg/m^3     (1.079642e+03 +/- 0.000000e+00)

Average pressure tensor: 
-------------------------------------------------------------------------------
 2.1179e+02 -6.3148e+01 -2.9430e+01 +/- 0.0000e+00 0.0000e+00 0.0000e+00 [bar]
-6.3148e+01  1.5226e+02  7.8154e+00 +/- 0.0000e+00 0.0000e+00 0.0000e+00 [bar]
-2.9430e+01  7.8154e+00  2.6276e+02 +/- 0.0000e+00 0.0000e+00 0.0000e+00 [bar]
Ideal-gas pressure:   5.100512e+02 +/ 0.000000e+00 [bar]
Excess pressure:     -3.011154e+02 +/ 0.000000e+00 [bar]
Pressure:             2.089357e+02 +/ 0.000000e+00 [bar]

Total potential energy/kʙ  -2.530241e+05 (-2.335010e+05 +/- 0.000000e+00) [K]
-------------------------------------------------------------------------------
ExternalField-molecule
    Van der Waals/kʙ        0.000000e+00 ( 0.000000e+00 +/- 0.000000e+00) [K]
Framework-molecule
    Van der Waals/kʙ        0.000000e+00 ( 0.000000e+00 +/- 0.000000e+00) [K]
    Van der Waals (Tail)/kʙ 0.000000e+00 ( 0.000000e+00 +/- 0.000000e+00) [K]
    Coulombic Real/kʙ       0.000000e+00 ( 0.000000e+00 +/- 0.000000e+00) [K]
    Coulombic Fourier/kʙ    0.000000e+00 ( 0.000000e+00 +/- 0.000000e+00) [K]
Molecule-molecule
    Van der Waals/kʙ       -1.756445e+05 (-1.656848e+05 +/- 0.000000e+00) [K]
    Van der Waals (Tail)/kʙ-7.393632e+03 (-7.112035e+03 +/- 0.000000e+00) [K]
    Coulombic Real/kʙ      -5.674068e+04 (-4.908556e+04 +/- 0.000000e+00) [K]
    Coulombic Fourier/kʙ   -1.324536e+04 (-1.161863e+04 +/- 0.000000e+00) [K]
    Molecule Intra/kʙ       0.000000e+00 ( 0.000000e+00 +/- 0.000000e+00) [K]

Current cycle: 1800 out of 5000
===============================================================================

Box:      21.40163   0.00000   0.00000  Average:  21.64911   0.00000   0.00000
           0.00000  21.40163   0.00000             0.00000  21.64911   0.00000
           0.00000   0.00000  21.40163             0.00000   0.00000  21.64911
Lengths:  21.40163  21.40163  21.40163  Average:  21.64911  21.64911  21.64911
Angles:   90.00000  90.00000  90.00000  Average:  90.00000  90.00000  90.00000
Rectangular boundary conditions

net charge:   0.00000000

component 0 (CO2) lambda:  0 occupancy:  1 (1.000000)
    net charge:   0.00000000 [e]

Amount of molecules per component :
-------------------------------------------------------------------------------
Component 0 (CO2)
    molecules:      1.500000e+02 molecules  (1.500000e+02 +/- 0.000000e+00)
    number density: 1.530208e-02 molec./A^3 (1.479245e-02 +/- 0.000000e+00)
    density:        1.117996e+03 kg/m^3     (1.080761e+03 +/- 0.000000e+00)

Average pressure tensor: 
-------------------------------------------------------------------------------
 2.2452e+02 -6.7104e+01 -2.3719e+01 +/- 0.0000e+00 0.0000e+00 0.0000e+00 [bar]
-6.7104e+01  1.5579e+02 -5.6819e+00 +/- 0.0000e+00 0.0000e+00 0.0000e+00 [bar]
-2.3719e+01 -5.6819e+00  2.3885e+02 +/- 0.0000e+00 0.0000e+00 0.0000e+00 [bar]
Ideal-gas pressure:   5.105799e+02 +/ 0.000000e+00 [bar]
Excess pressure:     -3.041938e+02 +/ 0.000000e+00 [bar]
Pressure:             2.063861e+02 +/ 0.000000e+00 [bar]

Total potential energy/kʙ  -2.449749e+05 (-2.340956e+05 +/- 0.000000e+00) [K]
-------------------------------------------------------------------------------
ExternalField-molecule
    Van der Waals/kʙ        0.000000e+00 ( 0.000000e+00 +/- 0.000000e+00) [K]
Framework-molecule
    Van der Waals/kʙ        0.000000e+00 ( 0.000000e+00 +/- 0.000000e+00) [K]
    Van der Waals (Tail)/kʙ 0.000000e+00 ( 0.000000e+00 +/- 0.000000e+00) [K]
    Coulombic Real/kʙ       0.000000e+00 ( 0.000000e+00 +/- 0.000000e+00) [K]
    Coulombic Fourier/kʙ    0.000000e+00 ( 0.000000e+00 +/- 0.000000e+00) [K]
Molecule-molecule
    Van der Waals/kʙ       -1.695008e+05 (-1.659443e+05 +/- 0.000000e+00) [K]
    Van der Waals (Tail)/kʙ-7.364622e+03 (-7.119997e+03 +/- 0.000000e+00) [K]
    Coulombic Real/kʙ      -5.518519e+04 (-4.936208e+04 +/- 0.000000e+00) [K]
    Coulombic Fourier/kʙ   -1.292426e+04 (-1.166927e+04 +/- 0.000000e+00) [K]
    Molecule Intra/kʙ       0.000000e+00 ( 0.000000e+00 +/- 0.000000e+00) [K]

Current cycle: 1900 out of 5000
===============================================================================

Box:      21.58414   0.00000   0.00000  Average:  21.64492   0.00000   0.00000
           0.00000  21.58414   0.00000             0.00000  21.64492   0.00000
           0.00000   0.00000  21.58414             0.00000   0.00000  21.64492
Lengths:  21.58414  21.58414  21.58414  Average:  21.64492  21.64492  21.64492
Angles:   90.00000  90.00000  90.00000  Average:  90.00000  90.00000  90.00000
Rectangular boundary conditions

net charge:   0.00000000

component 0 (CO2) lambda:  0 occupancy:  1 (1.000000)
    net charge:   0.00000000 [e]

Amount of molecules per component :
-------------------------------------------------------------------------------
Component 0 (CO2)
    molecules:      1.500000e+02 molecules  (1.500000e+02 +/- 0.000000e+00)
    number density: 1.491720e-02 molec./A^3 (1.480080e-02 +/- 0.000000e+00)
    density:        1.089876e+03 kg/m^3     (1.081372e+03 +/- 0.000000e+00)

Average pressure tensor: 
-------------------------------------------------------------------------------
 2.2204e+02 -6.0056e+01 -2.7564e+01 +/- 0.0000e+00 0.0000e+00 0.0000e+00 [bar]
-6.0056e+01  1.6731e+02 -3.5088e+00 +/- 0.0000e+00 0.0000e+00 0.0000e+00 [bar]
-2.7564e+01 -3.5088e+00  2.2083e+02 +/- 0.0000e+00 0.0000e+00 0.0000e+00 [bar]
Ideal-gas pressure:   5.108682e+02 +/ 0.000000e+00 [bar]
Excess pressure:     -3.074728e+02 +/ 0.000000e+00 [bar]
Pressure:             2.033954e+02 +/ 0.000000e+00 [bar]

Total potential energy/kʙ  -2.426633e+05 (-2.345741e+05 +/- 0.000000e+00) [K]
-------------------------------------------------------------------------------
ExternalField-molecule
    Van der Waals/kʙ        0.000000e+00 ( 0.000000e+00 +/- 0.000000e+00) [K]
Framework-molecule
    Van der Waals/kʙ        0.000000e+00 ( 0.000000e+00 +/- 0.000000e+00) [K]
    Van der Waals (Tail)/kʙ 0.000000e+00 ( 0.000000e+00 +/- 0.000000e+00) [K]
    Coulombic Real/kʙ       0.000000e+00 ( 0.000000e+00 +/- 0.000000e+00) [K]
    Coulombic Fourier/kʙ    0.000000e+00 ( 0.000000e+00 +/- 0.000000e+00) [K]
Molecule-molecule
    Van der Waals/kʙ       -1.634904e+05 (-1.660592e+05 +/- 0.000000e+00) [K]
    Van der Waals (Tail)/kʙ-7.179384e+03 (-7.123225e+03 +/- 0.000000e+00) [K]
    Coulombic Real/kʙ      -5.863030e+04 (-4.965842e+04 +/- 0.000000e+00) [K]
    Coulombic Fourier/kʙ   -1.336325e+04 (-1.173322e+04 +/- 0.000000e+00) [K]
    Molecule Intra/kʙ       0.000000e+00 ( 0.000000e+00 +/- 0.000000e+00) [K]

Current cycle: 2000 out of 5000
===============================================================================

Box:      21.44504   0.00000   0.00000  Average:  21.63700   0.00000   0.00000
           0.00000  21.44504   0.00000             0.00000  21.63700   0.00000
           0.00000   0.00000  21.44504             0.00000   0.00000  21.63700
Lengths:  21.44504  21.44504  21.44504  Average:  21.63700  21.63700  21.63700
Angles:   90.00000  90.00000  90.00000  Average:  90.00000  90.00000  90.00000
Rectangular boundary conditions

net charge:   0.00000000

component 0 (CO2) lambda:  0 occupancy:  1 (1.000000)
    net charge:   0.00000000 [e]

Amount of molecules per component :
-------------------------------------------------------------------------------
Component 0 (CO2)
    molecules:      1.500000e+02 molecules  (1.500000e+02 +/- 0.000000e+00)
    number density: 1.520936e-02 molec./A^3 (1.481696e-02 +/- 0.000000e+00)
    density:        1.111222e+03 kg/m^3     (1.082553e+03 +/- 0.000000e+00)

Average pressure tensor: 
-------------------------------------------------------------------------------
 2.1365e+02 -6.7418e+01 -2.2810e+01 +/- 0.0000e+00 0.0000e+00 0.0000e+00 [bar]
-6.7418e+01  1.8043e+02 -3.5331e+00 +/- 0.0000e+00 0.0000e+00 0.0000e+00 [bar]
-2.2810e+01 -3.5331e+00  2.2129e+02 +/- 0.0000e+00 0.0000e+00 0.0000e+00 [bar]
Ideal-gas pressure:   5.114261e+02 +/ 0.000000e+00 [bar]
Excess pressure:     -3.063060e+02 +/ 0.000000e+00 [bar]
Pressure:             2.051202e+02 +/ 0.000000e+00 [bar]

Total potential energy/kʙ  -2.446242e+05 (-2.351044e+05 +/- 0.000000e+00) [K]
-------------------------------------------------------------------------------
ExternalField-molecule
    Van der Waals/kʙ        0.000000e+00 ( 0.000000e+00 +/- 0.000000e+00) [K]
Framework-molecule
    Van der Waals/kʙ        0.000000e+00 ( 0.000000e+00 +/- 0.000000e+00) [K]
    Van der Waals (Tail)/kʙ 0.000000e+00 ( 0.000000e+00 +/- 0.000000e+00) [K]
    Coulombic Real/kʙ       0.000000e+00 ( 0.000000e+00 +/- 0.000000e+00) [K]
    Coulombic Fourier/kʙ    0.000000e+00 ( 0.000000e+00 +/- 0.000000e+00) [K]
Molecule-molecule
    Van der Waals/kʙ       -1.698436e+05 (-1.662083e+05 +/- 0.000000e+00) [K]
    Van der Waals (Tail)/kʙ-7.319995e+03 (-7.130678e+03 +/- 0.000000e+00) [K]
    Coulombic Real/kʙ      -5.446215e+04 (-4.998229e+04 +/- 0.000000e+00) [K]
    Coulombic Fourier/kʙ   -1.299855e+04 (-1.178313e+04 +/- 0.000000e+00) [K]
    Molecule Intra/kʙ       0.000000e+00 ( 0.000000e+00 +/- 0.000000e+00) [K]

Current cycle: 2100 out of 5000
===============================================================================

Box:      21.48395   0.00000   0.00000  Average:  21.63361   0.00000   0.00000
           0.00000  21.48395   0.00000             0.00000  21.63361   0.00000
           0.00000   0.00000  21.48395             0.00000   0.00000  21.63361
Lengths:  21.48395  21.48395  21.48395  Average:  21.63361  21.63361  21.63361
Angles:   90.00000  90.00000  90.00000  Average:  90.00000  90.00000  90.00000
Rectangular boundary conditions

net charge:   0.00000000

component 0 (CO2) lambda:  0 occupancy:  1 (1.000000)
    net charge:   0.00000000 [e]

Amount of molecules per component :
-------------------------------------------------------------------------------
Component 0 (CO2)
    molecules:      1.500000e+02 molecules  (1.500000e+02 +/- 0.000000e+00)
    number density: 1.512687e-02 molec./A^3 (1.482361e-02 +/- 0.000000e+00)
    density:        1.105195e+03 kg/m^3     (1.083038e+03 +/- 0.000000e+00)

Average pressure tensor: 
-------------------------------------------------------------------------------
 2.2102e+02 -8.4650e+01 -2.9500e+01 +/- 0.0000e+00 0.0000e+00 0.0000e+00 [bar]
-8.4650e+01  1.6690e+02  3.2953e+00 +/- 0.0000e+00 0.0000e+00 0.0000e+00 [bar]
-2.9500e+01  3.2953e+00  2.0567e+02 +/- 0.0000e+00 0.0000e+00 0.0000e+00 [bar]
Ideal-gas pressure:   5.116556e+02 +/ 0.000000e+00 [bar]
Excess pressure:     -3.137896e+02 +/ 0.000000e+00 [bar]
Pressure:             1.978660e+02 +/ 0.000000e+00 [bar]

Total potential energy/kʙ  -2.399956e+05 (-2.353812e+05 +/- 0.000000e+00) [K]
-------------------------------------------------------------------------------
ExternalField-molecule
    Van der Waals/kʙ        0.000000e+00 ( 0.000000e+00 +/- 0.000000e+00) [K]
Framework-molecule
    Van der Waals/kʙ        0.000000e+00 ( 0.000000e+00 +/- 0.000000e+00) [K]
    Van der Waals (Tail)/kʙ 0.000000e+00 ( 0.000000e+00 +/- 0.000000e+00) [K]
[...]
    Coulombic Fourier/kʙ    0.000000e+00 ( 0.000000e+00 +/- 0.000000e+00) [K]
Molecule-molecule
    Van der Waals/kʙ       -1.699007e+05 (-1.702317e+05 +/- 5.353698e+03) [K]
    Van der Waals (Tail)/kʙ-7.323954e+03 (-7.277961e+03 +/- 2.042958e+02) [K]
    Coulombic Real/kʙ      -5.082192e+04 (-5.075184e+04 +/- 2.873618e+03) [K]
    Coulombic Fourier/kʙ   -1.270654e+04 (-1.205601e+04 +/- 4.820358e+02) [K]
    Molecule Intra/kʙ       0.000000e+00 ( 0.000000e+00 +/- 0.000000e+00) [K]

Current cycle: 4700 out of 5000
===============================================================================

Box:      21.28638   0.00000   0.00000  Average:  21.48558   0.00000   0.00000
           0.00000  21.28638   0.00000             0.00000  21.48558   0.00000
           0.00000   0.00000  21.28638             0.00000   0.00000  21.48558
Lengths:  21.28638  21.28638  21.28638  Average:  21.48558  21.48558  21.48558
Angles:   90.00000  90.00000  90.00000  Average:  90.00000  90.00000  90.00000
Rectangular boundary conditions

net charge:   0.00000000

component 0 (CO2) lambda:  0 occupancy:  1 (1.000000)
    net charge:   0.00000000 [e]

Amount of molecules per component :
-------------------------------------------------------------------------------
Component 0 (CO2)
    molecules:      1.500000e+02 molecules  (1.500000e+02 +/- 0.000000e+00)
    number density: 1.555199e-02 molec./A^3 (1.513302e-02 +/- 4.291390e-04)
    density:        1.136255e+03 kg/m^3     (1.105645e+03 +/- 3.135363e+01)

Average pressure tensor: 
-------------------------------------------------------------------------------
 1.9504e+02 -2.8599e+01  2.1304e+01 +/- 1.0527e+02 9.8881e+01 6.2303e+01 [bar]
-2.8599e+01  1.3221e+02  1.4757e+01 +/- 9.8881e+01 7.9743e+01 7.0618e+01 [bar]
 2.1304e+01  1.4757e+01  2.3912e+02 +/- 6.2303e+01 7.0618e+01 6.1640e+01 [bar]
Ideal-gas pressure:   5.223353e+02 +/ 1.481227e+01 [bar]
Excess pressure:     -3.335441e+02 +/ 4.206457e+01 [bar]
Pressure:             1.887912e+02 +/ 3.442903e+01 [bar]

Total potential energy/kʙ  -2.529175e+05 (-2.405028e+05 +/- 8.018780e+03) [K]
-------------------------------------------------------------------------------
ExternalField-molecule
    Van der Waals/kʙ        0.000000e+00 ( 0.000000e+00 +/- 0.000000e+00) [K]
Framework-molecule
    Van der Waals/kʙ        0.000000e+00 ( 0.000000e+00 +/- 0.000000e+00) [K]
    Van der Waals (Tail)/kʙ 0.000000e+00 ( 0.000000e+00 +/- 0.000000e+00) [K]
    Coulombic Real/kʙ       0.000000e+00 ( 0.000000e+00 +/- 0.000000e+00) [K]
    Coulombic Fourier/kʙ    0.000000e+00 ( 0.000000e+00 +/- 0.000000e+00) [K]
Molecule-molecule
    Van der Waals/kʙ       -1.782781e+05 (-1.703437e+05 +/- 5.415988e+03) [K]
    Van der Waals (Tail)/kʙ-7.484897e+03 (-7.281760e+03 +/- 2.062275e+02) [K]
    Coulombic Real/kʙ      -5.339386e+04 (-5.079072e+04 +/- 2.656657e+03) [K]
    Coulombic Fourier/kʙ   -1.376059e+04 (-1.208663e+04 +/- 5.102570e+02) [K]
    Molecule Intra/kʙ       0.000000e+00 ( 0.000000e+00 +/- 0.000000e+00) [K]

Current cycle: 4800 out of 5000
===============================================================================

Box:      21.39669   0.00000   0.00000  Average:  21.48296   0.00000   0.00000
           0.00000  21.39669   0.00000             0.00000  21.48296   0.00000
           0.00000   0.00000  21.39669             0.00000   0.00000  21.48296
Lengths:  21.39669  21.39669  21.39669  Average:  21.48296  21.48296  21.48296
Angles:   90.00000  90.00000  90.00000  Average:  90.00000  90.00000  90.00000
Rectangular boundary conditions

net charge:   0.00000000

component 0 (CO2) lambda:  0 occupancy:  1 (1.000000)
    net charge:   0.00000000 [e]

Amount of molecules per component :
-------------------------------------------------------------------------------
Component 0 (CO2)
    molecules:      1.500000e+02 molecules  (1.500000e+02 +/- 0.000000e+00)
    number density: 1.531269e-02 molec./A^3 (1.513845e-02 +/- 4.308431e-04)
    density:        1.118772e+03 kg/m^3     (1.106041e+03 +/- 3.147814e+01)

Average pressure tensor: 
-------------------------------------------------------------------------------
 1.8853e+02 -2.5939e+01  1.6827e+01 +/- 1.0376e+02 9.8912e+01 5.1234e+01 [bar]
-2.5939e+01  1.3073e+02  1.5799e+01 +/- 9.8912e+01 8.0132e+01 7.0853e+01 [bar]
 1.6827e+01  1.5799e+01  2.3641e+02 +/- 5.1234e+01 7.0853e+01 5.3911e+01 [bar]
Ideal-gas pressure:   5.225226e+02 +/ 1.487109e+01 [bar]
Excess pressure:     -3.372985e+02 +/ 3.951335e+01 [bar]
Pressure:             1.852241e+02 +/ 2.968927e+01 [bar]

Total potential energy/kʙ  -2.448695e+05 (-2.406400e+05 +/- 8.038994e+03) [K]
-------------------------------------------------------------------------------
ExternalField-molecule
    Van der Waals/kʙ        0.000000e+00 ( 0.000000e+00 +/- 0.000000e+00) [K]
Framework-molecule
    Van der Waals/kʙ        0.000000e+00 ( 0.000000e+00 +/- 0.000000e+00) [K]
    Van der Waals (Tail)/kʙ 0.000000e+00 ( 0.000000e+00 +/- 0.000000e+00) [K]
    Coulombic Real/kʙ       0.000000e+00 ( 0.000000e+00 +/- 0.000000e+00) [K]
    Coulombic Fourier/kʙ    0.000000e+00 ( 0.000000e+00 +/- 0.000000e+00) [K]
Molecule-molecule
    Van der Waals/kʙ       -1.746489e+05 (-1.704472e+05 +/- 5.467913e+03) [K]
    Van der Waals (Tail)/kʙ-7.369729e+03 (-7.284457e+03 +/- 2.071185e+02) [K]
    Coulombic Real/kʙ      -5.096265e+04 (-5.081220e+04 +/- 2.543443e+03) [K]
    Coulombic Fourier/kʙ   -1.188823e+04 (-1.209611e+04 +/- 5.143773e+02) [K]
    Molecule Intra/kʙ       0.000000e+00 ( 0.000000e+00 +/- 0.000000e+00) [K]

Current cycle: 4900 out of 5000
===============================================================================

Box:      21.78302   0.00000   0.00000  Average:  21.48302   0.00000   0.00000
           0.00000  21.78302   0.00000             0.00000  21.48302   0.00000
           0.00000   0.00000  21.78302             0.00000   0.00000  21.48302
Lengths:  21.78302  21.78302  21.78302  Average:  21.48302  21.48302  21.48302
Angles:   90.00000  90.00000  90.00000  Average:  90.00000  90.00000  90.00000
Rectangular boundary conditions

net charge:   0.00000000

component 0 (CO2) lambda:  0 occupancy:  1 (1.000000)
    net charge:   0.00000000 [e]

Amount of molecules per component :
-------------------------------------------------------------------------------
Component 0 (CO2)
    molecules:      1.500000e+02 molecules  (1.500000e+02 +/- 0.000000e+00)
    number density: 1.451233e-02 molec./A^3 (1.513819e-02 +/- 4.282467e-04)
    density:        1.060296e+03 kg/m^3     (1.106022e+03 +/- 3.128844e+01)

Average pressure tensor: 
-------------------------------------------------------------------------------
 1.9485e+02 -2.1805e+01  1.4026e+01 +/- 1.0462e+02 1.0292e+02 4.7586e+01 [bar]
-2.1805e+01  1.2333e+02  1.6564e+01 +/- 1.0292e+02 8.5317e+01 7.1034e+01 [bar]
 1.4026e+01  1.6564e+01  2.2962e+02 +/- 4.7586e+01 7.1034e+01 4.7093e+01 [bar]
Ideal-gas pressure:   5.225135e+02 +/ 1.478148e+01 [bar]
Excess pressure:     -3.399121e+02 +/ 4.024158e+01 [bar]
Pressure:             1.826015e+02 +/ 2.973166e+01 [bar]

Total potential energy/kʙ  -2.318458e+05 (-2.406497e+05 +/- 8.037126e+03) [K]
-------------------------------------------------------------------------------
ExternalField-molecule
    Van der Waals/kʙ        0.000000e+00 ( 0.000000e+00 +/- 0.000000e+00) [K]
Framework-molecule
    Van der Waals/kʙ        0.000000e+00 ( 0.000000e+00 +/- 0.000000e+00) [K]
    Van der Waals (Tail)/kʙ 0.000000e+00 ( 0.000000e+00 +/- 0.000000e+00) [K]
    Coulombic Real/kʙ       0.000000e+00 ( 0.000000e+00 +/- 0.000000e+00) [K]
    Coulombic Fourier/kʙ    0.000000e+00 ( 0.000000e+00 +/- 0.000000e+00) [K]
Molecule-molecule
    Van der Waals/kʙ       -1.647227e+05 (-1.704263e+05 +/- 5.413714e+03) [K]
    Van der Waals (Tail)/kʙ-6.984528e+03 (-7.283420e+03 +/- 2.052756e+02) [K]
    Coulombic Real/kʙ      -4.811356e+04 (-5.083758e+04 +/- 2.460928e+03) [K]
    Coulombic Fourier/kʙ   -1.202505e+04 (-1.210243e+04 +/- 5.145203e+02) [K]
    Molecule Intra/kʙ       0.000000e+00 ( 0.000000e+00 +/- 0.000000e+00) [K]


Energy statistics             |  Energy [K]   | Recomputed [K]|  Drift [K]    |
===============================================================================
Total potential energy/kʙ     | -2.339235e+05 | -2.339235e+05 |  2.504965e-10 |
    external field VDW/kʙ     |  0.000000e+00 |  0.000000e+00 |  0.000000e+00 |
    external field Real/kʙ    |  0.000000e+00 |  0.000000e+00 |  0.000000e+00 |
    framework-molecule VDW/kʙ |  0.000000e+00 |  0.000000e+00 |  0.000000e+00 |
    framework-molecule Real/kʙ|  0.000000e+00 |  0.000000e+00 |  0.000000e+00 |
    molecule-molecule VDW/kʙ  | -1.675693e+05 | -1.675693e+05 |  4.200466e-10 |
    molecule-molecule Real/kʙ | -4.691355e+04 | -4.691355e+04 | -1.400155e-10 |
    Van der Waals (Tail)/kʙ   | -7.281802e+03 | -7.281802e+03 |  0.000000e+00 |
    Ewald Fourier/kʙ          |  9.637503e+03 |  9.637503e+03 | -2.953453e-11 |
    Ewald self/kʙ             | -3.334385e+06 | -3.334385e+06 |  0.000000e+00 |
    Ewald exclusion/kʙ        |  3.312589e+06 |  3.312589e+06 |  0.000000e+00 |
    intra VDW/kʙ              |  0.000000e+00 |  0.000000e+00 |  0.000000e+00 |
    intra Coulombic/kʙ        |  0.000000e+00 |  0.000000e+00 |  0.000000e+00 |
    polarization/kʙ           |  0.000000e+00 |  0.000000e+00 |  0.000000e+00 |
    dU/dlambda VDW/kʙ         |  0.000000e+00 |  0.000000e+00 |  0.000000e+00 |
    dU/dlambda Real/kʙ        |  0.000000e+00 |  0.000000e+00 |  0.000000e+00 |
    dU/dlambda Ewald/kʙ       |  0.000000e+00 |  0.000000e+00 |  0.000000e+00 |
-------------------------------------------------------------------------------


Monte-Carlo moves statistics
===============================================================================

    Volume change        all:                5035
    Volume change        total:              5035
    Volume change        constructed:        5035
    Volume change        accepted:           1762
    Volume change        fraction:       0.349950
    Volume change        max-change:     0.050000

Component 0 [CO2]
    Reinsertion (CBMC)   all:              248625
    Reinsertion (CBMC)   total:            248625
    Reinsertion (CBMC)   constructed:      210125
    Reinsertion (CBMC)   accepted:           1952
    Reinsertion (CBMC)   fraction:       0.007851
    Reinsertion (CBMC)   max-change:     0.000000

    Translation          all:              248370
    Translation          total:             83223      82537      82610
    Translation          constructed:       83223      82537      82610
    Translation          accepted:          44377      33916      43954
    Translation          fraction:       0.533230   0.410919   0.532066
    Translation          max-change:     0.571429   0.828947   0.571429

    Rotation             all:              247970
    Rotation             total:             82837      82660      82473
    Rotation             constructed:       82837      82660      82443
    Rotation             accepted:          39729      38526      30194
    Rotation             fraction:       0.479605   0.466078   0.366108
    Rotation             max-change:     0.705882   0.734694   1.029412



Production run counting of the MC moves summed over systems and components
===============================================================================

Volume change                          5035 (0.6713 [%])
Reinsertion (CBMC)                   248625 (33.1500 [%])
Translation                          248370 (33.1160 [%])
Rotation                             247970 (33.0627 [%])

Production count MC-steps:           750000 [-]
               All summed:           750000 [-]
               difference:                0 [-]


Production run CPU timings of the MC moves
===============================================================================

Component 0 CO2

Rotation                             20.886373 [s]
    Ewald                             9.862044 [s]
    ExternalField-Molecule            0.007069 [s]
    Framework-Molecule                0.009276 [s]
    Molecule-Molecule                10.440362 [s]
    Overhead                          0.567622 [s]

Reinsertion (CBMC)                   77.894862 [s]
    Ewald                             8.513547 [s]
    NonEwald                         69.262944 [s]
    Overhead                          0.118371 [s]

Translation                          20.992577 [s]
    Ewald                             9.880147 [s]
    ExternalField-Molecule            0.007002 [s]
    Framework-Molecule                0.010476 [s]
    Molecule-Molecule                10.491981 [s]
    Overhead                          0.602971 [s]



Volume change                         15.664593 [s]
    Ewald                              6.259097 [s]
    NonEwald                           9.013994 [s]
    Tail                               0.295325 [s]

Property sampling                     0.478811 [s]
Energy/pressure sampling:             3.221702 [s]


Production run CPU timings of the MC moves summed over systems and components
===============================================================================


Translation                          20.992577 [s]
    Ewald                             9.880147 [s]
    ExternalField-Molecule            0.007002 [s]
    Framework-Molecule                0.010476 [s]
    Molecule-Molecule                10.491981 [s]
    Overhead                          0.602971 [s]

Rotation                             20.886373 [s]
    Ewald                             9.862044 [s]
    ExternalField-Molecule            0.007069 [s]
    Framework-Molecule                0.009276 [s]
    Molecule-Molecule                10.440362 [s]
    Overhead                          0.567622 [s]

Volume change                        15.664593 [s]
    Ewald                             6.259097 [s]
    NonEwald                          9.013994 [s]
    Tail                              0.295325 [s]
    Overhead                          0.096177 [s]

Reinsertion (CBMC)                   77.894862 [s]
    Ewald                             8.513547 [s]
    NonEwald                         69.262944 [s]
    Overhead                          0.118371 [s]

Property sampling:                    0.478811 [s]
Energy/pressure sampling:             3.221702 [s]

Production simulation time:         139.505284 [s]
                All summed:         139.138918 [s]
                  Overhead:           0.366366 [s]


Initalization simulation time:       23.399749 [s]
Equilibration simulation time:        0.000000 [s]
Production simulation time:         139.505284 [s]
Total simulation time:              162.905033 [s]


Energy averages and statistics:
===============================================================================

Framework-molecule energy:
-------------------------------------------------------------------------------



Framework-molecule energy contributions per energy type:
-------------------------------------------------------------------------------



Inter-molecular energy:
-------------------------------------------------------------------------------

    Inter-molecular energy/kʙ 0-0 [CO2-CO2]:
    ---------------------------------------------------------------------------
        Block[  0] -2.300586e+05
        Block[  1] -2.400550e+05
        Block[  2] -2.458105e+05
        Block[  3] -2.459225e+05
        Block[  4] -2.410898e+05
        -----------------------------------------------------------------------
        Average  -2.405873e+05 +/-  8.024904e+03 [K]



Inter-molecular energy contributions per energy type:
-------------------------------------------------------------------------------

    Van der Waals energy/kʙ 0-0 [CO2-CO2]:
    ---------------------------------------------------------------------------
        Block[  0] -1.635781e+05
        Block[  1] -1.688021e+05
        Block[  2] -1.734004e+05
        Block[  3] -1.741544e+05
        Block[  4] -1.722406e+05
        -----------------------------------------------------------------------
        Average  -1.704351e+05 +/-  5.396133e+03 [K]

    VDW Tail-Correction energy/kʙ 0-0 [CO2-CO2]:
    ---------------------------------------------------------------------------
        Block[  0] -7.013864e+03
        Block[  1] -7.245599e+03
        Block[  2] -7.398858e+03
        Block[  3] -7.416910e+03
        Block[  4] -7.340668e+03
        -----------------------------------------------------------------------
        Average  -7.283180e+03 +/-  2.044779e+02 [K]

    Coulomb Real energy/kʙ 0-0 [CO2-CO2]:
    ---------------------------------------------------------------------------
        Block[  0] -4.808630e+04
        Block[  1] -5.183349e+04
        Block[  2] -5.269110e+04
        Block[  3] -5.208124e+04
        Block[  4] -4.916359e+04
        -----------------------------------------------------------------------
        Average  -5.077114e+04 +/-  2.507925e+03 [K]

    Coulomb Fourier energy/kʙ 0-0 [CO2-CO2]:
    ---------------------------------------------------------------------------
        Block[  0] -1.138035e+04
        Block[  1] -1.217376e+04
        Block[  2] -1.232021e+04
        Block[  3] -1.226998e+04
        Block[  4] -1.234495e+04
        -----------------------------------------------------------------------
        Average  -1.209785e+04 +/-  5.045503e+02 [K]


Total energy/kʙ
-------------------------------------------------------------------------------
    Block[  0] -2.300586e+05
    Block[  1] -2.400550e+05
    Block[  2] -2.458105e+05
    Block[  3] -2.459225e+05
    Block[  4] -2.410898e+05
    ---------------------------------------------------------------------------
    Average  -2.405873e+05 +/-  8.024904e+03 [K]

Pressure averages and statistics:
===============================================================================

Average pressure tensor: 
-------------------------------------------------------------------------------
 1.9402e+02 -2.2758e+01  1.1402e+01 +/- 1.0420e+02 9.5151e+01 4.6248e+01 [bar]
-2.2758e+01  1.1281e+02  1.8641e+01 +/- 9.5151e+01 9.8146e+01 7.1825e+01 [bar]
 1.1402e+01  1.8641e+01  2.3133e+02 +/- 4.6248e+01 7.1825e+01 4.7625e+01 [bar]

    Block[  0]  5.031147e+07
    Block[  1]  5.197241e+07
    Block[  2]  5.307466e+07
    Block[  3]  5.320721e+07
    Block[  4]  5.268064e+07
    ---------------------------------------------------------------------------
    Ideal gas pressure   5.224928e+07 +/-  8.859236e-02 [Pa]
                         5.224928e+02 +/-  1.471112e+01 [bar]


    Block[  0] -3.101210e+07
    Block[  1] -3.022219e+07
    Block[  2] -3.764352e+07
    Block[  3] -3.607766e+07
    Block[  4] -3.659898e+07
    ---------------------------------------------------------------------------
    Excess pressure  -3.431089e+07 +/-  4.258366e+06 [Pa]
                     -3.431089e+02 +/-  4.258366e+01 [bar]


    Block[  0]  1.929937e+07
    Block[  1]  2.175021e+07
    Block[  2]  1.543113e+07
    Block[  3]  1.712956e+07
    Block[  4]  1.608166e+07
    ---------------------------------------------------------------------------
    Pressure average   1.793839e+07 +/-  3.211669e+06 [Pa]
                       1.793839e+02 +/-  3.211669e+01 [bar]


Enthalpy of adsorption
===============================================================================

No fluctuating components present.


Densities
===============================================================================

Component 0 (CO2)
    Block[  0] 150
    Block[  1] 150
    Block[  2] 150
    Block[  3] 150
    Block[  4] 150
    -----------------------------------------------------------------------
    Density average   1.500000e+02 +/-  0.000000e+00 [molecules]
    Density average   1.513758e-02 +/-  4.262084e-04 [molec/A^3]
    Density average   1.105978e+03 +/-  3.113951e+01 [kg.m⁻³]

