Compiler and run-time data
===============================================================================
RASPA 3.0.4

Random seed: 3169662427

Compiled as a 64-bits application
Compiler: gcc Ubuntu Clang 18.1.3 (1ubuntu1)
Compile Date = Mar 15 2025, Compile Time = 19:39:45

2025-06-02 13:11:29.149858
Simulation started on Mon, Jun 02
The start time was 13:11:00

Hostname:    c061
OS type:     Linux on x86_64
OS release:  6.8.0-58-generic
OS version:  #60-Ubuntu SMP PREEMPT_DYNAMIC Fri Mar 14 18:29:48 UTC 2025


Mutual consistent basic set of units:
===============================================================================

Unit of temperature: 1 [K]
Unit of length:      1e-10 [m]
Unit of time:        1e-12 [s]
Unit of mass:        1.6605402e-27 [kg]
Unit of charge:      1.60217733e-19 [C/particle]


Boltzmann constant (internal units):          0.8314464919307584 [-]
represents conversion from energy (internal units) to temperature (in Kelvin)

Derived units and their conversion factors:
===============================================================================

Unit of energy:                           1.6605402000000002e-23 [J]
Unit of energy:                           10.000008872307538 [J.mol⁻¹]
Unit of velocity:                         100 [m.s⁻¹]
Unit of force:                            1.6605402000000002e-13 [N]
Unit of diffusion:                        1.0000000000000002e-08 [m².s⁻¹]
Unit of acceleration:                     1.0000000000000002e-08 [m².s⁻¹]
Unit of torque:                           1.6605402000000002e-23 [N.m]
Unit of pressure:                         16605402 [Pa]
Unit of volume:                           1e-30 [m³]
Unit of density:                          1660.5402 [kg.m⁻³]
Unit of dynamic viscosity:                1.6605401999999997e-05 [N.s.m⁻²]
Unit of enthalpy:                         1.6605402000000002e-23 [J]
Unit of polarizability:                   1.5458657349975198e-35 [-]
Unit of Coulomb potential:                167101.08000665612 [K]
Unit of dielectric constant:              1.5458657349975193e-05 [s².C².kg⁻¹.m⁻³]
Unit of dipole moment:                    1.60217733e-29 [C.m]
Unit of Debye:                            4.803206799099162 [C.m]
Unit of electric potential:               0.00010364272224473431 [V]
Unit of electric field:                   1036427.222447343 [V.m⁻¹]
Unit of isothermal compressibility:       6.02213665167516e-08 [Pa⁻¹]
Unit of heat capacity:                    10.000008872307538 [J.mol⁻¹.K⁻¹]
Unit of volumetric expansion coefficient: 1 [K⁻¹]


Internal conversion factors:
===============================================================================

Energy (internal units) to Kelvin:      1.202724284692786 [-]
Kelvin to energy (internal units):      0.8314457542157567 [-]


System definitions
===============================================================================

Temperature:          250 [K]
Beta:                 0.0048108928702210625 [-]
Pressure:             1.2e+07 [Pa]
Helium void fraction: 1 [-]

Box:      30.00000   0.00000   0.00000
           0.00000  30.00000   0.00000
           0.00000   0.00000  30.00000
Lengths:  30.00000  30.00000  30.00000
Angles:   90.00000  90.00000  90.00000
Rectangular boundary conditions



Property measurement settings
===============================================================================




Pseudo-atoms
===============================================================================

  0 - C_co2    framework-atom: false
  1 - O_co2    framework-atom: false

  0 - C_co2    mass: 12.00000, charge:  0.70000
  1 - O_co2    mass: 15.99940, charge: -0.35000

  0 - C_co2    polarizability:  0.00000
  1 - O_co2    polarizability:  0.00000

  0 - J. J. Potoff et al., AIChE J. 2001, 47, 1676–1682.
  1 - J. J. Potoff et al., AIChE J. 2001, 47, 1676–1682.

Force field status
===============================================================================

Cutoff Framework-Molecule VDW:  11.00000 [Å]
Cutoff Molecule-Molecule VDW:   11.00000 [Å]
Cutoff Coulomb:                 11.00000 [Å]

Overlap-criteria VDW:           1.000000e+05 [K]

C_co2    - C_co2    Lennard-Jones p₀/kʙ:  27.00000 [K], p₁:  2.80000 [Å]
                                  shift:   0.00000 [K], tailcorrections: true
C_co2    - O_co2    Lennard-Jones p₀/kʙ:  46.18441 [K], p₁:  2.92500 [Å]
                                  shift:   0.00000 [K], tailcorrections: true
O_co2    - O_co2    Lennard-Jones p₀/kʙ:  79.00000 [K], p₁:  3.05000 [Å]
                                  shift:   0.00000 [K], tailcorrections: true

Ewald precision: 1e-06
Ewald alpha: 0.2903408740940883
Ewald k-vectors: 9 9 9


Component definitions
===============================================================================

Component 0 [CO2]

    Type: Adsorbate

    Critical temperature:  304.1282 [K]
    Critical pressure:     7377300 [Pa]
    Acentric factor:       0.22394 [-]

    Mol-fraction:                 1 [-]
    Swappable:                   false

    Mass:                         43.9988 [-]
    Bulk fluid density:           0 [-]
    Compressibility:              0 [-]
    Excess molecules:             0 [-]

    Number Of Atoms:    3
    CBMC starting bead: 0
      0: O_co2  position  0.00000 -0.00000  1.16000, charge -0.35000
      1: C_co2  position  0.00000 -0.00000  0.00000, charge  0.70000
      2: O_co2  position  0.00000 -0.00000 -1.16000, charge -0.35000
    Diagonalized inertia-vector:      43.05758528 43.05758528 0.00000000
    Translational degrees of freedom: 3
    Rotational degrees of freedom:    2
    Shape of the molecule is: 'Linear'
    Net-charge:        0.00000000 [e]

    Move probabilities:
    Translation:                   0.331126 [-]
    Random translation:            0.000000 [-]
    Rotation:                      0.331126 [-]
    Random rotation:               0.000000 [-]
    Volume change:                 0.006623 [-]
    Reinsertion (CBMC):            0.331126 [-]
    Identity change (CBMC):        0.000000 [-]
    Swap:                          0.000000 [-]
    Swap (CBMC):                   0.000000 [-]
    Swap (CFCMC):                  0.000000 [-]
    Swap (CB/CFCMC):               0.000000 [-]
    Gibbs volume:                  0.000000 [-]
    Gibbs swap (CBMC):             0.000000 [-]
    Gibbs swap (CFCMC):            0.000000 [-]
    Widom:                         0.000000 [-]
    Widom (CFCMC):                 0.000000 [-]
    Widom (CB/CFCMC):              0.000000 [-]
    Parallel tempering:            0.000000 [-]
    Hybrid MC:                     0.000000 [-]

    number of blocking-pockets: 0

    number of bonds: 0





Number of pseudo-atoms
===============================================================================

Component   0 (CO2)
-------------------------------------------------------------------------------
    index   0 (C_co2): 250 atoms
    index   1 (O_co2): 500 atoms

Total number of pseudo-atoms:
-------------------------------------------------------------------------------
    index   0 (C_co2): 250 atoms
    index   1 (O_co2): 500 atoms




Energy status Recomputed from scratch
===============================================================================

Total potential energy/kʙ       -1.401057e+05 [K]
    external field VDW/kʙ        0.000000e+00 [K]
    external field Real/kʙ       0.000000e+00 [K]
    framework-molecule VDW/kʙ    0.000000e+00 [K]
    framework-molecule Real/kʙ   0.000000e+00 [K]
    molecule-molecule VDW/kʙ    -1.080488e+05 [K]
    molecule-molecule Real/kʙ   -2.354709e+04 [K]
    Van der Waals (Tail)/kʙ     -5.580763e+03 [K]
    Ewald Fourier/kʙ             1.976235e+04 [K]
    Ewald self/kʙ               -5.029674e+06 [K]
    Ewald exclusion/kʙ           5.006983e+06 [K]
    intra VDW/kʙ                 0.000000e+00 [K]
    intra Coulombic/kʙ           0.000000e+00 [K]
    polarization/kʙ              0.000000e+00 [K]
    dU/dlambda VDW/kʙ            0.000000e+00 [K]
    dU/dlambda Real/kʙ           0.000000e+00 [K]
    dU/dlambda Ewald/kʙ          0.000000e+00 [K]





Initialization: Current cycle: 0 out of 1000
===============================================================================

Box:      30.15252   0.00000   0.00000
           0.00000  30.15252   0.00000
           0.00000   0.00000  30.15252
Lengths:  30.15252  30.15252  30.15252
Angles:   90.00000  90.00000  90.00000
Rectangular boundary conditions

net charge:   0.00000000

component   0 (CO2) lambda:  0 occupancy:  1 (1.000000)
    net charge:   0.00000000 [e]

Amount of molecules per component :
-------------------------------------------------------------------------------
Component 0 (CO2)
    molecules:         2.500000e+02 molecules
    number density:    9.119460e-03 molec/A^3
    density:           6.662833e+02 kg/m^3

Total potential energy/kʙ       -1.923363e+05 [K]
-------------------------------------------------------------------------------
    external field VDW/kʙ        0.000000e+00 [K]
    external field Real/kʙ       0.000000e+00 [K]
    framework-molecule VDW/kʙ    0.000000e+00 [K]
    framework-molecule Real/kʙ   0.000000e+00 [K]
    molecule-molecule VDW/kʙ    -1.552508e+05 [K]
    molecule-molecule Real/kʙ   -2.737569e+04 [K]
    Van der Waals (Tail)/kʙ     -5.496502e+03 [K]
    Ewald Fourier/kʙ             1.847805e+04 [K]
    Ewald self/kʙ               -5.029674e+06 [K]
    Ewald exclusion/kʙ           5.006983e+06 [K]
    intra VDW/kʙ                 0.000000e+00 [K]
    intra Coulombic/kʙ           0.000000e+00 [K]
    polarization/kʙ              0.000000e+00 [K]
    dU/dlambda VDW/kʙ            0.000000e+00 [K]
    dU/dlambda Real/kʙ           0.000000e+00 [K]
    dU/dlambda Ewald/kʙ          0.000000e+00 [K]


Initialization: Current cycle: 100 out of 1000
===============================================================================

Box:      28.43090   0.00000   0.00000
           0.00000  28.43090   0.00000
           0.00000   0.00000  28.43090
Lengths:  28.43090  28.43090  28.43090
Angles:   90.00000  90.00000  90.00000
Rectangular boundary conditions

net charge:   0.00000000

component   0 (CO2) lambda:  0 occupancy:  1 (1.000000)
    net charge:   0.00000000 [e]

Amount of molecules per component :
-------------------------------------------------------------------------------
Component 0 (CO2)
    molecules:         2.500000e+02 molecules
    number density:    1.087848e-02 molec/A^3
    density:           7.948003e+02 kg/m^3

Total potential energy/kʙ       -2.957575e+05 [K]
-------------------------------------------------------------------------------
    external field VDW/kʙ        0.000000e+00 [K]
    external field Real/kʙ       0.000000e+00 [K]
    framework-molecule VDW/kʙ    0.000000e+00 [K]
    framework-molecule Real/kʙ   0.000000e+00 [K]
    molecule-molecule VDW/kʙ    -2.144704e+05 [K]
    molecule-molecule Real/kʙ   -6.479451e+04 [K]
    Van der Waals (Tail)/kʙ     -6.556702e+03 [K]
    Ewald Fourier/kʙ             1.275550e+04 [K]
    Ewald self/kʙ               -5.029674e+06 [K]
    Ewald exclusion/kʙ           5.006983e+06 [K]
    intra VDW/kʙ                 0.000000e+00 [K]
    intra Coulombic/kʙ           0.000000e+00 [K]
    polarization/kʙ              0.000000e+00 [K]
    dU/dlambda VDW/kʙ            0.000000e+00 [K]
    dU/dlambda Real/kʙ           0.000000e+00 [K]
    dU/dlambda Ewald/kʙ          0.000000e+00 [K]


Initialization: Current cycle: 200 out of 1000
===============================================================================

Box:      27.44033   0.00000   0.00000
           0.00000  27.44033   0.00000
           0.00000   0.00000  27.44033
Lengths:  27.44033  27.44033  27.44033
Angles:   90.00000  90.00000  90.00000
Rectangular boundary conditions

net charge:   0.00000000

component   0 (CO2) lambda:  0 occupancy:  1 (1.000000)
    net charge:   0.00000000 [e]

Amount of molecules per component :
-------------------------------------------------------------------------------
Component 0 (CO2)
    molecules:         2.500000e+02 molecules
    number density:    1.209963e-02 molec/A^3
    density:           8.840196e+02 kg/m^3

Total potential energy/kʙ       -3.146887e+05 [K]
-------------------------------------------------------------------------------
    external field VDW/kʙ        0.000000e+00 [K]
    external field Real/kʙ       0.000000e+00 [K]
    framework-molecule VDW/kʙ    0.000000e+00 [K]
    framework-molecule Real/kʙ   0.000000e+00 [K]
    molecule-molecule VDW/kʙ    -2.275545e+05 [K]
    molecule-molecule Real/kʙ   -6.909916e+04 [K]
    Van der Waals (Tail)/kʙ     -7.292717e+03 [K]
    Ewald Fourier/kʙ             1.194913e+04 [K]
    Ewald self/kʙ               -5.029674e+06 [K]
    Ewald exclusion/kʙ           5.006983e+06 [K]
    intra VDW/kʙ                 0.000000e+00 [K]
    intra Coulombic/kʙ           0.000000e+00 [K]
    polarization/kʙ              0.000000e+00 [K]
    dU/dlambda VDW/kʙ            0.000000e+00 [K]
    dU/dlambda Real/kʙ           0.000000e+00 [K]
    dU/dlambda Ewald/kʙ          0.000000e+00 [K]


Initialization: Current cycle: 300 out of 1000
===============================================================================

Box:      26.59032   0.00000   0.00000
           0.00000  26.59032   0.00000
           0.00000   0.00000  26.59032
Lengths:  26.59032  26.59032  26.59032
Angles:   90.00000  90.00000  90.00000
Rectangular boundary conditions

net charge:   0.00000000

component   0 (CO2) lambda:  0 occupancy:  1 (1.000000)
    net charge:   0.00000000 [e]

Amount of molecules per component :
-------------------------------------------------------------------------------
Component 0 (CO2)
    molecules:         2.500000e+02 molecules
    number density:    1.329748e-02 molec/A^3
    density:           9.715366e+02 kg/m^3

Total potential energy/kʙ       -3.523733e+05 [K]
-------------------------------------------------------------------------------
    external field VDW/kʙ        0.000000e+00 [K]
    external field Real/kʙ       0.000000e+00 [K]
    framework-molecule VDW/kʙ    0.000000e+00 [K]
    framework-molecule Real/kʙ   0.000000e+00 [K]
    molecule-molecule VDW/kʙ    -2.523175e+05 [K]
    molecule-molecule Real/kʙ   -8.021874e+04 [K]
    Van der Waals (Tail)/kʙ     -8.014688e+03 [K]
    Ewald Fourier/kʙ             1.086897e+04 [K]
    Ewald self/kʙ               -5.029674e+06 [K]
    Ewald exclusion/kʙ           5.006983e+06 [K]
    intra VDW/kʙ                 0.000000e+00 [K]
    intra Coulombic/kʙ           0.000000e+00 [K]
    polarization/kʙ              0.000000e+00 [K]
    dU/dlambda VDW/kʙ            0.000000e+00 [K]
    dU/dlambda Real/kʙ           0.000000e+00 [K]
    dU/dlambda Ewald/kʙ          0.000000e+00 [K]


Initialization: Current cycle: 400 out of 1000
===============================================================================

Box:      25.86099   0.00000   0.00000
           0.00000  25.86099   0.00000
           0.00000   0.00000  25.86099
Lengths:  25.86099  25.86099  25.86099
Angles:   90.00000  90.00000  90.00000
Rectangular boundary conditions

net charge:   0.00000000

component   0 (CO2) lambda:  0 occupancy:  1 (1.000000)
    net charge:   0.00000000 [e]

Amount of molecules per component :
-------------------------------------------------------------------------------
Component 0 (CO2)
    molecules:         2.500000e+02 molecules
    number density:    1.445456e-02 molec/A^3
    density:           1.056075e+03 kg/m^3

Total potential energy/kʙ       -3.784019e+05 [K]
-------------------------------------------------------------------------------
    external field VDW/kʙ        0.000000e+00 [K]
    external field Real/kʙ       0.000000e+00 [K]
    framework-molecule VDW/kʙ    0.000000e+00 [K]
    framework-molecule Real/kʙ   0.000000e+00 [K]
    molecule-molecule VDW/kʙ    -2.715144e+05 [K]
    molecule-molecule Real/kʙ   -8.574669e+04 [K]
    Van der Waals (Tail)/kʙ     -8.712085e+03 [K]
    Ewald Fourier/kʙ             1.026265e+04 [K]
    Ewald self/kʙ               -5.029674e+06 [K]
    Ewald exclusion/kʙ           5.006983e+06 [K]
    intra VDW/kʙ                 0.000000e+00 [K]
    intra Coulombic/kʙ           0.000000e+00 [K]
    polarization/kʙ              0.000000e+00 [K]
    dU/dlambda VDW/kʙ            0.000000e+00 [K]
    dU/dlambda Real/kʙ           0.000000e+00 [K]
    dU/dlambda Ewald/kʙ          0.000000e+00 [K]


Initialization: Current cycle: 500 out of 1000
===============================================================================

Box:      25.87092   0.00000   0.00000
           0.00000  25.87092   0.00000
           0.00000   0.00000  25.87092
Lengths:  25.87092  25.87092  25.87092
Angles:   90.00000  90.00000  90.00000
Rectangular boundary conditions

net charge:   0.00000000

component   0 (CO2) lambda:  0 occupancy:  1 (1.000000)
    net charge:   0.00000000 [e]

Amount of molecules per component :
-------------------------------------------------------------------------------
Component 0 (CO2)
    molecules:         2.500000e+02 molecules
    number density:    1.443792e-02 molec/A^3
    density:           1.054859e+03 kg/m^3

Total potential energy/kʙ       -3.844635e+05 [K]
-------------------------------------------------------------------------------
    external field VDW/kʙ        0.000000e+00 [K]
    external field Real/kʙ       0.000000e+00 [K]
    framework-molecule VDW/kʙ    0.000000e+00 [K]
    framework-molecule Real/kʙ   0.000000e+00 [K]
    molecule-molecule VDW/kʙ    -2.723457e+05 [K]
    molecule-molecule Real/kʙ   -9.045209e+04 [K]
    Van der Waals (Tail)/kʙ     -8.702055e+03 [K]
    Ewald Fourier/kʙ             9.727658e+03 [K]
    Ewald self/kʙ               -5.029674e+06 [K]
    Ewald exclusion/kʙ           5.006983e+06 [K]
    intra VDW/kʙ                 0.000000e+00 [K]
    intra Coulombic/kʙ           0.000000e+00 [K]
    polarization/kʙ              0.000000e+00 [K]
    dU/dlambda VDW/kʙ            0.000000e+00 [K]
    dU/dlambda Real/kʙ           0.000000e+00 [K]
    dU/dlambda Ewald/kʙ          0.000000e+00 [K]


Initialization: Current cycle: 600 out of 1000
===============================================================================

Box:      25.52347   0.00000   0.00000
           0.00000  25.52347   0.00000
           0.00000   0.00000  25.52347
Lengths:  25.52347  25.52347  25.52347
Angles:   90.00000  90.00000  90.00000
Rectangular boundary conditions

net charge:   0.00000000

component   0 (CO2) lambda:  0 occupancy:  1 (1.000000)
    net charge:   0.00000000 [e]

Amount of molecules per component :
-------------------------------------------------------------------------------
Component 0 (CO2)
    molecules:         2.500000e+02 molecules
    number density:    1.503560e-02 molec/A^3
    density:           1.098527e+03 kg/m^3

Total potential energy/kʙ       -3.903704e+05 [K]
-------------------------------------------------------------------------------
    external field VDW/kʙ        0.000000e+00 [K]
    external field Real/kʙ       0.000000e+00 [K]
    framework-molecule VDW/kʙ    0.000000e+00 [K]
    framework-molecule Real/kʙ   0.000000e+00 [K]
    molecule-molecule VDW/kʙ    -2.850246e+05 [K]
    molecule-molecule Real/kʙ   -8.326391e+04 [K]
    Van der Waals (Tail)/kʙ     -9.062293e+03 [K]
    Ewald Fourier/kʙ             9.671738e+03 [K]
    Ewald self/kʙ               -5.029674e+06 [K]
    Ewald exclusion/kʙ           5.006983e+06 [K]
    intra VDW/kʙ                 0.000000e+00 [K]
    intra Coulombic/kʙ           0.000000e+00 [K]
    polarization/kʙ              0.000000e+00 [K]
    dU/dlambda VDW/kʙ            0.000000e+00 [K]
    dU/dlambda Real/kʙ           0.000000e+00 [K]
    dU/dlambda Ewald/kʙ          0.000000e+00 [K]


Initialization: Current cycle: 700 out of 1000
===============================================================================

Box:      25.39532   0.00000   0.00000
           0.00000  25.39532   0.00000
           0.00000   0.00000  25.39532
Lengths:  25.39532  25.39532  25.39532
Angles:   90.00000  90.00000  90.00000
Rectangular boundary conditions

net charge:   0.00000000

component   0 (CO2) lambda:  0 occupancy:  1 (1.000000)
    net charge:   0.00000000 [e]

Amount of molecules per component :
-------------------------------------------------------------------------------
Component 0 (CO2)
    molecules:         2.500000e+02 molecules
    number density:    1.526438e-02 molec/A^3
    density:           1.115242e+03 kg/m^3

Total potential energy/kʙ       -4.001654e+05 [K]
-------------------------------------------------------------------------------
    external field VDW/kʙ        0.000000e+00 [K]
    external field Real/kʙ       0.000000e+00 [K]
    framework-molecule VDW/kʙ    0.000000e+00 [K]
    framework-molecule Real/kʙ   0.000000e+00 [K]
    molecule-molecule VDW/kʙ    -2.831871e+05 [K]
    molecule-molecule Real/kʙ   -9.423782e+04 [K]
    Van der Waals (Tail)/kʙ     -9.200182e+03 [K]
    Ewald Fourier/kʙ             9.151042e+03 [K]
    Ewald self/kʙ               -5.029674e+06 [K]
    Ewald exclusion/kʙ           5.006983e+06 [K]
    intra VDW/kʙ                 0.000000e+00 [K]
    intra Coulombic/kʙ           0.000000e+00 [K]
    polarization/kʙ              0.000000e+00 [K]
    dU/dlambda VDW/kʙ            0.000000e+00 [K]
    dU/dlambda Real/kʙ           0.000000e+00 [K]
    dU/dlambda Ewald/kʙ          0.000000e+00 [K]


Initialization: Current cycle: 800 out of 1000
===============================================================================

Box:      25.68522   0.00000   0.00000
           0.00000  25.68522   0.00000
           0.00000   0.00000  25.68522
Lengths:  25.68522  25.68522  25.68522
Angles:   90.00000  90.00000  90.00000
Rectangular boundary conditions

net charge:   0.00000000

component   0 (CO2) lambda:  0 occupancy:  1 (1.000000)
    net charge:   0.00000000 [e]

Amount of molecules per component :
-------------------------------------------------------------------------------
Component 0 (CO2)
    molecules:         2.500000e+02 molecules
    number density:    1.475334e-02 molec/A^3
    density:           1.077904e+03 kg/m^3

Total potential energy/kʙ       -3.863796e+05 [K]
-------------------------------------------------------------------------------
    external field VDW/kʙ        0.000000e+00 [K]
    external field Real/kʙ       0.000000e+00 [K]
    framework-molecule VDW/kʙ    0.000000e+00 [K]
    framework-molecule Real/kʙ   0.000000e+00 [K]
    molecule-molecule VDW/kʙ    -2.744247e+05 [K]
    molecule-molecule Real/kʙ   -9.034124e+04 [K]
    Van der Waals (Tail)/kʙ     -8.892165e+03 [K]
    Ewald Fourier/kʙ             9.969851e+03 [K]
    Ewald self/kʙ               -5.029674e+06 [K]
    Ewald exclusion/kʙ           5.006983e+06 [K]
    intra VDW/kʙ                 0.000000e+00 [K]
    intra Coulombic/kʙ           0.000000e+00 [K]
    polarization/kʙ              0.000000e+00 [K]
    dU/dlambda VDW/kʙ            0.000000e+00 [K]
    dU/dlambda Real/kʙ           0.000000e+00 [K]
    dU/dlambda Ewald/kʙ          0.000000e+00 [K]


Initialization: Current cycle: 900 out of 1000
===============================================================================

Box:      25.62918   0.00000   0.00000
           0.00000  25.62918   0.00000
           0.00000   0.00000  25.62918
Lengths:  25.62918  25.62918  25.62918
Angles:   90.00000  90.00000  90.00000
Rectangular boundary conditions

net charge:   0.00000000

component   0 (CO2) lambda:  0 occupancy:  1 (1.000000)
    net charge:   0.00000000 [e]

Amount of molecules per component :
-------------------------------------------------------------------------------
Component 0 (CO2)
    molecules:         2.500000e+02 molecules
    number density:    1.485033e-02 molec/A^3
    density:           1.084990e+03 kg/m^3

Total potential energy/kʙ       -3.974136e+05 [K]
-------------------------------------------------------------------------------
    external field VDW/kʙ        0.000000e+00 [K]
    external field Real/kʙ       0.000000e+00 [K]
    framework-molecule VDW/kʙ    0.000000e+00 [K]
    framework-molecule Real/kʙ   0.000000e+00 [K]
    molecule-molecule VDW/kʙ    -2.824980e+05 [K]
    molecule-molecule Real/kʙ   -9.275494e+04 [K]
    Van der Waals (Tail)/kʙ     -8.950624e+03 [K]
    Ewald Fourier/kʙ             9.481353e+03 [K]
    Ewald self/kʙ               -5.029674e+06 [K]
    Ewald exclusion/kʙ           5.006983e+06 [K]
    intra VDW/kʙ                 0.000000e+00 [K]
    intra Coulombic/kʙ           0.000000e+00 [K]
    polarization/kʙ              0.000000e+00 [K]
    dU/dlambda VDW/kʙ            0.000000e+00 [K]
    dU/dlambda Real/kʙ           0.000000e+00 [K]
    dU/dlambda Ewald/kʙ          0.000000e+00 [K]


Current cycle: 0 out of 5000
===============================================================================

Box:      25.69807   0.00000   0.00000  Average:  25.69807   0.00000   0.00000
           0.00000  25.69807   0.00000             0.00000  25.69807   0.00000
           0.00000   0.00000  25.69807             0.00000   0.00000  25.69807
Lengths:  25.69807  25.69807  25.69807  Average:  25.69807  25.69807  25.69807
Angles:   90.00000  90.00000  90.00000  Average:  90.00000  90.00000  90.00000
Rectangular boundary conditions

net charge:   0.00000000

component 0 (CO2) lambda:  0 occupancy:  1 (1.000000)
    net charge:   0.00000000 [e]

Amount of molecules per component :
-------------------------------------------------------------------------------
Component 0 (CO2)
    molecules:      2.500000e+02 molecules  (2.500000e+02 +/- 0.000000e+00)
    number density: 1.473121e-02 molec./A^3 (1.473121e-02 +/- 0.000000e+00)
    density:        1.076287e+03 kg/m^3     (1.076287e+03 +/- 0.000000e+00)

Average pressure tensor: 
-------------------------------------------------------------------------------
 5.0847e+02  0.0000e+00  0.0000e+00 +/- 0.0000e+00 0.0000e+00 0.0000e+00 [bar]
 0.0000e+00  5.0847e+02  0.0000e+00 +/- 0.0000e+00 0.0000e+00 0.0000e+00 [bar]
 0.0000e+00  0.0000e+00  5.0847e+02 +/- 0.0000e+00 0.0000e+00 0.0000e+00 [bar]
Ideal-gas pressure:   5.084662e+02 +/ 0.000000e+00 [bar]
Excess pressure:      0.000000e+00 +/ 0.000000e+00 [bar]
Pressure:             5.084662e+02 +/ 0.000000e+00 [bar]

Total potential energy/kʙ  -3.895535e+05 (-3.895535e+05 +/- 0.000000e+00) [K]
-------------------------------------------------------------------------------
ExternalField-molecule
    Van der Waals/kʙ        0.000000e+00 ( 0.000000e+00 +/- 0.000000e+00) [K]
Framework-molecule
    Van der Waals/kʙ        0.000000e+00 ( 0.000000e+00 +/- 0.000000e+00) [K]
    Van der Waals (Tail)/kʙ 0.000000e+00 ( 0.000000e+00 +/- 0.000000e+00) [K]
    Coulombic Real/kʙ       0.000000e+00 ( 0.000000e+00 +/- 0.000000e+00) [K]
    Coulombic Fourier/kʙ    0.000000e+00 ( 0.000000e+00 +/- 0.000000e+00) [K]
Molecule-molecule
    Van der Waals/kʙ       -2.784100e+05 (-2.784100e+05 +/- 0.000000e+00) [K]
    Van der Waals (Tail)/kʙ-8.878828e+03 (-8.878828e+03 +/- 0.000000e+00) [K]
    Coulombic Real/kʙ      -8.939754e+04 (-8.939754e+04 +/- 0.000000e+00) [K]
    Coulombic Fourier/kʙ   -1.286719e+04 (-1.286719e+04 +/- 0.000000e+00) [K]
    Molecule Intra/kʙ       0.000000e+00 ( 0.000000e+00 +/- 0.000000e+00) [K]

Current cycle: 100 out of 5000
===============================================================================

Box:      25.65663   0.00000   0.00000  Average:  25.72721   0.00000   0.00000
           0.00000  25.65663   0.00000             0.00000  25.72721   0.00000
           0.00000   0.00000  25.65663             0.00000   0.00000  25.72721
Lengths:  25.65663  25.65663  25.65663  Average:  25.72721  25.72721  25.72721
Angles:   90.00000  90.00000  90.00000  Average:  90.00000  90.00000  90.00000
Rectangular boundary conditions

net charge:   0.00000000

component 0 (CO2) lambda:  0 occupancy:  1 (1.000000)
    net charge:   0.00000000 [e]

Amount of molecules per component :
-------------------------------------------------------------------------------
Component 0 (CO2)
    molecules:      2.500000e+02 molecules  (2.500000e+02 +/- 0.000000e+00)
    number density: 1.480272e-02 molec./A^3 (1.468238e-02 +/- 0.000000e+00)
    density:        1.081512e+03 kg/m^3     (1.072720e+03 +/- 0.000000e+00)

Average pressure tensor: 
-------------------------------------------------------------------------------
 1.6553e+02 -1.6577e+01  1.3663e+02 +/- 0.0000e+00 0.0000e+00 0.0000e+00 [bar]
-1.6577e+01  2.5395e+00  1.7175e+02 +/- 0.0000e+00 0.0000e+00 0.0000e+00 [bar]
 1.3663e+02  1.7175e+02  3.5740e+02 +/- 0.0000e+00 0.0000e+00 0.0000e+00 [bar]
Ideal-gas pressure:   5.067807e+02 +/ 0.000000e+00 [bar]
Excess pressure:     -3.316241e+02 +/ 0.000000e+00 [bar]
Pressure:             1.751566e+02 +/ 0.000000e+00 [bar]

Total potential energy/kʙ  -3.898546e+05 (-3.866442e+05 +/- 0.000000e+00) [K]
-------------------------------------------------------------------------------
ExternalField-molecule
    Van der Waals/kʙ        0.000000e+00 ( 0.000000e+00 +/- 0.000000e+00) [K]
Framework-molecule
    Van der Waals/kʙ        0.000000e+00 ( 0.000000e+00 +/- 0.000000e+00) [K]
    Van der Waals (Tail)/kʙ 0.000000e+00 ( 0.000000e+00 +/- 0.000000e+00) [K]
    Coulombic Real/kʙ       0.000000e+00 ( 0.000000e+00 +/- 0.000000e+00) [K]
    Coulombic Fourier/kʙ    0.000000e+00 ( 0.000000e+00 +/- 0.000000e+00) [K]
Molecule-molecule
    Van der Waals/kʙ       -2.843514e+05 (-2.787787e+05 +/- 0.000000e+00) [K]
    Van der Waals (Tail)/kʙ-8.921928e+03 (-8.876839e+03 +/- 0.000000e+00) [K]
    Coulombic Real/kʙ      -8.354418e+04 (-8.603999e+04 +/- 0.000000e+00) [K]
    Coulombic Fourier/kʙ   -1.303711e+04 (-1.294858e+04 +/- 0.000000e+00) [K]
    Molecule Intra/kʙ       0.000000e+00 ( 0.000000e+00 +/- 0.000000e+00) [K]

Current cycle: 200 out of 5000
===============================================================================

Box:      26.04269   0.00000   0.00000  Average:  25.85192   0.00000   0.00000
           0.00000  26.04269   0.00000             0.00000  25.85192   0.00000
           0.00000   0.00000  26.04269             0.00000   0.00000  25.85192
Lengths:  26.04269  26.04269  26.04269  Average:  25.85192  25.85192  25.85192
Angles:   90.00000  90.00000  90.00000  Average:  90.00000  90.00000  90.00000
Rectangular boundary conditions

net charge:   0.00000000

component 0 (CO2) lambda:  0 occupancy:  1 (1.000000)
    net charge:   0.00000000 [e]

Amount of molecules per component :
-------------------------------------------------------------------------------
Component 0 (CO2)
    molecules:      2.500000e+02 molecules  (2.500000e+02 +/- 0.000000e+00)
    number density: 1.415410e-02 molec./A^3 (1.447341e-02 +/- 0.000000e+00)
    density:        1.034123e+03 kg/m^3     (1.057452e+03 +/- 0.000000e+00)

Average pressure tensor: 
-------------------------------------------------------------------------------
 7.7398e+01 -8.3801e+00 -4.0968e+00 +/- 0.0000e+00 0.0000e+00 0.0000e+00 [bar]
-8.3801e+00  6.2542e+01  1.3157e+02 +/- 0.0000e+00 0.0000e+00 0.0000e+00 [bar]
-4.0968e+00  1.3157e+02  2.7458e+02 +/- 0.0000e+00 0.0000e+00 0.0000e+00 [bar]
Ideal-gas pressure:   4.995679e+02 +/ 0.000000e+00 [bar]
Excess pressure:     -3.613961e+02 +/ 0.000000e+00 [bar]
Pressure:             1.381719e+02 +/ 0.000000e+00 [bar]

Total potential energy/kʙ  -3.639066e+05 (-3.792491e+05 +/- 0.000000e+00) [K]
-------------------------------------------------------------------------------
ExternalField-molecule
    Van der Waals/kʙ        0.000000e+00 ( 0.000000e+00 +/- 0.000000e+00) [K]
Framework-molecule
    Van der Waals/kʙ        0.000000e+00 ( 0.000000e+00 +/- 0.000000e+00) [K]
    Van der Waals (Tail)/kʙ 0.000000e+00 ( 0.000000e+00 +/- 0.000000e+00) [K]
    Coulombic Real/kʙ       0.000000e+00 ( 0.000000e+00 +/- 0.000000e+00) [K]
    Coulombic Fourier/kʙ    0.000000e+00 ( 0.000000e+00 +/- 0.000000e+00) [K]
Molecule-molecule
    Van der Waals/kʙ       -2.660677e+05 (-2.745821e+05 +/- 0.000000e+00) [K]
    Van der Waals (Tail)/kʙ-8.530993e+03 (-8.735660e+03 +/- 0.000000e+00) [K]
    Coulombic Real/kʙ      -7.805848e+04 (-8.339040e+04 +/- 0.000000e+00) [K]
    Coulombic Fourier/kʙ   -1.124943e+04 (-1.254096e+04 +/- 0.000000e+00) [K]
    Molecule Intra/kʙ       0.000000e+00 ( 0.000000e+00 +/- 0.000000e+00) [K]

Current cycle: 300 out of 5000
===============================================================================

Box:      25.98668   0.00000   0.00000  Average:  25.91103   0.00000   0.00000
           0.00000  25.98668   0.00000             0.00000  25.91103   0.00000
           0.00000   0.00000  25.98668             0.00000   0.00000  25.91103
Lengths:  25.98668  25.98668  25.98668  Average:  25.91103  25.91103  25.91103
Angles:   90.00000  90.00000  90.00000  Average:  90.00000  90.00000  90.00000
Rectangular boundary conditions

net charge:   0.00000000

component 0 (CO2) lambda:  0 occupancy:  1 (1.000000)
    net charge:   0.00000000 [e]

Amount of molecules per component :
-------------------------------------------------------------------------------
Component 0 (CO2)
    molecules:      2.500000e+02 molecules  (2.500000e+02 +/- 0.000000e+00)
    number density: 1.424583e-02 molec./A^3 (1.437462e-02 +/- 0.000000e+00)
    density:        1.040825e+03 kg/m^3     (1.050235e+03 +/- 0.000000e+00)

Average pressure tensor: 
-------------------------------------------------------------------------------
 8.6220e+01  4.1167e+01 -7.7102e+00 +/- 0.0000e+00 0.0000e+00 0.0000e+00 [bar]
 4.1167e+01  5.4593e+01  1.0323e+02 +/- 0.0000e+00 0.0000e+00 0.0000e+00 [bar]
-7.7102e+00  1.0323e+02  2.6134e+02 +/- 0.0000e+00 0.0000e+00 0.0000e+00 [bar]
Ideal-gas pressure:   4.961582e+02 +/ 0.000000e+00 [bar]
Excess pressure:     -3.621063e+02 +/ 0.000000e+00 [bar]
Pressure:             1.340519e+02 +/ 0.000000e+00 [bar]

Total potential energy/kʙ  -3.733694e+05 (-3.767046e+05 +/- 0.000000e+00) [K]
-------------------------------------------------------------------------------
ExternalField-molecule
    Van der Waals/kʙ        0.000000e+00 ( 0.000000e+00 +/- 0.000000e+00) [K]
Framework-molecule
    Van der Waals/kʙ        0.000000e+00 ( 0.000000e+00 +/- 0.000000e+00) [K]
    Van der Waals (Tail)/kʙ 0.000000e+00 ( 0.000000e+00 +/- 0.000000e+00) [K]
    Coulombic Real/kʙ       0.000000e+00 ( 0.000000e+00 +/- 0.000000e+00) [K]
    Coulombic Fourier/kʙ    0.000000e+00 ( 0.000000e+00 +/- 0.000000e+00) [K]
Molecule-molecule
    Van der Waals/kʙ       -2.692190e+05 (-2.727117e+05 +/- 0.000000e+00) [K]
    Van der Waals (Tail)/kʙ-8.586281e+03 (-8.676673e+03 +/- 0.000000e+00) [K]
    Coulombic Real/kʙ      -8.223796e+04 (-8.277436e+04 +/- 0.000000e+00) [K]
    Coulombic Fourier/kʙ   -1.332616e+04 (-1.254186e+04 +/- 0.000000e+00) [K]
    Molecule Intra/kʙ       0.000000e+00 ( 0.000000e+00 +/- 0.000000e+00) [K]

Current cycle: 400 out of 5000
===============================================================================

Box:      25.90463   0.00000   0.00000  Average:  25.89012   0.00000   0.00000
           0.00000  25.90463   0.00000             0.00000  25.89012   0.00000
           0.00000   0.00000  25.90463             0.00000   0.00000  25.89012
Lengths:  25.90463  25.90463  25.90463  Average:  25.89012  25.89012  25.89012
Angles:   90.00000  90.00000  90.00000  Average:  90.00000  90.00000  90.00000
Rectangular boundary conditions

net charge:   0.00000000

component 0 (CO2) lambda:  0 occupancy:  1 (1.000000)
    net charge:   0.00000000 [e]

Amount of molecules per component :
-------------------------------------------------------------------------------
Component 0 (CO2)
    molecules:      2.500000e+02 molecules  (2.500000e+02 +/- 0.000000e+00)
    number density: 1.438162e-02 molec./A^3 (1.440899e-02 +/- 0.000000e+00)
    density:        1.050745e+03 kg/m^3     (1.052746e+03 +/- 0.000000e+00)

Average pressure tensor: 
-------------------------------------------------------------------------------
 1.3297e+02  2.7939e+01  3.7722e+01 +/- 0.0000e+00 0.0000e+00 0.0000e+00 [bar]
 2.7939e+01  6.0731e+01  3.7844e+01 +/- 0.0000e+00 0.0000e+00 0.0000e+00 [bar]
 3.7722e+01  3.7844e+01  2.4324e+02 +/- 0.0000e+00 0.0000e+00 0.0000e+00 [bar]
Ideal-gas pressure:   4.973445e+02 +/ 0.000000e+00 [bar]
Excess pressure:     -3.516988e+02 +/ 0.000000e+00 [bar]
Pressure:             1.456457e+02 +/ 0.000000e+00 [bar]

Total potential energy/kʙ  -3.775530e+05 (-3.761146e+05 +/- 0.000000e+00) [K]
-------------------------------------------------------------------------------
ExternalField-molecule
    Van der Waals/kʙ        0.000000e+00 ( 0.000000e+00 +/- 0.000000e+00) [K]
Framework-molecule
    Van der Waals/kʙ        0.000000e+00 ( 0.000000e+00 +/- 0.000000e+00) [K]
    Van der Waals (Tail)/kʙ 0.000000e+00 ( 0.000000e+00 +/- 0.000000e+00) [K]
    Coulombic Real/kʙ       0.000000e+00 ( 0.000000e+00 +/- 0.000000e+00) [K]
    Coulombic Fourier/kʙ    0.000000e+00 ( 0.000000e+00 +/- 0.000000e+00) [K]
Molecule-molecule
    Van der Waals/kʙ       -2.775030e+05 (-2.729479e+05 +/- 0.000000e+00) [K]
    Van der Waals (Tail)/kʙ-8.668121e+03 (-8.692394e+03 +/- 0.000000e+00) [K]
    Coulombic Real/kʙ      -7.788794e+04 (-8.190246e+04 +/- 0.000000e+00) [K]
    Coulombic Fourier/kʙ   -1.349393e+04 (-1.257190e+04 +/- 0.000000e+00) [K]
    Molecule Intra/kʙ       0.000000e+00 ( 0.000000e+00 +/- 0.000000e+00) [K]

Current cycle: 500 out of 5000
===============================================================================

Box:      25.70806   0.00000   0.00000  Average:  25.86918   0.00000   0.00000
           0.00000  25.70806   0.00000             0.00000  25.86918   0.00000
           0.00000   0.00000  25.70806             0.00000   0.00000  25.86918
Lengths:  25.70806  25.70806  25.70806  Average:  25.86918  25.86918  25.86918
Angles:   90.00000  90.00000  90.00000  Average:  90.00000  90.00000  90.00000
Rectangular boundary conditions

net charge:   0.00000000

component 0 (CO2) lambda:  0 occupancy:  1 (1.000000)
    net charge:   0.00000000 [e]

Amount of molecules per component :
-------------------------------------------------------------------------------
Component 0 (CO2)
    molecules:      2.500000e+02 molecules  (2.500000e+02 +/- 0.000000e+00)
    number density: 1.471405e-02 molec./A^3 (1.444383e-02 +/- 0.000000e+00)
    density:        1.075034e+03 kg/m^3     (1.055291e+03 +/- 0.000000e+00)

Average pressure tensor: 
-------------------------------------------------------------------------------
 1.2363e+02  4.7731e+01  3.4874e+01 +/- 0.0000e+00 0.0000e+00 0.0000e+00 [bar]
 4.7731e+01  3.4928e+01  1.1267e+01 +/- 0.0000e+00 0.0000e+00 0.0000e+00 [bar]
 3.4874e+01  1.1267e+01  1.9108e+02 +/- 0.0000e+00 0.0000e+00 0.0000e+00 [bar]
Ideal-gas pressure:   4.985469e+02 +/ 0.000000e+00 [bar]
Excess pressure:     -3.820013e+02 +/ 0.000000e+00 [bar]
Pressure:             1.165456e+02 +/ 0.000000e+00 [bar]

Total potential energy/kʙ  -3.898839e+05 (-3.769304e+05 +/- 0.000000e+00) [K]
-------------------------------------------------------------------------------
ExternalField-molecule
    Van der Waals/kʙ        0.000000e+00 ( 0.000000e+00 +/- 0.000000e+00) [K]
Framework-molecule
    Van der Waals/kʙ        0.000000e+00 ( 0.000000e+00 +/- 0.000000e+00) [K]
    Van der Waals (Tail)/kʙ 0.000000e+00 ( 0.000000e+00 +/- 0.000000e+00) [K]
    Coulombic Real/kʙ       0.000000e+00 ( 0.000000e+00 +/- 0.000000e+00) [K]
    Coulombic Fourier/kʙ    0.000000e+00 ( 0.000000e+00 +/- 0.000000e+00) [K]
Molecule-molecule
    Van der Waals/kʙ       -2.829126e+05 (-2.736866e+05 +/- 0.000000e+00) [K]
    Van der Waals (Tail)/kʙ-8.868487e+03 (-8.712295e+03 +/- 0.000000e+00) [K]
    Coulombic Real/kʙ      -8.599392e+04 (-8.194446e+04 +/- 0.000000e+00) [K]
    Coulombic Fourier/kʙ   -1.210898e+04 (-1.258708e+04 +/- 0.000000e+00) [K]
    Molecule Intra/kʙ       0.000000e+00 ( 0.000000e+00 +/- 0.000000e+00) [K]

Current cycle: 600 out of 5000
===============================================================================

Box:      25.72199   0.00000   0.00000  Average:  25.84829   0.00000   0.00000
           0.00000  25.72199   0.00000             0.00000  25.84829   0.00000
           0.00000   0.00000  25.72199             0.00000   0.00000  25.84829
Lengths:  25.72199  25.72199  25.72199  Average:  25.84829  25.84829  25.84829
Angles:   90.00000  90.00000  90.00000  Average:  90.00000  90.00000  90.00000
Rectangular boundary conditions

net charge:   0.00000000

component 0 (CO2) lambda:  0 occupancy:  1 (1.000000)
    net charge:   0.00000000 [e]

Amount of molecules per component :
-------------------------------------------------------------------------------
Component 0 (CO2)
    molecules:      2.500000e+02 molecules  (2.500000e+02 +/- 0.000000e+00)
    number density: 1.469016e-02 molec./A^3 (1.447882e-02 +/- 0.000000e+00)
    density:        1.073288e+03 kg/m^3     (1.057847e+03 +/- 0.000000e+00)

Average pressure tensor: 
-------------------------------------------------------------------------------
 8.5143e+01  3.4869e+01  1.2844e+01 +/- 0.0000e+00 0.0000e+00 0.0000e+00 [bar]
 3.4869e+01  5.3186e+01  1.8301e+01 +/- 0.0000e+00 0.0000e+00 0.0000e+00 [bar]
 1.2844e+01  1.8301e+01  1.3555e+02 +/- 0.0000e+00 0.0000e+00 0.0000e+00 [bar]
Ideal-gas pressure:   4.997546e+02 +/ 0.000000e+00 [bar]
Excess pressure:     -4.084601e+02 +/ 0.000000e+00 [bar]
Pressure:             9.129451e+01 +/ 0.000000e+00 [bar]

Total potential energy/kʙ  -3.915834e+05 (-3.788498e+05 +/- 0.000000e+00) [K]
-------------------------------------------------------------------------------
ExternalField-molecule
    Van der Waals/kʙ        0.000000e+00 ( 0.000000e+00 +/- 0.000000e+00) [K]
Framework-molecule
    Van der Waals/kʙ        0.000000e+00 ( 0.000000e+00 +/- 0.000000e+00) [K]
    Van der Waals (Tail)/kʙ 0.000000e+00 ( 0.000000e+00 +/- 0.000000e+00) [K]
    Coulombic Real/kʙ       0.000000e+00 ( 0.000000e+00 +/- 0.000000e+00) [K]
    Coulombic Fourier/kʙ    0.000000e+00 ( 0.000000e+00 +/- 0.000000e+00) [K]
Molecule-molecule
    Van der Waals/kʙ       -2.801201e+05 (-2.745780e+05 +/- 0.000000e+00) [K]
    Van der Waals (Tail)/kʙ-8.854089e+03 (-8.727731e+03 +/- 0.000000e+00) [K]
    Coulombic Real/kʙ      -8.971196e+04 (-8.290357e+04 +/- 0.000000e+00) [K]
    Coulombic Fourier/kʙ   -1.289727e+04 (-1.264047e+04 +/- 0.000000e+00) [K]
    Molecule Intra/kʙ       0.000000e+00 ( 0.000000e+00 +/- 0.000000e+00) [K]

Current cycle: 700 out of 5000
===============================================================================

Box:      25.52816   0.00000   0.00000  Average:  25.82499   0.00000   0.00000
           0.00000  25.52816   0.00000             0.00000  25.82499   0.00000
           0.00000   0.00000  25.52816             0.00000   0.00000  25.82499
Lengths:  25.52816  25.52816  25.52816  Average:  25.82499  25.82499  25.82499
Angles:   90.00000  90.00000  90.00000  Average:  90.00000  90.00000  90.00000
Rectangular boundary conditions

net charge:   0.00000000

component 0 (CO2) lambda:  0 occupancy:  1 (1.000000)
    net charge:   0.00000000 [e]

Amount of molecules per component :
-------------------------------------------------------------------------------
Component 0 (CO2)
    molecules:      2.500000e+02 molecules  (2.500000e+02 +/- 0.000000e+00)
    number density: 1.502731e-02 molec./A^3 (1.451822e-02 +/- 0.000000e+00)
    density:        1.097921e+03 kg/m^3     (1.060726e+03 +/- 0.000000e+00)

Average pressure tensor: 
-------------------------------------------------------------------------------
 7.3530e+01  1.7262e+01  3.0564e+01 +/- 0.0000e+00 0.0000e+00 0.0000e+00 [bar]
 1.7262e+01  9.0481e+01  1.3162e+01 +/- 0.0000e+00 0.0000e+00 0.0000e+00 [bar]
 3.0564e+01  1.3162e+01  1.0328e+02 +/- 0.0000e+00 0.0000e+00 0.0000e+00 [bar]
Ideal-gas pressure:   5.011146e+02 +/ 0.000000e+00 [bar]
Excess pressure:     -4.120167e+02 +/ 0.000000e+00 [bar]
Pressure:             8.909787e+01 +/ 0.000000e+00 [bar]

Total potential energy/kʙ  -3.853598e+05 (-3.799388e+05 +/- 0.000000e+00) [K]
-------------------------------------------------------------------------------
ExternalField-molecule
    Van der Waals/kʙ        0.000000e+00 ( 0.000000e+00 +/- 0.000000e+00) [K]
Framework-molecule
    Van der Waals/kʙ        0.000000e+00 ( 0.000000e+00 +/- 0.000000e+00) [K]
    Van der Waals (Tail)/kʙ 0.000000e+00 ( 0.000000e+00 +/- 0.000000e+00) [K]
    Coulombic Real/kʙ       0.000000e+00 ( 0.000000e+00 +/- 0.000000e+00) [K]
    Coulombic Fourier/kʙ    0.000000e+00 ( 0.000000e+00 +/- 0.000000e+00) [K]
Molecule-molecule
    Van der Waals/kʙ       -2.804169e+05 (-2.752694e+05 +/- 0.000000e+00) [K]
    Van der Waals (Tail)/kʙ-9.057298e+03 (-8.753532e+03 +/- 0.000000e+00) [K]
    Coulombic Real/kʙ      -8.327651e+04 (-8.322287e+04 +/- 0.000000e+00) [K]
    Coulombic Fourier/kʙ   -1.260910e+04 (-1.269299e+04 +/- 0.000000e+00) [K]
    Molecule Intra/kʙ       0.000000e+00 ( 0.000000e+00 +/- 0.000000e+00) [K]

Current cycle: 800 out of 5000
===============================================================================

Box:      25.64020   0.00000   0.00000  Average:  25.78665   0.00000   0.00000
           0.00000  25.64020   0.00000             0.00000  25.78665   0.00000
           0.00000   0.00000  25.64020             0.00000   0.00000  25.78665
Lengths:  25.64020  25.64020  25.64020  Average:  25.78665  25.78665  25.78665
Angles:   90.00000  90.00000  90.00000  Average:  90.00000  90.00000  90.00000
Rectangular boundary conditions

net charge:   0.00000000

component 0 (CO2) lambda:  0 occupancy:  1 (1.000000)
    net charge:   0.00000000 [e]

Amount of molecules per component :
-------------------------------------------------------------------------------
Component 0 (CO2)
    molecules:      2.500000e+02 molecules  (2.500000e+02 +/- 0.000000e+00)
    number density: 1.483118e-02 molec./A^3 (1.458414e-02 +/- 0.000000e+00)
    density:        1.083592e+03 kg/m^3     (1.065542e+03 +/- 0.000000e+00)

Average pressure tensor: 
-------------------------------------------------------------------------------
 8.0856e+01 -7.5207e-01  3.3784e+01 +/- 0.0000e+00 0.0000e+00 0.0000e+00 [bar]
-7.5207e-01  1.1093e+02  1.7863e+01 +/- 0.0000e+00 0.0000e+00 0.0000e+00 [bar]
 3.3784e+01  1.7863e+01  1.1316e+02 +/- 0.0000e+00 0.0000e+00 0.0000e+00 [bar]
Ideal-gas pressure:   5.033899e+02 +/ 0.000000e+00 [bar]
Excess pressure:     -4.017402e+02 +/ 0.000000e+00 [bar]
Pressure:             1.016496e+02 +/ 0.000000e+00 [bar]

Total potential energy/kʙ  -3.913036e+05 (-3.812587e+05 +/- 0.000000e+00) [K]
-------------------------------------------------------------------------------
ExternalField-molecule
    Van der Waals/kʙ        0.000000e+00 ( 0.000000e+00 +/- 0.000000e+00) [K]
Framework-molecule
    Van der Waals/kʙ        0.000000e+00 ( 0.000000e+00 +/- 0.000000e+00) [K]
    Van der Waals (Tail)/kʙ 0.000000e+00 ( 0.000000e+00 +/- 0.000000e+00) [K]
    Coulombic Real/kʙ       0.000000e+00 ( 0.000000e+00 +/- 0.000000e+00) [K]
    Coulombic Fourier/kʙ    0.000000e+00 ( 0.000000e+00 +/- 0.000000e+00) [K]
Molecule-molecule
    Van der Waals/kʙ       -2.842311e+05 (-2.764397e+05 +/- 0.000000e+00) [K]
    Van der Waals (Tail)/kʙ-8.939086e+03 (-8.790920e+03 +/- 0.000000e+00) [K]
    Coulombic Real/kʙ      -8.450948e+04 (-8.328362e+04 +/- 0.000000e+00) [K]
    Coulombic Fourier/kʙ   -1.362395e+04 (-1.274441e+04 +/- 0.000000e+00) [K]
    Molecule Intra/kʙ       0.000000e+00 ( 0.000000e+00 +/- 0.000000e+00) [K]

Current cycle: 900 out of 5000
===============================================================================

Box:      25.74653   0.00000   0.00000  Average:  25.76518   0.00000   0.00000
           0.00000  25.74653   0.00000             0.00000  25.76518   0.00000
           0.00000   0.00000  25.74653             0.00000   0.00000  25.76518
Lengths:  25.74653  25.74653  25.74653  Average:  25.76518  25.76518  25.76518
Angles:   90.00000  90.00000  90.00000  Average:  90.00000  90.00000  90.00000
Rectangular boundary conditions

net charge:   0.00000000

component 0 (CO2) lambda:  0 occupancy:  1 (1.000000)
    net charge:   0.00000000 [e]

Amount of molecules per component :
-------------------------------------------------------------------------------
Component 0 (CO2)
    molecules:      2.500000e+02 molecules  (2.500000e+02 +/- 0.000000e+00)
    number density: 1.464819e-02 molec./A^3 (1.462080e-02 +/- 0.000000e+00)
    density:        1.070222e+03 kg/m^3     (1.068221e+03 +/- 0.000000e+00)

Average pressure tensor: 
-------------------------------------------------------------------------------
 6.4428e+01 -7.2131e+00  2.9521e+01 +/- 0.0000e+00 0.0000e+00 0.0000e+00 [bar]
-7.2131e+00  1.0704e+02  2.5443e+01 +/- 0.0000e+00 0.0000e+00 0.0000e+00 [bar]
 2.9521e+01  2.5443e+01  1.1837e+02 +/- 0.0000e+00 0.0000e+00 0.0000e+00 [bar]
Ideal-gas pressure:   5.046553e+02 +/ 0.000000e+00 [bar]
Excess pressure:     -4.080424e+02 +/ 0.000000e+00 [bar]
Pressure:             9.661289e+01 +/ 0.000000e+00 [bar]

Total potential energy/kʙ  -3.882577e+05 (-3.823742e+05 +/- 0.000000e+00) [K]
-------------------------------------------------------------------------------
ExternalField-molecule
    Van der Waals/kʙ        0.000000e+00 ( 0.000000e+00 +/- 0.000000e+00) [K]
Framework-molecule
    Van der Waals/kʙ        0.000000e+00 ( 0.000000e+00 +/- 0.000000e+00) [K]
    Van der Waals (Tail)/kʙ 0.000000e+00 ( 0.000000e+00 +/- 0.000000e+00) [K]
    Coulombic Real/kʙ       0.000000e+00 ( 0.000000e+00 +/- 0.000000e+00) [K]
    Coulombic Fourier/kʙ    0.000000e+00 ( 0.000000e+00 +/- 0.000000e+00) [K]
Molecule-molecule
    Van der Waals/kʙ       -2.814452e+05 (-2.773343e+05 +/- 0.000000e+00) [K]
    Van der Waals (Tail)/kʙ-8.828792e+03 (-8.810671e+03 +/- 0.000000e+00) [K]
    Coulombic Real/kʙ      -8.428054e+04 (-8.345354e+04 +/- 0.000000e+00) [K]
    Coulombic Fourier/kʙ   -1.370318e+04 (-1.277576e+04 +/- 0.000000e+00) [K]
    Molecule Intra/kʙ       0.000000e+00 ( 0.000000e+00 +/- 0.000000e+00) [K]

Current cycle: 1000 out of 5000
===============================================================================

Box:      25.46923   0.00000   0.00000  Average:  25.74379   0.00000   0.00000
           0.00000  25.46923   0.00000             0.00000  25.74379   0.00000
           0.00000   0.00000  25.46923             0.00000   0.00000  25.74379
Lengths:  25.46923  25.46923  25.46923  Average:  25.74379  25.74379  25.74379
Angles:   90.00000  90.00000  90.00000  Average:  90.00000  90.00000  90.00000
Rectangular boundary conditions

net charge:   0.00000000

component 0 (CO2) lambda:  0 occupancy:  1 (1.000000)
    net charge:   0.00000000 [e]

Amount of molecules per component :
-------------------------------------------------------------------------------
Component 0 (CO2)
    molecules:      2.500000e+02 molecules  (2.500000e+02 +/- 0.000000e+00)
    number density: 1.513186e-02 molec./A^3 (1.465749e-02 +/- 0.000000e+00)
    density:        1.105560e+03 kg/m^3     (1.070901e+03 +/- 0.000000e+00)

Average pressure tensor: 
-------------------------------------------------------------------------------
 8.0108e+01  5.6070e-01  2.2926e+01 +/- 0.0000e+00 0.0000e+00 0.0000e+00 [bar]
 5.6070e-01  1.2111e+02  7.7673e+00 +/- 0.0000e+00 0.0000e+00 0.0000e+00 [bar]
 2.2926e+01  7.7673e+00  1.2076e+02 +/- 0.0000e+00 0.0000e+00 0.0000e+00 [bar]
Ideal-gas pressure:   5.059218e+02 +/ 0.000000e+00 [bar]
Excess pressure:     -3.985967e+02 +/ 0.000000e+00 [bar]
Pressure:             1.073251e+02 +/ 0.000000e+00 [bar]

Total potential energy/kʙ  -3.962809e+05 (-3.832425e+05 +/- 0.000000e+00) [K]
-------------------------------------------------------------------------------
ExternalField-molecule
    Van der Waals/kʙ        0.000000e+00 ( 0.000000e+00 +/- 0.000000e+00) [K]
Framework-molecule
    Van der Waals/kʙ        0.000000e+00 ( 0.000000e+00 +/- 0.000000e+00) [K]
    Van der Waals (Tail)/kʙ 0.000000e+00 ( 0.000000e+00 +/- 0.000000e+00) [K]
    Coulombic Real/kʙ       0.000000e+00 ( 0.000000e+00 +/- 0.000000e+00) [K]
    Coulombic Fourier/kʙ    0.000000e+00 ( 0.000000e+00 +/- 0.000000e+00) [K]
Molecule-molecule
    Van der Waals/kʙ       -2.867704e+05 (-2.780358e+05 +/- 0.000000e+00) [K]
    Van der Waals (Tail)/kʙ-9.120311e+03 (-8.836510e+03 +/- 0.000000e+00) [K]
    Coulombic Real/kʙ      -8.757435e+04 (-8.358708e+04 +/- 0.000000e+00) [K]
    Coulombic Fourier/kʙ   -1.281588e+04 (-1.278306e+04 +/- 0.000000e+00) [K]
    Molecule Intra/kʙ       0.000000e+00 ( 0.000000e+00 +/- 0.000000e+00) [K]

Current cycle: 1100 out of 5000
===============================================================================

Box:      25.54159   0.00000   0.00000  Average:  25.71952   0.00000   0.00000
           0.00000  25.54159   0.00000             0.00000  25.71952   0.00000
           0.00000   0.00000  25.54159             0.00000   0.00000  25.71952
Lengths:  25.54159  25.54159  25.54159  Average:  25.71952  25.71952  25.71952
Angles:   90.00000  90.00000  90.00000  Average:  90.00000  90.00000  90.00000
Rectangular boundary conditions

net charge:   0.00000000

component 0 (CO2) lambda:  0 occupancy:  1 (1.000000)
    net charge:   0.00000000 [e]

Amount of molecules per component :
-------------------------------------------------------------------------------
Component 0 (CO2)
    molecules:      2.500000e+02 molecules  (2.500000e+02 +/- 0.000000e+00)
    number density: 1.500363e-02 molec./A^3 (1.469952e-02 +/- 0.000000e+00)
    density:        1.096191e+03 kg/m^3     (1.073972e+03 +/- 0.000000e+00)

Average pressure tensor: 
-------------------------------------------------------------------------------
 9.4539e+01  2.8085e+00  3.3449e+01 +/- 0.0000e+00 0.0000e+00 0.0000e+00 [bar]
 2.8085e+00  1.1451e+02 -1.4466e+00 +/- 0.0000e+00 0.0000e+00 0.0000e+00 [bar]
 3.3449e+01 -1.4466e+00  1.1309e+02 +/- 0.0000e+00 0.0000e+00 0.0000e+00 [bar]
Ideal-gas pressure:   5.073725e+02 +/ 0.000000e+00 [bar]
Excess pressure:     -3.999957e+02 +/ 0.000000e+00 [bar]
Pressure:             1.073768e+02 +/ 0.000000e+00 [bar]

Total potential energy/kʙ  -4.016346e+05 (-3.845929e+05 +/- 0.000000e+00) [K]
-------------------------------------------------------------------------------
ExternalField-molecule
    Van der Waals/kʙ        0.000000e+00 ( 0.000000e+00 +/- 0.000000e+00) [K]
Framework-molecule
    Van der Waals/kʙ        0.000000e+00 ( 0.000000e+00 +/- 0.000000e+00) [K]
    Van der Waals (Tail)/kʙ 0.000000e+00 ( 0.000000e+00 +/- 0.000000e+00) [K]
    Coulombic Real/kʙ       0.000000e+00 ( 0.000000e+00 +/- 0.000000e+00) [K]
    Coulombic Fourier/kʙ    0.000000e+00 ( 0.000000e+00 +/- 0.000000e+00) [K]
Molecule-molecule
    Van der Waals/kʙ       -2.850332e+05 (-2.788539e+05 +/- 0.000000e+00) [K]
    Van der Waals (Tail)/kʙ-9.043021e+03 (-8.861060e+03 +/- 0.000000e+00) [K]
    Coulombic Real/kʙ      -9.391821e+04 (-8.407269e+04 +/- 0.000000e+00) [K]
    Coulombic Fourier/kʙ   -1.364019e+04 (-1.280531e+04 +/- 0.000000e+00) [K]
    Molecule Intra/kʙ       0.000000e+00 ( 0.000000e+00 +/- 0.000000e+00) [K]

Current cycle: 1200 out of 5000
===============================================================================

Box:      25.96787   0.00000   0.00000  Average:  25.71063   0.00000   0.00000
           0.00000  25.96787   0.00000             0.00000  25.71063   0.00000
           0.00000   0.00000  25.96787             0.00000   0.00000  25.71063
Lengths:  25.96787  25.96787  25.96787  Average:  25.71063  25.71063  25.71063
Angles:   90.00000  90.00000  90.00000  Average:  90.00000  90.00000  90.00000
Rectangular boundary conditions

net charge:   0.00000000

component 0 (CO2) lambda:  0 occupancy:  1 (1.000000)
    net charge:   0.00000000 [e]

Amount of molecules per component :
-------------------------------------------------------------------------------
Component 0 (CO2)
    molecules:      2.500000e+02 molecules  (2.500000e+02 +/- 0.000000e+00)
    number density: 1.427680e-02 molec./A^3 (1.471460e-02 +/- 0.000000e+00)
    density:        1.043087e+03 kg/m^3     (1.075074e+03 +/- 0.000000e+00)

Average pressure tensor: 
-------------------------------------------------------------------------------
 1.0625e+02  1.2313e+01  3.2404e+01 +/- 0.0000e+00 0.0000e+00 0.0000e+00 [bar]
 1.2313e+01  1.0580e+02 -2.2387e+00 +/- 0.0000e+00 0.0000e+00 0.0000e+00 [bar]
 3.2404e+01 -2.2387e+00  1.1964e+02 +/- 0.0000e+00 0.0000e+00 0.0000e+00 [bar]
Ideal-gas pressure:   5.078929e+02 +/ 0.000000e+00 [bar]
Excess pressure:     -3.973318e+02 +/ 0.000000e+00 [bar]
Pressure:             1.105610e+02 +/ 0.000000e+00 [bar]

Total potential energy/kʙ  -3.797171e+05 (-3.853101e+05 +/- 0.000000e+00) [K]
-------------------------------------------------------------------------------
ExternalField-molecule
    Van der Waals/kʙ        0.000000e+00 ( 0.000000e+00 +/- 0.000000e+00) [K]
Framework-molecule
    Van der Waals/kʙ        0.000000e+00 ( 0.000000e+00 +/- 0.000000e+00) [K]
    Van der Waals (Tail)/kʙ 0.000000e+00 ( 0.000000e+00 +/- 0.000000e+00) [K]
    Coulombic Real/kʙ       0.000000e+00 ( 0.000000e+00 +/- 0.000000e+00) [K]
    Coulombic Fourier/kʙ    0.000000e+00 ( 0.000000e+00 +/- 0.000000e+00) [K]
Molecule-molecule
    Van der Waals/kʙ       -2.745372e+05 (-2.791978e+05 +/- 0.000000e+00) [K]
    Van der Waals (Tail)/kʙ-8.604946e+03 (-8.869453e+03 +/- 0.000000e+00) [K]
    Coulombic Real/kʙ      -8.362241e+04 (-8.438430e+04 +/- 0.000000e+00) [K]
    Coulombic Fourier/kʙ   -1.295261e+04 (-1.285853e+04 +/- 0.000000e+00) [K]
    Molecule Intra/kʙ       0.000000e+00 ( 0.000000e+00 +/- 0.000000e+00) [K]

Current cycle: 1300 out of 5000
===============================================================================

Box:      25.49049   0.00000   0.00000  Average:  25.72366   0.00000   0.00000
           0.00000  25.49049   0.00000             0.00000  25.72366   0.00000
           0.00000   0.00000  25.49049             0.00000   0.00000  25.72366
Lengths:  25.49049  25.49049  25.49049  Average:  25.72366  25.72366  25.72366
Angles:   90.00000  90.00000  90.00000  Average:  90.00000  90.00000  90.00000
Rectangular boundary conditions

net charge:   0.00000000

component 0 (CO2) lambda:  0 occupancy:  1 (1.000000)
    net charge:   0.00000000 [e]

Amount of molecules per component :
-------------------------------------------------------------------------------
Component 0 (CO2)
    molecules:      2.500000e+02 molecules  (2.500000e+02 +/- 0.000000e+00)
    number density: 1.509404e-02 molec./A^3 (1.469227e-02 +/- 0.000000e+00)
    density:        1.102796e+03 kg/m^3     (1.073442e+03 +/- 0.000000e+00)

Average pressure tensor: 
-------------------------------------------------------------------------------
 1.0285e+02  1.4798e+01  4.8179e+01 +/- 0.0000e+00 0.0000e+00 0.0000e+00 [bar]
 1.4798e+01  1.0075e+02  8.8182e-01 +/- 0.0000e+00 0.0000e+00 0.0000e+00 [bar]
 4.8179e+01  8.8182e-01  1.1680e+02 +/- 0.0000e+00 0.0000e+00 0.0000e+00 [bar]
Ideal-gas pressure:   5.071221e+02 +/ 0.000000e+00 [bar]
Excess pressure:     -4.003211e+02 +/ 0.000000e+00 [bar]
Pressure:             1.068010e+02 +/ 0.000000e+00 [bar]

Total potential energy/kʙ  -3.925776e+05 (-3.848862e+05 +/- 0.000000e+00) [K]
-------------------------------------------------------------------------------
ExternalField-molecule
    Van der Waals/kʙ        0.000000e+00 ( 0.000000e+00 +/- 0.000000e+00) [K]
Framework-molecule
    Van der Waals/kʙ        0.000000e+00 ( 0.000000e+00 +/- 0.000000e+00) [K]
    Van der Waals (Tail)/kʙ 0.000000e+00 ( 0.000000e+00 +/- 0.000000e+00) [K]
    Coulombic Real/kʙ       0.000000e+00 ( 0.000000e+00 +/- 0.000000e+00) [K]
    Coulombic Fourier/kʙ    0.000000e+00 ( 0.000000e+00 +/- 0.000000e+00) [K]
Molecule-molecule
    Van der Waals/kʙ       -2.794876e+05 (-2.786396e+05 +/- 0.000000e+00) [K]
    Van der Waals (Tail)/kʙ-9.097515e+03 (-8.858102e+03 +/- 0.000000e+00) [K]
    Coulombic Real/kʙ      -9.085337e+04 (-8.453306e+04 +/- 0.000000e+00) [K]
    Coulombic Fourier/kʙ   -1.313920e+04 (-1.285545e+04 +/- 0.000000e+00) [K]
    Molecule Intra/kʙ       0.000000e+00 ( 0.000000e+00 +/- 0.000000e+00) [K]

Current cycle: 1400 out of 5000
===============================================================================

Box:      25.39899   0.00000   0.00000  Average:  25.71910   0.00000   0.00000
           0.00000  25.39899   0.00000             0.00000  25.71910   0.00000
           0.00000   0.00000  25.39899             0.00000   0.00000  25.71910
Lengths:  25.39899  25.39899  25.39899  Average:  25.71910  25.71910  25.71910
Angles:   90.00000  90.00000  90.00000  Average:  90.00000  90.00000  90.00000
Rectangular boundary conditions

net charge:   0.00000000

component 0 (CO2) lambda:  0 occupancy:  1 (1.000000)
    net charge:   0.00000000 [e]

Amount of molecules per component :
-------------------------------------------------------------------------------
Component 0 (CO2)
    molecules:      2.500000e+02 molecules  (2.500000e+02 +/- 0.000000e+00)
    number density: 1.525776e-02 molec./A^3 (1.469982e-02 +/- 0.000000e+00)
    density:        1.114758e+03 kg/m^3     (1.073994e+03 +/- 0.000000e+00)

Average pressure tensor: 
-------------------------------------------------------------------------------
 1.0459e+02  3.0666e+00  4.7938e+01 +/- 0.0000e+00 0.0000e+00 0.0000e+00 [bar]
 3.0666e+00  1.0695e+02 -5.8800e+00 +/- 0.0000e+00 0.0000e+00 0.0000e+00 [bar]
 4.7938e+01 -5.8800e+00  9.8317e+01 +/- 0.0000e+00 0.0000e+00 0.0000e+00 [bar]
Ideal-gas pressure:   5.073827e+02 +/ 0.000000e+00 [bar]
Excess pressure:     -4.040982e+02 +/ 0.000000e+00 [bar]
Pressure:             1.032845e+02 +/ 0.000000e+00 [bar]

Total potential energy/kʙ  -4.032496e+05 (-3.852580e+05 +/- 0.000000e+00) [K]
-------------------------------------------------------------------------------
ExternalField-molecule
    Van der Waals/kʙ        0.000000e+00 ( 0.000000e+00 +/- 0.000000e+00) [K]
Framework-molecule
    Van der Waals/kʙ        0.000000e+00 ( 0.000000e+00 +/- 0.000000e+00) [K]
    Van der Waals (Tail)/kʙ 0.000000e+00 ( 0.000000e+00 +/- 0.000000e+00) [K]
    Coulombic Real/kʙ       0.000000e+00 ( 0.000000e+00 +/- 0.000000e+00) [K]
    Coulombic Fourier/kʙ    0.000000e+00 ( 0.000000e+00 +/- 0.000000e+00) [K]
Molecule-molecule
    Van der Waals/kʙ       -2.874913e+05 (-2.788567e+05 +/- 0.000000e+00) [K]
    Van der Waals (Tail)/kʙ-9.196196e+03 (-8.862160e+03 +/- 0.000000e+00) [K]
    Coulombic Real/kʙ      -9.305806e+04 (-8.467299e+04 +/- 0.000000e+00) [K]
    Coulombic Fourier/kʙ   -1.350406e+04 (-1.286620e+04 +/- 0.000000e+00) [K]
    Molecule Intra/kʙ       0.000000e+00 ( 0.000000e+00 +/- 0.000000e+00) [K]

Current cycle: 1500 out of 5000
===============================================================================

Box:      25.74828   0.00000   0.00000  Average:  25.71305   0.00000   0.00000
           0.00000  25.74828   0.00000             0.00000  25.71305   0.00000
           0.00000   0.00000  25.74828             0.00000   0.00000  25.71305
Lengths:  25.74828  25.74828  25.74828  Average:  25.71305  25.71305  25.71305
Angles:   90.00000  90.00000  90.00000  Average:  90.00000  90.00000  90.00000
Rectangular boundary conditions

net charge:   0.00000000

component 0 (CO2) lambda:  0 occupancy:  1 (1.000000)
    net charge:   0.00000000 [e]

Amount of molecules per component :
-------------------------------------------------------------------------------
Component 0 (CO2)
    molecules:      2.500000e+02 molecules  (2.500000e+02 +/- 0.000000e+00)
    number density: 1.464521e-02 molec./A^3 (1.471021e-02 +/- 0.000000e+00)
    density:        1.070004e+03 kg/m^3     (1.074753e+03 +/- 0.000000e+00)

Average pressure tensor: 
-------------------------------------------------------------------------------
 1.1772e+02  1.5273e+01  4.2109e+01 +/- 0.0000e+00 0.0000e+00 0.0000e+00 [bar]
 1.5273e+01  1.3297e+02  1.1394e+00 +/- 0.0000e+00 0.0000e+00 0.0000e+00 [bar]
 4.2109e+01  1.1394e+00  9.4511e+01 +/- 0.0000e+00 0.0000e+00 0.0000e+00 [bar]
Ideal-gas pressure:   5.077415e+02 +/ 0.000000e+00 [bar]
Excess pressure:     -3.926748e+02 +/ 0.000000e+00 [bar]
Pressure:             1.150667e+02 +/ 0.000000e+00 [bar]

Total potential energy/kʙ  -3.916740e+05 (-3.857310e+05 +/- 0.000000e+00) [K]
-------------------------------------------------------------------------------
ExternalField-molecule
    Van der Waals/kʙ        0.000000e+00 ( 0.000000e+00 +/- 0.000000e+00) [K]
Framework-molecule
    Van der Waals/kʙ        0.000000e+00 ( 0.000000e+00 +/- 0.000000e+00) [K]
    Van der Waals (Tail)/kʙ 0.000000e+00 ( 0.000000e+00 +/- 0.000000e+00) [K]
    Coulombic Real/kʙ       0.000000e+00 ( 0.000000e+00 +/- 0.000000e+00) [K]
    Coulombic Fourier/kʙ    0.000000e+00 ( 0.000000e+00 +/- 0.000000e+00) [K]
Molecule-molecule
    Van der Waals/kʙ       -2.757810e+05 (-2.789034e+05 +/- 0.000000e+00) [K]
    Van der Waals (Tail)/kʙ-8.826994e+03 (-8.869040e+03 +/- 0.000000e+00) [K]
    Coulombic Real/kʙ      -9.429696e+04 (-8.509454e+04 +/- 0.000000e+00) [K]
    Coulombic Fourier/kʙ   -1.276901e+04 (-1.286397e+04 +/- 0.000000e+00) [K]
    Molecule Intra/kʙ       0.000000e+00 ( 0.000000e+00 +/- 0.000000e+00) [K]

Current cycle: 1600 out of 5000
===============================================================================

Box:      25.71509   0.00000   0.00000  Average:  25.71371   0.00000   0.00000
           0.00000  25.71509   0.00000             0.00000  25.71371   0.00000
           0.00000   0.00000  25.71509             0.00000   0.00000  25.71371
Lengths:  25.71509  25.71509  25.71509  Average:  25.71371  25.71371  25.71371
Angles:   90.00000  90.00000  90.00000  Average:  90.00000  90.00000  90.00000
Rectangular boundary conditions

net charge:   0.00000000

component 0 (CO2) lambda:  0 occupancy:  1 (1.000000)
    net charge:   0.00000000 [e]

Amount of molecules per component :
-------------------------------------------------------------------------------
Component 0 (CO2)
    molecules:      2.500000e+02 molecules  (2.500000e+02 +/- 0.000000e+00)
    number density: 1.470199e-02 molec./A^3 (1.470885e-02 +/- 0.000000e+00)
    density:        1.074152e+03 kg/m^3     (1.074653e+03 +/- 0.000000e+00)

Average pressure tensor: 
-------------------------------------------------------------------------------
 1.4088e+02  1.4242e+01  4.4391e+01 +/- 0.0000e+00 0.0000e+00 0.0000e+00 [bar]
 1.4242e+01  1.2532e+02  2.5582e+00 +/- 0.0000e+00 0.0000e+00 0.0000e+00 [bar]
 4.4391e+01  2.5582e+00  8.7057e+01 +/- 0.0000e+00 0.0000e+00 0.0000e+00 [bar]
Ideal-gas pressure:   5.076943e+02 +/ 0.000000e+00 [bar]
Excess pressure:     -3.899414e+02 +/ 0.000000e+00 [bar]
Pressure:             1.177529e+02 +/ 0.000000e+00 [bar]

Total potential energy/kʙ  -3.847402e+05 (-3.860494e+05 +/- 0.000000e+00) [K]
-------------------------------------------------------------------------------
ExternalField-molecule
    Van der Waals/kʙ        0.000000e+00 ( 0.000000e+00 +/- 0.000000e+00) [K]
Framework-molecule
    Van der Waals/kʙ        0.000000e+00 ( 0.000000e+00 +/- 0.000000e+00) [K]
    Van der Waals (Tail)/kʙ 0.000000e+00 ( 0.000000e+00 +/- 0.000000e+00) [K]
    Coulombic Real/kʙ       0.000000e+00 ( 0.000000e+00 +/- 0.000000e+00) [K]
    Coulombic Fourier/kʙ    0.000000e+00 ( 0.000000e+00 +/- 0.000000e+00) [K]
Molecule-molecule
    Van der Waals/kʙ       -2.710055e+05 (-2.786946e+05 +/- 0.000000e+00) [K]
    Van der Waals (Tail)/kʙ-8.861217e+03 (-8.868114e+03 +/- 0.000000e+00) [K]
    Coulombic Real/kʙ      -9.201589e+04 (-8.560026e+04 +/- 0.000000e+00) [K]
    Coulombic Fourier/kʙ   -1.285760e+04 (-1.288646e+04 +/- 0.000000e+00) [K]
    Molecule Intra/kʙ       0.000000e+00 ( 0.000000e+00 +/- 0.000000e+00) [K]

Current cycle: 1700 out of 5000
===============================================================================

Box:      25.64846   0.00000   0.00000  Average:  25.71886   0.00000   0.00000
           0.00000  25.64846   0.00000             0.00000  25.71886   0.00000
           0.00000   0.00000  25.64846             0.00000   0.00000  25.71886
Lengths:  25.64846  25.64846  25.64846  Average:  25.71886  25.71886  25.71886
Angles:   90.00000  90.00000  90.00000  Average:  90.00000  90.00000  90.00000
Rectangular boundary conditions

net charge:   0.00000000

component 0 (CO2) lambda:  0 occupancy:  1 (1.000000)
    net charge:   0.00000000 [e]

Amount of molecules per component :
-------------------------------------------------------------------------------
Component 0 (CO2)
    molecules:      2.500000e+02 molecules  (2.500000e+02 +/- 0.000000e+00)
    number density: 1.481687e-02 molec./A^3 (1.469989e-02 +/- 0.000000e+00)
    density:        1.082546e+03 kg/m^3     (1.073999e+03 +/- 0.000000e+00)

Average pressure tensor: 
-------------------------------------------------------------------------------
 1.3853e+02  7.7282e+00  3.1591e+01 +/- 0.0000e+00 0.0000e+00 0.0000e+00 [bar]
 7.7282e+00  1.3163e+02  5.3474e+00 +/- 0.0000e+00 0.0000e+00 0.0000e+00 [bar]
 3.1591e+01  5.3474e+00  9.1665e+01 +/- 0.0000e+00 0.0000e+00 0.0000e+00 [bar]
Ideal-gas pressure:   5.073852e+02 +/ 0.000000e+00 [bar]
Excess pressure:     -3.867775e+02 +/ 0.000000e+00 [bar]
Pressure:             1.206077e+02 +/ 0.000000e+00 [bar]

Total potential energy/kʙ  -3.871327e+05 (-3.858022e+05 +/- 0.000000e+00) [K]
-------------------------------------------------------------------------------
ExternalField-molecule
    Van der Waals/kʙ        0.000000e+00 ( 0.000000e+00 +/- 0.000000e+00) [K]
Framework-molecule
    Van der Waals/kʙ        0.000000e+00 ( 0.000000e+00 +/- 0.000000e+00) [K]
    Van der Waals (Tail)/kʙ 0.000000e+00 ( 0.000000e+00 +/- 0.000000e+00) [K]
    Coulombic Real/kʙ       0.000000e+00 ( 0.000000e+00 +/- 0.000000e+00) [K]
    Coulombic Fourier/kʙ    0.000000e+00 ( 0.000000e+00 +/- 0.000000e+00) [K]
Molecule-molecule
    Van der Waals/kʙ       -2.804084e+05 (-2.784353e+05 +/- 0.000000e+00) [K]
    Van der Waals (Tail)/kʙ-8.930456e+03 (-8.864062e+03 +/- 0.000000e+00) [K]
    Coulombic Real/kʙ      -8.488530e+04 (-8.561393e+04 +/- 0.000000e+00) [K]
    Coulombic Fourier/kʙ   -1.290848e+04 (-1.288894e+04 +/- 0.000000e+00) [K]
    Molecule Intra/kʙ       0.000000e+00 ( 0.000000e+00 +/- 0.000000e+00) [K]

Current cycle: 1800 out of 5000
===============================================================================

Box:      25.52988   0.00000   0.00000  Average:  25.71952   0.00000   0.00000
           0.00000  25.52988   0.00000             0.00000  25.71952   0.00000
           0.00000   0.00000  25.52988             0.00000   0.00000  25.71952
Lengths:  25.52988  25.52988  25.52988  Average:  25.71952  25.71952  25.71952
Angles:   90.00000  90.00000  90.00000  Average:  90.00000  90.00000  90.00000
Rectangular boundary conditions

net charge:   0.00000000

component 0 (CO2) lambda:  0 occupancy:  1 (1.000000)
    net charge:   0.00000000 [e]

Amount of molecules per component :
-------------------------------------------------------------------------------
Component 0 (CO2)
    molecules:      2.500000e+02 molecules  (2.500000e+02 +/- 0.000000e+00)
    number density: 1.502428e-02 molec./A^3 (1.469867e-02 +/- 0.000000e+00)
    density:        1.097699e+03 kg/m^3     (1.073910e+03 +/- 0.000000e+00)

Average pressure tensor: 
-------------------------------------------------------------------------------
 1.3395e+02  3.0307e+00  3.0583e+01 +/- 0.0000e+00 0.0000e+00 0.0000e+00 [bar]
 3.0307e+00  1.4069e+02  8.8908e+00 +/- 0.0000e+00 0.0000e+00 0.0000e+00 [bar]
 3.0583e+01  8.8908e+00  9.2661e+01 +/- 0.0000e+00 0.0000e+00 0.0000e+00 [bar]
Ideal-gas pressure:   5.073432e+02 +/ 0.000000e+00 [bar]
Excess pressure:     -3.849088e+02 +/ 0.000000e+00 [bar]
Pressure:             1.224344e+02 +/ 0.000000e+00 [bar]

Total potential energy/kʙ  -3.887211e+05 (-3.856358e+05 +/- 0.000000e+00) [K]
-------------------------------------------------------------------------------
ExternalField-molecule
    Van der Waals/kʙ        0.000000e+00 ( 0.000000e+00 +/- 0.000000e+00) [K]
Framework-molecule
    Van der Waals/kʙ        0.000000e+00 ( 0.000000e+00 +/- 0.000000e+00) [K]
    Van der Waals (Tail)/kʙ 0.000000e+00 ( 0.000000e+00 +/- 0.000000e+00) [K]
    Coulombic Real/kʙ       0.000000e+00 ( 0.000000e+00 +/- 0.000000e+00) [K]
    Coulombic Fourier/kʙ    0.000000e+00 ( 0.000000e+00 +/- 0.000000e+00) [K]
Molecule-molecule
    Van der Waals/kʙ       -2.797016e+05 (-2.783600e+05 +/- 0.000000e+00) [K]
    Van der Waals (Tail)/kʙ-9.055467e+03 (-8.863744e+03 +/- 0.000000e+00) [K]
    Coulombic Real/kʙ      -8.669887e+04 (-8.551829e+04 +/- 0.000000e+00) [K]
    Coulombic Fourier/kʙ   -1.326509e+04 (-1.289379e+04 +/- 0.000000e+00) [K]
    Molecule Intra/kʙ       0.000000e+00 ( 0.000000e+00 +/- 0.000000e+00) [K]

Current cycle: 1900 out of 5000
===============================================================================

Box:      26.15651   0.00000   0.00000  Average:  25.72438   0.00000   0.00000
           0.00000  26.15651   0.00000             0.00000  25.72438   0.00000
           0.00000   0.00000  26.15651             0.00000   0.00000  25.72438
Lengths:  26.15651  26.15651  26.15651  Average:  25.72438  25.72438  25.72438
Angles:   90.00000  90.00000  90.00000  Average:  90.00000  90.00000  90.00000
Rectangular boundary conditions

net charge:   0.00000000

component 0 (CO2) lambda:  0 occupancy:  1 (1.000000)
    net charge:   0.00000000 [e]

Amount of molecules per component :
-------------------------------------------------------------------------------
Component 0 (CO2)
    molecules:      2.500000e+02 molecules  (2.500000e+02 +/- 0.000000e+00)
    number density: 1.397014e-02 molec./A^3 (1.469031e-02 +/- 0.000000e+00)
    density:        1.020682e+03 kg/m^3     (1.073299e+03 +/- 0.000000e+00)

Average pressure tensor: 
-------------------------------------------------------------------------------
 1.4676e+02  1.0276e+01  3.2582e+01 +/- 0.0000e+00 0.0000e+00 0.0000e+00 [bar]
 1.0276e+01  1.4477e+02  6.7063e+00 +/- 0.0000e+00 0.0000e+00 0.0000e+00 [bar]
 3.2582e+01  6.7063e+00  9.4840e+01 +/- 0.0000e+00 0.0000e+00 0.0000e+00 [bar]
Ideal-gas pressure:   5.070547e+02 +/ 0.000000e+00 [bar]
Excess pressure:     -3.782669e+02 +/ 0.000000e+00 [bar]
Pressure:             1.287878e+02 +/ 0.000000e+00 [bar]

Total potential energy/kʙ  -3.705776e+05 (-3.852215e+05 +/- 0.000000e+00) [K]
-------------------------------------------------------------------------------
ExternalField-molecule
    Van der Waals/kʙ        0.000000e+00 ( 0.000000e+00 +/- 0.000000e+00) [K]
Framework-molecule
    Van der Waals/kʙ        0.000000e+00 ( 0.000000e+00 +/- 0.000000e+00) [K]
    Van der Waals (Tail)/kʙ 0.000000e+00 ( 0.000000e+00 +/- 0.000000e+00) [K]
    Coulombic Real/kʙ       0.000000e+00 ( 0.000000e+00 +/- 0.000000e+00) [K]
    Coulombic Fourier/kʙ    0.000000e+00 ( 0.000000e+00 +/- 0.000000e+00) [K]
Molecule-molecule
    Van der Waals/kʙ       -2.649001e+05 (-2.780876e+05 +/- 0.000000e+00) [K]
    Van der Waals (Tail)/kʙ-8.420114e+03 (-8.857914e+03 +/- 0.000000e+00) [K]
    Coulombic Real/kʙ      -8.444355e+04 (-8.537527e+04 +/- 0.000000e+00) [K]
    Coulombic Fourier/kʙ   -1.281383e+04 (-1.290072e+04 +/- 0.000000e+00) [K]
    Molecule Intra/kʙ       0.000000e+00 ( 0.000000e+00 +/- 0.000000e+00) [K]

Current cycle: 2000 out of 5000
===============================================================================

Box:      26.08001   0.00000   0.00000  Average:  25.74379   0.00000   0.00000
           0.00000  26.08001   0.00000             0.00000  25.74379   0.00000
           0.00000   0.00000  26.08001             0.00000   0.00000  25.74379
Lengths:  26.08001  26.08001  26.08001  Average:  25.74379  25.74379  25.74379
Angles:   90.00000  90.00000  90.00000  Average:  90.00000  90.00000  90.00000
Rectangular boundary conditions

net charge:   0.00000000

component 0 (CO2) lambda:  0 occupancy:  1 (1.000000)
    net charge:   0.00000000 [e]

Amount of molecules per component :
-------------------------------------------------------------------------------
Component 0 (CO2)
    molecules:      2.500000e+02 molecules  (2.500000e+02 +/- 0.000000e+00)
    number density: 1.409343e-02 molec./A^3 (1.465793e-02 +/- 0.000000e+00)
    density:        1.029690e+03 kg/m^3     (1.070933e+03 +/- 0.000000e+00)

Average pressure tensor: 
-------------------------------------------------------------------------------
 1.3967e+02  5.3053e+00  2.6462e+01 +/- 0.0000e+00 0.0000e+00 0.0000e+00 [bar]
 5.3053e+00  1.3637e+02 -3.6624e-01 +/- 0.0000e+00 0.0000e+00 0.0000e+00 [bar]
 2.6462e+01 -3.6624e-01  8.7547e+01 +/- 0.0000e+00 0.0000e+00 0.0000e+00 [bar]
Ideal-gas pressure:   5.059368e+02 +/ 0.000000e+00 [bar]
Excess pressure:     -3.847409e+02 +/ 0.000000e+00 [bar]
Pressure:             1.211959e+02 +/ 0.000000e+00 [bar]

Total potential energy/kʙ  -3.665269e+05 (-3.842766e+05 +/- 0.000000e+00) [K]
-------------------------------------------------------------------------------
ExternalField-molecule
    Van der Waals/kʙ        0.000000e+00 ( 0.000000e+00 +/- 0.000000e+00) [K]
Framework-molecule
    Van der Waals/kʙ        0.000000e+00 ( 0.000000e+00 +/- 0.000000e+00) [K]
    Van der Waals (Tail)/kʙ 0.000000e+00 ( 0.000000e+00 +/- 0.000000e+00) [K]
    Coulombic Real/kʙ       0.000000e+00 ( 0.000000e+00 +/- 0.000000e+00) [K]
    Coulombic Fourier/kʙ    0.000000e+00 ( 0.000000e+00 +/- 0.000000e+00) [K]
Molecule-molecule
    Van der Waals/kʙ       -2.636635e+05 (-2.773289e+05 +/- 0.000000e+00) [K]
    Van der Waals (Tail)/kʙ-8.494424e+03 (-8.837100e+03 +/- 0.000000e+00) [K]
    Coulombic Real/kʙ      -8.132219e+04 (-8.521044e+04 +/- 0.000000e+00) [K]
    Coulombic Fourier/kʙ   -1.304679e+04 (-1.290015e+04 +/- 0.000000e+00) [K]
    Molecule Intra/kʙ       0.000000e+00 ( 0.000000e+00 +/- 0.000000e+00) [K]

Current cycle: 2100 out of 5000
===============================================================================

Box:      25.73814   0.00000   0.00000  Average:  25.74766   0.00000   0.00000
           0.00000  25.73814   0.00000             0.00000  25.74766   0.00000
           0.00000   0.00000  25.73814             0.00000   0.00000  25.74766
Lengths:  25.73814  25.73814  25.73814  Average:  25.74766  25.74766  25.74766
Angles:   90.00000  90.00000  90.00000  Average:  90.00000  90.00000  90.00000
Rectangular boundary conditions

net charge:   0.00000000

component 0 (CO2) lambda:  0 occupancy:  1 (1.000000)
    net charge:   0.00000000 [e]

Amount of molecules per component :
-------------------------------------------------------------------------------
Component 0 (CO2)
    molecules:      2.500000e+02 molecules  (2.500000e+02 +/- 0.000000e+00)
    number density: 1.466251e-02 molec./A^3 (1.465131e-02 +/- 0.000000e+00)
    density:        1.071268e+03 kg/m^3     (1.070450e+03 +/- 0.000000e+00)

Average pressure tensor: 
-------------------------------------------------------------------------------
 1.3640e+02  4.9975e+00  2.2578e+01 +/- 0.0000e+00 0.0000e+00 0.0000e+00 [bar]
 4.9975e+00  1.3121e+02 -4.4160e+00 +/- 0.0000e+00 0.0000e+00 0.0000e+00 [bar]
 2.2578e+01 -4.4160e+00  9.5637e+01 +/- 0.0000e+00 0.0000e+00 0.0000e+00 [bar]
Ideal-gas pressure:   5.057084e+02 +/ 0.000000e+00 [bar]
Excess pressure:     -3.846262e+02 +/ 0.000000e+00 [bar]
Pressure:             1.210822e+02 +/ 0.000000e+00 [bar]

Total potential energy/kʙ  -3.856605e+05 (-3.842703e+05 +/- 0.000000e+00) [K]
-------------------------------------------------------------------------------
ExternalField-molecule
    Van der Waals/kʙ        0.000000e+00 ( 0.000000e+00 +/- 0.000000e+00) [K]
Framework-molecule
    Van der Waals/kʙ        0.000000e+00 ( 0.000000e+00 +/- 0.000000e+00) [K]
    Van der Waals (Tail)/kʙ 0.000000e+00 ( 0.000000e+00 +/- 0.000000e+00) [K]
[...]
    Coulombic Fourier/kʙ    0.000000e+00 ( 0.000000e+00 +/- 0.000000e+00) [K]
Molecule-molecule
    Van der Waals/kʙ       -2.839904e+05 (-2.783698e+05 +/- 3.105245e+03) [K]
    Van der Waals (Tail)/kʙ-9.000971e+03 (-8.851218e+03 +/- 8.868534e+01) [K]
    Coulombic Real/kʙ      -8.279303e+04 (-8.630303e+04 +/- 2.913615e+03) [K]
    Coulombic Fourier/kʙ   -1.246968e+04 (-1.294472e+04 +/- 1.959616e+02) [K]
    Molecule Intra/kʙ       0.000000e+00 ( 0.000000e+00 +/- 0.000000e+00) [K]

Current cycle: 4700 out of 5000
===============================================================================

Box:      25.73624   0.00000   0.00000  Average:  25.72450   0.00000   0.00000
           0.00000  25.73624   0.00000             0.00000  25.72450   0.00000
           0.00000   0.00000  25.73624             0.00000   0.00000  25.72450
Lengths:  25.73624  25.73624  25.73624  Average:  25.72450  25.72450  25.72450
Angles:   90.00000  90.00000  90.00000  Average:  90.00000  90.00000  90.00000
Rectangular boundary conditions

net charge:   0.00000000

component 0 (CO2) lambda:  0 occupancy:  1 (1.000000)
    net charge:   0.00000000 [e]

Amount of molecules per component :
-------------------------------------------------------------------------------
Component 0 (CO2)
    molecules:      2.500000e+02 molecules  (2.500000e+02 +/- 3.944933e-14)
    number density: 1.466576e-02 molec./A^3 (1.469140e-02 +/- 1.371248e-04)
    density:        1.071506e+03 kg/m^3     (1.073379e+03 +/- 1.001857e+01)

Average pressure tensor: 
-------------------------------------------------------------------------------
 9.8755e+01 -9.8024e+00  1.8627e+01 +/- 9.2433e+01 6.0033e+01 2.1623e+01 [bar]
-9.8024e+00  1.0131e+02 -3.0276e+01 +/- 6.0033e+01 5.4593e+01 3.6836e+01 [bar]
 1.8627e+01 -3.0276e+01  1.0312e+02 +/- 2.1623e+01 3.6836e+01 6.6867e+01 [bar]
Ideal-gas pressure:   5.070923e+02 +/ 4.733034e+00 [bar]
Excess pressure:     -4.060293e+02 +/ 3.665375e+01 [bar]
Pressure:             1.010630e+02 +/ 3.658937e+01 [bar]

Total potential energy/kʙ  -3.833667e+05 (-3.864861e+05 +/- 5.609731e+03) [K]
-------------------------------------------------------------------------------
ExternalField-molecule
    Van der Waals/kʙ        0.000000e+00 ( 0.000000e+00 +/- 0.000000e+00) [K]
Framework-molecule
    Van der Waals/kʙ        0.000000e+00 ( 0.000000e+00 +/- 0.000000e+00) [K]
    Van der Waals (Tail)/kʙ 0.000000e+00 ( 0.000000e+00 +/- 0.000000e+00) [K]
    Coulombic Real/kʙ       0.000000e+00 ( 0.000000e+00 +/- 0.000000e+00) [K]
    Coulombic Fourier/kʙ    0.000000e+00 ( 0.000000e+00 +/- 0.000000e+00) [K]
Molecule-molecule
    Van der Waals/kʙ       -2.762107e+05 (-2.783696e+05 +/- 3.006102e+03) [K]
    Van der Waals (Tail)/kʙ-8.839383e+03 (-8.850916e+03 +/- 8.578896e+01) [K]
    Coulombic Real/kʙ      -8.568222e+04 (-8.632225e+04 +/- 2.805942e+03) [K]
    Coulombic Fourier/kʙ   -1.263438e+04 (-1.294333e+04 +/- 1.847714e+02) [K]
    Molecule Intra/kʙ       0.000000e+00 ( 0.000000e+00 +/- 0.000000e+00) [K]

Current cycle: 4800 out of 5000
===============================================================================

Box:      25.68202   0.00000   0.00000  Average:  25.72509   0.00000   0.00000
           0.00000  25.68202   0.00000             0.00000  25.72509   0.00000
           0.00000   0.00000  25.68202             0.00000   0.00000  25.72509
Lengths:  25.68202  25.68202  25.68202  Average:  25.72509  25.72509  25.72509
Angles:   90.00000  90.00000  90.00000  Average:  90.00000  90.00000  90.00000
Rectangular boundary conditions

net charge:   0.00000000

component 0 (CO2) lambda:  0 occupancy:  1 (1.000000)
    net charge:   0.00000000 [e]

Amount of molecules per component :
-------------------------------------------------------------------------------
Component 0 (CO2)
    molecules:      2.500000e+02 molecules  (2.500000e+02 +/- 0.000000e+00)
    number density: 1.475885e-02 molec./A^3 (1.469032e-02 +/- 1.335285e-04)
    density:        1.078307e+03 kg/m^3     (1.073300e+03 +/- 9.755824e+00)

Average pressure tensor: 
-------------------------------------------------------------------------------
 1.0597e+02 -1.1434e+01  2.0452e+01 +/- 1.0206e+02 5.9087e+01 2.4635e+01 [bar]
-1.1434e+01  1.0453e+02 -2.8965e+01 +/- 5.9087e+01 4.2881e+01 3.4363e+01 [bar]
 2.0452e+01 -2.8965e+01  1.0187e+02 +/- 2.4635e+01 3.4363e+01 5.8341e+01 [bar]
Ideal-gas pressure:   5.070548e+02 +/ 4.608906e+00 [bar]
Excess pressure:     -4.029300e+02 +/ 4.089301e+01 [bar]
Pressure:             1.041248e+02 +/ 4.103874e+01 [bar]

Total potential energy/kʙ  -3.925688e+05 (-3.865006e+05 +/- 5.440083e+03) [K]
-------------------------------------------------------------------------------
ExternalField-molecule
    Van der Waals/kʙ        0.000000e+00 ( 0.000000e+00 +/- 0.000000e+00) [K]
Framework-molecule
    Van der Waals/kʙ        0.000000e+00 ( 0.000000e+00 +/- 0.000000e+00) [K]
    Van der Waals (Tail)/kʙ 0.000000e+00 ( 0.000000e+00 +/- 0.000000e+00) [K]
    Coulombic Real/kʙ       0.000000e+00 ( 0.000000e+00 +/- 0.000000e+00) [K]
    Coulombic Fourier/kʙ    0.000000e+00 ( 0.000000e+00 +/- 0.000000e+00) [K]
Molecule-molecule
    Van der Waals/kʙ       -2.800090e+05 (-2.783269e+05 +/- 2.883409e+03) [K]
    Van der Waals (Tail)/kʙ-8.895489e+03 (-8.850546e+03 +/- 8.380504e+01) [K]
    Coulombic Real/kʙ      -9.056142e+04 (-8.637804e+04 +/- 2.804344e+03) [K]
    Coulombic Fourier/kʙ   -1.310287e+04 (-1.294518e+04 +/- 1.825366e+02) [K]
    Molecule Intra/kʙ       0.000000e+00 ( 0.000000e+00 +/- 0.000000e+00) [K]

Current cycle: 4900 out of 5000
===============================================================================

Box:      25.89966   0.00000   0.00000  Average:  25.72628   0.00000   0.00000
           0.00000  25.89966   0.00000             0.00000  25.72628   0.00000
           0.00000   0.00000  25.89966             0.00000   0.00000  25.72628
Lengths:  25.89966  25.89966  25.89966  Average:  25.72628  25.72628  25.72628
Angles:   90.00000  90.00000  90.00000  Average:  90.00000  90.00000  90.00000
Rectangular boundary conditions

net charge:   0.00000000

component 0 (CO2) lambda:  0 occupancy:  1 (1.000000)
    net charge:   0.00000000 [e]

Amount of molecules per component :
-------------------------------------------------------------------------------
Component 0 (CO2)
    molecules:      2.500000e+02 molecules  (2.500000e+02 +/- 0.000000e+00)
    number density: 1.438990e-02 molec./A^3 (1.468819e-02 +/- 1.302706e-04)
    density:        1.051351e+03 kg/m^3     (1.073144e+03 +/- 9.517793e+00)

Average pressure tensor: 
-------------------------------------------------------------------------------
 1.0685e+02 -6.6693e+00  2.2889e+01 +/- 1.0057e+02 4.0184e+01 2.8919e+01 [bar]
-6.6693e+00  1.0801e+02 -2.6803e+01 +/- 4.0184e+01 3.5399e+01 3.2756e+01 [bar]
 2.2889e+01 -2.6803e+01  1.0142e+02 +/- 2.8919e+01 3.2756e+01 5.3924e+01 [bar]
Ideal-gas pressure:   5.069812e+02 +/ 4.496454e+00 [bar]
Excess pressure:     -4.015527e+02 +/ 4.203816e+01 [bar]
Pressure:             1.054285e+02 +/ 4.201971e+01 [bar]

Total potential energy/kʙ  -3.809861e+05 (-3.864673e+05 +/- 5.247889e+03) [K]
-------------------------------------------------------------------------------
ExternalField-molecule
    Van der Waals/kʙ        0.000000e+00 ( 0.000000e+00 +/- 0.000000e+00) [K]
Framework-molecule
    Van der Waals/kʙ        0.000000e+00 ( 0.000000e+00 +/- 0.000000e+00) [K]
    Van der Waals (Tail)/kʙ 0.000000e+00 ( 0.000000e+00 +/- 0.000000e+00) [K]
    Coulombic Real/kʙ       0.000000e+00 ( 0.000000e+00 +/- 0.000000e+00) [K]
    Coulombic Fourier/kʙ    0.000000e+00 ( 0.000000e+00 +/- 0.000000e+00) [K]
Molecule-molecule
    Van der Waals/kʙ       -2.767966e+05 (-2.782568e+05 +/- 2.780243e+03) [K]
    Van der Waals (Tail)/kʙ-8.673117e+03 (-8.849072e+03 +/- 8.144171e+01) [K]
    Coulombic Real/kʙ      -8.303168e+04 (-8.641682e+04 +/- 2.777332e+03) [K]
    Coulombic Fourier/kʙ   -1.248475e+04 (-1.294462e+04 +/- 1.775898e+02) [K]
    Molecule Intra/kʙ       0.000000e+00 ( 0.000000e+00 +/- 0.000000e+00) [K]


Energy statistics             |  Energy [K]   | Recomputed [K]|  Drift [K]    |
===============================================================================
Total potential energy/kʙ     | -3.958098e+05 | -3.958098e+05 |  5.187138e-09 |
    external field VDW/kʙ     |  0.000000e+00 |  0.000000e+00 |  0.000000e+00 |
    external field Real/kʙ    |  0.000000e+00 |  0.000000e+00 |  0.000000e+00 |
    framework-molecule VDW/kʙ |  0.000000e+00 |  0.000000e+00 |  0.000000e+00 |
    framework-molecule Real/kʙ|  0.000000e+00 |  0.000000e+00 |  0.000000e+00 |
    molecule-molecule VDW/kʙ  | -2.817135e+05 | -2.817135e+05 |  2.450272e-09 |
    molecule-molecule Real/kʙ | -9.207464e+04 | -9.207464e+04 |  1.645183e-09 |
    Van der Waals (Tail)/kʙ   | -8.915821e+03 | -8.915821e+03 |  0.000000e+00 |
    Ewald Fourier/kʙ          |  9.585537e+03 |  9.585537e+03 | -2.844066e-11 |
    Ewald self/kʙ             | -5.029674e+06 | -5.029674e+06 |  0.000000e+00 |
    Ewald exclusion/kʙ        |  5.006983e+06 |  5.006983e+06 |  1.120124e-09 |
    intra VDW/kʙ              |  0.000000e+00 |  0.000000e+00 |  0.000000e+00 |
    intra Coulombic/kʙ        |  0.000000e+00 |  0.000000e+00 |  0.000000e+00 |
    polarization/kʙ           |  0.000000e+00 |  0.000000e+00 |  0.000000e+00 |
    dU/dlambda VDW/kʙ         |  0.000000e+00 |  0.000000e+00 |  0.000000e+00 |
    dU/dlambda Real/kʙ        |  0.000000e+00 |  0.000000e+00 |  0.000000e+00 |
    dU/dlambda Ewald/kʙ       |  0.000000e+00 |  0.000000e+00 |  0.000000e+00 |
-------------------------------------------------------------------------------


Monte-Carlo moves statistics
===============================================================================

    Volume change        all:                8219
    Volume change        total:              8219
    Volume change        constructed:        8219
    Volume change        accepted:           2261
    Volume change        fraction:       0.275094
    Volume change        max-change:     0.050000

Component 0 [CO2]
    Reinsertion (CBMC)   all:              414038
    Reinsertion (CBMC)   total:            414038
    Reinsertion (CBMC)   constructed:      363717
    Reinsertion (CBMC)   accepted:           4756
    Reinsertion (CBMC)   fraction:       0.011487
    Reinsertion (CBMC)   max-change:     0.000000

    Translation          all:              414155
    Translation          total:            137628     137854     138673
    Translation          constructed:      137628     137854     138542
    Translation          accepted:          74702      69361      47279
    Translation          fraction:       0.542782   0.503148   0.340939
    Translation          max-change:     0.571429   0.653061   1.071429

    Rotation             all:              413588
    Rotation             total:            137413     138280     137895
    Rotation             constructed:      137412     138280     137837
    Rotation             accepted:          67109      81112      51642
    Rotation             fraction:       0.488374   0.586578   0.374502
    Rotation             max-change:     0.709360   0.518519   1.048951



Production run counting of the MC moves summed over systems and components
===============================================================================

Volume change                          8219 (0.6575 [%])
Reinsertion (CBMC)                   414038 (33.1230 [%])
Translation                          414155 (33.1324 [%])
Rotation                             413588 (33.0870 [%])

Production count MC-steps:          1250000 [-]
               All summed:          1250000 [-]
               difference:                0 [-]


Production run CPU timings of the MC moves
===============================================================================

Component 0 CO2

Rotation                             60.454530 [s]
    Ewald                            23.322790 [s]
    ExternalField-Molecule            0.015377 [s]
    Framework-Molecule                0.016100 [s]
    Molecule-Molecule                35.154212 [s]
    Overhead                          1.946051 [s]

Reinsertion (CBMC)                  256.257602 [s]
    Ewald                            20.620826 [s]
    NonEwald                        235.226800 [s]
    Overhead                          0.409976 [s]

Translation                          60.649785 [s]
    Ewald                            23.360476 [s]
    ExternalField-Molecule            0.021674 [s]
    Framework-Molecule                0.034364 [s]
    Molecule-Molecule                35.315353 [s]
    Overhead                          1.917918 [s]



Volume change                         70.023874 [s]
    Ewald                             22.979875 [s]
    NonEwald                          43.586829 [s]
    Tail                               3.166149 [s]

Property sampling                     0.302543 [s]
Energy/pressure sampling:             8.334340 [s]


Production run CPU timings of the MC moves summed over systems and components
===============================================================================


Translation                          60.649785 [s]
    Ewald                            23.360476 [s]
    ExternalField-Molecule            0.021674 [s]
    Framework-Molecule                0.034364 [s]
    Molecule-Molecule                35.315353 [s]
    Overhead                          1.917918 [s]

Rotation                             60.454530 [s]
    Ewald                            23.322790 [s]
    ExternalField-Molecule            0.015377 [s]
    Framework-Molecule                0.016100 [s]
    Molecule-Molecule                35.154212 [s]
    Overhead                          1.946051 [s]

Volume change                        70.023874 [s]
    Ewald                            22.979875 [s]
    NonEwald                         43.586829 [s]
    Tail                              3.166149 [s]
    Overhead                          0.291021 [s]

Reinsertion (CBMC)                  256.257602 [s]
    Ewald                            20.620826 [s]
    NonEwald                        235.226800 [s]
    Overhead                          0.409976 [s]

Property sampling:                    0.302543 [s]
Energy/pressure sampling:             8.334340 [s]

Production simulation time:         457.044080 [s]
                All summed:         456.022674 [s]
                  Overhead:           1.021406 [s]


Initalization simulation time:       89.076244 [s]
Equilibration simulation time:        0.000000 [s]
Production simulation time:         457.044080 [s]
Total simulation time:              546.120324 [s]


Energy averages and statistics:
===============================================================================

Framework-molecule energy:
-------------------------------------------------------------------------------



Framework-molecule energy contributions per energy type:
-------------------------------------------------------------------------------



Inter-molecular energy:
-------------------------------------------------------------------------------

    Inter-molecular energy/kʙ 0-0 [CO2-CO2]:
    ---------------------------------------------------------------------------
        Block[  0] -3.831121e+05
        Block[  1] -3.856186e+05
        Block[  2] -3.821131e+05
        Block[  3] -3.916131e+05
        Block[  4] -3.897555e+05
        -----------------------------------------------------------------------
        Average  -3.864425e+05 +/-  5.127142e+03 [K]



Inter-molecular energy contributions per energy type:
-------------------------------------------------------------------------------

    Van der Waals energy/kʙ 0-0 [CO2-CO2]:
    ---------------------------------------------------------------------------
        Block[  0] -2.779485e+05
        Block[  1] -2.768460e+05
        Block[  2] -2.757293e+05
        Block[  3] -2.814632e+05
        Block[  4] -2.790714e+05
        -----------------------------------------------------------------------
        Average  -2.782117e+05 +/-  2.734621e+03 [K]

    VDW Tail-Correction energy/kʙ 0-0 [CO2-CO2]:
    ---------------------------------------------------------------------------
        Block[  0] -8.833672e+03
        Block[  1] -8.843955e+03
        Block[  2] -8.755137e+03
        Block[  3] -8.932547e+03
        Block[  4] -8.877144e+03
        -----------------------------------------------------------------------
        Average  -8.848491e+03 +/-  8.055544e+01 [K]

    Coulomb Real energy/kʙ 0-0 [CO2-CO2]:
    ---------------------------------------------------------------------------
        Block[  0] -8.354721e+04
        Block[  1] -8.691255e+04
        Block[  2] -8.482757e+04
        Block[  3] -8.814781e+04
        Block[  4] -8.876185e+04
        -----------------------------------------------------------------------
        Average  -8.643940e+04 +/-  2.741013e+03 [K]

    Coulomb Fourier energy/kʙ 0-0 [CO2-CO2]:
    ---------------------------------------------------------------------------
        Block[  0] -1.278273e+04
        Block[  1] -1.301610e+04
        Block[  2] -1.280114e+04
        Block[  3] -1.306955e+04
        Block[  4] -1.304507e+04
        -----------------------------------------------------------------------
        Average  -1.294292e+04 +/-  1.728989e+02 [K]


Total energy/kʙ
-------------------------------------------------------------------------------
    Block[  0] -3.831121e+05
    Block[  1] -3.856186e+05
    Block[  2] -3.821131e+05
    Block[  3] -3.916131e+05
    Block[  4] -3.897555e+05
    ---------------------------------------------------------------------------
    Average  -3.864425e+05 +/-  5.127142e+03 [K]

Pressure averages and statistics:
===============================================================================

Average pressure tensor: 
-------------------------------------------------------------------------------
 1.0497e+02 -7.7489e+00  2.4002e+01 +/- 9.5746e+01 4.0134e+01 2.9897e+01 [bar]
-7.7489e+00  1.0869e+02 -2.8255e+01 +/- 4.0134e+01 3.4151e+01 3.3350e+01 [bar]
 2.4002e+01 -2.8255e+01  1.0024e+02 +/- 2.9897e+01 3.3350e+01 4.9191e+01 [bar]

    Block[  0]  5.059054e+07
    Block[  1]  5.059877e+07
    Block[  2]  5.023711e+07
    Block[  3]  5.120799e+07
    Block[  4]  5.082887e+07
    ---------------------------------------------------------------------------
    Ideal gas pressure   5.069265e+07 +/-  2.671886e-02 [Pa]
                         5.069265e+02 +/-  4.436774e+00 [bar]


    Block[  0] -3.987488e+07
    Block[  1] -3.707729e+07
    Block[  2] -4.305260e+07
    Block[  3] -4.393909e+07
    Block[  4] -3.720408e+07
    ---------------------------------------------------------------------------
    Excess pressure  -4.022959e+07 +/-  3.972022e+06 [Pa]
                     -4.022959e+02 +/-  3.972022e+01 [bar]


    Block[  0]  1.071566e+07
    Block[  1]  1.352147e+07
    Block[  2]  7.184510e+06
    Block[  3]  7.268900e+06
    Block[  4]  1.362479e+07
    ---------------------------------------------------------------------------
    Pressure average   1.046307e+07 +/-  3.943766e+06 [Pa]
                       1.046307e+02 +/-  3.943766e+01 [bar]


Enthalpy of adsorption
===============================================================================

No fluctuating components present.


Densities
===============================================================================

Component 0 (CO2)
    Block[  0] 250
    Block[  1] 250
    Block[  2] 250
    Block[  3] 250
    Block[  4] 250
    -----------------------------------------------------------------------
    Density average   2.500000e+02 +/-  0.000000e+00 [molecules]
    Density average   1.468660e-02 +/-  1.285416e-04 [molec/A^3]
    Density average   1.073028e+03 +/-  9.391466e+00 [kg.m⁻³]

