Compiler and run-time data
===============================================================================
RASPA 3.0.4

Random seed: 4124512886

Compiled as a 64-bits application
Compiler: gcc Ubuntu Clang 18.1.3 (1ubuntu1)
Compile Date = Mar 15 2025, Compile Time = 19:39:45

2025-06-02 13:38:55.150449
Simulation started on Mon, Jun 02
The start time was 13:38:00

Hostname:    c061
OS type:     Linux on x86_64
OS release:  6.8.0-58-generic
OS version:  #60-Ubuntu SMP PREEMPT_DYNAMIC Fri Mar 14 18:29:48 UTC 2025


Mutual consistent basic set of units:
===============================================================================

Unit of temperature: 1 [K]
Unit of length:      1e-10 [m]
Unit of time:        1e-12 [s]
Unit of mass:        1.6605402e-27 [kg]
Unit of charge:      1.60217733e-19 [C/particle]


Boltzmann constant (internal units):          0.8314464919307584 [-]
represents conversion from energy (internal units) to temperature (in Kelvin)

Derived units and their conversion factors:
===============================================================================

Unit of energy:                           1.6605402000000002e-23 [J]
Unit of energy:                           10.000008872307538 [J.mol⁻¹]
Unit of velocity:                         100 [m.s⁻¹]
Unit of force:                            1.6605402000000002e-13 [N]
Unit of diffusion:                        1.0000000000000002e-08 [m².s⁻¹]
Unit of acceleration:                     1.0000000000000002e-08 [m².s⁻¹]
Unit of torque:                           1.6605402000000002e-23 [N.m]
Unit of pressure:                         16605402 [Pa]
Unit of volume:                           1e-30 [m³]
Unit of density:                          1660.5402 [kg.m⁻³]
Unit of dynamic viscosity:                1.6605401999999997e-05 [N.s.m⁻²]
Unit of enthalpy:                         1.6605402000000002e-23 [J]
Unit of polarizability:                   1.5458657349975198e-35 [-]
Unit of Coulomb potential:                167101.08000665612 [K]
Unit of dielectric constant:              1.5458657349975193e-05 [s².C².kg⁻¹.m⁻³]
Unit of dipole moment:                    1.60217733e-29 [C.m]
Unit of Debye:                            4.803206799099162 [C.m]
Unit of electric potential:               0.00010364272224473431 [V]
Unit of electric field:                   1036427.222447343 [V.m⁻¹]
Unit of isothermal compressibility:       6.02213665167516e-08 [Pa⁻¹]
Unit of heat capacity:                    10.000008872307538 [J.mol⁻¹.K⁻¹]
Unit of volumetric expansion coefficient: 1 [K⁻¹]


Internal conversion factors:
===============================================================================

Energy (internal units) to Kelvin:      1.202724284692786 [-]
Kelvin to energy (internal units):      0.8314457542157567 [-]


System definitions
===============================================================================

Temperature:          250 [K]
Beta:                 0.0048108928702210625 [-]
Pressure:             1.2e+07 [Pa]
Helium void fraction: 1 [-]

Box:      30.00000   0.00000   0.00000
           0.00000  30.00000   0.00000
           0.00000   0.00000  30.00000
Lengths:  30.00000  30.00000  30.00000
Angles:   90.00000  90.00000  90.00000
Rectangular boundary conditions



Property measurement settings
===============================================================================




Pseudo-atoms
===============================================================================

  0 - C_co2    framework-atom: false
  1 - O_co2    framework-atom: false

  0 - C_co2    mass: 12.00000, charge:  0.70000
  1 - O_co2    mass: 15.99940, charge: -0.35000

  0 - C_co2    polarizability:  0.00000
  1 - O_co2    polarizability:  0.00000

  0 - J. J. Potoff et al., AIChE J. 2001, 47, 1676–1682.
  1 - J. J. Potoff et al., AIChE J. 2001, 47, 1676–1682.

Force field status
===============================================================================

Cutoff Framework-Molecule VDW:  10.00000 [Å]
Cutoff Molecule-Molecule VDW:   10.00000 [Å]
Cutoff Coulomb:                 10.00000 [Å]

Overlap-criteria VDW:           1.000000e+05 [K]

C_co2    - C_co2    Lennard-Jones p₀/kʙ:  27.00000 [K], p₁:  2.80000 [Å]
                                  shift:   0.00000 [K], tailcorrections: true
C_co2    - O_co2    Lennard-Jones p₀/kʙ:  46.18441 [K], p₁:  2.92500 [Å]
                                  shift:   0.00000 [K], tailcorrections: true
O_co2    - O_co2    Lennard-Jones p₀/kʙ:  79.00000 [K], p₁:  3.05000 [Å]
                                  shift:   0.00000 [K], tailcorrections: true

Ewald precision: 1e-06
Ewald alpha: 0.32079885109097883
Ewald k-vectors: 10 10 10


Component definitions
===============================================================================

Component 0 [CO2]

    Type: Adsorbate

    Critical temperature:  304.1282 [K]
    Critical pressure:     7377300 [Pa]
    Acentric factor:       0.22394 [-]

    Mol-fraction:                 1 [-]
    Swappable:                   false

    Mass:                         43.9988 [-]
    Bulk fluid density:           0 [-]
    Compressibility:              0 [-]
    Excess molecules:             0 [-]

    Number Of Atoms:    3
    CBMC starting bead: 0
      0: O_co2  position  0.00000 -0.00000  1.16000, charge -0.35000
      1: C_co2  position  0.00000 -0.00000  0.00000, charge  0.70000
      2: O_co2  position  0.00000 -0.00000 -1.16000, charge -0.35000
    Diagonalized inertia-vector:      43.05758528 43.05758528 0.00000000
    Translational degrees of freedom: 3
    Rotational degrees of freedom:    2
    Shape of the molecule is: 'Linear'
    Net-charge:        0.00000000 [e]

    Move probabilities:
    Translation:                   0.331126 [-]
    Random translation:            0.000000 [-]
    Rotation:                      0.331126 [-]
    Random rotation:               0.000000 [-]
    Volume change:                 0.006623 [-]
    Reinsertion (CBMC):            0.331126 [-]
    Identity change (CBMC):        0.000000 [-]
    Swap:                          0.000000 [-]
    Swap (CBMC):                   0.000000 [-]
    Swap (CFCMC):                  0.000000 [-]
    Swap (CB/CFCMC):               0.000000 [-]
    Gibbs volume:                  0.000000 [-]
    Gibbs swap (CBMC):             0.000000 [-]
    Gibbs swap (CFCMC):            0.000000 [-]
    Widom:                         0.000000 [-]
    Widom (CFCMC):                 0.000000 [-]
    Widom (CB/CFCMC):              0.000000 [-]
    Parallel tempering:            0.000000 [-]
    Hybrid MC:                     0.000000 [-]

    number of blocking-pockets: 0

    number of bonds: 0





Number of pseudo-atoms
===============================================================================

Component   0 (CO2)
-------------------------------------------------------------------------------
    index   0 (C_co2): 200 atoms
    index   1 (O_co2): 400 atoms

Total number of pseudo-atoms:
-------------------------------------------------------------------------------
    index   0 (C_co2): 200 atoms
    index   1 (O_co2): 400 atoms




Energy status Recomputed from scratch
===============================================================================

Total potential energy/kʙ       -9.448652e+04 [K]
    external field VDW/kʙ        0.000000e+00 [K]
    external field Real/kʙ       0.000000e+00 [K]
    framework-molecule VDW/kʙ    0.000000e+00 [K]
    framework-molecule Real/kʙ   0.000000e+00 [K]
    molecule-molecule VDW/kʙ    -7.357158e+04 [K]
    molecule-molecule Real/kʙ   -1.358810e+04 [K]
    Van der Waals (Tail)/kʙ     -4.753406e+03 [K]
    Ewald Fourier/kʙ             2.648827e+04 [K]
    Ewald self/kʙ               -4.445846e+06 [K]
    Ewald exclusion/kʙ           4.416785e+06 [K]
    intra VDW/kʙ                 0.000000e+00 [K]
    intra Coulombic/kʙ           0.000000e+00 [K]
    polarization/kʙ              0.000000e+00 [K]
    dU/dlambda VDW/kʙ            0.000000e+00 [K]
    dU/dlambda Real/kʙ           0.000000e+00 [K]
    dU/dlambda Ewald/kʙ          0.000000e+00 [K]





Initialization: Current cycle: 0 out of 1000
===============================================================================

Box:      30.00000   0.00000   0.00000
           0.00000  30.00000   0.00000
           0.00000   0.00000  30.00000
Lengths:  30.00000  30.00000  30.00000
Angles:   90.00000  90.00000  90.00000
Rectangular boundary conditions

net charge:   0.00000000

component   0 (CO2) lambda:  0 occupancy:  1 (1.000000)
    net charge:   0.00000000 [e]

Amount of molecules per component :
-------------------------------------------------------------------------------
Component 0 (CO2)
    molecules:         2.000000e+02 molecules
    number density:    7.407407e-03 molec/A^3
    density:           5.411979e+02 kg/m^3

Total potential energy/kʙ       -1.324201e+05 [K]
-------------------------------------------------------------------------------
    external field VDW/kʙ        0.000000e+00 [K]
    external field Real/kʙ       0.000000e+00 [K]
    framework-molecule VDW/kʙ    0.000000e+00 [K]
    framework-molecule Real/kʙ   0.000000e+00 [K]
    molecule-molecule VDW/kʙ    -1.036923e+05 [K]
    molecule-molecule Real/kʙ   -1.838552e+04 [K]
    Van der Waals (Tail)/kʙ     -4.753406e+03 [K]
    Ewald Fourier/kʙ             2.347283e+04 [K]
    Ewald self/kʙ               -4.445846e+06 [K]
    Ewald exclusion/kʙ           4.416785e+06 [K]
    intra VDW/kʙ                 0.000000e+00 [K]
    intra Coulombic/kʙ           0.000000e+00 [K]
    polarization/kʙ              0.000000e+00 [K]
    dU/dlambda VDW/kʙ            0.000000e+00 [K]
    dU/dlambda Real/kʙ           0.000000e+00 [K]
    dU/dlambda Ewald/kʙ          0.000000e+00 [K]


Initialization: Current cycle: 100 out of 1000
===============================================================================

Box:      26.63000   0.00000   0.00000
           0.00000  26.63000   0.00000
           0.00000   0.00000  26.63000
Lengths:  26.63000  26.63000  26.63000
Angles:   90.00000  90.00000  90.00000
Rectangular boundary conditions

net charge:   0.00000000

component   0 (CO2) lambda:  0 occupancy:  1 (1.000000)
    net charge:   0.00000000 [e]

Amount of molecules per component :
-------------------------------------------------------------------------------
Component 0 (CO2)
    molecules:         2.000000e+02 molecules
    number density:    1.059050e-02 molec/A^3
    density:           7.737602e+02 kg/m^3

Total potential energy/kʙ       -2.259610e+05 [K]
-------------------------------------------------------------------------------
    external field VDW/kʙ        0.000000e+00 [K]
    external field Real/kʙ       0.000000e+00 [K]
    framework-molecule VDW/kʙ    0.000000e+00 [K]
    framework-molecule Real/kʙ   0.000000e+00 [K]
    molecule-molecule VDW/kʙ    -1.619130e+05 [K]
    molecule-molecule Real/kʙ   -4.644839e+04 [K]
    Van der Waals (Tail)/kʙ     -6.796029e+03 [K]
    Ewald Fourier/kʙ             1.825805e+04 [K]
    Ewald self/kʙ               -4.445846e+06 [K]
    Ewald exclusion/kʙ           4.416785e+06 [K]
    intra VDW/kʙ                 0.000000e+00 [K]
    intra Coulombic/kʙ           0.000000e+00 [K]
    polarization/kʙ              0.000000e+00 [K]
    dU/dlambda VDW/kʙ            0.000000e+00 [K]
    dU/dlambda Real/kʙ           0.000000e+00 [K]
    dU/dlambda Ewald/kʙ          0.000000e+00 [K]


Initialization: Current cycle: 200 out of 1000
===============================================================================

Box:      24.69950   0.00000   0.00000
           0.00000  24.69950   0.00000
           0.00000   0.00000  24.69950
Lengths:  24.69950  24.69950  24.69950
Angles:   90.00000  90.00000  90.00000
Rectangular boundary conditions

net charge:   0.00000000

component   0 (CO2) lambda:  0 occupancy:  1 (1.000000)
    net charge:   0.00000000 [e]

Amount of molecules per component :
-------------------------------------------------------------------------------
Component 0 (CO2)
    molecules:         2.000000e+02 molecules
    number density:    1.327289e-02 molec/A^3
    density:           9.697400e+02 kg/m^3

Total potential energy/kʙ       -2.704524e+05 [K]
-------------------------------------------------------------------------------
    external field VDW/kʙ        0.000000e+00 [K]
    external field Real/kʙ       0.000000e+00 [K]
    framework-molecule VDW/kʙ    0.000000e+00 [K]
    framework-molecule Real/kʙ   0.000000e+00 [K]
    molecule-molecule VDW/kʙ    -1.924640e+05 [K]
    molecule-molecule Real/kʙ   -5.511611e+04 [K]
    Van der Waals (Tail)/kʙ     -8.517343e+03 [K]
    Ewald Fourier/kʙ             1.470674e+04 [K]
    Ewald self/kʙ               -4.445846e+06 [K]
    Ewald exclusion/kʙ           4.416785e+06 [K]
    intra VDW/kʙ                 0.000000e+00 [K]
    intra Coulombic/kʙ           0.000000e+00 [K]
    polarization/kʙ              0.000000e+00 [K]
    dU/dlambda VDW/kʙ            0.000000e+00 [K]
    dU/dlambda Real/kʙ           0.000000e+00 [K]
    dU/dlambda Ewald/kʙ          0.000000e+00 [K]


Initialization: Current cycle: 300 out of 1000
===============================================================================

Box:      24.49931   0.00000   0.00000
           0.00000  24.49931   0.00000
           0.00000   0.00000  24.49931
Lengths:  24.49931  24.49931  24.49931
Angles:   90.00000  90.00000  90.00000
Rectangular boundary conditions

net charge:   0.00000000

component   0 (CO2) lambda:  0 occupancy:  1 (1.000000)
    net charge:   0.00000000 [e]

Amount of molecules per component :
-------------------------------------------------------------------------------
Component 0 (CO2)
    molecules:         2.000000e+02 molecules
    number density:    1.360092e-02 molec/A^3
    density:           9.937068e+02 kg/m^3

Total potential energy/kʙ       -2.839926e+05 [K]
-------------------------------------------------------------------------------
    external field VDW/kʙ        0.000000e+00 [K]
    external field Real/kʙ       0.000000e+00 [K]
    framework-molecule VDW/kʙ    0.000000e+00 [K]
    framework-molecule Real/kʙ   0.000000e+00 [K]
    molecule-molecule VDW/kʙ    -2.029472e+05 [K]
    molecule-molecule Real/kʙ   -5.775553e+04 [K]
    Van der Waals (Tail)/kʙ     -8.727846e+03 [K]
    Ewald Fourier/kʙ             1.449962e+04 [K]
    Ewald self/kʙ               -4.445846e+06 [K]
    Ewald exclusion/kʙ           4.416785e+06 [K]
    intra VDW/kʙ                 0.000000e+00 [K]
    intra Coulombic/kʙ           0.000000e+00 [K]
    polarization/kʙ              0.000000e+00 [K]
    dU/dlambda VDW/kʙ            0.000000e+00 [K]
    dU/dlambda Real/kʙ           0.000000e+00 [K]
    dU/dlambda Ewald/kʙ          0.000000e+00 [K]


Initialization: Current cycle: 400 out of 1000
===============================================================================

Box:      23.87678   0.00000   0.00000
           0.00000  23.87678   0.00000
           0.00000   0.00000  23.87678
Lengths:  23.87678  23.87678  23.87678
Angles:   90.00000  90.00000  90.00000
Rectangular boundary conditions

net charge:   0.00000000

component   0 (CO2) lambda:  0 occupancy:  1 (1.000000)
    net charge:   0.00000000 [e]

Amount of molecules per component :
-------------------------------------------------------------------------------
Component 0 (CO2)
    molecules:         2.000000e+02 molecules
    number density:    1.469273e-02 molec/A^3
    density:           1.073476e+03 kg/m^3

Total potential energy/kʙ       -3.077494e+05 [K]
-------------------------------------------------------------------------------
    external field VDW/kʙ        0.000000e+00 [K]
    external field Real/kʙ       0.000000e+00 [K]
    framework-molecule VDW/kʙ    0.000000e+00 [K]
    framework-molecule Real/kʙ   0.000000e+00 [K]
    molecule-molecule VDW/kʙ    -2.198511e+05 [K]
    molecule-molecule Real/kʙ   -6.259939e+04 [K]
    Van der Waals (Tail)/kʙ     -9.428472e+03 [K]
    Ewald Fourier/kʙ             1.319127e+04 [K]
    Ewald self/kʙ               -4.445846e+06 [K]
    Ewald exclusion/kʙ           4.416785e+06 [K]
    intra VDW/kʙ                 0.000000e+00 [K]
    intra Coulombic/kʙ           0.000000e+00 [K]
    polarization/kʙ              0.000000e+00 [K]
    dU/dlambda VDW/kʙ            0.000000e+00 [K]
    dU/dlambda Real/kʙ           0.000000e+00 [K]
    dU/dlambda Ewald/kʙ          0.000000e+00 [K]


Initialization: Current cycle: 500 out of 1000
===============================================================================

Box:      23.60093   0.00000   0.00000
           0.00000  23.60093   0.00000
           0.00000   0.00000  23.60093
Lengths:  23.60093  23.60093  23.60093
Angles:   90.00000  90.00000  90.00000
Rectangular boundary conditions

net charge:   0.00000000

component   0 (CO2) lambda:  0 occupancy:  1 (1.000000)
    net charge:   0.00000000 [e]

Amount of molecules per component :
-------------------------------------------------------------------------------
Component 0 (CO2)
    molecules:         2.000000e+02 molecules
    number density:    1.521397e-02 molec/A^3
    density:           1.111558e+03 kg/m^3

Total potential energy/kʙ       -3.150561e+05 [K]
-------------------------------------------------------------------------------
    external field VDW/kʙ        0.000000e+00 [K]
    external field Real/kʙ       0.000000e+00 [K]
    framework-molecule VDW/kʙ    0.000000e+00 [K]
    framework-molecule Real/kʙ   0.000000e+00 [K]
    molecule-molecule VDW/kʙ    -2.284655e+05 [K]
    molecule-molecule Real/kʙ   -6.065448e+04 [K]
    Van der Waals (Tail)/kʙ     -9.762951e+03 [K]
    Ewald Fourier/kʙ             1.288854e+04 [K]
    Ewald self/kʙ               -4.445846e+06 [K]
    Ewald exclusion/kʙ           4.416785e+06 [K]
    intra VDW/kʙ                 0.000000e+00 [K]
    intra Coulombic/kʙ           0.000000e+00 [K]
    polarization/kʙ              0.000000e+00 [K]
    dU/dlambda VDW/kʙ            0.000000e+00 [K]
    dU/dlambda Real/kʙ           0.000000e+00 [K]
    dU/dlambda Ewald/kʙ          0.000000e+00 [K]


Initialization: Current cycle: 600 out of 1000
===============================================================================

Box:      23.56050   0.00000   0.00000
           0.00000  23.56050   0.00000
           0.00000   0.00000  23.56050
Lengths:  23.56050  23.56050  23.56050
Angles:   90.00000  90.00000  90.00000
Rectangular boundary conditions

net charge:   0.00000000

component   0 (CO2) lambda:  0 occupancy:  1 (1.000000)
    net charge:   0.00000000 [e]

Amount of molecules per component :
-------------------------------------------------------------------------------
Component 0 (CO2)
    molecules:         2.000000e+02 molecules
    number density:    1.529242e-02 molec/A^3
    density:           1.117290e+03 kg/m^3

Total potential energy/kʙ       -3.179353e+05 [K]
-------------------------------------------------------------------------------
    external field VDW/kʙ        0.000000e+00 [K]
    external field Real/kʙ       0.000000e+00 [K]
    framework-molecule VDW/kʙ    0.000000e+00 [K]
    framework-molecule Real/kʙ   0.000000e+00 [K]
    molecule-molecule VDW/kʙ    -2.205978e+05 [K]
    molecule-molecule Real/kʙ   -7.065233e+04 [K]
    Van der Waals (Tail)/kʙ     -9.813297e+03 [K]
    Ewald Fourier/kʙ             1.218988e+04 [K]
    Ewald self/kʙ               -4.445846e+06 [K]
    Ewald exclusion/kʙ           4.416785e+06 [K]
    intra VDW/kʙ                 0.000000e+00 [K]
    intra Coulombic/kʙ           0.000000e+00 [K]
    polarization/kʙ              0.000000e+00 [K]
    dU/dlambda VDW/kʙ            0.000000e+00 [K]
    dU/dlambda Real/kʙ           0.000000e+00 [K]
    dU/dlambda Ewald/kʙ          0.000000e+00 [K]


Initialization: Current cycle: 700 out of 1000
===============================================================================

Box:      23.58429   0.00000   0.00000
           0.00000  23.58429   0.00000
           0.00000   0.00000  23.58429
Lengths:  23.58429  23.58429  23.58429
Angles:   90.00000  90.00000  90.00000
Rectangular boundary conditions

net charge:   0.00000000

component   0 (CO2) lambda:  0 occupancy:  1 (1.000000)
    net charge:   0.00000000 [e]

Amount of molecules per component :
-------------------------------------------------------------------------------
Component 0 (CO2)
    molecules:         2.000000e+02 molecules
    number density:    1.524620e-02 molec/A^3
    density:           1.113913e+03 kg/m^3

Total potential energy/kʙ       -3.193679e+05 [K]
-------------------------------------------------------------------------------
    external field VDW/kʙ        0.000000e+00 [K]
    external field Real/kʙ       0.000000e+00 [K]
    framework-molecule VDW/kʙ    0.000000e+00 [K]
    framework-molecule Real/kʙ   0.000000e+00 [K]
    molecule-molecule VDW/kʙ    -2.268624e+05 [K]
    molecule-molecule Real/kʙ   -6.708550e+04 [K]
    Van der Waals (Tail)/kʙ     -9.783636e+03 [K]
    Ewald Fourier/kʙ             1.342531e+04 [K]
    Ewald self/kʙ               -4.445846e+06 [K]
    Ewald exclusion/kʙ           4.416785e+06 [K]
    intra VDW/kʙ                 0.000000e+00 [K]
    intra Coulombic/kʙ           0.000000e+00 [K]
    polarization/kʙ              0.000000e+00 [K]
    dU/dlambda VDW/kʙ            0.000000e+00 [K]
    dU/dlambda Real/kʙ           0.000000e+00 [K]
    dU/dlambda Ewald/kʙ          0.000000e+00 [K]


Initialization: Current cycle: 800 out of 1000
===============================================================================

Box:      23.48982   0.00000   0.00000
           0.00000  23.48982   0.00000
           0.00000   0.00000  23.48982
Lengths:  23.48982  23.48982  23.48982
Angles:   90.00000  90.00000  90.00000
Rectangular boundary conditions

net charge:   0.00000000

component   0 (CO2) lambda:  0 occupancy:  1 (1.000000)
    net charge:   0.00000000 [e]

Amount of molecules per component :
-------------------------------------------------------------------------------
Component 0 (CO2)
    molecules:         2.000000e+02 molecules
    number density:    1.543089e-02 molec/A^3
    density:           1.127407e+03 kg/m^3

Total potential energy/kʙ       -3.242129e+05 [K]
-------------------------------------------------------------------------------
    external field VDW/kʙ        0.000000e+00 [K]
    external field Real/kʙ       0.000000e+00 [K]
    framework-molecule VDW/kʙ    0.000000e+00 [K]
    framework-molecule Real/kʙ   0.000000e+00 [K]
    molecule-molecule VDW/kʙ    -2.236148e+05 [K]
    molecule-molecule Real/kʙ   -7.371763e+04 [K]
    Van der Waals (Tail)/kʙ     -9.902155e+03 [K]
    Ewald Fourier/kʙ             1.208332e+04 [K]
    Ewald self/kʙ               -4.445846e+06 [K]
    Ewald exclusion/kʙ           4.416785e+06 [K]
    intra VDW/kʙ                 0.000000e+00 [K]
    intra Coulombic/kʙ           0.000000e+00 [K]
    polarization/kʙ              0.000000e+00 [K]
    dU/dlambda VDW/kʙ            0.000000e+00 [K]
    dU/dlambda Real/kʙ           0.000000e+00 [K]
    dU/dlambda Ewald/kʙ          0.000000e+00 [K]


Initialization: Current cycle: 900 out of 1000
===============================================================================

Box:      23.80730   0.00000   0.00000
           0.00000  23.80730   0.00000
           0.00000   0.00000  23.80730
Lengths:  23.80730  23.80730  23.80730
Angles:   90.00000  90.00000  90.00000
Rectangular boundary conditions

net charge:   0.00000000

component   0 (CO2) lambda:  0 occupancy:  1 (1.000000)
    net charge:   0.00000000 [e]

Amount of molecules per component :
-------------------------------------------------------------------------------
Component 0 (CO2)
    molecules:         2.000000e+02 molecules
    number density:    1.482175e-02 molec/A^3
    density:           1.082902e+03 kg/m^3

Total potential energy/kʙ       -3.214890e+05 [K]
-------------------------------------------------------------------------------
    external field VDW/kʙ        0.000000e+00 [K]
    external field Real/kʙ       0.000000e+00 [K]
    framework-molecule VDW/kʙ    0.000000e+00 [K]
    framework-molecule Real/kʙ   0.000000e+00 [K]
    molecule-molecule VDW/kʙ    -2.368220e+05 [K]
    molecule-molecule Real/kʙ   -5.926616e+04 [K]
    Van der Waals (Tail)/kʙ     -9.511261e+03 [K]
    Ewald Fourier/kʙ             1.317203e+04 [K]
    Ewald self/kʙ               -4.445846e+06 [K]
    Ewald exclusion/kʙ           4.416785e+06 [K]
    intra VDW/kʙ                 0.000000e+00 [K]
    intra Coulombic/kʙ           0.000000e+00 [K]
    polarization/kʙ              0.000000e+00 [K]
    dU/dlambda VDW/kʙ            0.000000e+00 [K]
    dU/dlambda Real/kʙ           0.000000e+00 [K]
    dU/dlambda Ewald/kʙ          0.000000e+00 [K]


Current cycle: 0 out of 5000
===============================================================================

Box:      23.73796   0.00000   0.00000  Average:  23.73796   0.00000   0.00000
           0.00000  23.73796   0.00000             0.00000  23.73796   0.00000
           0.00000   0.00000  23.73796             0.00000   0.00000  23.73796
Lengths:  23.73796  23.73796  23.73796  Average:  23.73796  23.73796  23.73796
Angles:   90.00000  90.00000  90.00000  Average:  90.00000  90.00000  90.00000
Rectangular boundary conditions

net charge:   0.00000000

component 0 (CO2) lambda:  0 occupancy:  1 (1.000000)
    net charge:   0.00000000 [e]

Amount of molecules per component :
-------------------------------------------------------------------------------
Component 0 (CO2)
    molecules:      2.000000e+02 molecules  (2.000000e+02 +/- 0.000000e+00)
    number density: 1.495201e-02 molec./A^3 (1.495201e-02 +/- 0.000000e+00)
    density:        1.092419e+03 kg/m^3     (1.092419e+03 +/- 0.000000e+00)

Average pressure tensor: 
-------------------------------------------------------------------------------
 5.1609e+02  0.0000e+00  0.0000e+00 +/- 0.0000e+00 0.0000e+00 0.0000e+00 [bar]
 0.0000e+00  5.1609e+02  0.0000e+00 +/- 0.0000e+00 0.0000e+00 0.0000e+00 [bar]
 0.0000e+00  0.0000e+00  5.1609e+02 +/- 0.0000e+00 0.0000e+00 0.0000e+00 [bar]
Ideal-gas pressure:   5.160874e+02 +/ 0.000000e+00 [bar]
Excess pressure:      0.000000e+00 +/ 0.000000e+00 [bar]
Pressure:             5.160874e+02 +/ 0.000000e+00 [bar]

Total potential energy/kʙ  -3.173671e+05 (-3.173671e+05 +/- 0.000000e+00) [K]
-------------------------------------------------------------------------------
ExternalField-molecule
    Van der Waals/kʙ        0.000000e+00 ( 0.000000e+00 +/- 0.000000e+00) [K]
Framework-molecule
    Van der Waals/kʙ        0.000000e+00 ( 0.000000e+00 +/- 0.000000e+00) [K]
    Van der Waals (Tail)/kʙ 0.000000e+00 ( 0.000000e+00 +/- 0.000000e+00) [K]
    Coulombic Real/kʙ       0.000000e+00 ( 0.000000e+00 +/- 0.000000e+00) [K]
    Coulombic Fourier/kʙ    0.000000e+00 ( 0.000000e+00 +/- 0.000000e+00) [K]
Molecule-molecule
    Van der Waals/kʙ       -2.236126e+05 (-2.236126e+05 +/- 0.000000e+00) [K]
    Van der Waals (Tail)/kʙ-9.594851e+03 (-9.594851e+03 +/- 0.000000e+00) [K]
    Coulombic Real/kʙ      -6.747725e+04 (-6.747725e+04 +/- 0.000000e+00) [K]
    Coulombic Fourier/kʙ   -1.668245e+04 (-1.668245e+04 +/- 0.000000e+00) [K]
    Molecule Intra/kʙ       0.000000e+00 ( 0.000000e+00 +/- 0.000000e+00) [K]

Current cycle: 100 out of 5000
===============================================================================

Box:      23.49401   0.00000   0.00000  Average:  23.66075   0.00000   0.00000
           0.00000  23.49401   0.00000             0.00000  23.66075   0.00000
           0.00000   0.00000  23.49401             0.00000   0.00000  23.66075
Lengths:  23.49401  23.49401  23.49401  Average:  23.66075  23.66075  23.66075
Angles:   90.00000  90.00000  90.00000  Average:  90.00000  90.00000  90.00000
Rectangular boundary conditions

net charge:   0.00000000

component 0 (CO2) lambda:  0 occupancy:  1 (1.000000)
    net charge:   0.00000000 [e]

Amount of molecules per component :
-------------------------------------------------------------------------------
Component 0 (CO2)
    molecules:      2.000000e+02 molecules  (2.000000e+02 +/- 0.000000e+00)
    number density: 1.542263e-02 molec./A^3 (1.510015e-02 +/- 0.000000e+00)
    density:        1.126804e+03 kg/m^3     (1.103243e+03 +/- 0.000000e+00)

Average pressure tensor: 
-------------------------------------------------------------------------------
 1.9724e+02  1.3113e+02  2.6575e+01 +/- 0.0000e+00 0.0000e+00 0.0000e+00 [bar]
 1.3113e+02  2.2641e+02 -2.6643e+00 +/- 0.0000e+00 0.0000e+00 0.0000e+00 [bar]
 2.6575e+01 -2.6643e+00  1.4176e+02 +/- 0.0000e+00 0.0000e+00 0.0000e+00 [bar]
Ideal-gas pressure:   5.212008e+02 +/ 0.000000e+00 [bar]
Excess pressure:     -3.327315e+02 +/ 0.000000e+00 [bar]
Pressure:             1.884693e+02 +/ 0.000000e+00 [bar]

Total potential energy/kʙ  -3.234341e+05 (-3.189477e+05 +/- 0.000000e+00) [K]
-------------------------------------------------------------------------------
ExternalField-molecule
    Van der Waals/kʙ        0.000000e+00 ( 0.000000e+00 +/- 0.000000e+00) [K]
Framework-molecule
    Van der Waals/kʙ        0.000000e+00 ( 0.000000e+00 +/- 0.000000e+00) [K]
    Van der Waals (Tail)/kʙ 0.000000e+00 ( 0.000000e+00 +/- 0.000000e+00) [K]
    Coulombic Real/kʙ       0.000000e+00 ( 0.000000e+00 +/- 0.000000e+00) [K]
    Coulombic Fourier/kʙ    0.000000e+00 ( 0.000000e+00 +/- 0.000000e+00) [K]
Molecule-molecule
    Van der Waals/kʙ       -2.238471e+05 (-2.261148e+05 +/- 0.000000e+00) [K]
    Van der Waals (Tail)/kʙ-9.896854e+03 (-9.699588e+03 +/- 0.000000e+00) [K]
    Coulombic Real/kʙ      -7.231651e+04 (-6.614509e+04 +/- 0.000000e+00) [K]
    Coulombic Fourier/kʙ   -1.737368e+04 (-1.698825e+04 +/- 0.000000e+00) [K]
    Molecule Intra/kʙ       0.000000e+00 ( 0.000000e+00 +/- 0.000000e+00) [K]

Current cycle: 200 out of 5000
===============================================================================

Box:      23.97757   0.00000   0.00000  Average:  23.72882   0.00000   0.00000
           0.00000  23.97757   0.00000             0.00000  23.72882   0.00000
           0.00000   0.00000  23.97757             0.00000   0.00000  23.72882
Lengths:  23.97757  23.97757  23.97757  Average:  23.72882  23.72882  23.72882
Angles:   90.00000  90.00000  90.00000  Average:  90.00000  90.00000  90.00000
Rectangular boundary conditions

net charge:   0.00000000

component 0 (CO2) lambda:  0 occupancy:  1 (1.000000)
    net charge:   0.00000000 [e]

Amount of molecules per component :
-------------------------------------------------------------------------------
Component 0 (CO2)
    molecules:      2.000000e+02 molecules  (2.000000e+02 +/- 0.000000e+00)
    number density: 1.450823e-02 molec./A^3 (1.497216e-02 +/- 0.000000e+00)
    density:        1.059996e+03 kg/m^3     (1.093891e+03 +/- 0.000000e+00)

Average pressure tensor: 
-------------------------------------------------------------------------------
 2.7723e+02 -1.0696e+01 -2.5071e+01 +/- 0.0000e+00 0.0000e+00 0.0000e+00 [bar]
-1.0696e+01  2.9442e+02 -7.7298e+01 +/- 0.0000e+00 0.0000e+00 0.0000e+00 [bar]
-2.5071e+01 -7.7298e+01  5.8759e+01 +/- 0.0000e+00 0.0000e+00 0.0000e+00 [bar]
Ideal-gas pressure:   5.167829e+02 +/ 0.000000e+00 [bar]
Excess pressure:     -3.066450e+02 +/ 0.000000e+00 [bar]
Pressure:             2.101379e+02 +/ 0.000000e+00 [bar]

Total potential energy/kʙ  -3.070467e+05 (-3.157405e+05 +/- 0.000000e+00) [K]
-------------------------------------------------------------------------------
ExternalField-molecule
    Van der Waals/kʙ        0.000000e+00 ( 0.000000e+00 +/- 0.000000e+00) [K]
Framework-molecule
    Van der Waals/kʙ        0.000000e+00 ( 0.000000e+00 +/- 0.000000e+00) [K]
    Van der Waals (Tail)/kʙ 0.000000e+00 ( 0.000000e+00 +/- 0.000000e+00) [K]
    Coulombic Real/kʙ       0.000000e+00 ( 0.000000e+00 +/- 0.000000e+00) [K]
    Coulombic Fourier/kʙ    0.000000e+00 ( 0.000000e+00 +/- 0.000000e+00) [K]
Molecule-molecule
    Van der Waals/kʙ       -2.195262e+05 (-2.232930e+05 +/- 0.000000e+00) [K]
    Van der Waals (Tail)/kʙ-9.310072e+03 (-9.600162e+03 +/- 0.000000e+00) [K]
    Coulombic Real/kʙ      -6.232005e+04 (-6.621564e+04 +/- 0.000000e+00) [K]
    Coulombic Fourier/kʙ   -1.589040e+04 (-1.663171e+04 +/- 0.000000e+00) [K]
    Molecule Intra/kʙ       0.000000e+00 ( 0.000000e+00 +/- 0.000000e+00) [K]

Current cycle: 300 out of 5000
===============================================================================

Box:      24.15867   0.00000   0.00000  Average:  23.82786   0.00000   0.00000
           0.00000  24.15867   0.00000             0.00000  23.82786   0.00000
           0.00000   0.00000  24.15867             0.00000   0.00000  23.82786
Lengths:  24.15867  24.15867  24.15867  Average:  23.82786  23.82786  23.82786
Angles:   90.00000  90.00000  90.00000  Average:  90.00000  90.00000  90.00000
Rectangular boundary conditions

net charge:   0.00000000

component 0 (CO2) lambda:  0 occupancy:  1 (1.000000)
    net charge:   0.00000000 [e]

Amount of molecules per component :
-------------------------------------------------------------------------------
Component 0 (CO2)
    molecules:      2.000000e+02 molecules  (2.000000e+02 +/- 0.000000e+00)
    number density: 1.418440e-02 molec./A^3 (1.478870e-02 +/- 0.000000e+00)
    density:        1.036336e+03 kg/m^3     (1.080488e+03 +/- 0.000000e+00)

Average pressure tensor: 
-------------------------------------------------------------------------------
 1.5409e+02 -2.7502e+01 -4.2880e+01 +/- 0.0000e+00 0.0000e+00 0.0000e+00 [bar]
-2.7502e+01  2.6553e+02 -7.4185e+01 +/- 0.0000e+00 0.0000e+00 0.0000e+00 [bar]
-4.2880e+01 -7.4185e+01  6.9904e+01 +/- 0.0000e+00 0.0000e+00 0.0000e+00 [bar]
Ideal-gas pressure:   5.104507e+02 +/ 0.000000e+00 [bar]
Excess pressure:     -3.472747e+02 +/ 0.000000e+00 [bar]
Pressure:             1.631760e+02 +/ 0.000000e+00 [bar]

Total potential energy/kʙ  -3.009015e+05 (-3.114738e+05 +/- 0.000000e+00) [K]
-------------------------------------------------------------------------------
ExternalField-molecule
    Van der Waals/kʙ        0.000000e+00 ( 0.000000e+00 +/- 0.000000e+00) [K]
Framework-molecule
    Van der Waals/kʙ        0.000000e+00 ( 0.000000e+00 +/- 0.000000e+00) [K]
    Van der Waals (Tail)/kʙ 0.000000e+00 ( 0.000000e+00 +/- 0.000000e+00) [K]
    Coulombic Real/kʙ       0.000000e+00 ( 0.000000e+00 +/- 0.000000e+00) [K]
    Coulombic Fourier/kʙ    0.000000e+00 ( 0.000000e+00 +/- 0.000000e+00) [K]
Molecule-molecule
    Van der Waals/kʙ       -2.144130e+05 (-2.206726e+05 +/- 0.000000e+00) [K]
    Van der Waals (Tail)/kʙ-9.102266e+03 (-9.486100e+03 +/- 0.000000e+00) [K]
    Coulombic Real/kʙ      -6.244102e+04 (-6.522663e+04 +/- 0.000000e+00) [K]
    Coulombic Fourier/kʙ   -1.494520e+04 (-1.608856e+04 +/- 0.000000e+00) [K]
    Molecule Intra/kʙ       0.000000e+00 ( 0.000000e+00 +/- 0.000000e+00) [K]

Current cycle: 400 out of 5000
===============================================================================

Box:      24.47464   0.00000   0.00000  Average:  23.95022   0.00000   0.00000
           0.00000  24.47464   0.00000             0.00000  23.95022   0.00000
           0.00000   0.00000  24.47464             0.00000   0.00000  23.95022
Lengths:  24.47464  24.47464  24.47464  Average:  23.95022  23.95022  23.95022
Angles:   90.00000  90.00000  90.00000  Average:  90.00000  90.00000  90.00000
Rectangular boundary conditions

net charge:   0.00000000

component 0 (CO2) lambda:  0 occupancy:  1 (1.000000)
    net charge:   0.00000000 [e]

Amount of molecules per component :
-------------------------------------------------------------------------------
Component 0 (CO2)
    molecules:      2.000000e+02 molecules  (2.000000e+02 +/- 0.000000e+00)
    number density: 1.364210e-02 molec./A^3 (1.456930e-02 +/- 0.000000e+00)
    density:        9.967152e+02 kg/m^3     (1.064458e+03 +/- 0.000000e+00)

Average pressure tensor: 
-------------------------------------------------------------------------------
 1.3690e+02  1.0655e+01 -1.4604e+01 +/- 0.0000e+00 0.0000e+00 0.0000e+00 [bar]
 1.0655e+01  2.2695e+02 -4.7598e+01 +/- 0.0000e+00 0.0000e+00 0.0000e+00 [bar]
-1.4604e+01 -4.7598e+01  5.3700e+01 +/- 0.0000e+00 0.0000e+00 0.0000e+00 [bar]
Ideal-gas pressure:   5.028778e+02 +/ 0.000000e+00 [bar]
Excess pressure:     -3.636924e+02 +/ 0.000000e+00 [bar]
Pressure:             1.391854e+02 +/ 0.000000e+00 [bar]

Total potential energy/kʙ  -2.816241e+05 (-3.057050e+05 +/- 0.000000e+00) [K]
-------------------------------------------------------------------------------
ExternalField-molecule
    Van der Waals/kʙ        0.000000e+00 ( 0.000000e+00 +/- 0.000000e+00) [K]
Framework-molecule
    Van der Waals/kʙ        0.000000e+00 ( 0.000000e+00 +/- 0.000000e+00) [K]
    Van der Waals (Tail)/kʙ 0.000000e+00 ( 0.000000e+00 +/- 0.000000e+00) [K]
    Coulombic Real/kʙ       0.000000e+00 ( 0.000000e+00 +/- 0.000000e+00) [K]
    Coulombic Fourier/kʙ    0.000000e+00 ( 0.000000e+00 +/- 0.000000e+00) [K]
Molecule-molecule
    Van der Waals/kʙ       -2.051228e+05 (-2.175003e+05 +/- 0.000000e+00) [K]
    Van der Waals (Tail)/kʙ-8.754270e+03 (-9.346078e+03 +/- 0.000000e+00) [K]
    Coulombic Real/kʙ      -5.484157e+04 (-6.317043e+04 +/- 0.000000e+00) [K]
    Coulombic Fourier/kʙ   -1.290546e+04 (-1.568819e+04 +/- 0.000000e+00) [K]
    Molecule Intra/kʙ       0.000000e+00 ( 0.000000e+00 +/- 0.000000e+00) [K]

Current cycle: 500 out of 5000
===============================================================================

Box:      24.14818   0.00000   0.00000  Average:  24.00829   0.00000   0.00000
           0.00000  24.14818   0.00000             0.00000  24.00829   0.00000
           0.00000   0.00000  24.14818             0.00000   0.00000  24.00829
Lengths:  24.14818  24.14818  24.14818  Average:  24.00829  24.00829  24.00829
Angles:   90.00000  90.00000  90.00000  Average:  90.00000  90.00000  90.00000
Rectangular boundary conditions

net charge:   0.00000000

component 0 (CO2) lambda:  0 occupancy:  1 (1.000000)
    net charge:   0.00000000 [e]

Amount of molecules per component :
-------------------------------------------------------------------------------
Component 0 (CO2)
    molecules:      2.000000e+02 molecules  (2.000000e+02 +/- 0.000000e+00)
    number density: 1.420290e-02 molec./A^3 (1.446414e-02 +/- 0.000000e+00)
    density:        1.037688e+03 kg/m^3     (1.056775e+03 +/- 0.000000e+00)

Average pressure tensor: 
-------------------------------------------------------------------------------
 1.2495e+02 -2.6111e+01 -1.7583e+01 +/- 0.0000e+00 0.0000e+00 0.0000e+00 [bar]
-2.6111e+01  2.3941e+02 -1.1062e+01 +/- 0.0000e+00 0.0000e+00 0.0000e+00 [bar]
-1.7583e+01 -1.1062e+01  5.8843e+01 +/- 0.0000e+00 0.0000e+00 0.0000e+00 [bar]
Ideal-gas pressure:   4.992481e+02 +/ 0.000000e+00 [bar]
Excess pressure:     -3.581814e+02 +/ 0.000000e+00 [bar]
Pressure:             1.410667e+02 +/ 0.000000e+00 [bar]

Total potential energy/kʙ  -2.983834e+05 (-3.036385e+05 +/- 0.000000e+00) [K]
-------------------------------------------------------------------------------
ExternalField-molecule
    Van der Waals/kʙ        0.000000e+00 ( 0.000000e+00 +/- 0.000000e+00) [K]
Framework-molecule
    Van der Waals/kʙ        0.000000e+00 ( 0.000000e+00 +/- 0.000000e+00) [K]
    Van der Waals (Tail)/kʙ 0.000000e+00 ( 0.000000e+00 +/- 0.000000e+00) [K]
    Coulombic Real/kʙ       0.000000e+00 ( 0.000000e+00 +/- 0.000000e+00) [K]
    Coulombic Fourier/kʙ    0.000000e+00 ( 0.000000e+00 +/- 0.000000e+00) [K]
Molecule-molecule
    Van der Waals/kʙ       -2.135648e+05 (-2.160671e+05 +/- 0.000000e+00) [K]
    Van der Waals (Tail)/kʙ-9.114139e+03 (-9.289160e+03 +/- 0.000000e+00) [K]
    Coulombic Real/kʙ      -6.053111e+04 (-6.275998e+04 +/- 0.000000e+00) [K]
    Coulombic Fourier/kʙ   -1.517342e+04 (-1.552224e+04 +/- 0.000000e+00) [K]
    Molecule Intra/kʙ       0.000000e+00 ( 0.000000e+00 +/- 0.000000e+00) [K]

Current cycle: 600 out of 5000
===============================================================================

Box:      24.34249   0.00000   0.00000  Average:  24.04936   0.00000   0.00000
           0.00000  24.34249   0.00000             0.00000  24.04936   0.00000
           0.00000   0.00000  24.34249             0.00000   0.00000  24.04936
Lengths:  24.34249  24.34249  24.34249  Average:  24.04936  24.04936  24.04936
Angles:   90.00000  90.00000  90.00000  Average:  90.00000  90.00000  90.00000
Rectangular boundary conditions

net charge:   0.00000000

component 0 (CO2) lambda:  0 occupancy:  1 (1.000000)
    net charge:   0.00000000 [e]

Amount of molecules per component :
-------------------------------------------------------------------------------
Component 0 (CO2)
    molecules:      2.000000e+02 molecules  (2.000000e+02 +/- 0.000000e+00)
    number density: 1.386548e-02 molec./A^3 (1.438986e-02 +/- 0.000000e+00)
    density:        1.013036e+03 kg/m^3     (1.051348e+03 +/- 0.000000e+00)

Average pressure tensor: 
-------------------------------------------------------------------------------
 1.0931e+02 -5.2891e+01 -1.1059e+01 +/- 0.0000e+00 0.0000e+00 0.0000e+00 [bar]
-5.2891e+01  1.8876e+02  1.0141e+01 +/- 0.0000e+00 0.0000e+00 0.0000e+00 [bar]
-1.1059e+01  1.0141e+01  4.8526e+01 +/- 0.0000e+00 0.0000e+00 0.0000e+00 [bar]
Ideal-gas pressure:   4.966843e+02 +/ 0.000000e+00 [bar]
Excess pressure:     -3.811504e+02 +/ 0.000000e+00 [bar]
Pressure:             1.155339e+02 +/ 0.000000e+00 [bar]

Total potential energy/kʙ  -2.971298e+05 (-3.025049e+05 +/- 0.000000e+00) [K]
-------------------------------------------------------------------------------
ExternalField-molecule
    Van der Waals/kʙ        0.000000e+00 ( 0.000000e+00 +/- 0.000000e+00) [K]
Framework-molecule
    Van der Waals/kʙ        0.000000e+00 ( 0.000000e+00 +/- 0.000000e+00) [K]
    Van der Waals (Tail)/kʙ 0.000000e+00 ( 0.000000e+00 +/- 0.000000e+00) [K]
    Coulombic Real/kʙ       0.000000e+00 ( 0.000000e+00 +/- 0.000000e+00) [K]
    Coulombic Fourier/kʙ    0.000000e+00 ( 0.000000e+00 +/- 0.000000e+00) [K]
Molecule-molecule
    Van der Waals/kʙ       -2.042019e+05 (-2.147359e+05 +/- 0.000000e+00) [K]
    Van der Waals (Tail)/kʙ-8.897615e+03 (-9.236159e+03 +/- 0.000000e+00) [K]
    Coulombic Real/kʙ      -6.781125e+04 (-6.295976e+04 +/- 0.000000e+00) [K]
    Coulombic Fourier/kʙ   -1.621909e+04 (-1.557315e+04 +/- 0.000000e+00) [K]
    Molecule Intra/kʙ       0.000000e+00 ( 0.000000e+00 +/- 0.000000e+00) [K]

Current cycle: 700 out of 5000
===============================================================================

Box:      24.13130   0.00000   0.00000  Average:  24.06380   0.00000   0.00000
           0.00000  24.13130   0.00000             0.00000  24.06380   0.00000
           0.00000   0.00000  24.13130             0.00000   0.00000  24.06380
Lengths:  24.13130  24.13130  24.13130  Average:  24.06380  24.06380  24.06380
Angles:   90.00000  90.00000  90.00000  Average:  90.00000  90.00000  90.00000
Rectangular boundary conditions

net charge:   0.00000000

component 0 (CO2) lambda:  0 occupancy:  1 (1.000000)
    net charge:   0.00000000 [e]

Amount of molecules per component :
-------------------------------------------------------------------------------
Component 0 (CO2)
    molecules:      2.000000e+02 molecules  (2.000000e+02 +/- 0.000000e+00)
    number density: 1.423272e-02 molec./A^3 (1.436306e-02 +/- 0.000000e+00)
    density:        1.039867e+03 kg/m^3     (1.049389e+03 +/- 0.000000e+00)

Average pressure tensor: 
-------------------------------------------------------------------------------
 1.1861e+02 -2.5277e+01 -3.0906e+01 +/- 0.0000e+00 0.0000e+00 0.0000e+00 [bar]
-2.5277e+01  1.5255e+02 -1.3068e+01 +/- 0.0000e+00 0.0000e+00 0.0000e+00 [bar]
-3.0906e+01 -1.3068e+01  7.2249e+01 +/- 0.0000e+00 0.0000e+00 0.0000e+00 [bar]
Ideal-gas pressure:   4.957589e+02 +/ 0.000000e+00 [bar]
Excess pressure:     -3.812913e+02 +/ 0.000000e+00 [bar]
Pressure:             1.144676e+02 +/ 0.000000e+00 [bar]

Total potential energy/kʙ  -3.037812e+05 (-3.021126e+05 +/- 0.000000e+00) [K]
-------------------------------------------------------------------------------
ExternalField-molecule
    Van der Waals/kʙ        0.000000e+00 ( 0.000000e+00 +/- 0.000000e+00) [K]
Framework-molecule
    Van der Waals/kʙ        0.000000e+00 ( 0.000000e+00 +/- 0.000000e+00) [K]
    Van der Waals (Tail)/kʙ 0.000000e+00 ( 0.000000e+00 +/- 0.000000e+00) [K]
    Coulombic Real/kʙ       0.000000e+00 ( 0.000000e+00 +/- 0.000000e+00) [K]
    Coulombic Fourier/kʙ    0.000000e+00 ( 0.000000e+00 +/- 0.000000e+00) [K]
Molecule-molecule
    Van der Waals/kʙ       -2.138803e+05 (-2.143659e+05 +/- 0.000000e+00) [K]
    Van der Waals (Tail)/kʙ-9.133275e+03 (-9.219310e+03 +/- 0.000000e+00) [K]
    Coulombic Real/kʙ      -6.460821e+04 (-6.291014e+04 +/- 0.000000e+00) [K]
    Coulombic Fourier/kʙ   -1.615944e+04 (-1.561730e+04 +/- 0.000000e+00) [K]
    Molecule Intra/kʙ       0.000000e+00 ( 0.000000e+00 +/- 0.000000e+00) [K]

Current cycle: 800 out of 5000
===============================================================================

Box:      23.86216   0.00000   0.00000  Average:  24.07204   0.00000   0.00000
           0.00000  23.86216   0.00000             0.00000  24.07204   0.00000
           0.00000   0.00000  23.86216             0.00000   0.00000  24.07204
Lengths:  23.86216  23.86216  23.86216  Average:  24.07204  24.07204  24.07204
Angles:   90.00000  90.00000  90.00000  Average:  90.00000  90.00000  90.00000
Rectangular boundary conditions

net charge:   0.00000000

component 0 (CO2) lambda:  0 occupancy:  1 (1.000000)
    net charge:   0.00000000 [e]

Amount of molecules per component :
-------------------------------------------------------------------------------
Component 0 (CO2)
    molecules:      2.000000e+02 molecules  (2.000000e+02 +/- 0.000000e+00)
    number density: 1.471976e-02 molec./A^3 (1.434730e-02 +/- 0.000000e+00)
    density:        1.075451e+03 kg/m^3     (1.048238e+03 +/- 0.000000e+00)

Average pressure tensor: 
-------------------------------------------------------------------------------
 1.2120e+02 -1.4825e+01 -3.9759e+01 +/- 0.0000e+00 0.0000e+00 0.0000e+00 [bar]
-1.4825e+01  1.2216e+02 -2.9132e+01 +/- 0.0000e+00 0.0000e+00 0.0000e+00 [bar]
-3.9759e+01 -2.9132e+01  4.3025e+01 +/- 0.0000e+00 0.0000e+00 0.0000e+00 [bar]
Ideal-gas pressure:   4.952152e+02 +/ 0.000000e+00 [bar]
Excess pressure:     -3.997535e+02 +/ 0.000000e+00 [bar]
Pressure:             9.546170e+01 +/ 0.000000e+00 [bar]

Total potential energy/kʙ  -3.049449e+05 (-3.017645e+05 +/- 0.000000e+00) [K]
-------------------------------------------------------------------------------
ExternalField-molecule
    Van der Waals/kʙ        0.000000e+00 ( 0.000000e+00 +/- 0.000000e+00) [K]
Framework-molecule
    Van der Waals/kʙ        0.000000e+00 ( 0.000000e+00 +/- 0.000000e+00) [K]
    Van der Waals (Tail)/kʙ 0.000000e+00 ( 0.000000e+00 +/- 0.000000e+00) [K]
    Coulombic Real/kʙ       0.000000e+00 ( 0.000000e+00 +/- 0.000000e+00) [K]
    Coulombic Fourier/kʙ    0.000000e+00 ( 0.000000e+00 +/- 0.000000e+00) [K]
Molecule-molecule
    Van der Waals/kʙ       -2.252162e+05 (-2.144413e+05 +/- 0.000000e+00) [K]
    Van der Waals (Tail)/kʙ-9.445812e+03 (-9.206262e+03 +/- 0.000000e+00) [K]
    Coulombic Real/kʙ      -5.646090e+04 (-6.257303e+04 +/- 0.000000e+00) [K]
    Coulombic Fourier/kʙ   -1.382202e+04 (-1.554399e+04 +/- 0.000000e+00) [K]
    Molecule Intra/kʙ       0.000000e+00 ( 0.000000e+00 +/- 0.000000e+00) [K]

Current cycle: 900 out of 5000
===============================================================================

Box:      24.01528   0.00000   0.00000  Average:  24.06512   0.00000   0.00000
           0.00000  24.01528   0.00000             0.00000  24.06512   0.00000
           0.00000   0.00000  24.01528             0.00000   0.00000  24.06512
Lengths:  24.01528  24.01528  24.01528  Average:  24.06512  24.06512  24.06512
Angles:   90.00000  90.00000  90.00000  Average:  90.00000  90.00000  90.00000
Rectangular boundary conditions

net charge:   0.00000000

component 0 (CO2) lambda:  0 occupancy:  1 (1.000000)
    net charge:   0.00000000 [e]

Amount of molecules per component :
-------------------------------------------------------------------------------
Component 0 (CO2)
    molecules:      2.000000e+02 molecules  (2.000000e+02 +/- 0.000000e+00)
    number density: 1.443999e-02 molec./A^3 (1.435890e-02 +/- 0.000000e+00)
    density:        1.055010e+03 kg/m^3     (1.049086e+03 +/- 0.000000e+00)

Average pressure tensor: 
-------------------------------------------------------------------------------
 1.1774e+02 -1.4595e+01 -3.5380e+01 +/- 0.0000e+00 0.0000e+00 0.0000e+00 [bar]
-1.4595e+01  1.2673e+02 -3.0477e+01 +/- 0.0000e+00 0.0000e+00 0.0000e+00 [bar]
-3.5380e+01 -3.0477e+01  4.8119e+01 +/- 0.0000e+00 0.0000e+00 0.0000e+00 [bar]
Ideal-gas pressure:   4.956154e+02 +/ 0.000000e+00 [bar]
Excess pressure:     -3.980840e+02 +/ 0.000000e+00 [bar]
Pressure:             9.753132e+01 +/ 0.000000e+00 [bar]

Total potential energy/kʙ  -3.023910e+05 (-3.020799e+05 +/- 0.000000e+00) [K]
-------------------------------------------------------------------------------
ExternalField-molecule
    Van der Waals/kʙ        0.000000e+00 ( 0.000000e+00 +/- 0.000000e+00) [K]
Framework-molecule
    Van der Waals/kʙ        0.000000e+00 ( 0.000000e+00 +/- 0.000000e+00) [K]
    Van der Waals (Tail)/kʙ 0.000000e+00 ( 0.000000e+00 +/- 0.000000e+00) [K]
    Coulombic Real/kʙ       0.000000e+00 ( 0.000000e+00 +/- 0.000000e+00) [K]
    Coulombic Fourier/kʙ    0.000000e+00 ( 0.000000e+00 +/- 0.000000e+00) [K]
Molecule-molecule
    Van der Waals/kʙ       -2.122617e+05 (-2.147938e+05 +/- 0.000000e+00) [K]
    Van der Waals (Tail)/kʙ-9.266282e+03 (-9.212709e+03 +/- 0.000000e+00) [K]
    Coulombic Real/kʙ      -6.487502e+04 (-6.255989e+04 +/- 0.000000e+00) [K]
    Coulombic Fourier/kʙ   -1.598796e+04 (-1.551347e+04 +/- 0.000000e+00) [K]
    Molecule Intra/kʙ       0.000000e+00 ( 0.000000e+00 +/- 0.000000e+00) [K]

Current cycle: 1000 out of 5000
===============================================================================

Box:      23.83532   0.00000   0.00000  Average:  24.05379   0.00000   0.00000
           0.00000  23.83532   0.00000             0.00000  24.05379   0.00000
           0.00000   0.00000  23.83532             0.00000   0.00000  24.05379
Lengths:  23.83532  23.83532  23.83532  Average:  24.05379  24.05379  24.05379
Angles:   90.00000  90.00000  90.00000  Average:  90.00000  90.00000  90.00000
Rectangular boundary conditions

net charge:   0.00000000

component 0 (CO2) lambda:  0 occupancy:  1 (1.000000)
    net charge:   0.00000000 [e]

Amount of molecules per component :
-------------------------------------------------------------------------------
Component 0 (CO2)
    molecules:      2.000000e+02 molecules  (2.000000e+02 +/- 0.000000e+00)
    number density: 1.476954e-02 molec./A^3 (1.437871e-02 +/- 0.000000e+00)
    density:        1.079088e+03 kg/m^3     (1.050533e+03 +/- 0.000000e+00)

Average pressure tensor: 
-------------------------------------------------------------------------------
 1.3660e+02 -1.1614e+01 -2.9129e+01 +/- 0.0000e+00 0.0000e+00 0.0000e+00 [bar]
-1.1614e+01  9.9230e+01 -3.9477e+01 +/- 0.0000e+00 0.0000e+00 0.0000e+00 [bar]
-2.9129e+01 -3.9477e+01  6.1258e+01 +/- 0.0000e+00 0.0000e+00 0.0000e+00 [bar]
Ideal-gas pressure:   4.962992e+02 +/ 0.000000e+00 [bar]
Excess pressure:     -3.972700e+02 +/ 0.000000e+00 [bar]
Pressure:             9.902924e+01 +/ 0.000000e+00 [bar]

Total potential energy/kʙ  -3.200114e+05 (-3.023336e+05 +/- 0.000000e+00) [K]
-------------------------------------------------------------------------------
ExternalField-molecule
    Van der Waals/kʙ        0.000000e+00 ( 0.000000e+00 +/- 0.000000e+00) [K]
Framework-molecule
    Van der Waals/kʙ        0.000000e+00 ( 0.000000e+00 +/- 0.000000e+00) [K]
    Van der Waals (Tail)/kʙ 0.000000e+00 ( 0.000000e+00 +/- 0.000000e+00) [K]
    Coulombic Real/kʙ       0.000000e+00 ( 0.000000e+00 +/- 0.000000e+00) [K]
    Coulombic Fourier/kʙ    0.000000e+00 ( 0.000000e+00 +/- 0.000000e+00) [K]
Molecule-molecule
    Van der Waals/kʙ       -2.276682e+05 (-2.152892e+05 +/- 0.000000e+00) [K]
    Van der Waals (Tail)/kʙ-9.477758e+03 (-9.225146e+03 +/- 0.000000e+00) [K]
    Coulombic Real/kʙ      -6.742521e+04 (-6.234630e+04 +/- 0.000000e+00) [K]
    Coulombic Fourier/kʙ   -1.544016e+04 (-1.547295e+04 +/- 0.000000e+00) [K]
    Molecule Intra/kʙ       0.000000e+00 ( 0.000000e+00 +/- 0.000000e+00) [K]

Current cycle: 1100 out of 5000
===============================================================================

Box:      23.84898   0.00000   0.00000  Average:  24.03304   0.00000   0.00000
           0.00000  23.84898   0.00000             0.00000  24.03304   0.00000
           0.00000   0.00000  23.84898             0.00000   0.00000  24.03304
Lengths:  23.84898  23.84898  23.84898  Average:  24.03304  24.03304  24.03304
Angles:   90.00000  90.00000  90.00000  Average:  90.00000  90.00000  90.00000
Rectangular boundary conditions

net charge:   0.00000000

component 0 (CO2) lambda:  0 occupancy:  1 (1.000000)
    net charge:   0.00000000 [e]

Amount of molecules per component :
-------------------------------------------------------------------------------
Component 0 (CO2)
    molecules:      2.000000e+02 molecules  (2.000000e+02 +/- 0.000000e+00)
    number density: 1.474417e-02 molec./A^3 (1.441602e-02 +/- 0.000000e+00)
    density:        1.077234e+03 kg/m^3     (1.053259e+03 +/- 0.000000e+00)

Average pressure tensor: 
-------------------------------------------------------------------------------
 1.2673e+02 -1.0305e+01 -1.1680e+01 +/- 0.0000e+00 0.0000e+00 0.0000e+00 [bar]
-1.0305e+01  7.7868e+01 -4.1247e+01 +/- 0.0000e+00 0.0000e+00 0.0000e+00 [bar]
-1.1680e+01 -4.1247e+01  8.0525e+01 +/- 0.0000e+00 0.0000e+00 0.0000e+00 [bar]
Ideal-gas pressure:   4.975870e+02 +/ 0.000000e+00 [bar]
Excess pressure:     -4.025458e+02 +/ 0.000000e+00 [bar]
Pressure:             9.504119e+01 +/ 0.000000e+00 [bar]

Total potential energy/kʙ  -3.152738e+05 (-3.033286e+05 +/- 0.000000e+00) [K]
-------------------------------------------------------------------------------
ExternalField-molecule
    Van der Waals/kʙ        0.000000e+00 ( 0.000000e+00 +/- 0.000000e+00) [K]
Framework-molecule
    Van der Waals/kʙ        0.000000e+00 ( 0.000000e+00 +/- 0.000000e+00) [K]
    Van der Waals (Tail)/kʙ 0.000000e+00 ( 0.000000e+00 +/- 0.000000e+00) [K]
    Coulombic Real/kʙ       0.000000e+00 ( 0.000000e+00 +/- 0.000000e+00) [K]
    Coulombic Fourier/kʙ    0.000000e+00 ( 0.000000e+00 +/- 0.000000e+00) [K]
Molecule-molecule
    Van der Waals/kʙ       -2.207636e+05 (-2.158915e+05 +/- 0.000000e+00) [K]
    Van der Waals (Tail)/kʙ-9.461478e+03 (-9.247348e+03 +/- 0.000000e+00) [K]
    Coulombic Real/kʙ      -6.954547e+04 (-6.268852e+04 +/- 0.000000e+00) [K]
    Coulombic Fourier/kʙ   -1.550324e+04 (-1.550121e+04 +/- 0.000000e+00) [K]
    Molecule Intra/kʙ       0.000000e+00 ( 0.000000e+00 +/- 0.000000e+00) [K]

Current cycle: 1200 out of 5000
===============================================================================

Box:      23.93752   0.00000   0.00000  Average:  24.02031   0.00000   0.00000
           0.00000  23.93752   0.00000             0.00000  24.02031   0.00000
           0.00000   0.00000  23.93752             0.00000   0.00000  24.02031
Lengths:  23.93752  23.93752  23.93752  Average:  24.02031  24.02031  24.02031
Angles:   90.00000  90.00000  90.00000  Average:  90.00000  90.00000  90.00000
Rectangular boundary conditions

net charge:   0.00000000

component 0 (CO2) lambda:  0 occupancy:  1 (1.000000)
    net charge:   0.00000000 [e]

Amount of molecules per component :
-------------------------------------------------------------------------------
Component 0 (CO2)
    molecules:      2.000000e+02 molecules  (2.000000e+02 +/- 0.000000e+00)
    number density: 1.458117e-02 molec./A^3 (1.443864e-02 +/- 0.000000e+00)
    density:        1.065325e+03 kg/m^3     (1.054912e+03 +/- 0.000000e+00)

Average pressure tensor: 
-------------------------------------------------------------------------------
 1.1600e+02 -1.5257e+01 -3.6310e+00 +/- 0.0000e+00 0.0000e+00 0.0000e+00 [bar]
-1.5257e+01  8.9544e+01 -3.5488e+01 +/- 0.0000e+00 0.0000e+00 0.0000e+00 [bar]
-3.6310e+00 -3.5488e+01  7.5126e+01 +/- 0.0000e+00 0.0000e+00 0.0000e+00 [bar]
Ideal-gas pressure:   4.983679e+02 +/ 0.000000e+00 [bar]
Excess pressure:     -4.048096e+02 +/ 0.000000e+00 [bar]
Pressure:             9.355822e+01 +/ 0.000000e+00 [bar]

Total potential energy/kʙ  -3.156877e+05 (-3.041253e+05 +/- 0.000000e+00) [K]
-------------------------------------------------------------------------------
ExternalField-molecule
    Van der Waals/kʙ        0.000000e+00 ( 0.000000e+00 +/- 0.000000e+00) [K]
Framework-molecule
    Van der Waals/kʙ        0.000000e+00 ( 0.000000e+00 +/- 0.000000e+00) [K]
    Van der Waals (Tail)/kʙ 0.000000e+00 ( 0.000000e+00 +/- 0.000000e+00) [K]
    Coulombic Real/kʙ       0.000000e+00 ( 0.000000e+00 +/- 0.000000e+00) [K]
    Coulombic Fourier/kʙ    0.000000e+00 ( 0.000000e+00 +/- 0.000000e+00) [K]
Molecule-molecule
    Van der Waals/kʙ       -2.234790e+05 (-2.162692e+05 +/- 0.000000e+00) [K]
    Van der Waals (Tail)/kʙ-9.356878e+03 (-9.260133e+03 +/- 0.000000e+00) [K]
    Coulombic Real/kʙ      -6.708436e+04 (-6.309633e+04 +/- 0.000000e+00) [K]
    Coulombic Fourier/kʙ   -1.576745e+04 (-1.549960e+04 +/- 0.000000e+00) [K]
    Molecule Intra/kʙ       0.000000e+00 ( 0.000000e+00 +/- 0.000000e+00) [K]

Current cycle: 1300 out of 5000
===============================================================================

Box:      23.69234   0.00000   0.00000  Average:  23.99479   0.00000   0.00000
           0.00000  23.69234   0.00000             0.00000  23.99479   0.00000
           0.00000   0.00000  23.69234             0.00000   0.00000  23.99479
Lengths:  23.69234  23.69234  23.69234  Average:  23.99479  23.99479  23.99479
Angles:   90.00000  90.00000  90.00000  Average:  90.00000  90.00000  90.00000
Rectangular boundary conditions

net charge:   0.00000000

component 0 (CO2) lambda:  0 occupancy:  1 (1.000000)
    net charge:   0.00000000 [e]

Amount of molecules per component :
-------------------------------------------------------------------------------
Component 0 (CO2)
    molecules:      2.000000e+02 molecules  (2.000000e+02 +/- 0.000000e+00)
    number density: 1.503855e-02 molec./A^3 (1.448548e-02 +/- 0.000000e+00)
    density:        1.098742e+03 kg/m^3     (1.058334e+03 +/- 0.000000e+00)

Average pressure tensor: 
-------------------------------------------------------------------------------
 1.1997e+02 -2.3200e+01  3.9860e+00 +/- 0.0000e+00 0.0000e+00 0.0000e+00 [bar]
-2.3200e+01  9.8077e+01 -2.5687e+01 +/- 0.0000e+00 0.0000e+00 0.0000e+00 [bar]
 3.9860e+00 -2.5687e+01  7.5587e+01 +/- 0.0000e+00 0.0000e+00 0.0000e+00 [bar]
Ideal-gas pressure:   4.999845e+02 +/ 0.000000e+00 [bar]
Excess pressure:     -4.021064e+02 +/ 0.000000e+00 [bar]
Pressure:             9.787805e+01 +/ 0.000000e+00 [bar]

Total potential energy/kʙ  -3.207214e+05 (-3.052588e+05 +/- 0.000000e+00) [K]
-------------------------------------------------------------------------------
ExternalField-molecule
    Van der Waals/kʙ        0.000000e+00 ( 0.000000e+00 +/- 0.000000e+00) [K]
Framework-molecule
    Van der Waals/kʙ        0.000000e+00 ( 0.000000e+00 +/- 0.000000e+00) [K]
    Van der Waals (Tail)/kʙ 0.000000e+00 ( 0.000000e+00 +/- 0.000000e+00) [K]
    Coulombic Real/kʙ       0.000000e+00 ( 0.000000e+00 +/- 0.000000e+00) [K]
    Coulombic Fourier/kʙ    0.000000e+00 ( 0.000000e+00 +/- 0.000000e+00) [K]
Molecule-molecule
    Van der Waals/kʙ       -2.251386e+05 (-2.170098e+05 +/- 0.000000e+00) [K]
    Van der Waals (Tail)/kʙ-9.650384e+03 (-9.291746e+03 +/- 0.000000e+00) [K]
    Coulombic Real/kʙ      -7.003945e+04 (-6.347778e+04 +/- 0.000000e+00) [K]
    Coulombic Fourier/kʙ   -1.589298e+04 (-1.547946e+04 +/- 0.000000e+00) [K]
    Molecule Intra/kʙ       0.000000e+00 ( 0.000000e+00 +/- 0.000000e+00) [K]

Current cycle: 1400 out of 5000
===============================================================================

Box:      23.47085   0.00000   0.00000  Average:  23.97404   0.00000   0.00000
           0.00000  23.47085   0.00000             0.00000  23.97404   0.00000
           0.00000   0.00000  23.47085             0.00000   0.00000  23.97404
Lengths:  23.47085  23.47085  23.47085  Average:  23.97404  23.97404  23.97404
Angles:   90.00000  90.00000  90.00000  Average:  90.00000  90.00000  90.00000
Rectangular boundary conditions

net charge:   0.00000000

component 0 (CO2) lambda:  0 occupancy:  1 (1.000000)
    net charge:   0.00000000 [e]

Amount of molecules per component :
-------------------------------------------------------------------------------
Component 0 (CO2)
    molecules:      2.000000e+02 molecules  (2.000000e+02 +/- 0.000000e+00)
    number density: 1.546834e-02 molec./A^3 (1.452344e-02 +/- 0.000000e+00)
    density:        1.130143e+03 kg/m^3     (1.061108e+03 +/- 0.000000e+00)

Average pressure tensor: 
-------------------------------------------------------------------------------
 1.2472e+02 -1.9203e+01  1.3805e+01 +/- 0.0000e+00 0.0000e+00 0.0000e+00 [bar]
-1.9203e+01  1.1808e+02 -2.2127e+01 +/- 0.0000e+00 0.0000e+00 0.0000e+00 [bar]
 1.3805e+01 -2.2127e+01  8.2715e+01 +/- 0.0000e+00 0.0000e+00 0.0000e+00 [bar]
Ideal-gas pressure:   5.012949e+02 +/ 0.000000e+00 [bar]
Excess pressure:     -3.927894e+02 +/ 0.000000e+00 [bar]
Pressure:             1.085055e+02 +/ 0.000000e+00 [bar]

Total potential energy/kʙ  -3.167970e+05 (-3.059073e+05 +/- 0.000000e+00) [K]
-------------------------------------------------------------------------------
ExternalField-molecule
    Van der Waals/kʙ        0.000000e+00 ( 0.000000e+00 +/- 0.000000e+00) [K]
Framework-molecule
    Van der Waals/kʙ        0.000000e+00 ( 0.000000e+00 +/- 0.000000e+00) [K]
    Van der Waals (Tail)/kʙ 0.000000e+00 ( 0.000000e+00 +/- 0.000000e+00) [K]
    Coulombic Real/kʙ       0.000000e+00 ( 0.000000e+00 +/- 0.000000e+00) [K]
    Coulombic Fourier/kʙ    0.000000e+00 ( 0.000000e+00 +/- 0.000000e+00) [K]
Molecule-molecule
    Van der Waals/kʙ       -2.196753e+05 (-2.173616e+05 +/- 0.000000e+00) [K]
    Van der Waals (Tail)/kʙ-9.926184e+03 (-9.318447e+03 +/- 0.000000e+00) [K]
    Coulombic Real/kʙ      -7.246308e+04 (-6.372857e+04 +/- 0.000000e+00) [K]
    Coulombic Fourier/kʙ   -1.473241e+04 (-1.549873e+04 +/- 0.000000e+00) [K]
    Molecule Intra/kʙ       0.000000e+00 ( 0.000000e+00 +/- 0.000000e+00) [K]

Current cycle: 1500 out of 5000
===============================================================================

Box:      23.68270   0.00000   0.00000  Average:  23.95701   0.00000   0.00000
           0.00000  23.68270   0.00000             0.00000  23.95701   0.00000
           0.00000   0.00000  23.68270             0.00000   0.00000  23.95701
Lengths:  23.68270  23.68270  23.68270  Average:  23.95701  23.95701  23.95701
Angles:   90.00000  90.00000  90.00000  Average:  90.00000  90.00000  90.00000
Rectangular boundary conditions

net charge:   0.00000000

component 0 (CO2) lambda:  0 occupancy:  1 (1.000000)
    net charge:   0.00000000 [e]

Amount of molecules per component :
-------------------------------------------------------------------------------
Component 0 (CO2)
    molecules:      2.000000e+02 molecules  (2.000000e+02 +/- 0.000000e+00)
    number density: 1.505693e-02 molec./A^3 (1.455451e-02 +/- 0.000000e+00)
    density:        1.100085e+03 kg/m^3     (1.063377e+03 +/- 0.000000e+00)

Average pressure tensor: 
-------------------------------------------------------------------------------
 1.3155e+02 -1.8666e+01  3.2590e+00 +/- 0.0000e+00 0.0000e+00 0.0000e+00 [bar]
-1.8666e+01  1.2528e+02 -1.2463e+01 +/- 0.0000e+00 0.0000e+00 0.0000e+00 [bar]
 3.2590e+00 -1.2463e+01  1.0804e+02 +/- 0.0000e+00 0.0000e+00 0.0000e+00 [bar]
Ideal-gas pressure:   5.023671e+02 +/ 0.000000e+00 [bar]
Excess pressure:     -3.807434e+02 +/ 0.000000e+00 [bar]
Pressure:             1.216237e+02 +/ 0.000000e+00 [bar]

Total potential energy/kʙ  -3.187628e+05 (-3.067185e+05 +/- 0.000000e+00) [K]
-------------------------------------------------------------------------------
ExternalField-molecule
    Van der Waals/kʙ        0.000000e+00 ( 0.000000e+00 +/- 0.000000e+00) [K]
Framework-molecule
    Van der Waals/kʙ        0.000000e+00 ( 0.000000e+00 +/- 0.000000e+00) [K]
    Van der Waals (Tail)/kʙ 0.000000e+00 ( 0.000000e+00 +/- 0.000000e+00) [K]
    Coulombic Real/kʙ       0.000000e+00 ( 0.000000e+00 +/- 0.000000e+00) [K]
    Coulombic Fourier/kʙ    0.000000e+00 ( 0.000000e+00 +/- 0.000000e+00) [K]
Molecule-molecule
    Van der Waals/kʙ       -2.295672e+05 (-2.178795e+05 +/- 0.000000e+00) [K]
    Van der Waals (Tail)/kʙ-9.662180e+03 (-9.341115e+03 +/- 0.000000e+00) [K]
    Coulombic Real/kʙ      -6.296789e+04 (-6.395289e+04 +/- 0.000000e+00) [K]
    Coulombic Fourier/kʙ   -1.656557e+04 (-1.554500e+04 +/- 0.000000e+00) [K]
    Molecule Intra/kʙ       0.000000e+00 ( 0.000000e+00 +/- 0.000000e+00) [K]

Current cycle: 1600 out of 5000
===============================================================================

Box:      23.82553   0.00000   0.00000  Average:  23.94261   0.00000   0.00000
           0.00000  23.82553   0.00000             0.00000  23.94261   0.00000
           0.00000   0.00000  23.82553             0.00000   0.00000  23.94261
Lengths:  23.82553  23.82553  23.82553  Average:  23.94261  23.94261  23.94261
Angles:   90.00000  90.00000  90.00000  Average:  90.00000  90.00000  90.00000
Rectangular boundary conditions

net charge:   0.00000000

component 0 (CO2) lambda:  0 occupancy:  1 (1.000000)
    net charge:   0.00000000 [e]

Amount of molecules per component :
-------------------------------------------------------------------------------
Component 0 (CO2)
    molecules:      2.000000e+02 molecules  (2.000000e+02 +/- 0.000000e+00)
    number density: 1.478776e-02 molec./A^3 (1.458075e-02 +/- 0.000000e+00)
    density:        1.080419e+03 kg/m^3     (1.065295e+03 +/- 0.000000e+00)

Average pressure tensor: 
-------------------------------------------------------------------------------
 1.4753e+02 -1.4024e+01  6.6958e-01 +/- 0.0000e+00 0.0000e+00 0.0000e+00 [bar]
-1.4024e+01  1.2159e+02 -9.4197e+00 +/- 0.0000e+00 0.0000e+00 0.0000e+00 [bar]
 6.6958e-01 -9.4197e+00  1.1232e+02 +/- 0.0000e+00 0.0000e+00 0.0000e+00 [bar]
Ideal-gas pressure:   5.032731e+02 +/ 0.000000e+00 [bar]
Excess pressure:     -3.761266e+02 +/ 0.000000e+00 [bar]
Pressure:             1.271465e+02 +/ 0.000000e+00 [bar]

Total potential energy/kʙ  -3.181998e+05 (-3.073189e+05 +/- 0.000000e+00) [K]
-------------------------------------------------------------------------------
ExternalField-molecule
    Van der Waals/kʙ        0.000000e+00 ( 0.000000e+00 +/- 0.000000e+00) [K]
Framework-molecule
    Van der Waals/kʙ        0.000000e+00 ( 0.000000e+00 +/- 0.000000e+00) [K]
    Van der Waals (Tail)/kʙ 0.000000e+00 ( 0.000000e+00 +/- 0.000000e+00) [K]
    Coulombic Real/kʙ       0.000000e+00 ( 0.000000e+00 +/- 0.000000e+00) [K]
    Coulombic Fourier/kʙ    0.000000e+00 ( 0.000000e+00 +/- 0.000000e+00) [K]
Molecule-molecule
    Van der Waals/kʙ       -2.311443e+05 (-2.183416e+05 +/- 0.000000e+00) [K]
    Van der Waals (Tail)/kʙ-9.489449e+03 (-9.357705e+03 +/- 0.000000e+00) [K]
    Coulombic Real/kʙ      -6.151613e+04 (-6.404004e+04 +/- 0.000000e+00) [K]
    Coulombic Fourier/kʙ   -1.604988e+04 (-1.557956e+04 +/- 0.000000e+00) [K]
    Molecule Intra/kʙ       0.000000e+00 ( 0.000000e+00 +/- 0.000000e+00) [K]

Current cycle: 1700 out of 5000
===============================================================================

Box:      23.61789   0.00000   0.00000  Average:  23.93101   0.00000   0.00000
           0.00000  23.61789   0.00000             0.00000  23.93101   0.00000
           0.00000   0.00000  23.61789             0.00000   0.00000  23.93101
Lengths:  23.61789  23.61789  23.61789  Average:  23.93101  23.93101  23.93101
Angles:   90.00000  90.00000  90.00000  Average:  90.00000  90.00000  90.00000
Rectangular boundary conditions

net charge:   0.00000000

component 0 (CO2) lambda:  0 occupancy:  1 (1.000000)
    net charge:   0.00000000 [e]

Amount of molecules per component :
-------------------------------------------------------------------------------
Component 0 (CO2)
    molecules:      2.000000e+02 molecules  (2.000000e+02 +/- 0.000000e+00)
    number density: 1.518122e-02 molec./A^3 (1.460188e-02 +/- 0.000000e+00)
    density:        1.109166e+03 kg/m^3     (1.066838e+03 +/- 0.000000e+00)

Average pressure tensor: 
-------------------------------------------------------------------------------
 1.3359e+02 -2.2603e+01  6.6108e+00 +/- 0.0000e+00 0.0000e+00 0.0000e+00 [bar]
-2.2603e+01  1.1744e+02 -1.3321e+01 +/- 0.0000e+00 0.0000e+00 0.0000e+00 [bar]
 6.6108e+00 -1.3321e+01  9.8928e+01 +/- 0.0000e+00 0.0000e+00 0.0000e+00 [bar]
Ideal-gas pressure:   5.040023e+02 +/ 0.000000e+00 [bar]
Excess pressure:     -3.873508e+02 +/ 0.000000e+00 [bar]
Pressure:             1.166515e+02 +/ 0.000000e+00 [bar]

Total potential energy/kʙ  -3.166267e+05 (-3.078299e+05 +/- 0.000000e+00) [K]
-------------------------------------------------------------------------------
ExternalField-molecule
    Van der Waals/kʙ        0.000000e+00 ( 0.000000e+00 +/- 0.000000e+00) [K]
Framework-molecule
    Van der Waals/kʙ        0.000000e+00 ( 0.000000e+00 +/- 0.000000e+00) [K]
    Van der Waals (Tail)/kʙ 0.000000e+00 ( 0.000000e+00 +/- 0.000000e+00) [K]
    Coulombic Real/kʙ       0.000000e+00 ( 0.000000e+00 +/- 0.000000e+00) [K]
    Coulombic Fourier/kʙ    0.000000e+00 ( 0.000000e+00 +/- 0.000000e+00) [K]
Molecule-molecule
    Van der Waals/kʙ       -2.245541e+05 (-2.187803e+05 +/- 0.000000e+00) [K]
    Van der Waals (Tail)/kʙ-9.741941e+03 (-9.369293e+03 +/- 0.000000e+00) [K]
    Coulombic Real/kʙ      -6.609588e+04 (-6.404940e+04 +/- 0.000000e+00) [K]
    Coulombic Fourier/kʙ   -1.623475e+04 (-1.563092e+04 +/- 0.000000e+00) [K]
    Molecule Intra/kʙ       0.000000e+00 ( 0.000000e+00 +/- 0.000000e+00) [K]

Current cycle: 1800 out of 5000
===============================================================================

Box:      24.14079   0.00000   0.00000  Average:  23.93066   0.00000   0.00000
           0.00000  24.14079   0.00000             0.00000  23.93066   0.00000
           0.00000   0.00000  24.14079             0.00000   0.00000  23.93066
Lengths:  24.14079  24.14079  24.14079  Average:  23.93066  23.93066  23.93066
Angles:   90.00000  90.00000  90.00000  Average:  90.00000  90.00000  90.00000
Rectangular boundary conditions

net charge:   0.00000000

component 0 (CO2) lambda:  0 occupancy:  1 (1.000000)
    net charge:   0.00000000 [e]

Amount of molecules per component :
-------------------------------------------------------------------------------
Component 0 (CO2)
    molecules:      2.000000e+02 molecules  (2.000000e+02 +/- 0.000000e+00)
    number density: 1.421594e-02 molec./A^3 (1.460212e-02 +/- 0.000000e+00)
    density:        1.038641e+03 kg/m^3     (1.066856e+03 +/- 0.000000e+00)

Average pressure tensor: 
-------------------------------------------------------------------------------
 1.2479e+02 -3.3873e+01 -9.1258e+00 +/- 0.0000e+00 0.0000e+00 0.0000e+00 [bar]
-3.3873e+01  1.3127e+02 -9.6787e+00 +/- 0.0000e+00 0.0000e+00 0.0000e+00 [bar]
-9.1258e+00 -9.6787e+00  9.8160e+01 +/- 0.0000e+00 0.0000e+00 0.0000e+00 [bar]
Ideal-gas pressure:   5.040106e+02 +/ 0.000000e+00 [bar]
Excess pressure:     -3.859380e+02 +/ 0.000000e+00 [bar]
Pressure:             1.180726e+02 +/ 0.000000e+00 [bar]

Total potential energy/kʙ  -2.997373e+05 (-3.078384e+05 +/- 0.000000e+00) [K]
-------------------------------------------------------------------------------
ExternalField-molecule
    Van der Waals/kʙ        0.000000e+00 ( 0.000000e+00 +/- 0.000000e+00) [K]
Framework-molecule
    Van der Waals/kʙ        0.000000e+00 ( 0.000000e+00 +/- 0.000000e+00) [K]
    Van der Waals (Tail)/kʙ 0.000000e+00 ( 0.000000e+00 +/- 0.000000e+00) [K]
    Coulombic Real/kʙ       0.000000e+00 ( 0.000000e+00 +/- 0.000000e+00) [K]
    Coulombic Fourier/kʙ    0.000000e+00 ( 0.000000e+00 +/- 0.000000e+00) [K]
Molecule-molecule
    Van der Waals/kʙ       -2.119657e+05 (-2.188122e+05 +/- 0.000000e+00) [K]
    Van der Waals (Tail)/kʙ-9.122507e+03 (-9.369315e+03 +/- 0.000000e+00) [K]
    Coulombic Real/kʙ      -6.272229e+04 (-6.399855e+04 +/- 0.000000e+00) [K]
    Coulombic Fourier/kʙ   -1.592681e+04 (-1.565833e+04 +/- 0.000000e+00) [K]
    Molecule Intra/kʙ       0.000000e+00 ( 0.000000e+00 +/- 0.000000e+00) [K]

Current cycle: 1900 out of 5000
===============================================================================

Box:      23.98160   0.00000   0.00000  Average:  23.93305   0.00000   0.00000
           0.00000  23.98160   0.00000             0.00000  23.93305   0.00000
           0.00000   0.00000  23.98160             0.00000   0.00000  23.93305
Lengths:  23.98160  23.98160  23.98160  Average:  23.93305  23.93305  23.93305
Angles:   90.00000  90.00000  90.00000  Average:  90.00000  90.00000  90.00000
Rectangular boundary conditions

net charge:   0.00000000

component 0 (CO2) lambda:  0 occupancy:  1 (1.000000)
    net charge:   0.00000000 [e]

Amount of molecules per component :
-------------------------------------------------------------------------------
Component 0 (CO2)
    molecules:      2.000000e+02 molecules  (2.000000e+02 +/- 0.000000e+00)
    number density: 1.450091e-02 molec./A^3 (1.459738e-02 +/- 0.000000e+00)
    density:        1.059461e+03 kg/m^3     (1.066509e+03 +/- 0.000000e+00)

Average pressure tensor: 
-------------------------------------------------------------------------------
 1.1287e+02 -3.9166e+01 -1.8236e+01 +/- 0.0000e+00 0.0000e+00 0.0000e+00 [bar]
-3.9166e+01  1.3533e+02 -1.2684e+01 +/- 0.0000e+00 0.0000e+00 0.0000e+00 [bar]
-1.8236e+01 -1.2684e+01  1.0504e+02 +/- 0.0000e+00 0.0000e+00 0.0000e+00 [bar]
Ideal-gas pressure:   5.038468e+02 +/ 0.000000e+00 [bar]
Excess pressure:     -3.860995e+02 +/ 0.000000e+00 [bar]
Pressure:             1.177474e+02 +/ 0.000000e+00 [bar]

Total potential energy/kʙ  -3.027192e+05 (-3.075724e+05 +/- 0.000000e+00) [K]
-------------------------------------------------------------------------------
ExternalField-molecule
    Van der Waals/kʙ        0.000000e+00 ( 0.000000e+00 +/- 0.000000e+00) [K]
Framework-molecule
    Van der Waals/kʙ        0.000000e+00 ( 0.000000e+00 +/- 0.000000e+00) [K]
    Van der Waals (Tail)/kʙ 0.000000e+00 ( 0.000000e+00 +/- 0.000000e+00) [K]
    Coulombic Real/kʙ       0.000000e+00 ( 0.000000e+00 +/- 0.000000e+00) [K]
    Coulombic Fourier/kʙ    0.000000e+00 ( 0.000000e+00 +/- 0.000000e+00) [K]
Molecule-molecule
    Van der Waals/kʙ       -2.168891e+05 (-2.188052e+05 +/- 0.000000e+00) [K]
    Van der Waals (Tail)/kʙ-9.305377e+03 (-9.367553e+03 +/- 0.000000e+00) [K]
    Coulombic Real/kʙ      -6.160591e+04 (-6.377120e+04 +/- 0.000000e+00) [K]
    Coulombic Fourier/kʙ   -1.491879e+04 (-1.562846e+04 +/- 0.000000e+00) [K]
    Molecule Intra/kʙ       0.000000e+00 ( 0.000000e+00 +/- 0.000000e+00) [K]

Current cycle: 2000 out of 5000
===============================================================================

Box:      23.90107   0.00000   0.00000  Average:  23.93777   0.00000   0.00000
           0.00000  23.90107   0.00000             0.00000  23.93777   0.00000
           0.00000   0.00000  23.90107             0.00000   0.00000  23.93777
Lengths:  23.90107  23.90107  23.90107  Average:  23.93777  23.93777  23.93777
Angles:   90.00000  90.00000  90.00000  Average:  90.00000  90.00000  90.00000
Rectangular boundary conditions

net charge:   0.00000000

component 0 (CO2) lambda:  0 occupancy:  1 (1.000000)
    net charge:   0.00000000 [e]

Amount of molecules per component :
-------------------------------------------------------------------------------
Component 0 (CO2)
    molecules:      2.000000e+02 molecules  (2.000000e+02 +/- 0.000000e+00)
    number density: 1.464799e-02 molec./A^3 (1.458847e-02 +/- 0.000000e+00)
    density:        1.070207e+03 kg/m^3     (1.065859e+03 +/- 0.000000e+00)

Average pressure tensor: 
-------------------------------------------------------------------------------
 1.1020e+02 -4.2740e+01 -1.7380e+01 +/- 0.0000e+00 0.0000e+00 0.0000e+00 [bar]
-4.2740e+01  1.1847e+02 -1.4682e+01 +/- 0.0000e+00 0.0000e+00 0.0000e+00 [bar]
-1.7380e+01 -1.4682e+01  1.1235e+02 +/- 0.0000e+00 0.0000e+00 0.0000e+00 [bar]
Ideal-gas pressure:   5.035394e+02 +/ 0.000000e+00 [bar]
Excess pressure:     -3.898664e+02 +/ 0.000000e+00 [bar]
Pressure:             1.136730e+02 +/ 0.000000e+00 [bar]

Total potential energy/kʙ  -3.107191e+05 (-3.072222e+05 +/- 0.000000e+00) [K]
-------------------------------------------------------------------------------
ExternalField-molecule
    Van der Waals/kʙ        0.000000e+00 ( 0.000000e+00 +/- 0.000000e+00) [K]
Framework-molecule
    Van der Waals/kʙ        0.000000e+00 ( 0.000000e+00 +/- 0.000000e+00) [K]
    Van der Waals (Tail)/kʙ 0.000000e+00 ( 0.000000e+00 +/- 0.000000e+00) [K]
    Coulombic Real/kʙ       0.000000e+00 ( 0.000000e+00 +/- 0.000000e+00) [K]
    Coulombic Fourier/kʙ    0.000000e+00 ( 0.000000e+00 +/- 0.000000e+00) [K]
Molecule-molecule
    Van der Waals/kʙ       -2.243232e+05 (-2.186065e+05 +/- 0.000000e+00) [K]
    Van der Waals (Tail)/kʙ-9.399756e+03 (-9.360626e+03 +/- 0.000000e+00) [K]
    Coulombic Real/kʙ      -6.088907e+04 (-6.360364e+04 +/- 0.000000e+00) [K]
    Coulombic Fourier/kʙ   -1.610706e+04 (-1.565144e+04 +/- 0.000000e+00) [K]
    Molecule Intra/kʙ       0.000000e+00 ( 0.000000e+00 +/- 0.000000e+00) [K]

Current cycle: 2100 out of 5000
===============================================================================

Box:      23.80396   0.00000   0.00000  Average:  23.92515   0.00000   0.00000
           0.00000  23.80396   0.00000             0.00000  23.92515   0.00000
           0.00000   0.00000  23.80396             0.00000   0.00000  23.92515
Lengths:  23.80396  23.80396  23.80396  Average:  23.92515  23.92515  23.92515
Angles:   90.00000  90.00000  90.00000  Average:  90.00000  90.00000  90.00000
Rectangular boundary conditions

net charge:   0.00000000

component 0 (CO2) lambda:  0 occupancy:  1 (1.000000)
    net charge:   0.00000000 [e]

Amount of molecules per component :
-------------------------------------------------------------------------------
Component 0 (CO2)
    molecules:      2.000000e+02 molecules  (2.000000e+02 +/- 0.000000e+00)
    number density: 1.482800e-02 molec./A^3 (1.461174e-02 +/- 0.000000e+00)
    density:        1.083359e+03 kg/m^3     (1.067559e+03 +/- 0.000000e+00)

Average pressure tensor: 
-------------------------------------------------------------------------------
 1.1345e+02 -3.6005e+01 -1.5192e+01 +/- 0.0000e+00 0.0000e+00 0.0000e+00 [bar]
-3.6005e+01  1.1358e+02 -9.2215e+00 +/- 0.0000e+00 0.0000e+00 0.0000e+00 [bar]
-1.5192e+01 -9.2215e+00  1.0248e+02 +/- 0.0000e+00 0.0000e+00 0.0000e+00 [bar]
Ideal-gas pressure:   5.043425e+02 +/ 0.000000e+00 [bar]
Excess pressure:     -3.945057e+02 +/ 0.000000e+00 [bar]
Pressure:             1.098369e+02 +/ 0.000000e+00 [bar]

Total potential energy/kʙ  -3.170786e+05 (-3.076611e+05 +/- 0.000000e+00) [K]
-------------------------------------------------------------------------------
ExternalField-molecule
    Van der Waals/kʙ        0.000000e+00 ( 0.000000e+00 +/- 0.000000e+00) [K]
Framework-molecule
    Van der Waals/kʙ        0.000000e+00 ( 0.000000e+00 +/- 0.000000e+00) [K]
    Van der Waals (Tail)/kʙ 0.000000e+00 ( 0.000000e+00 +/- 0.000000e+00) [K]
[...]
    Coulombic Fourier/kʙ    0.000000e+00 ( 0.000000e+00 +/- 0.000000e+00) [K]
Molecule-molecule
    Van der Waals/kʙ       -2.186190e+05 (-2.188123e+05 +/- 3.712047e+03) [K]
    Van der Waals (Tail)/kʙ-9.415892e+03 (-9.368977e+03 +/- 1.420853e+02) [K]
    Coulombic Real/kʙ      -6.722877e+04 (-6.412334e+04 +/- 2.556980e+03) [K]
    Coulombic Fourier/kʙ   -1.536868e+04 (-1.557653e+04 +/- 3.931613e+02) [K]
    Molecule Intra/kʙ       0.000000e+00 ( 0.000000e+00 +/- 0.000000e+00) [K]

Current cycle: 4700 out of 5000
===============================================================================

Box:      23.62711   0.00000   0.00000  Average:  23.93079   0.00000   0.00000
           0.00000  23.62711   0.00000             0.00000  23.93079   0.00000
           0.00000   0.00000  23.62711             0.00000   0.00000  23.93079
Lengths:  23.62711  23.62711  23.62711  Average:  23.93079  23.93079  23.93079
Angles:   90.00000  90.00000  90.00000  Average:  90.00000  90.00000  90.00000
Rectangular boundary conditions

net charge:   0.00000000

component 0 (CO2) lambda:  0 occupancy:  1 (1.000000)
    net charge:   0.00000000 [e]

Amount of molecules per component :
-------------------------------------------------------------------------------
Component 0 (CO2)
    molecules:      2.000000e+02 molecules  (2.000000e+02 +/- 0.000000e+00)
    number density: 1.516346e-02 molec./A^3 (1.459944e-02 +/- 2.164279e-04)
    density:        1.107868e+03 kg/m^3     (1.066660e+03 +/- 1.581260e+01)

Average pressure tensor: 
-------------------------------------------------------------------------------
 9.9284e+01 -2.1429e+01 -1.0230e+01 +/- 5.9623e+01 7.5757e+01 3.6442e+01 [bar]
-2.1429e+01  1.4259e+02  7.5259e+00 +/- 7.5757e+01 9.5864e+01 7.1880e+01 [bar]
-1.0230e+01  7.5259e+00  9.2291e+01 +/- 3.6442e+01 7.1880e+01 8.1571e+01 [bar]
Ideal-gas pressure:   5.039179e+02 +/ 7.470283e+00 [bar]
Excess pressure:     -3.925284e+02 +/ 3.272692e+01 [bar]
Pressure:             1.113895e+02 +/ 3.092806e+01 [bar]

Total potential energy/kʙ  -3.158782e+05 (-3.078672e+05 +/- 6.158040e+03) [K]
-------------------------------------------------------------------------------
ExternalField-molecule
    Van der Waals/kʙ        0.000000e+00 ( 0.000000e+00 +/- 0.000000e+00) [K]
Framework-molecule
    Van der Waals/kʙ        0.000000e+00 ( 0.000000e+00 +/- 0.000000e+00) [K]
    Van der Waals (Tail)/kʙ 0.000000e+00 ( 0.000000e+00 +/- 0.000000e+00) [K]
    Coulombic Real/kʙ       0.000000e+00 ( 0.000000e+00 +/- 0.000000e+00) [K]
    Coulombic Fourier/kʙ    0.000000e+00 ( 0.000000e+00 +/- 0.000000e+00) [K]
Molecule-molecule
    Van der Waals/kʙ       -2.225289e+05 (-2.188065e+05 +/- 3.565047e+03) [K]
    Van der Waals (Tail)/kʙ-9.730540e+03 (-9.368677e+03 +/- 1.376911e+02) [K]
    Coulombic Real/kʙ      -6.681795e+04 (-6.411505e+04 +/- 2.304657e+03) [K]
    Coulombic Fourier/kʙ   -1.680089e+04 (-1.557699e+04 +/- 3.727792e+02) [K]
    Molecule Intra/kʙ       0.000000e+00 ( 0.000000e+00 +/- 0.000000e+00) [K]

Current cycle: 4800 out of 5000
===============================================================================

Box:      23.89745   0.00000   0.00000  Average:  23.92791   0.00000   0.00000
           0.00000  23.89745   0.00000             0.00000  23.92791   0.00000
           0.00000   0.00000  23.89745             0.00000   0.00000  23.92791
Lengths:  23.89745  23.89745  23.89745  Average:  23.92791  23.92791  23.92791
Angles:   90.00000  90.00000  90.00000  Average:  90.00000  90.00000  90.00000
Rectangular boundary conditions

net charge:   0.00000000

component 0 (CO2) lambda:  0 occupancy:  1 (1.000000)
    net charge:   0.00000000 [e]

Amount of molecules per component :
-------------------------------------------------------------------------------
Component 0 (CO2)
    molecules:      2.000000e+02 molecules  (2.000000e+02 +/- 0.000000e+00)
    number density: 1.465465e-02 molec./A^3 (1.460466e-02 +/- 2.194945e-04)
    density:        1.070694e+03 kg/m^3     (1.067042e+03 +/- 1.603664e+01)

Average pressure tensor: 
-------------------------------------------------------------------------------
 1.0354e+02 -2.2573e+01 -5.8654e+00 +/- 6.6329e+01 6.6088e+01 4.6760e+01 [bar]
-2.2573e+01  1.4432e+02  9.6686e+00 +/- 6.6088e+01 8.5366e+01 7.2228e+01 [bar]
-5.8654e+00  9.6686e+00  9.1024e+01 +/- 4.6760e+01 7.2228e+01 8.1843e+01 [bar]
Ideal-gas pressure:   5.040983e+02 +/ 7.576128e+00 [bar]
Excess pressure:     -3.911370e+02 +/ 2.680566e+01 [bar]
Pressure:             1.129613e+02 +/ 2.547240e+01 [bar]

Total potential energy/kʙ  -3.083106e+05 (-3.080235e+05 +/- 6.217619e+03) [K]
-------------------------------------------------------------------------------
ExternalField-molecule
    Van der Waals/kʙ        0.000000e+00 ( 0.000000e+00 +/- 0.000000e+00) [K]
Framework-molecule
    Van der Waals/kʙ        0.000000e+00 ( 0.000000e+00 +/- 0.000000e+00) [K]
    Van der Waals (Tail)/kʙ 0.000000e+00 ( 0.000000e+00 +/- 0.000000e+00) [K]
    Coulombic Real/kʙ       0.000000e+00 ( 0.000000e+00 +/- 0.000000e+00) [K]
    Coulombic Fourier/kʙ    0.000000e+00 ( 0.000000e+00 +/- 0.000000e+00) [K]
Molecule-molecule
    Van der Waals/kʙ       -2.184237e+05 (-2.188906e+05 +/- 3.608744e+03) [K]
    Van der Waals (Tail)/kʙ-9.404031e+03 (-9.371942e+03 +/- 1.396425e+02) [K]
    Coulombic Real/kʙ      -6.448033e+04 (-6.417294e+04 +/- 2.296973e+03) [K]
    Coulombic Fourier/kʙ   -1.600254e+04 (-1.558805e+04 +/- 3.800307e+02) [K]
    Molecule Intra/kʙ       0.000000e+00 ( 0.000000e+00 +/- 0.000000e+00) [K]

Current cycle: 4900 out of 5000
===============================================================================

Box:      24.07932   0.00000   0.00000  Average:  23.92725   0.00000   0.00000
           0.00000  24.07932   0.00000             0.00000  23.92725   0.00000
           0.00000   0.00000  24.07932             0.00000   0.00000  23.92725
Lengths:  24.07932  24.07932  24.07932  Average:  23.92725  23.92725  23.92725
Angles:   90.00000  90.00000  90.00000  Average:  90.00000  90.00000  90.00000
Rectangular boundary conditions

net charge:   0.00000000

component 0 (CO2) lambda:  0 occupancy:  1 (1.000000)
    net charge:   0.00000000 [e]

Amount of molecules per component :
-------------------------------------------------------------------------------
Component 0 (CO2)
    molecules:      2.000000e+02 molecules  (2.000000e+02 +/- 0.000000e+00)
    number density: 1.432508e-02 molec./A^3 (1.460581e-02 +/- 2.164407e-04)
    density:        1.046615e+03 kg/m^3     (1.067125e+03 +/- 1.581353e+01)

Average pressure tensor: 
-------------------------------------------------------------------------------
 1.0162e+02 -1.6779e+01 -3.6258e+00 +/- 5.9617e+01 7.6675e+01 4.9162e+01 [bar]
-1.6779e+01  1.4452e+02  9.3067e+00 +/- 7.6675e+01 8.0968e+01 6.6421e+01 [bar]
-3.6258e+00  9.3067e+00  9.3991e+01 +/- 4.9162e+01 6.6421e+01 7.7789e+01 [bar]
Ideal-gas pressure:   5.041379e+02 +/ 7.470723e+00 [bar]
Excess pressure:     -3.907613e+02 +/ 2.475140e+01 [bar]
Pressure:             1.133766e+02 +/ 2.388077e+01 [bar]

Total potential energy/kʙ  -3.069615e+05 (-3.080506e+05 +/- 6.034757e+03) [K]
-------------------------------------------------------------------------------
ExternalField-molecule
    Van der Waals/kʙ        0.000000e+00 ( 0.000000e+00 +/- 0.000000e+00) [K]
Framework-molecule
    Van der Waals/kʙ        0.000000e+00 ( 0.000000e+00 +/- 0.000000e+00) [K]
    Van der Waals (Tail)/kʙ 0.000000e+00 ( 0.000000e+00 +/- 0.000000e+00) [K]
    Coulombic Real/kʙ       0.000000e+00 ( 0.000000e+00 +/- 0.000000e+00) [K]
    Coulombic Fourier/kʙ    0.000000e+00 ( 0.000000e+00 +/- 0.000000e+00) [K]
Molecule-molecule
    Van der Waals/kʙ       -2.138208e+05 (-2.188788e+05 +/- 3.507275e+03) [K]
    Van der Waals (Tail)/kʙ-9.192547e+03 (-9.371757e+03 +/- 1.369007e+02) [K]
    Coulombic Real/kʙ      -6.763410e+04 (-6.420754e+04 +/- 2.242643e+03) [K]
    Coulombic Fourier/kʙ   -1.631407e+04 (-1.559245e+04 +/- 3.741190e+02) [K]
    Molecule Intra/kʙ       0.000000e+00 ( 0.000000e+00 +/- 0.000000e+00) [K]


Energy statistics             |  Energy [K]   | Recomputed [K]|  Drift [K]    |
===============================================================================
Total potential energy/kʙ     | -2.913038e+05 | -2.913038e+05 |  6.388209e-10 |
    external field VDW/kʙ     |  0.000000e+00 |  0.000000e+00 |  0.000000e+00 |
    external field Real/kʙ    |  0.000000e+00 |  0.000000e+00 |  0.000000e+00 |
    framework-molecule VDW/kʙ |  0.000000e+00 |  0.000000e+00 |  0.000000e+00 |
    framework-molecule Real/kʙ|  0.000000e+00 |  0.000000e+00 |  0.000000e+00 |
    molecule-molecule VDW/kʙ  | -2.054581e+05 | -2.054581e+05 |  3.500388e-10 |
    molecule-molecule Real/kʙ | -6.104709e+04 | -6.104709e+04 |  2.712801e-10 |
    Van der Waals (Tail)/kʙ   | -9.030964e+03 | -9.030964e+03 |  0.000000e+00 |
    Ewald Fourier/kʙ          |  1.329406e+04 |  1.329406e+04 |  1.750194e-11 |
    Ewald self/kʙ             | -4.445846e+06 | -4.445846e+06 |  0.000000e+00 |
    Ewald exclusion/kʙ        |  4.416785e+06 |  4.416785e+06 |  0.000000e+00 |
    intra VDW/kʙ              |  0.000000e+00 |  0.000000e+00 |  0.000000e+00 |
    intra Coulombic/kʙ        |  0.000000e+00 |  0.000000e+00 |  0.000000e+00 |
    polarization/kʙ           |  0.000000e+00 |  0.000000e+00 |  0.000000e+00 |
    dU/dlambda VDW/kʙ         |  0.000000e+00 |  0.000000e+00 |  0.000000e+00 |
    dU/dlambda Real/kʙ        |  0.000000e+00 |  0.000000e+00 |  0.000000e+00 |
    dU/dlambda Ewald/kʙ       |  0.000000e+00 |  0.000000e+00 |  0.000000e+00 |
-------------------------------------------------------------------------------


Monte-Carlo moves statistics
===============================================================================

    Volume change        all:                6649
    Volume change        total:              6649
    Volume change        constructed:        6649
    Volume change        accepted:           3607
    Volume change        fraction:       0.542488
    Volume change        max-change:     0.025000

Component 0 [CO2]
    Reinsertion (CBMC)   all:              331327
    Reinsertion (CBMC)   total:            331327
    Reinsertion (CBMC)   constructed:      294324
    Reinsertion (CBMC)   accepted:           4597
    Reinsertion (CBMC)   fraction:       0.013875
    Reinsertion (CBMC)   max-change:     0.000000

    Translation          all:              330844
    Translation          total:            110383     110056     110405
    Translation          constructed:      110383     110056     110401
    Translation          accepted:          51413      58276      42852
    Translation          fraction:       0.465769   0.529512   0.388135
    Translation          max-change:     0.730769   0.602871   0.926316

    Rotation             all:              331180
    Rotation             total:            110132     110499     110549
    Rotation             constructed:      110132     110499     110432
    Rotation             accepted:          51245      62747      39467
    Rotation             fraction:       0.465305   0.567851   0.357009
    Rotation             max-change:     0.769231   0.551724   1.103448



Production run counting of the MC moves summed over systems and components
===============================================================================

Volume change                          6649 (0.6649 [%])
Reinsertion (CBMC)                   331327 (33.1327 [%])
Translation                          330844 (33.0844 [%])
Rotation                             331180 (33.1180 [%])

Production count MC-steps:          1000000 [-]
               All summed:          1000000 [-]
               difference:                0 [-]


Production run CPU timings of the MC moves
===============================================================================

Component 0 CO2

Rotation                             48.369769 [s]
    Ewald                            24.847322 [s]
    ExternalField-Molecule            0.012085 [s]
    Framework-Molecule                0.011231 [s]
    Molecule-Molecule                21.532015 [s]
    Overhead                          1.967116 [s]

Reinsertion (CBMC)                  169.875171 [s]
    Ewald                            22.493825 [s]
    NonEwald                        147.044534 [s]
    Overhead                          0.336812 [s]

Translation                          48.453593 [s]
    Ewald                            24.901938 [s]
    ExternalField-Molecule            0.010966 [s]
    Framework-Molecule                0.019780 [s]
    Molecule-Molecule                21.596969 [s]
    Overhead                          1.923940 [s]



Volume change                         41.022515 [s]
    Ewald                             17.991344 [s]
    NonEwald                          21.521579 [s]
    Tail                               1.263751 [s]

Property sampling                     0.276707 [s]
Energy/pressure sampling:             7.000054 [s]


Production run CPU timings of the MC moves summed over systems and components
===============================================================================


Translation                          48.453593 [s]
    Ewald                            24.901938 [s]
    ExternalField-Molecule            0.010966 [s]
    Framework-Molecule                0.019780 [s]
    Molecule-Molecule                21.596969 [s]
    Overhead                          1.923940 [s]

Rotation                             48.369769 [s]
    Ewald                            24.847322 [s]
    ExternalField-Molecule            0.012085 [s]
    Framework-Molecule                0.011231 [s]
    Molecule-Molecule                21.532015 [s]
    Overhead                          1.967116 [s]

Volume change                        41.022515 [s]
    Ewald                            17.991344 [s]
    NonEwald                         21.521579 [s]
    Tail                              1.263751 [s]
    Overhead                          0.245841 [s]

Reinsertion (CBMC)                  169.875171 [s]
    Ewald                            22.493825 [s]
    NonEwald                        147.044534 [s]
    Overhead                          0.336812 [s]

Property sampling:                    0.276707 [s]
Energy/pressure sampling:             7.000054 [s]

Production simulation time:         315.768351 [s]
                All summed:         314.997809 [s]
                  Overhead:           0.770542 [s]


Initalization simulation time:       60.849749 [s]
Equilibration simulation time:        0.000000 [s]
Production simulation time:         315.768351 [s]
Total simulation time:              376.618100 [s]


Energy averages and statistics:
===============================================================================

Framework-molecule energy:
-------------------------------------------------------------------------------



Framework-molecule energy contributions per energy type:
-------------------------------------------------------------------------------



Inter-molecular energy:
-------------------------------------------------------------------------------

    Inter-molecular energy/kʙ 0-0 [CO2-CO2]:
    ---------------------------------------------------------------------------
        Block[  0] -3.021568e+05
        Block[  1] -3.122527e+05
        Block[  2] -3.083779e+05
        Block[  3] -3.044875e+05
        Block[  4] -3.121048e+05
        -----------------------------------------------------------------------
        Average  -3.078759e+05 +/-  5.603159e+03 [K]



Inter-molecular energy contributions per energy type:
-------------------------------------------------------------------------------

    Van der Waals energy/kʙ 0-0 [CO2-CO2]:
    ---------------------------------------------------------------------------
        Block[  0] -2.151654e+05
        Block[  1] -2.219904e+05
        Block[  2] -2.189436e+05
        Block[  3] -2.172347e+05
        Block[  4] -2.202640e+05
        -----------------------------------------------------------------------
        Average  -2.187196e+05 +/-  3.282918e+03 [K]

    VDW Tail-Correction energy/kʙ 0-0 [CO2-CO2]:
    ---------------------------------------------------------------------------
        Block[  0] -9.222619e+03
        Block[  1] -9.498240e+03
        Block[  2] -9.379536e+03
        Block[  3] -9.311855e+03
        Block[  4] -9.423353e+03
        -----------------------------------------------------------------------
        Average  -9.367121e+03 +/-  1.308606e+02 [K]

    Coulomb Real energy/kʙ 0-0 [CO2-CO2]:
    ---------------------------------------------------------------------------
        Block[  0] -6.229551e+04
        Block[  1] -6.493891e+04
        Block[  2] -6.446193e+04
        Block[  3] -6.277191e+04
        Block[  4] -6.657625e+04
        -----------------------------------------------------------------------
        Average  -6.420890e+04 +/-  2.143757e+03 [K]

    Coulomb Fourier energy/kʙ 0-0 [CO2-CO2]:
    ---------------------------------------------------------------------------
        Block[  0] -1.547328e+04
        Block[  1] -1.582505e+04
        Block[  2] -1.559282e+04
        Block[  3] -1.516909e+04
        Block[  4] -1.584123e+04
        -----------------------------------------------------------------------
        Average  -1.558029e+04 +/-  3.448776e+02 [K]


Total energy/kʙ
-------------------------------------------------------------------------------
    Block[  0] -3.021568e+05
    Block[  1] -3.122527e+05
    Block[  2] -3.083779e+05
    Block[  3] -3.044875e+05
    Block[  4] -3.121048e+05
    ---------------------------------------------------------------------------
    Average  -3.078759e+05 +/-  5.603159e+03 [K]

Pressure averages and statistics:
===============================================================================

Average pressure tensor: 
-------------------------------------------------------------------------------
 1.0027e+02 -1.7457e+01 -3.1466e+00 +/- 5.5780e+01 7.0194e+01 4.6681e+01 [bar]
-1.7457e+01  1.4247e+02  9.6231e+00 +/- 7.0194e+01 8.1800e+01 6.3513e+01 [bar]
-3.1466e+00  9.6231e+00  9.7958e+01 +/- 4.6681e+01 6.3513e+01 7.5402e+01 [bar]

    Block[  0]  4.962857e+07
    Block[  1]  5.107909e+07
    Block[  2]  5.045236e+07
    Block[  3]  5.004380e+07
    Block[  4]  5.072906e+07
    ---------------------------------------------------------------------------
    Ideal gas pressure   5.038658e+07 +/-  4.251080e-02 [Pa]
                         5.038658e+02 +/-  7.059089e+00 [bar]


    Block[  0] -3.972501e+07
    Block[  1] -3.829078e+07
    Block[  2] -3.993736e+07
    Block[  3] -3.618675e+07
    Block[  4] -4.100882e+07
    ---------------------------------------------------------------------------
    Excess pressure  -3.902975e+07 +/-  2.310309e+06 [Pa]
                     -3.902975e+02 +/-  2.310309e+01 [bar]


    Block[  0]  9.903561e+06
    Block[  1]  1.278831e+07
    Block[  2]  1.051500e+07
    Block[  3]  1.385704e+07
    Block[  4]  9.720240e+06
    ---------------------------------------------------------------------------
    Pressure average   1.135683e+07 +/-  2.305862e+06 [Pa]
                       1.135683e+02 +/-  2.305862e+01 [bar]


Enthalpy of adsorption
===============================================================================

No fluctuating components present.


Densities
===============================================================================

Component 0 (CO2)
    Block[  0] 200
    Block[  1] 200
    Block[  2] 200
    Block[  3] 200
    Block[  4] 200
    -----------------------------------------------------------------------
    Density average   2.000000e+02 +/-  0.000000e+00 [molecules]
    Density average   1.459793e-02 +/-  2.045149e-04 [molec/A^3]
    Density average   1.066549e+03 +/-  1.494221e+01 [kg.m⁻³]

