Compiler and run-time data
===============================================================================
RASPA 3.0.4

Random seed: 3531754011

Compiled as a 64-bits application
Compiler: gcc Ubuntu Clang 18.1.3 (1ubuntu1)
Compile Date = Mar 15 2025, Compile Time = 19:39:45

2025-06-02 13:38:55.154168
Simulation started on Mon, Jun 02
The start time was 13:38:00

Hostname:    c062
OS type:     Linux on x86_64
OS release:  6.8.0-58-generic
OS version:  #60-Ubuntu SMP PREEMPT_DYNAMIC Fri Mar 14 18:29:48 UTC 2025


Mutual consistent basic set of units:
===============================================================================

Unit of temperature: 1 [K]
Unit of length:      1e-10 [m]
Unit of time:        1e-12 [s]
Unit of mass:        1.6605402e-27 [kg]
Unit of charge:      1.60217733e-19 [C/particle]


Boltzmann constant (internal units):          0.8314464919307584 [-]
represents conversion from energy (internal units) to temperature (in Kelvin)

Derived units and their conversion factors:
===============================================================================

Unit of energy:                           1.6605402000000002e-23 [J]
Unit of energy:                           10.000008872307538 [J.mol⁻¹]
Unit of velocity:                         100 [m.s⁻¹]
Unit of force:                            1.6605402000000002e-13 [N]
Unit of diffusion:                        1.0000000000000002e-08 [m².s⁻¹]
Unit of acceleration:                     1.0000000000000002e-08 [m².s⁻¹]
Unit of torque:                           1.6605402000000002e-23 [N.m]
Unit of pressure:                         16605402 [Pa]
Unit of volume:                           1e-30 [m³]
Unit of density:                          1660.5402 [kg.m⁻³]
Unit of dynamic viscosity:                1.6605401999999997e-05 [N.s.m⁻²]
Unit of enthalpy:                         1.6605402000000002e-23 [J]
Unit of polarizability:                   1.5458657349975198e-35 [-]
Unit of Coulomb potential:                167101.08000665612 [K]
Unit of dielectric constant:              1.5458657349975193e-05 [s².C².kg⁻¹.m⁻³]
Unit of dipole moment:                    1.60217733e-29 [C.m]
Unit of Debye:                            4.803206799099162 [C.m]
Unit of electric potential:               0.00010364272224473431 [V]
Unit of electric field:                   1036427.222447343 [V.m⁻¹]
Unit of isothermal compressibility:       6.02213665167516e-08 [Pa⁻¹]
Unit of heat capacity:                    10.000008872307538 [J.mol⁻¹.K⁻¹]
Unit of volumetric expansion coefficient: 1 [K⁻¹]


Internal conversion factors:
===============================================================================

Energy (internal units) to Kelvin:      1.202724284692786 [-]
Kelvin to energy (internal units):      0.8314457542157567 [-]


System definitions
===============================================================================

Temperature:          250 [K]
Beta:                 0.0048108928702210625 [-]
Pressure:             1.8e+07 [Pa]
Helium void fraction: 1 [-]

Box:      30.00000   0.00000   0.00000
           0.00000  30.00000   0.00000
           0.00000   0.00000  30.00000
Lengths:  30.00000  30.00000  30.00000
Angles:   90.00000  90.00000  90.00000
Rectangular boundary conditions



Property measurement settings
===============================================================================




Pseudo-atoms
===============================================================================

  0 - C_co2    framework-atom: false
  1 - O_co2    framework-atom: false

  0 - C_co2    mass: 12.00000, charge:  0.70000
  1 - O_co2    mass: 15.99940, charge: -0.35000

  0 - C_co2    polarizability:  0.00000
  1 - O_co2    polarizability:  0.00000

  0 - J. J. Potoff et al., AIChE J. 2001, 47, 1676–1682.
  1 - J. J. Potoff et al., AIChE J. 2001, 47, 1676–1682.

Force field status
===============================================================================

Cutoff Framework-Molecule VDW:  10.00000 [Å]
Cutoff Molecule-Molecule VDW:   10.00000 [Å]
Cutoff Coulomb:                 10.00000 [Å]

Overlap-criteria VDW:           1.000000e+05 [K]

C_co2    - C_co2    Lennard-Jones p₀/kʙ:  27.00000 [K], p₁:  2.80000 [Å]
                                  shift:   0.00000 [K], tailcorrections: true
C_co2    - O_co2    Lennard-Jones p₀/kʙ:  46.18441 [K], p₁:  2.92500 [Å]
                                  shift:   0.00000 [K], tailcorrections: true
O_co2    - O_co2    Lennard-Jones p₀/kʙ:  79.00000 [K], p₁:  3.05000 [Å]
                                  shift:   0.00000 [K], tailcorrections: true

Ewald precision: 1e-06
Ewald alpha: 0.32079885109097883
Ewald k-vectors: 10 10 10


Component definitions
===============================================================================

Component 0 [CO2]

    Type: Adsorbate

    Critical temperature:  304.1282 [K]
    Critical pressure:     7377300 [Pa]
    Acentric factor:       0.22394 [-]

    Mol-fraction:                 1 [-]
    Swappable:                   false

    Mass:                         43.9988 [-]
    Bulk fluid density:           0 [-]
    Compressibility:              0 [-]
    Excess molecules:             0 [-]

    Number Of Atoms:    3
    CBMC starting bead: 0
      0: O_co2  position  0.00000 -0.00000  1.16000, charge -0.35000
      1: C_co2  position  0.00000 -0.00000  0.00000, charge  0.70000
      2: O_co2  position  0.00000 -0.00000 -1.16000, charge -0.35000
    Diagonalized inertia-vector:      43.05758528 43.05758528 0.00000000
    Translational degrees of freedom: 3
    Rotational degrees of freedom:    2
    Shape of the molecule is: 'Linear'
    Net-charge:        0.00000000 [e]

    Move probabilities:
    Translation:                   0.331126 [-]
    Random translation:            0.000000 [-]
    Rotation:                      0.331126 [-]
    Random rotation:               0.000000 [-]
    Volume change:                 0.006623 [-]
    Reinsertion (CBMC):            0.331126 [-]
    Identity change (CBMC):        0.000000 [-]
    Swap:                          0.000000 [-]
    Swap (CBMC):                   0.000000 [-]
    Swap (CFCMC):                  0.000000 [-]
    Swap (CB/CFCMC):               0.000000 [-]
    Gibbs volume:                  0.000000 [-]
    Gibbs swap (CBMC):             0.000000 [-]
    Gibbs swap (CFCMC):            0.000000 [-]
    Widom:                         0.000000 [-]
    Widom (CFCMC):                 0.000000 [-]
    Widom (CB/CFCMC):              0.000000 [-]
    Parallel tempering:            0.000000 [-]
    Hybrid MC:                     0.000000 [-]

    number of blocking-pockets: 0

    number of bonds: 0





Number of pseudo-atoms
===============================================================================

Component   0 (CO2)
-------------------------------------------------------------------------------
    index   0 (C_co2): 200 atoms
    index   1 (O_co2): 400 atoms

Total number of pseudo-atoms:
-------------------------------------------------------------------------------
    index   0 (C_co2): 200 atoms
    index   1 (O_co2): 400 atoms




Energy status Recomputed from scratch
===============================================================================

Total potential energy/kʙ       -9.448652e+04 [K]
    external field VDW/kʙ        0.000000e+00 [K]
    external field Real/kʙ       0.000000e+00 [K]
    framework-molecule VDW/kʙ    0.000000e+00 [K]
    framework-molecule Real/kʙ   0.000000e+00 [K]
    molecule-molecule VDW/kʙ    -7.357158e+04 [K]
    molecule-molecule Real/kʙ   -1.358810e+04 [K]
    Van der Waals (Tail)/kʙ     -4.753406e+03 [K]
    Ewald Fourier/kʙ             2.648827e+04 [K]
    Ewald self/kʙ               -4.445846e+06 [K]
    Ewald exclusion/kʙ           4.416785e+06 [K]
    intra VDW/kʙ                 0.000000e+00 [K]
    intra Coulombic/kʙ           0.000000e+00 [K]
    polarization/kʙ              0.000000e+00 [K]
    dU/dlambda VDW/kʙ            0.000000e+00 [K]
    dU/dlambda Real/kʙ           0.000000e+00 [K]
    dU/dlambda Ewald/kʙ          0.000000e+00 [K]





Initialization: Current cycle: 0 out of 1000
===============================================================================

Box:      30.00000   0.00000   0.00000
           0.00000  30.00000   0.00000
           0.00000   0.00000  30.00000
Lengths:  30.00000  30.00000  30.00000
Angles:   90.00000  90.00000  90.00000
Rectangular boundary conditions

net charge:   0.00000000

component   0 (CO2) lambda:  0 occupancy:  1 (1.000000)
    net charge:   0.00000000 [e]

Amount of molecules per component :
-------------------------------------------------------------------------------
Component 0 (CO2)
    molecules:         2.000000e+02 molecules
    number density:    7.407407e-03 molec/A^3
    density:           5.411979e+02 kg/m^3

Total potential energy/kʙ       -1.175712e+05 [K]
-------------------------------------------------------------------------------
    external field VDW/kʙ        0.000000e+00 [K]
    external field Real/kʙ       0.000000e+00 [K]
    framework-molecule VDW/kʙ    0.000000e+00 [K]
    framework-molecule Real/kʙ   0.000000e+00 [K]
    molecule-molecule VDW/kʙ    -9.188946e+04 [K]
    molecule-molecule Real/kʙ   -1.664175e+04 [K]
    Van der Waals (Tail)/kʙ     -4.753406e+03 [K]
    Ewald Fourier/kʙ             2.477510e+04 [K]
    Ewald self/kʙ               -4.445846e+06 [K]
    Ewald exclusion/kʙ           4.416785e+06 [K]
    intra VDW/kʙ                 0.000000e+00 [K]
    intra Coulombic/kʙ           0.000000e+00 [K]
    polarization/kʙ              0.000000e+00 [K]
    dU/dlambda VDW/kʙ            0.000000e+00 [K]
    dU/dlambda Real/kʙ           0.000000e+00 [K]
    dU/dlambda Ewald/kʙ          0.000000e+00 [K]


Initialization: Current cycle: 100 out of 1000
===============================================================================

Box:      26.12787   0.00000   0.00000
           0.00000  26.12787   0.00000
           0.00000   0.00000  26.12787
Lengths:  26.12787  26.12787  26.12787
Angles:   90.00000  90.00000  90.00000
Rectangular boundary conditions

net charge:   0.00000000

component   0 (CO2) lambda:  0 occupancy:  1 (1.000000)
    net charge:   0.00000000 [e]

Amount of molecules per component :
-------------------------------------------------------------------------------
Component 0 (CO2)
    molecules:         2.000000e+02 molecules
    number density:    1.121290e-02 molec/A^3
    density:           8.192333e+02 kg/m^3

Total potential energy/kʙ       -2.379386e+05 [K]
-------------------------------------------------------------------------------
    external field VDW/kʙ        0.000000e+00 [K]
    external field Real/kʙ       0.000000e+00 [K]
    framework-molecule VDW/kʙ    0.000000e+00 [K]
    framework-molecule Real/kʙ   0.000000e+00 [K]
    molecule-molecule VDW/kʙ    -1.712622e+05 [K]
    molecule-molecule Real/kʙ   -4.733185e+04 [K]
    Van der Waals (Tail)/kʙ     -7.195425e+03 [K]
    Ewald Fourier/kʙ             1.691257e+04 [K]
    Ewald self/kʙ               -4.445846e+06 [K]
    Ewald exclusion/kʙ           4.416785e+06 [K]
    intra VDW/kʙ                 0.000000e+00 [K]
    intra Coulombic/kʙ           0.000000e+00 [K]
    polarization/kʙ              0.000000e+00 [K]
    dU/dlambda VDW/kʙ            0.000000e+00 [K]
    dU/dlambda Real/kʙ           0.000000e+00 [K]
    dU/dlambda Ewald/kʙ          0.000000e+00 [K]


Initialization: Current cycle: 200 out of 1000
===============================================================================

Box:      24.61468   0.00000   0.00000
           0.00000  24.61468   0.00000
           0.00000   0.00000  24.61468
Lengths:  24.61468  24.61468  24.61468
Angles:   90.00000  90.00000  90.00000
Rectangular boundary conditions

net charge:   0.00000000

component   0 (CO2) lambda:  0 occupancy:  1 (1.000000)
    net charge:   0.00000000 [e]

Amount of molecules per component :
-------------------------------------------------------------------------------
Component 0 (CO2)
    molecules:         2.000000e+02 molecules
    number density:    1.341058e-02 molec/A^3
    density:           9.798002e+02 kg/m^3

Total potential energy/kʙ       -2.766889e+05 [K]
-------------------------------------------------------------------------------
    external field VDW/kʙ        0.000000e+00 [K]
    external field Real/kʙ       0.000000e+00 [K]
    framework-molecule VDW/kʙ    0.000000e+00 [K]
    framework-molecule Real/kʙ   0.000000e+00 [K]
    molecule-molecule VDW/kʙ    -1.985433e+05 [K]
    molecule-molecule Real/kʙ   -5.596716e+04 [K]
    Van der Waals (Tail)/kʙ     -8.605703e+03 [K]
    Ewald Fourier/kʙ             1.548892e+04 [K]
    Ewald self/kʙ               -4.445846e+06 [K]
    Ewald exclusion/kʙ           4.416785e+06 [K]
    intra VDW/kʙ                 0.000000e+00 [K]
    intra Coulombic/kʙ           0.000000e+00 [K]
    polarization/kʙ              0.000000e+00 [K]
    dU/dlambda VDW/kʙ            0.000000e+00 [K]
    dU/dlambda Real/kʙ           0.000000e+00 [K]
    dU/dlambda Ewald/kʙ          0.000000e+00 [K]


Initialization: Current cycle: 300 out of 1000
===============================================================================

Box:      24.24305   0.00000   0.00000
           0.00000  24.24305   0.00000
           0.00000   0.00000  24.24305
Lengths:  24.24305  24.24305  24.24305
Angles:   90.00000  90.00000  90.00000
Rectangular boundary conditions

net charge:   0.00000000

component   0 (CO2) lambda:  0 occupancy:  1 (1.000000)
    net charge:   0.00000000 [e]

Amount of molecules per component :
-------------------------------------------------------------------------------
Component 0 (CO2)
    molecules:         2.000000e+02 molecules
    number density:    1.403681e-02 molec/A^3
    density:           1.025553e+03 kg/m^3

Total potential energy/kʙ       -2.888926e+05 [K]
-------------------------------------------------------------------------------
    external field VDW/kʙ        0.000000e+00 [K]
    external field Real/kʙ       0.000000e+00 [K]
    framework-molecule VDW/kʙ    0.000000e+00 [K]
    framework-molecule Real/kʙ   0.000000e+00 [K]
    molecule-molecule VDW/kʙ    -2.062531e+05 [K]
    molecule-molecule Real/kʙ   -5.909365e+04 [K]
    Van der Waals (Tail)/kʙ     -9.007557e+03 [K]
    Ewald Fourier/kʙ             1.452337e+04 [K]
    Ewald self/kʙ               -4.445846e+06 [K]
    Ewald exclusion/kʙ           4.416785e+06 [K]
    intra VDW/kʙ                 0.000000e+00 [K]
    intra Coulombic/kʙ           0.000000e+00 [K]
    polarization/kʙ              0.000000e+00 [K]
    dU/dlambda VDW/kʙ            0.000000e+00 [K]
    dU/dlambda Real/kʙ           0.000000e+00 [K]
    dU/dlambda Ewald/kʙ          0.000000e+00 [K]


Initialization: Current cycle: 400 out of 1000
===============================================================================

Box:      24.26451   0.00000   0.00000
           0.00000  24.26451   0.00000
           0.00000   0.00000  24.26451
Lengths:  24.26451  24.26451  24.26451
Angles:   90.00000  90.00000  90.00000
Rectangular boundary conditions

net charge:   0.00000000

component   0 (CO2) lambda:  0 occupancy:  1 (1.000000)
    net charge:   0.00000000 [e]

Amount of molecules per component :
-------------------------------------------------------------------------------
Component 0 (CO2)
    molecules:         2.000000e+02 molecules
    number density:    1.399960e-02 molec/A^3
    density:           1.022835e+03 kg/m^3

Total potential energy/kʙ       -2.900353e+05 [K]
-------------------------------------------------------------------------------
    external field VDW/kʙ        0.000000e+00 [K]
    external field Real/kʙ       0.000000e+00 [K]
    framework-molecule VDW/kʙ    0.000000e+00 [K]
    framework-molecule Real/kʙ   0.000000e+00 [K]
    molecule-molecule VDW/kʙ    -2.114231e+05 [K]
    molecule-molecule Real/kʙ   -5.483630e+04 [K]
    Van der Waals (Tail)/kʙ     -8.983682e+03 [K]
    Ewald Fourier/kʙ             1.426949e+04 [K]
    Ewald self/kʙ               -4.445846e+06 [K]
    Ewald exclusion/kʙ           4.416785e+06 [K]
    intra VDW/kʙ                 0.000000e+00 [K]
    intra Coulombic/kʙ           0.000000e+00 [K]
    polarization/kʙ              0.000000e+00 [K]
    dU/dlambda VDW/kʙ            0.000000e+00 [K]
    dU/dlambda Real/kʙ           0.000000e+00 [K]
    dU/dlambda Ewald/kʙ          0.000000e+00 [K]


Initialization: Current cycle: 500 out of 1000
===============================================================================

Box:      24.26467   0.00000   0.00000
           0.00000  24.26467   0.00000
           0.00000   0.00000  24.26467
Lengths:  24.26467  24.26467  24.26467
Angles:   90.00000  90.00000  90.00000
Rectangular boundary conditions

net charge:   0.00000000

component   0 (CO2) lambda:  0 occupancy:  1 (1.000000)
    net charge:   0.00000000 [e]

Amount of molecules per component :
-------------------------------------------------------------------------------
Component 0 (CO2)
    molecules:         2.000000e+02 molecules
    number density:    1.399932e-02 molec/A^3
    density:           1.022814e+03 kg/m^3

Total potential energy/kʙ       -2.904081e+05 [K]
-------------------------------------------------------------------------------
    external field VDW/kʙ        0.000000e+00 [K]
    external field Real/kʙ       0.000000e+00 [K]
    framework-molecule VDW/kʙ    0.000000e+00 [K]
    framework-molecule Real/kʙ   0.000000e+00 [K]
    molecule-molecule VDW/kʙ    -2.081381e+05 [K]
    molecule-molecule Real/kʙ   -5.865505e+04 [K]
    Van der Waals (Tail)/kʙ     -8.983500e+03 [K]
    Ewald Fourier/kʙ             1.443029e+04 [K]
    Ewald self/kʙ               -4.445846e+06 [K]
    Ewald exclusion/kʙ           4.416785e+06 [K]
    intra VDW/kʙ                 0.000000e+00 [K]
    intra Coulombic/kʙ           0.000000e+00 [K]
    polarization/kʙ              0.000000e+00 [K]
    dU/dlambda VDW/kʙ            0.000000e+00 [K]
    dU/dlambda Real/kʙ           0.000000e+00 [K]
    dU/dlambda Ewald/kʙ          0.000000e+00 [K]


Initialization: Current cycle: 600 out of 1000
===============================================================================

Box:      24.02748   0.00000   0.00000
           0.00000  24.02748   0.00000
           0.00000   0.00000  24.02748
Lengths:  24.02748  24.02748  24.02748
Angles:   90.00000  90.00000  90.00000
Rectangular boundary conditions

net charge:   0.00000000

component   0 (CO2) lambda:  0 occupancy:  1 (1.000000)
    net charge:   0.00000000 [e]

Amount of molecules per component :
-------------------------------------------------------------------------------
Component 0 (CO2)
    molecules:         2.000000e+02 molecules
    number density:    1.441801e-02 molec/A^3
    density:           1.053404e+03 kg/m^3

Total potential energy/kʙ       -3.027768e+05 [K]
-------------------------------------------------------------------------------
    external field VDW/kʙ        0.000000e+00 [K]
    external field Real/kʙ       0.000000e+00 [K]
    framework-molecule VDW/kʙ    0.000000e+00 [K]
    framework-molecule Real/kʙ   0.000000e+00 [K]
    molecule-molecule VDW/kʙ    -2.158712e+05 [K]
    molecule-molecule Real/kʙ   -6.248756e+04 [K]
    Van der Waals (Tail)/kʙ     -9.252178e+03 [K]
    Ewald Fourier/kʙ             1.389583e+04 [K]
    Ewald self/kʙ               -4.445846e+06 [K]
    Ewald exclusion/kʙ           4.416785e+06 [K]
    intra VDW/kʙ                 0.000000e+00 [K]
    intra Coulombic/kʙ           0.000000e+00 [K]
    polarization/kʙ              0.000000e+00 [K]
    dU/dlambda VDW/kʙ            0.000000e+00 [K]
    dU/dlambda Real/kʙ           0.000000e+00 [K]
    dU/dlambda Ewald/kʙ          0.000000e+00 [K]


Initialization: Current cycle: 700 out of 1000
===============================================================================

Box:      23.99895   0.00000   0.00000
           0.00000  23.99895   0.00000
           0.00000   0.00000  23.99895
Lengths:  23.99895  23.99895  23.99895
Angles:   90.00000  90.00000  90.00000
Rectangular boundary conditions

net charge:   0.00000000

component   0 (CO2) lambda:  0 occupancy:  1 (1.000000)
    net charge:   0.00000000 [e]

Amount of molecules per component :
-------------------------------------------------------------------------------
Component 0 (CO2)
    molecules:         2.000000e+02 molecules
    number density:    1.446950e-02 molec/A^3
    density:           1.057166e+03 kg/m^3

Total potential energy/kʙ       -3.024546e+05 [K]
-------------------------------------------------------------------------------
    external field VDW/kʙ        0.000000e+00 [K]
    external field Real/kʙ       0.000000e+00 [K]
    framework-molecule VDW/kʙ    0.000000e+00 [K]
    framework-molecule Real/kʙ   0.000000e+00 [K]
    molecule-molecule VDW/kʙ    -2.146528e+05 [K]
    molecule-molecule Real/kʙ   -6.367477e+04 [K]
    Van der Waals (Tail)/kʙ     -9.285217e+03 [K]
    Ewald Fourier/kʙ             1.421984e+04 [K]
    Ewald self/kʙ               -4.445846e+06 [K]
    Ewald exclusion/kʙ           4.416785e+06 [K]
    intra VDW/kʙ                 0.000000e+00 [K]
    intra Coulombic/kʙ           0.000000e+00 [K]
    polarization/kʙ              0.000000e+00 [K]
    dU/dlambda VDW/kʙ            0.000000e+00 [K]
    dU/dlambda Real/kʙ           0.000000e+00 [K]
    dU/dlambda Ewald/kʙ          0.000000e+00 [K]


Initialization: Current cycle: 800 out of 1000
===============================================================================

Box:      23.88769   0.00000   0.00000
           0.00000  23.88769   0.00000
           0.00000   0.00000  23.88769
Lengths:  23.88769  23.88769  23.88769
Angles:   90.00000  90.00000  90.00000
Rectangular boundary conditions

net charge:   0.00000000

component   0 (CO2) lambda:  0 occupancy:  1 (1.000000)
    net charge:   0.00000000 [e]

Amount of molecules per component :
-------------------------------------------------------------------------------
Component 0 (CO2)
    molecules:         2.000000e+02 molecules
    number density:    1.467261e-02 molec/A^3
    density:           1.072006e+03 kg/m^3

Total potential energy/kʙ       -3.016069e+05 [K]
-------------------------------------------------------------------------------
    external field VDW/kʙ        0.000000e+00 [K]
    external field Real/kʙ       0.000000e+00 [K]
    framework-molecule VDW/kʙ    0.000000e+00 [K]
    framework-molecule Real/kʙ   0.000000e+00 [K]
    molecule-molecule VDW/kʙ    -2.142524e+05 [K]
    molecule-molecule Real/kʙ   -6.213468e+04 [K]
    Van der Waals (Tail)/kʙ     -9.415556e+03 [K]
    Ewald Fourier/kʙ             1.325739e+04 [K]
    Ewald self/kʙ               -4.445846e+06 [K]
    Ewald exclusion/kʙ           4.416785e+06 [K]
    intra VDW/kʙ                 0.000000e+00 [K]
    intra Coulombic/kʙ           0.000000e+00 [K]
    polarization/kʙ              0.000000e+00 [K]
    dU/dlambda VDW/kʙ            0.000000e+00 [K]
    dU/dlambda Real/kʙ           0.000000e+00 [K]
    dU/dlambda Ewald/kʙ          0.000000e+00 [K]


Initialization: Current cycle: 900 out of 1000
===============================================================================

Box:      24.06742   0.00000   0.00000
           0.00000  24.06742   0.00000
           0.00000   0.00000  24.06742
Lengths:  24.06742  24.06742  24.06742
Angles:   90.00000  90.00000  90.00000
Rectangular boundary conditions

net charge:   0.00000000

component   0 (CO2) lambda:  0 occupancy:  1 (1.000000)
    net charge:   0.00000000 [e]

Amount of molecules per component :
-------------------------------------------------------------------------------
Component 0 (CO2)
    molecules:         2.000000e+02 molecules
    number density:    1.434634e-02 molec/A^3
    density:           1.048168e+03 kg/m^3

Total potential energy/kʙ       -2.992432e+05 [K]
-------------------------------------------------------------------------------
    external field VDW/kʙ        0.000000e+00 [K]
    external field Real/kʙ       0.000000e+00 [K]
    framework-molecule VDW/kʙ    0.000000e+00 [K]
    framework-molecule Real/kʙ   0.000000e+00 [K]
    molecule-molecule VDW/kʙ    -2.181937e+05 [K]
    molecule-molecule Real/kʙ   -5.717717e+04 [K]
    Van der Waals (Tail)/kʙ     -9.206188e+03 [K]
    Ewald Fourier/kʙ             1.439559e+04 [K]
    Ewald self/kʙ               -4.445846e+06 [K]
    Ewald exclusion/kʙ           4.416785e+06 [K]
    intra VDW/kʙ                 0.000000e+00 [K]
    intra Coulombic/kʙ           0.000000e+00 [K]
    polarization/kʙ              0.000000e+00 [K]
    dU/dlambda VDW/kʙ            0.000000e+00 [K]
    dU/dlambda Real/kʙ           0.000000e+00 [K]
    dU/dlambda Ewald/kʙ          0.000000e+00 [K]


Current cycle: 0 out of 5000
===============================================================================

Box:      24.07629   0.00000   0.00000  Average:  24.07629   0.00000   0.00000
           0.00000  24.07629   0.00000             0.00000  24.07629   0.00000
           0.00000   0.00000  24.07629             0.00000   0.00000  24.07629
Lengths:  24.07629  24.07629  24.07629  Average:  24.07629  24.07629  24.07629
Angles:   90.00000  90.00000  90.00000  Average:  90.00000  90.00000  90.00000
Rectangular boundary conditions

net charge:   0.00000000

component 0 (CO2) lambda:  0 occupancy:  1 (1.000000)
    net charge:   0.00000000 [e]

Amount of molecules per component :
-------------------------------------------------------------------------------
Component 0 (CO2)
    molecules:      2.000000e+02 molecules  (2.000000e+02 +/- 0.000000e+00)
    number density: 1.433051e-02 molec./A^3 (1.433051e-02 +/- 0.000000e+00)
    density:        1.047011e+03 kg/m^3     (1.047011e+03 +/- 0.000000e+00)

Average pressure tensor: 
-------------------------------------------------------------------------------
 4.9464e+02  0.0000e+00  0.0000e+00 +/- 0.0000e+00 0.0000e+00 0.0000e+00 [bar]
 0.0000e+00  4.9464e+02  0.0000e+00 +/- 0.0000e+00 0.0000e+00 0.0000e+00 [bar]
 0.0000e+00  0.0000e+00  4.9464e+02 +/- 0.0000e+00 0.0000e+00 0.0000e+00 [bar]
Ideal-gas pressure:   4.946355e+02 +/ 0.000000e+00 [bar]
Excess pressure:      0.000000e+00 +/ 0.000000e+00 [bar]
Pressure:             4.946355e+02 +/ 0.000000e+00 [bar]

Total potential energy/kʙ  -3.010213e+05 (-3.010213e+05 +/- 0.000000e+00) [K]
-------------------------------------------------------------------------------
ExternalField-molecule
    Van der Waals/kʙ        0.000000e+00 ( 0.000000e+00 +/- 0.000000e+00) [K]
Framework-molecule
    Van der Waals/kʙ        0.000000e+00 ( 0.000000e+00 +/- 0.000000e+00) [K]
    Van der Waals (Tail)/kʙ 0.000000e+00 ( 0.000000e+00 +/- 0.000000e+00) [K]
    Coulombic Real/kʙ       0.000000e+00 ( 0.000000e+00 +/- 0.000000e+00) [K]
    Coulombic Fourier/kʙ    0.000000e+00 ( 0.000000e+00 +/- 0.000000e+00) [K]
Molecule-molecule
    Van der Waals/kʙ       -2.192072e+05 (-2.192072e+05 +/- 0.000000e+00) [K]
    Van der Waals (Tail)/kʙ-9.196027e+03 (-9.196027e+03 +/- 0.000000e+00) [K]
    Coulombic Real/kʙ      -5.855191e+04 (-5.855191e+04 +/- 0.000000e+00) [K]
    Coulombic Fourier/kʙ   -1.406615e+04 (-1.406615e+04 +/- 0.000000e+00) [K]
    Molecule Intra/kʙ       0.000000e+00 ( 0.000000e+00 +/- 0.000000e+00) [K]

Current cycle: 100 out of 5000
===============================================================================

Box:      23.59832   0.00000   0.00000  Average:  23.73612   0.00000   0.00000
           0.00000  23.59832   0.00000             0.00000  23.73612   0.00000
           0.00000   0.00000  23.59832             0.00000   0.00000  23.73612
Lengths:  23.59832  23.59832  23.59832  Average:  23.73612  23.73612  23.73612
Angles:   90.00000  90.00000  90.00000  Average:  90.00000  90.00000  90.00000
Rectangular boundary conditions

net charge:   0.00000000

component 0 (CO2) lambda:  0 occupancy:  1 (1.000000)
    net charge:   0.00000000 [e]

Amount of molecules per component :
-------------------------------------------------------------------------------
Component 0 (CO2)
    molecules:      2.000000e+02 molecules  (2.000000e+02 +/- 0.000000e+00)
    number density: 1.521903e-02 molec./A^3 (1.495950e-02 +/- 0.000000e+00)
    density:        1.111928e+03 kg/m^3     (1.092967e+03 +/- 0.000000e+00)

Average pressure tensor: 
-------------------------------------------------------------------------------
 3.3945e+02  9.7744e+01  1.8891e+02 +/- 0.0000e+00 0.0000e+00 0.0000e+00 [bar]
 9.7744e+01  1.7629e+02  1.7806e+02 +/- 0.0000e+00 0.0000e+00 0.0000e+00 [bar]
 1.8891e+02  1.7806e+02 -2.5248e+02 +/- 0.0000e+00 0.0000e+00 0.0000e+00 [bar]
Ideal-gas pressure:   5.163461e+02 +/ 0.000000e+00 [bar]
Excess pressure:     -4.285922e+02 +/ 0.000000e+00 [bar]
Pressure:             8.775392e+01 +/ 0.000000e+00 [bar]

Total potential energy/kʙ  -3.180554e+05 (-3.126194e+05 +/- 0.000000e+00) [K]
-------------------------------------------------------------------------------
ExternalField-molecule
    Van der Waals/kʙ        0.000000e+00 ( 0.000000e+00 +/- 0.000000e+00) [K]
Framework-molecule
    Van der Waals/kʙ        0.000000e+00 ( 0.000000e+00 +/- 0.000000e+00) [K]
    Van der Waals (Tail)/kʙ 0.000000e+00 ( 0.000000e+00 +/- 0.000000e+00) [K]
    Coulombic Real/kʙ       0.000000e+00 ( 0.000000e+00 +/- 0.000000e+00) [K]
    Coulombic Fourier/kʙ    0.000000e+00 ( 0.000000e+00 +/- 0.000000e+00) [K]
Molecule-molecule
    Van der Waals/kʙ       -2.263435e+05 (-2.238583e+05 +/- 0.000000e+00) [K]
    Van der Waals (Tail)/kʙ-9.766201e+03 (-9.556373e+03 +/- 0.000000e+00) [K]
    Coulombic Real/kʙ      -6.822308e+04 (-6.454686e+04 +/- 0.000000e+00) [K]
    Coulombic Fourier/kʙ   -1.372261e+04 (-1.465782e+04 +/- 0.000000e+00) [K]
    Molecule Intra/kʙ       0.000000e+00 ( 0.000000e+00 +/- 0.000000e+00) [K]

Current cycle: 200 out of 5000
===============================================================================

Box:      23.88446   0.00000   0.00000  Average:  23.75547   0.00000   0.00000
           0.00000  23.88446   0.00000             0.00000  23.75547   0.00000
           0.00000   0.00000  23.88446             0.00000   0.00000  23.75547
Lengths:  23.88446  23.88446  23.88446  Average:  23.75547  23.75547  23.75547
Angles:   90.00000  90.00000  90.00000  Average:  90.00000  90.00000  90.00000
Rectangular boundary conditions

net charge:   0.00000000

component 0 (CO2) lambda:  0 occupancy:  1 (1.000000)
    net charge:   0.00000000 [e]

Amount of molecules per component :
-------------------------------------------------------------------------------
Component 0 (CO2)
    molecules:      2.000000e+02 molecules  (2.000000e+02 +/- 0.000000e+00)
    number density: 1.467856e-02 molec./A^3 (1.492162e-02 +/- 0.000000e+00)
    density:        1.072441e+03 kg/m^3     (1.090199e+03 +/- 0.000000e+00)

Average pressure tensor: 
-------------------------------------------------------------------------------
 4.1034e+02  5.2287e+01  1.5494e+02 +/- 0.0000e+00 0.0000e+00 0.0000e+00 [bar]
 5.2287e+01  1.5187e+02  1.2287e+02 +/- 0.0000e+00 0.0000e+00 0.0000e+00 [bar]
 1.5494e+02  1.2287e+02  4.0339e+00 +/- 0.0000e+00 0.0000e+00 0.0000e+00 [bar]
Ideal-gas pressure:   5.150384e+02 +/ 0.000000e+00 [bar]
Excess pressure:     -3.262908e+02 +/ 0.000000e+00 [bar]
Pressure:             1.887476e+02 +/ 0.000000e+00 [bar]

Total potential energy/kʙ  -3.031794e+05 (-3.112375e+05 +/- 0.000000e+00) [K]
-------------------------------------------------------------------------------
ExternalField-molecule
    Van der Waals/kʙ        0.000000e+00 ( 0.000000e+00 +/- 0.000000e+00) [K]
Framework-molecule
    Van der Waals/kʙ        0.000000e+00 ( 0.000000e+00 +/- 0.000000e+00) [K]
    Van der Waals (Tail)/kʙ 0.000000e+00 ( 0.000000e+00 +/- 0.000000e+00) [K]
    Coulombic Real/kʙ       0.000000e+00 ( 0.000000e+00 +/- 0.000000e+00) [K]
    Coulombic Fourier/kʙ    0.000000e+00 ( 0.000000e+00 +/- 0.000000e+00) [K]
Molecule-molecule
    Van der Waals/kʙ       -2.207290e+05 (-2.235546e+05 +/- 0.000000e+00) [K]
    Van der Waals (Tail)/kʙ-9.419378e+03 (-9.565357e+03 +/- 0.000000e+00) [K]
    Coulombic Real/kʙ      -5.907389e+04 (-6.355596e+04 +/- 0.000000e+00) [K]
    Coulombic Fourier/kʙ   -1.395720e+04 (-1.456156e+04 +/- 0.000000e+00) [K]
    Molecule Intra/kʙ       0.000000e+00 ( 0.000000e+00 +/- 0.000000e+00) [K]

Current cycle: 300 out of 5000
===============================================================================

Box:      23.61846   0.00000   0.00000  Average:  23.79091   0.00000   0.00000
           0.00000  23.61846   0.00000             0.00000  23.79091   0.00000
           0.00000   0.00000  23.61846             0.00000   0.00000  23.79091
Lengths:  23.61846  23.61846  23.61846  Average:  23.79091  23.79091  23.79091
Angles:   90.00000  90.00000  90.00000  Average:  90.00000  90.00000  90.00000
Rectangular boundary conditions

net charge:   0.00000000

component 0 (CO2) lambda:  0 occupancy:  1 (1.000000)
    net charge:   0.00000000 [e]

Amount of molecules per component :
-------------------------------------------------------------------------------
Component 0 (CO2)
    molecules:      2.000000e+02 molecules  (2.000000e+02 +/- 0.000000e+00)
    number density: 1.518013e-02 molec./A^3 (1.485563e-02 +/- 0.000000e+00)
    density:        1.109086e+03 kg/m^3     (1.085378e+03 +/- 0.000000e+00)

Average pressure tensor: 
-------------------------------------------------------------------------------
 2.7347e+02  4.0711e+01  7.1625e+01 +/- 0.0000e+00 0.0000e+00 0.0000e+00 [bar]
 4.0711e+01  6.3896e+01  1.2724e+02 +/- 0.0000e+00 0.0000e+00 0.0000e+00 [bar]
 7.1625e+01  1.2724e+02  8.0584e+01 +/- 0.0000e+00 0.0000e+00 0.0000e+00 [bar]
Ideal-gas pressure:   5.127607e+02 +/ 0.000000e+00 [bar]
Excess pressure:     -3.734452e+02 +/ 0.000000e+00 [bar]
Pressure:             1.393155e+02 +/ 0.000000e+00 [bar]

Total potential energy/kʙ  -3.130420e+05 (-3.099328e+05 +/- 0.000000e+00) [K]
-------------------------------------------------------------------------------
ExternalField-molecule
    Van der Waals/kʙ        0.000000e+00 ( 0.000000e+00 +/- 0.000000e+00) [K]
Framework-molecule
    Van der Waals/kʙ        0.000000e+00 ( 0.000000e+00 +/- 0.000000e+00) [K]
    Van der Waals (Tail)/kʙ 0.000000e+00 ( 0.000000e+00 +/- 0.000000e+00) [K]
    Coulombic Real/kʙ       0.000000e+00 ( 0.000000e+00 +/- 0.000000e+00) [K]
    Coulombic Fourier/kʙ    0.000000e+00 ( 0.000000e+00 +/- 0.000000e+00) [K]
Molecule-molecule
    Van der Waals/kʙ       -2.213596e+05 (-2.221339e+05 +/- 0.000000e+00) [K]
    Van der Waals (Tail)/kʙ-9.741238e+03 (-9.510385e+03 +/- 0.000000e+00) [K]
    Coulombic Real/kʙ      -6.633538e+04 (-6.347829e+04 +/- 0.000000e+00) [K]
    Coulombic Fourier/kʙ   -1.560586e+04 (-1.481020e+04 +/- 0.000000e+00) [K]
    Molecule Intra/kʙ       0.000000e+00 ( 0.000000e+00 +/- 0.000000e+00) [K]

Current cycle: 400 out of 5000
===============================================================================

Box:      23.85971   0.00000   0.00000  Average:  23.82597   0.00000   0.00000
           0.00000  23.85971   0.00000             0.00000  23.82597   0.00000
           0.00000   0.00000  23.85971             0.00000   0.00000  23.82597
Lengths:  23.85971  23.85971  23.85971  Average:  23.82597  23.82597  23.82597
Angles:   90.00000  90.00000  90.00000  Average:  90.00000  90.00000  90.00000
Rectangular boundary conditions

net charge:   0.00000000

component 0 (CO2) lambda:  0 occupancy:  1 (1.000000)
    net charge:   0.00000000 [e]

Amount of molecules per component :
-------------------------------------------------------------------------------
Component 0 (CO2)
    molecules:      2.000000e+02 molecules  (2.000000e+02 +/- 0.000000e+00)
    number density: 1.472430e-02 molec./A^3 (1.479035e-02 +/- 0.000000e+00)
    density:        1.075783e+03 kg/m^3     (1.080608e+03 +/- 0.000000e+00)

Average pressure tensor: 
-------------------------------------------------------------------------------
 2.7810e+02  1.3595e+01  4.1424e+01 +/- 0.0000e+00 0.0000e+00 0.0000e+00 [bar]
 1.3595e+01  1.4463e+02  9.4426e+01 +/- 0.0000e+00 0.0000e+00 0.0000e+00 [bar]
 4.1424e+01  9.4426e+01  1.4660e+02 +/- 0.0000e+00 0.0000e+00 0.0000e+00 [bar]
Ideal-gas pressure:   5.105075e+02 +/ 0.000000e+00 [bar]
Excess pressure:     -3.207304e+02 +/ 0.000000e+00 [bar]
Pressure:             1.897771e+02 +/ 0.000000e+00 [bar]

Total potential energy/kʙ  -3.077736e+05 (-3.085403e+05 +/- 0.000000e+00) [K]
-------------------------------------------------------------------------------
ExternalField-molecule
    Van der Waals/kʙ        0.000000e+00 ( 0.000000e+00 +/- 0.000000e+00) [K]
Framework-molecule
    Van der Waals/kʙ        0.000000e+00 ( 0.000000e+00 +/- 0.000000e+00) [K]
    Van der Waals (Tail)/kʙ 0.000000e+00 ( 0.000000e+00 +/- 0.000000e+00) [K]
    Coulombic Real/kʙ       0.000000e+00 ( 0.000000e+00 +/- 0.000000e+00) [K]
    Coulombic Fourier/kʙ    0.000000e+00 ( 0.000000e+00 +/- 0.000000e+00) [K]
Molecule-molecule
    Van der Waals/kʙ       -2.173741e+05 (-2.208072e+05 +/- 0.000000e+00) [K]
    Van der Waals (Tail)/kʙ-9.448729e+03 (-9.485480e+03 +/- 0.000000e+00) [K]
    Coulombic Real/kʙ      -6.399383e+04 (-6.321549e+04 +/- 0.000000e+00) [K]
    Coulombic Fourier/kʙ   -1.695700e+04 (-1.503211e+04 +/- 0.000000e+00) [K]
    Molecule Intra/kʙ       0.000000e+00 ( 0.000000e+00 +/- 0.000000e+00) [K]

Current cycle: 500 out of 5000
===============================================================================

Box:      24.00705   0.00000   0.00000  Average:  23.86097   0.00000   0.00000
           0.00000  24.00705   0.00000             0.00000  23.86097   0.00000
           0.00000   0.00000  24.00705             0.00000   0.00000  23.86097
Lengths:  24.00705  24.00705  24.00705  Average:  23.86097  23.86097  23.86097
Angles:   90.00000  90.00000  90.00000  Average:  90.00000  90.00000  90.00000
Rectangular boundary conditions

net charge:   0.00000000

component 0 (CO2) lambda:  0 occupancy:  1 (1.000000)
    net charge:   0.00000000 [e]

Amount of molecules per component :
-------------------------------------------------------------------------------
Component 0 (CO2)
    molecules:      2.000000e+02 molecules  (2.000000e+02 +/- 0.000000e+00)
    number density: 1.445486e-02 molec./A^3 (1.472564e-02 +/- 0.000000e+00)
    density:        1.056097e+03 kg/m^3     (1.075880e+03 +/- 0.000000e+00)

Average pressure tensor: 
-------------------------------------------------------------------------------
 2.3902e+02  4.8516e+00  2.0943e+01 +/- 0.0000e+00 0.0000e+00 0.0000e+00 [bar]
 4.8516e+00  2.0207e+02  1.2036e+02 +/- 0.0000e+00 0.0000e+00 0.0000e+00 [bar]
 2.0943e+01  1.2036e+02  1.6969e+02 +/- 0.0000e+00 0.0000e+00 0.0000e+00 [bar]
Ideal-gas pressure:   5.082739e+02 +/ 0.000000e+00 [bar]
Excess pressure:     -3.046821e+02 +/ 0.000000e+00 [bar]
Pressure:             2.035918e+02 +/ 0.000000e+00 [bar]

Total potential energy/kʙ  -3.024297e+05 (-3.070284e+05 +/- 0.000000e+00) [K]
-------------------------------------------------------------------------------
ExternalField-molecule
    Van der Waals/kʙ        0.000000e+00 ( 0.000000e+00 +/- 0.000000e+00) [K]
Framework-molecule
    Van der Waals/kʙ        0.000000e+00 ( 0.000000e+00 +/- 0.000000e+00) [K]
    Van der Waals (Tail)/kʙ 0.000000e+00 ( 0.000000e+00 +/- 0.000000e+00) [K]
    Coulombic Real/kʙ       0.000000e+00 ( 0.000000e+00 +/- 0.000000e+00) [K]
    Coulombic Fourier/kʙ    0.000000e+00 ( 0.000000e+00 +/- 0.000000e+00) [K]
Molecule-molecule
    Van der Waals/kʙ       -2.152434e+05 (-2.194360e+05 +/- 0.000000e+00) [K]
    Van der Waals (Tail)/kʙ-9.275823e+03 (-9.446327e+03 +/- 0.000000e+00) [K]
    Coulombic Real/kʙ      -6.311910e+04 (-6.308783e+04 +/- 0.000000e+00) [K]
    Coulombic Fourier/kʙ   -1.479139e+04 (-1.505815e+04 +/- 0.000000e+00) [K]
    Molecule Intra/kʙ       0.000000e+00 ( 0.000000e+00 +/- 0.000000e+00) [K]

Current cycle: 600 out of 5000
===============================================================================

Box:      23.51076   0.00000   0.00000  Average:  23.85730   0.00000   0.00000
           0.00000  23.51076   0.00000             0.00000  23.85730   0.00000
           0.00000   0.00000  23.51076             0.00000   0.00000  23.85730
Lengths:  23.51076  23.51076  23.51076  Average:  23.85730  23.85730  23.85730
Angles:   90.00000  90.00000  90.00000  Average:  90.00000  90.00000  90.00000
Rectangular boundary conditions

net charge:   0.00000000

component 0 (CO2) lambda:  0 occupancy:  1 (1.000000)
    net charge:   0.00000000 [e]

Amount of molecules per component :
-------------------------------------------------------------------------------
Component 0 (CO2)
    molecules:      2.000000e+02 molecules  (2.000000e+02 +/- 0.000000e+00)
    number density: 1.538968e-02 molec./A^3 (1.473238e-02 +/- 0.000000e+00)
    density:        1.124397e+03 kg/m^3     (1.076373e+03 +/- 0.000000e+00)

Average pressure tensor: 
-------------------------------------------------------------------------------
 2.1456e+02 -1.8849e+01  1.3806e+01 +/- 0.0000e+00 0.0000e+00 0.0000e+00 [bar]
-1.8849e+01  1.5509e+02  9.2194e+01 +/- 0.0000e+00 0.0000e+00 0.0000e+00 [bar]
 1.3806e+01  9.2194e+01  2.4180e+02 +/- 0.0000e+00 0.0000e+00 0.0000e+00 [bar]
Ideal-gas pressure:   5.085067e+02 +/ 0.000000e+00 [bar]
Excess pressure:     -3.046932e+02 +/ 0.000000e+00 [bar]
Pressure:             2.038135e+02 +/ 0.000000e+00 [bar]

Total potential energy/kʙ  -3.199950e+05 (-3.069220e+05 +/- 0.000000e+00) [K]
-------------------------------------------------------------------------------
ExternalField-molecule
    Van der Waals/kʙ        0.000000e+00 ( 0.000000e+00 +/- 0.000000e+00) [K]
Framework-molecule
    Van der Waals/kʙ        0.000000e+00 ( 0.000000e+00 +/- 0.000000e+00) [K]
    Van der Waals (Tail)/kʙ 0.000000e+00 ( 0.000000e+00 +/- 0.000000e+00) [K]
    Coulombic Real/kʙ       0.000000e+00 ( 0.000000e+00 +/- 0.000000e+00) [K]
    Coulombic Fourier/kʙ    0.000000e+00 ( 0.000000e+00 +/- 0.000000e+00) [K]
Molecule-molecule
    Van der Waals/kʙ       -2.296623e+05 (-2.195343e+05 +/- 0.000000e+00) [K]
    Van der Waals (Tail)/kʙ-9.875712e+03 (-9.454756e+03 +/- 0.000000e+00) [K]
    Coulombic Real/kʙ      -6.460187e+04 (-6.279994e+04 +/- 0.000000e+00) [K]
    Coulombic Fourier/kʙ   -1.585508e+04 (-1.513294e+04 +/- 0.000000e+00) [K]
    Molecule Intra/kʙ       0.000000e+00 ( 0.000000e+00 +/- 0.000000e+00) [K]

Current cycle: 700 out of 5000
===============================================================================

Box:      23.57542   0.00000   0.00000  Average:  23.81541   0.00000   0.00000
           0.00000  23.57542   0.00000             0.00000  23.81541   0.00000
           0.00000   0.00000  23.57542             0.00000   0.00000  23.81541
Lengths:  23.57542  23.57542  23.57542  Average:  23.81541  23.81541  23.81541
Angles:   90.00000  90.00000  90.00000  Average:  90.00000  90.00000  90.00000
Rectangular boundary conditions

net charge:   0.00000000

component 0 (CO2) lambda:  0 occupancy:  1 (1.000000)
    net charge:   0.00000000 [e]

Amount of molecules per component :
-------------------------------------------------------------------------------
Component 0 (CO2)
    molecules:      2.000000e+02 molecules  (2.000000e+02 +/- 0.000000e+00)
    number density: 1.526342e-02 molec./A^3 (1.481163e-02 +/- 0.000000e+00)
    density:        1.115171e+03 kg/m^3     (1.082163e+03 +/- 0.000000e+00)

Average pressure tensor: 
-------------------------------------------------------------------------------
 2.4958e+02  1.7659e+00  1.7738e+01 +/- 0.0000e+00 0.0000e+00 0.0000e+00 [bar]
 1.7659e+00  1.6953e+02  9.9499e+01 +/- 0.0000e+00 0.0000e+00 0.0000e+00 [bar]
 1.7738e+01  9.9499e+01  2.1072e+02 +/- 0.0000e+00 0.0000e+00 0.0000e+00 [bar]
Ideal-gas pressure:   5.112420e+02 +/ 0.000000e+00 [bar]
Excess pressure:     -3.013011e+02 +/ 0.000000e+00 [bar]
Pressure:             2.099409e+02 +/ 0.000000e+00 [bar]

Total potential energy/kʙ  -3.225007e+05 (-3.094234e+05 +/- 0.000000e+00) [K]
-------------------------------------------------------------------------------
ExternalField-molecule
    Van der Waals/kʙ        0.000000e+00 ( 0.000000e+00 +/- 0.000000e+00) [K]
Framework-molecule
    Van der Waals/kʙ        0.000000e+00 ( 0.000000e+00 +/- 0.000000e+00) [K]
    Van der Waals (Tail)/kʙ 0.000000e+00 ( 0.000000e+00 +/- 0.000000e+00) [K]
    Coulombic Real/kʙ       0.000000e+00 ( 0.000000e+00 +/- 0.000000e+00) [K]
    Coulombic Fourier/kʙ    0.000000e+00 ( 0.000000e+00 +/- 0.000000e+00) [K]
Molecule-molecule
    Van der Waals/kʙ       -2.288150e+05 (-2.211008e+05 +/- 0.000000e+00) [K]
    Van der Waals (Tail)/kʙ-9.794685e+03 (-9.507107e+03 +/- 0.000000e+00) [K]
    Coulombic Real/kʙ      -6.790988e+04 (-6.351050e+04 +/- 0.000000e+00) [K]
    Coulombic Fourier/kʙ   -1.598112e+04 (-1.530500e+04 +/- 0.000000e+00) [K]
    Molecule Intra/kʙ       0.000000e+00 ( 0.000000e+00 +/- 0.000000e+00) [K]

Current cycle: 800 out of 5000
===============================================================================

Box:      23.67693   0.00000   0.00000  Average:  23.80921   0.00000   0.00000
           0.00000  23.67693   0.00000             0.00000  23.80921   0.00000
           0.00000   0.00000  23.67693             0.00000   0.00000  23.80921
Lengths:  23.67693  23.67693  23.67693  Average:  23.80921  23.80921  23.80921
Angles:   90.00000  90.00000  90.00000  Average:  90.00000  90.00000  90.00000
Rectangular boundary conditions

net charge:   0.00000000

component 0 (CO2) lambda:  0 occupancy:  1 (1.000000)
    net charge:   0.00000000 [e]

Amount of molecules per component :
-------------------------------------------------------------------------------
Component 0 (CO2)
    molecules:      2.000000e+02 molecules  (2.000000e+02 +/- 0.000000e+00)
    number density: 1.506794e-02 molec./A^3 (1.482283e-02 +/- 0.000000e+00)
    density:        1.100889e+03 kg/m^3     (1.082982e+03 +/- 0.000000e+00)

Average pressure tensor: 
-------------------------------------------------------------------------------
 2.3486e+02  1.6519e+01  2.2990e+01 +/- 0.0000e+00 0.0000e+00 0.0000e+00 [bar]
 1.6519e+01  1.5691e+02  8.8570e+01 +/- 0.0000e+00 0.0000e+00 0.0000e+00 [bar]
 2.2990e+01  8.8570e+01  2.1363e+02 +/- 0.0000e+00 0.0000e+00 0.0000e+00 [bar]
Ideal-gas pressure:   5.116288e+02 +/ 0.000000e+00 [bar]
Excess pressure:     -3.098312e+02 +/ 0.000000e+00 [bar]
Pressure:             2.017976e+02 +/ 0.000000e+00 [bar]

Total potential energy/kʙ  -3.242825e+05 (-3.102809e+05 +/- 0.000000e+00) [K]
-------------------------------------------------------------------------------
ExternalField-molecule
    Van der Waals/kʙ        0.000000e+00 ( 0.000000e+00 +/- 0.000000e+00) [K]
Framework-molecule
    Van der Waals/kʙ        0.000000e+00 ( 0.000000e+00 +/- 0.000000e+00) [K]
    Van der Waals (Tail)/kʙ 0.000000e+00 ( 0.000000e+00 +/- 0.000000e+00) [K]
    Coulombic Real/kʙ       0.000000e+00 ( 0.000000e+00 +/- 0.000000e+00) [K]
    Coulombic Fourier/kʙ    0.000000e+00 ( 0.000000e+00 +/- 0.000000e+00) [K]
Molecule-molecule
    Van der Waals/kʙ       -2.273708e+05 (-2.213437e+05 +/- 0.000000e+00) [K]
    Van der Waals (Tail)/kʙ-9.669243e+03 (-9.507502e+03 +/- 0.000000e+00) [K]
    Coulombic Real/kʙ      -7.094229e+04 (-6.402714e+04 +/- 0.000000e+00) [K]
    Coulombic Fourier/kʙ   -1.630018e+04 (-1.540253e+04 +/- 0.000000e+00) [K]
    Molecule Intra/kʙ       0.000000e+00 ( 0.000000e+00 +/- 0.000000e+00) [K]

Current cycle: 900 out of 5000
===============================================================================

Box:      23.81688   0.00000   0.00000  Average:  23.79893   0.00000   0.00000
           0.00000  23.81688   0.00000             0.00000  23.79893   0.00000
           0.00000   0.00000  23.81688             0.00000   0.00000  23.79893
Lengths:  23.81688  23.81688  23.81688  Average:  23.79893  23.79893  23.79893
Angles:   90.00000  90.00000  90.00000  Average:  90.00000  90.00000  90.00000
Rectangular boundary conditions

net charge:   0.00000000

component 0 (CO2) lambda:  0 occupancy:  1 (1.000000)
    net charge:   0.00000000 [e]

Amount of molecules per component :
-------------------------------------------------------------------------------
Component 0 (CO2)
    molecules:      2.000000e+02 molecules  (2.000000e+02 +/- 0.000000e+00)
    number density: 1.480387e-02 molec./A^3 (1.484179e-02 +/- 0.000000e+00)
    density:        1.081596e+03 kg/m^3     (1.084366e+03 +/- 0.000000e+00)

Average pressure tensor: 
-------------------------------------------------------------------------------
 2.0558e+02  8.7326e+00  2.5854e+01 +/- 0.0000e+00 0.0000e+00 0.0000e+00 [bar]
 8.7326e+00  1.8106e+02  8.1826e+01 +/- 0.0000e+00 0.0000e+00 0.0000e+00 [bar]
 2.5854e+01  8.1826e+01  2.0530e+02 +/- 0.0000e+00 0.0000e+00 0.0000e+00 [bar]
Ideal-gas pressure:   5.122829e+02 +/ 0.000000e+00 [bar]
Excess pressure:     -3.149680e+02 +/ 0.000000e+00 [bar]
Pressure:             1.973149e+02 +/ 0.000000e+00 [bar]

Total potential energy/kʙ  -3.162623e+05 (-3.112347e+05 +/- 0.000000e+00) [K]
-------------------------------------------------------------------------------
ExternalField-molecule
    Van der Waals/kʙ        0.000000e+00 ( 0.000000e+00 +/- 0.000000e+00) [K]
Framework-molecule
    Van der Waals/kʙ        0.000000e+00 ( 0.000000e+00 +/- 0.000000e+00) [K]
    Van der Waals (Tail)/kʙ 0.000000e+00 ( 0.000000e+00 +/- 0.000000e+00) [K]
    Coulombic Real/kʙ       0.000000e+00 ( 0.000000e+00 +/- 0.000000e+00) [K]
    Coulombic Fourier/kʙ    0.000000e+00 ( 0.000000e+00 +/- 0.000000e+00) [K]
Molecule-molecule
    Van der Waals/kʙ       -2.240841e+05 (-2.217264e+05 +/- 0.000000e+00) [K]
    Van der Waals (Tail)/kʙ-9.499791e+03 (-9.516810e+03 +/- 0.000000e+00) [K]
    Coulombic Real/kʙ      -6.601178e+04 (-6.448534e+04 +/- 0.000000e+00) [K]
    Coulombic Fourier/kʙ   -1.666668e+04 (-1.550619e+04 +/- 0.000000e+00) [K]
    Molecule Intra/kʙ       0.000000e+00 ( 0.000000e+00 +/- 0.000000e+00) [K]

Current cycle: 1000 out of 5000
===============================================================================

Box:      23.78896   0.00000   0.00000  Average:  23.79745   0.00000   0.00000
           0.00000  23.78896   0.00000             0.00000  23.79745   0.00000
           0.00000   0.00000  23.78896             0.00000   0.00000  23.79745
Lengths:  23.78896  23.78896  23.78896  Average:  23.79745  23.79745  23.79745
Angles:   90.00000  90.00000  90.00000  Average:  90.00000  90.00000  90.00000
Rectangular boundary conditions

net charge:   0.00000000

component 0 (CO2) lambda:  0 occupancy:  1 (1.000000)
    net charge:   0.00000000 [e]

Amount of molecules per component :
-------------------------------------------------------------------------------
Component 0 (CO2)
    molecules:      2.000000e+02 molecules  (2.000000e+02 +/- 0.000000e+00)
    number density: 1.485605e-02 molec./A^3 (1.484424e-02 +/- 0.000000e+00)
    density:        1.085409e+03 kg/m^3     (1.084545e+03 +/- 0.000000e+00)

Average pressure tensor: 
-------------------------------------------------------------------------------
 2.0011e+02 -7.4955e+00  3.0457e+01 +/- 0.0000e+00 0.0000e+00 0.0000e+00 [bar]
-7.4955e+00  1.8736e+02  1.0055e+02 +/- 0.0000e+00 0.0000e+00 0.0000e+00 [bar]
 3.0457e+01  1.0055e+02  1.9076e+02 +/- 0.0000e+00 0.0000e+00 0.0000e+00 [bar]
Ideal-gas pressure:   5.123675e+02 +/ 0.000000e+00 [bar]
Excess pressure:     -3.196225e+02 +/ 0.000000e+00 [bar]
Pressure:             1.927450e+02 +/ 0.000000e+00 [bar]

Total potential energy/kʙ  -3.047435e+05 (-3.113509e+05 +/- 0.000000e+00) [K]
-------------------------------------------------------------------------------
ExternalField-molecule
    Van der Waals/kʙ        0.000000e+00 ( 0.000000e+00 +/- 0.000000e+00) [K]
Framework-molecule
    Van der Waals/kʙ        0.000000e+00 ( 0.000000e+00 +/- 0.000000e+00) [K]
    Van der Waals (Tail)/kʙ 0.000000e+00 ( 0.000000e+00 +/- 0.000000e+00) [K]
    Coulombic Real/kʙ       0.000000e+00 ( 0.000000e+00 +/- 0.000000e+00) [K]
    Coulombic Fourier/kʙ    0.000000e+00 ( 0.000000e+00 +/- 0.000000e+00) [K]
Molecule-molecule
    Van der Waals/kʙ       -2.203507e+05 (-2.218010e+05 +/- 0.000000e+00) [K]
    Van der Waals (Tail)/kʙ-9.533274e+03 (-9.520319e+03 +/- 0.000000e+00) [K]
    Coulombic Real/kʙ      -5.974342e+04 (-6.448749e+04 +/- 0.000000e+00) [K]
    Coulombic Fourier/kʙ   -1.511612e+04 (-1.554204e+04 +/- 0.000000e+00) [K]
    Molecule Intra/kʙ       0.000000e+00 ( 0.000000e+00 +/- 0.000000e+00) [K]

Current cycle: 1100 out of 5000
===============================================================================

Box:      23.95040   0.00000   0.00000  Average:  23.79324   0.00000   0.00000
           0.00000  23.95040   0.00000             0.00000  23.79324   0.00000
           0.00000   0.00000  23.95040             0.00000   0.00000  23.79324
Lengths:  23.95040  23.95040  23.95040  Average:  23.79324  23.79324  23.79324
Angles:   90.00000  90.00000  90.00000  Average:  90.00000  90.00000  90.00000
Rectangular boundary conditions

net charge:   0.00000000

component 0 (CO2) lambda:  0 occupancy:  1 (1.000000)
    net charge:   0.00000000 [e]

Amount of molecules per component :
-------------------------------------------------------------------------------
Component 0 (CO2)
    molecules:      2.000000e+02 molecules  (2.000000e+02 +/- 0.000000e+00)
    number density: 1.455767e-02 molec./A^3 (1.485203e-02 +/- 0.000000e+00)
    density:        1.063608e+03 kg/m^3     (1.085114e+03 +/- 0.000000e+00)

Average pressure tensor: 
-------------------------------------------------------------------------------
 2.0794e+02 -8.3659e+00  3.0095e+01 +/- 0.0000e+00 0.0000e+00 0.0000e+00 [bar]
-8.3659e+00  1.8817e+02  1.2004e+02 +/- 0.0000e+00 0.0000e+00 0.0000e+00 [bar]
 3.0095e+01  1.2004e+02  1.7495e+02 +/- 0.0000e+00 0.0000e+00 0.0000e+00 [bar]
Ideal-gas pressure:   5.126364e+02 +/ 0.000000e+00 [bar]
Excess pressure:     -3.222820e+02 +/ 0.000000e+00 [bar]
Pressure:             1.903544e+02 +/ 0.000000e+00 [bar]

Total potential energy/kʙ  -3.036269e+05 (-3.112717e+05 +/- 0.000000e+00) [K]
-------------------------------------------------------------------------------
ExternalField-molecule
    Van der Waals/kʙ        0.000000e+00 ( 0.000000e+00 +/- 0.000000e+00) [K]
Framework-molecule
    Van der Waals/kʙ        0.000000e+00 ( 0.000000e+00 +/- 0.000000e+00) [K]
    Van der Waals (Tail)/kʙ 0.000000e+00 ( 0.000000e+00 +/- 0.000000e+00) [K]
    Coulombic Real/kʙ       0.000000e+00 ( 0.000000e+00 +/- 0.000000e+00) [K]
    Coulombic Fourier/kʙ    0.000000e+00 ( 0.000000e+00 +/- 0.000000e+00) [K]
Molecule-molecule
    Van der Waals/kʙ       -2.166150e+05 (-2.218342e+05 +/- 0.000000e+00) [K]
    Van der Waals (Tail)/kʙ-9.341799e+03 (-9.525943e+03 +/- 0.000000e+00) [K]
    Coulombic Real/kʙ      -6.166316e+04 (-6.437990e+04 +/- 0.000000e+00) [K]
    Coulombic Fourier/kʙ   -1.600694e+04 (-1.553169e+04 +/- 0.000000e+00) [K]
    Molecule Intra/kʙ       0.000000e+00 ( 0.000000e+00 +/- 0.000000e+00) [K]

Current cycle: 1200 out of 5000
===============================================================================

Box:      24.05219   0.00000   0.00000  Average:  23.80879   0.00000   0.00000
           0.00000  24.05219   0.00000             0.00000  23.80879   0.00000
           0.00000   0.00000  24.05219             0.00000   0.00000  23.80879
Lengths:  24.05219  24.05219  24.05219  Average:  23.80879  23.80879  23.80879
Angles:   90.00000  90.00000  90.00000  Average:  90.00000  90.00000  90.00000
Rectangular boundary conditions

net charge:   0.00000000

component 0 (CO2) lambda:  0 occupancy:  1 (1.000000)
    net charge:   0.00000000 [e]

Amount of molecules per component :
-------------------------------------------------------------------------------
Component 0 (CO2)
    molecules:      2.000000e+02 molecules  (2.000000e+02 +/- 0.000000e+00)
    number density: 1.437362e-02 molec./A^3 (1.482318e-02 +/- 0.000000e+00)
    density:        1.050161e+03 kg/m^3     (1.083007e+03 +/- 0.000000e+00)

Average pressure tensor: 
-------------------------------------------------------------------------------
 2.0825e+02 -1.3782e+01  3.3138e+01 +/- 0.0000e+00 0.0000e+00 0.0000e+00 [bar]
-1.3782e+01  1.8469e+02  1.1432e+02 +/- 0.0000e+00 0.0000e+00 0.0000e+00 [bar]
 3.3138e+01  1.1432e+02  1.7225e+02 +/- 0.0000e+00 0.0000e+00 0.0000e+00 [bar]
Ideal-gas pressure:   5.116408e+02 +/ 0.000000e+00 [bar]
Excess pressure:     -3.232448e+02 +/ 0.000000e+00 [bar]
Pressure:             1.883961e+02 +/ 0.000000e+00 [bar]

Total potential energy/kʙ  -3.055080e+05 (-3.104831e+05 +/- 0.000000e+00) [K]
-------------------------------------------------------------------------------
ExternalField-molecule
    Van der Waals/kʙ        0.000000e+00 ( 0.000000e+00 +/- 0.000000e+00) [K]
Framework-molecule
    Van der Waals/kʙ        0.000000e+00 ( 0.000000e+00 +/- 0.000000e+00) [K]
    Van der Waals (Tail)/kʙ 0.000000e+00 ( 0.000000e+00 +/- 0.000000e+00) [K]
    Coulombic Real/kʙ       0.000000e+00 ( 0.000000e+00 +/- 0.000000e+00) [K]
    Coulombic Fourier/kʙ    0.000000e+00 ( 0.000000e+00 +/- 0.000000e+00) [K]
Molecule-molecule
    Van der Waals/kʙ       -2.211064e+05 (-2.213851e+05 +/- 0.000000e+00) [K]
    Van der Waals (Tail)/kʙ-9.223694e+03 (-9.507350e+03 +/- 0.000000e+00) [K]
    Coulombic Real/kʙ      -6.174199e+04 (-6.412875e+04 +/- 0.000000e+00) [K]
    Coulombic Fourier/kʙ   -1.343595e+04 (-1.546193e+04 +/- 0.000000e+00) [K]
    Molecule Intra/kʙ       0.000000e+00 ( 0.000000e+00 +/- 0.000000e+00) [K]

Current cycle: 1300 out of 5000
===============================================================================

Box:      24.04977   0.00000   0.00000  Average:  23.82758   0.00000   0.00000
           0.00000  24.04977   0.00000             0.00000  23.82758   0.00000
           0.00000   0.00000  24.04977             0.00000   0.00000  23.82758
Lengths:  24.04977  24.04977  24.04977  Average:  23.82758  23.82758  23.82758
Angles:   90.00000  90.00000  90.00000  Average:  90.00000  90.00000  90.00000
Rectangular boundary conditions

net charge:   0.00000000

component 0 (CO2) lambda:  0 occupancy:  1 (1.000000)
    net charge:   0.00000000 [e]

Amount of molecules per component :
-------------------------------------------------------------------------------
Component 0 (CO2)
    molecules:      2.000000e+02 molecules  (2.000000e+02 +/- 0.000000e+00)
    number density: 1.437796e-02 molec./A^3 (1.478863e-02 +/- 0.000000e+00)
    density:        1.050478e+03 kg/m^3     (1.080483e+03 +/- 0.000000e+00)

Average pressure tensor: 
-------------------------------------------------------------------------------
 1.9270e+02 -6.7924e+00  4.4161e+01 +/- 0.0000e+00 0.0000e+00 0.0000e+00 [bar]
-6.7924e+00  1.8650e+02  1.0334e+02 +/- 0.0000e+00 0.0000e+00 0.0000e+00 [bar]
 4.4161e+01  1.0334e+02  1.7893e+02 +/- 0.0000e+00 0.0000e+00 0.0000e+00 [bar]
Ideal-gas pressure:   5.104483e+02 +/ 0.000000e+00 [bar]
Excess pressure:     -3.244044e+02 +/ 0.000000e+00 [bar]
Pressure:             1.860439e+02 +/ 0.000000e+00 [bar]

Total potential energy/kʙ  -3.048177e+05 (-3.098847e+05 +/- 0.000000e+00) [K]
-------------------------------------------------------------------------------
ExternalField-molecule
    Van der Waals/kʙ        0.000000e+00 ( 0.000000e+00 +/- 0.000000e+00) [K]
Framework-molecule
    Van der Waals/kʙ        0.000000e+00 ( 0.000000e+00 +/- 0.000000e+00) [K]
    Van der Waals (Tail)/kʙ 0.000000e+00 ( 0.000000e+00 +/- 0.000000e+00) [K]
    Coulombic Real/kʙ       0.000000e+00 ( 0.000000e+00 +/- 0.000000e+00) [K]
    Coulombic Fourier/kʙ    0.000000e+00 ( 0.000000e+00 +/- 0.000000e+00) [K]
Molecule-molecule
    Van der Waals/kʙ       -2.157289e+05 (-2.207509e+05 +/- 0.000000e+00) [K]
    Van der Waals (Tail)/kʙ-9.226478e+03 (-9.487189e+03 +/- 0.000000e+00) [K]
    Coulombic Real/kʙ      -6.462806e+04 (-6.419763e+04 +/- 0.000000e+00) [K]
    Coulombic Fourier/kʙ   -1.523432e+04 (-1.544895e+04 +/- 0.000000e+00) [K]
    Molecule Intra/kʙ       0.000000e+00 ( 0.000000e+00 +/- 0.000000e+00) [K]

Current cycle: 1400 out of 5000
===============================================================================

Box:      23.86009   0.00000   0.00000  Average:  23.82748   0.00000   0.00000
           0.00000  23.86009   0.00000             0.00000  23.82748   0.00000
           0.00000   0.00000  23.86009             0.00000   0.00000  23.82748
Lengths:  23.86009  23.86009  23.86009  Average:  23.82748  23.82748  23.82748
Angles:   90.00000  90.00000  90.00000  Average:  90.00000  90.00000  90.00000
Rectangular boundary conditions

net charge:   0.00000000

component 0 (CO2) lambda:  0 occupancy:  1 (1.000000)
    net charge:   0.00000000 [e]

Amount of molecules per component :
-------------------------------------------------------------------------------
Component 0 (CO2)
    molecules:      2.000000e+02 molecules  (2.000000e+02 +/- 0.000000e+00)
    number density: 1.472359e-02 molec./A^3 (1.478864e-02 +/- 0.000000e+00)
    density:        1.075731e+03 kg/m^3     (1.080484e+03 +/- 0.000000e+00)

Average pressure tensor: 
-------------------------------------------------------------------------------
 1.8545e+02 -5.1493e+00  4.2298e+01 +/- 0.0000e+00 0.0000e+00 0.0000e+00 [bar]
-5.1493e+00  2.0998e+02  8.5196e+01 +/- 0.0000e+00 0.0000e+00 0.0000e+00 [bar]
 4.2298e+01  8.5196e+01  1.8309e+02 +/- 0.0000e+00 0.0000e+00 0.0000e+00 [bar]
Ideal-gas pressure:   5.104486e+02 +/ 0.000000e+00 [bar]
Excess pressure:     -3.176052e+02 +/ 0.000000e+00 [bar]
Pressure:             1.928434e+02 +/ 0.000000e+00 [bar]

Total potential energy/kʙ  -3.134743e+05 (-3.098225e+05 +/- 0.000000e+00) [K]
-------------------------------------------------------------------------------
ExternalField-molecule
    Van der Waals/kʙ        0.000000e+00 ( 0.000000e+00 +/- 0.000000e+00) [K]
Framework-molecule
    Van der Waals/kʙ        0.000000e+00 ( 0.000000e+00 +/- 0.000000e+00) [K]
    Van der Waals (Tail)/kʙ 0.000000e+00 ( 0.000000e+00 +/- 0.000000e+00) [K]
    Coulombic Real/kʙ       0.000000e+00 ( 0.000000e+00 +/- 0.000000e+00) [K]
    Coulombic Fourier/kʙ    0.000000e+00 ( 0.000000e+00 +/- 0.000000e+00) [K]
Molecule-molecule
    Van der Waals/kʙ       -2.224628e+05 (-2.207105e+05 +/- 0.000000e+00) [K]
    Van der Waals (Tail)/kʙ-9.448275e+03 (-9.488880e+03 +/- 0.000000e+00) [K]
    Coulombic Real/kʙ      -6.609453e+04 (-6.420008e+04 +/- 0.000000e+00) [K]
    Coulombic Fourier/kʙ   -1.546870e+04 (-1.542303e+04 +/- 0.000000e+00) [K]
    Molecule Intra/kʙ       0.000000e+00 ( 0.000000e+00 +/- 0.000000e+00) [K]

Current cycle: 1500 out of 5000
===============================================================================

Box:      23.76357   0.00000   0.00000  Average:  23.82222   0.00000   0.00000
           0.00000  23.76357   0.00000             0.00000  23.82222   0.00000
           0.00000   0.00000  23.76357             0.00000   0.00000  23.82222
Lengths:  23.76357  23.76357  23.76357  Average:  23.82222  23.82222  23.82222
Angles:   90.00000  90.00000  90.00000  Average:  90.00000  90.00000  90.00000
Rectangular boundary conditions

net charge:   0.00000000

component 0 (CO2) lambda:  0 occupancy:  1 (1.000000)
    net charge:   0.00000000 [e]

Amount of molecules per component :
-------------------------------------------------------------------------------
Component 0 (CO2)
    molecules:      2.000000e+02 molecules  (2.000000e+02 +/- 0.000000e+00)
    number density: 1.490372e-02 molec./A^3 (1.479827e-02 +/- 0.000000e+00)
    density:        1.088892e+03 kg/m^3     (1.081187e+03 +/- 0.000000e+00)

Average pressure tensor: 
-------------------------------------------------------------------------------
 1.7969e+02 -9.4323e+00  4.8764e+01 +/- 0.0000e+00 0.0000e+00 0.0000e+00 [bar]
-9.4323e+00  2.0805e+02  6.6556e+01 +/- 0.0000e+00 0.0000e+00 0.0000e+00 [bar]
 4.8764e+01  6.6556e+01  1.7980e+02 +/- 0.0000e+00 0.0000e+00 0.0000e+00 [bar]
Ideal-gas pressure:   5.107808e+02 +/ 0.000000e+00 [bar]
Excess pressure:     -3.215990e+02 +/ 0.000000e+00 [bar]
Pressure:             1.891818e+02 +/ 0.000000e+00 [bar]

Total potential energy/kʙ  -3.152591e+05 (-3.100516e+05 +/- 0.000000e+00) [K]
-------------------------------------------------------------------------------
ExternalField-molecule
    Van der Waals/kʙ        0.000000e+00 ( 0.000000e+00 +/- 0.000000e+00) [K]
Framework-molecule
    Van der Waals/kʙ        0.000000e+00 ( 0.000000e+00 +/- 0.000000e+00) [K]
    Van der Waals (Tail)/kʙ 0.000000e+00 ( 0.000000e+00 +/- 0.000000e+00) [K]
    Coulombic Real/kʙ       0.000000e+00 ( 0.000000e+00 +/- 0.000000e+00) [K]
    Coulombic Fourier/kʙ    0.000000e+00 ( 0.000000e+00 +/- 0.000000e+00) [K]
Molecule-molecule
    Van der Waals/kʙ       -2.212437e+05 (-2.209153e+05 +/- 0.000000e+00) [K]
    Van der Waals (Tail)/kʙ-9.563866e+03 (-9.494026e+03 +/- 0.000000e+00) [K]
    Coulombic Real/kʙ      -6.860468e+04 (-6.420269e+04 +/- 0.000000e+00) [K]
    Coulombic Fourier/kʙ   -1.584692e+04 (-1.543958e+04 +/- 0.000000e+00) [K]
    Molecule Intra/kʙ       0.000000e+00 ( 0.000000e+00 +/- 0.000000e+00) [K]

Current cycle: 1600 out of 5000
===============================================================================

Box:      23.67814   0.00000   0.00000  Average:  23.81564   0.00000   0.00000
           0.00000  23.67814   0.00000             0.00000  23.81564   0.00000
           0.00000   0.00000  23.67814             0.00000   0.00000  23.81564
Lengths:  23.67814  23.67814  23.67814  Average:  23.81564  23.81564  23.81564
Angles:   90.00000  90.00000  90.00000  Average:  90.00000  90.00000  90.00000
Rectangular boundary conditions

net charge:   0.00000000

component 0 (CO2) lambda:  0 occupancy:  1 (1.000000)
    net charge:   0.00000000 [e]

Amount of molecules per component :
-------------------------------------------------------------------------------
Component 0 (CO2)
    molecules:      2.000000e+02 molecules  (2.000000e+02 +/- 0.000000e+00)
    number density: 1.506562e-02 molec./A^3 (1.481041e-02 +/- 0.000000e+00)
    density:        1.100720e+03 kg/m^3     (1.082074e+03 +/- 0.000000e+00)

Average pressure tensor: 
-------------------------------------------------------------------------------
 1.8417e+02 -2.2202e+01  5.2817e+01 +/- 0.0000e+00 0.0000e+00 0.0000e+00 [bar]
-2.2202e+01  2.2653e+02  5.5440e+01 +/- 0.0000e+00 0.0000e+00 0.0000e+00 [bar]
 5.2817e+01  5.5440e+01  1.8562e+02 +/- 0.0000e+00 0.0000e+00 0.0000e+00 [bar]
Ideal-gas pressure:   5.112000e+02 +/ 0.000000e+00 [bar]
Excess pressure:     -3.124262e+02 +/ 0.000000e+00 [bar]
Pressure:             1.987737e+02 +/ 0.000000e+00 [bar]

Total potential energy/kʙ  -3.191760e+05 (-3.106105e+05 +/- 0.000000e+00) [K]
-------------------------------------------------------------------------------
ExternalField-molecule
    Van der Waals/kʙ        0.000000e+00 ( 0.000000e+00 +/- 0.000000e+00) [K]
Framework-molecule
    Van der Waals/kʙ        0.000000e+00 ( 0.000000e+00 +/- 0.000000e+00) [K]
    Van der Waals (Tail)/kʙ 0.000000e+00 ( 0.000000e+00 +/- 0.000000e+00) [K]
    Coulombic Real/kʙ       0.000000e+00 ( 0.000000e+00 +/- 0.000000e+00) [K]
    Coulombic Fourier/kʙ    0.000000e+00 ( 0.000000e+00 +/- 0.000000e+00) [K]
Molecule-molecule
    Van der Waals/kʙ       -2.265134e+05 (-2.211279e+05 +/- 0.000000e+00) [K]
    Van der Waals (Tail)/kʙ-9.667758e+03 (-9.504132e+03 +/- 0.000000e+00) [K]
    Coulombic Real/kʙ      -6.624018e+04 (-6.447546e+04 +/- 0.000000e+00) [K]
    Coulombic Fourier/kʙ   -1.675462e+04 (-1.550297e+04 +/- 0.000000e+00) [K]
    Molecule Intra/kʙ       0.000000e+00 ( 0.000000e+00 +/- 0.000000e+00) [K]

Current cycle: 1700 out of 5000
===============================================================================

Box:      23.49573   0.00000   0.00000  Average:  23.80252   0.00000   0.00000
           0.00000  23.49573   0.00000             0.00000  23.80252   0.00000
           0.00000   0.00000  23.49573             0.00000   0.00000  23.80252
Lengths:  23.49573  23.49573  23.49573  Average:  23.80252  23.80252  23.80252
Angles:   90.00000  90.00000  90.00000  Average:  90.00000  90.00000  90.00000
Rectangular boundary conditions

net charge:   0.00000000

component 0 (CO2) lambda:  0 occupancy:  1 (1.000000)
    net charge:   0.00000000 [e]

Amount of molecules per component :
-------------------------------------------------------------------------------
Component 0 (CO2)
    molecules:      2.000000e+02 molecules  (2.000000e+02 +/- 0.000000e+00)
    number density: 1.541925e-02 molec./A^3 (1.483519e-02 +/- 0.000000e+00)
    density:        1.126557e+03 kg/m^3     (1.083884e+03 +/- 0.000000e+00)

Average pressure tensor: 
-------------------------------------------------------------------------------
 1.8125e+02 -2.6838e+01  5.0700e+01 +/- 0.0000e+00 0.0000e+00 0.0000e+00 [bar]
-2.6838e+01  2.3794e+02  4.9214e+01 +/- 0.0000e+00 0.0000e+00 0.0000e+00 [bar]
 5.0700e+01  4.9214e+01  1.8032e+02 +/- 0.0000e+00 0.0000e+00 0.0000e+00 [bar]
Ideal-gas pressure:   5.120553e+02 +/ 0.000000e+00 [bar]
Excess pressure:     -3.122178e+02 +/ 0.000000e+00 [bar]
Pressure:             1.998375e+02 +/ 0.000000e+00 [bar]

Total potential energy/kʙ  -3.236912e+05 (-3.113657e+05 +/- 0.000000e+00) [K]
-------------------------------------------------------------------------------
ExternalField-molecule
    Van der Waals/kʙ        0.000000e+00 ( 0.000000e+00 +/- 0.000000e+00) [K]
Framework-molecule
    Van der Waals/kʙ        0.000000e+00 ( 0.000000e+00 +/- 0.000000e+00) [K]
    Van der Waals (Tail)/kʙ 0.000000e+00 ( 0.000000e+00 +/- 0.000000e+00) [K]
    Coulombic Real/kʙ       0.000000e+00 ( 0.000000e+00 +/- 0.000000e+00) [K]
    Coulombic Fourier/kʙ    0.000000e+00 ( 0.000000e+00 +/- 0.000000e+00) [K]
Molecule-molecule
    Van der Waals/kʙ       -2.306252e+05 (-2.216575e+05 +/- 0.000000e+00) [K]
    Van der Waals (Tail)/kʙ-9.894685e+03 (-9.521339e+03 +/- 0.000000e+00) [K]
    Coulombic Real/kʙ      -6.678149e+04 (-6.465993e+04 +/- 0.000000e+00) [K]
    Coulombic Fourier/kʙ   -1.638980e+04 (-1.552694e+04 +/- 0.000000e+00) [K]
    Molecule Intra/kʙ       0.000000e+00 ( 0.000000e+00 +/- 0.000000e+00) [K]

Current cycle: 1800 out of 5000
===============================================================================

Box:      23.52954   0.00000   0.00000  Average:  23.78899   0.00000   0.00000
           0.00000  23.52954   0.00000             0.00000  23.78899   0.00000
           0.00000   0.00000  23.52954             0.00000   0.00000  23.78899
Lengths:  23.52954  23.52954  23.52954  Average:  23.78899  23.78899  23.78899
Angles:   90.00000  90.00000  90.00000  Average:  90.00000  90.00000  90.00000
Rectangular boundary conditions

net charge:   0.00000000

component 0 (CO2) lambda:  0 occupancy:  1 (1.000000)
    net charge:   0.00000000 [e]

Amount of molecules per component :
-------------------------------------------------------------------------------
Component 0 (CO2)
    molecules:      2.000000e+02 molecules  (2.000000e+02 +/- 0.000000e+00)
    number density: 1.535286e-02 molec./A^3 (1.486079e-02 +/- 0.000000e+00)
    density:        1.121707e+03 kg/m^3     (1.085755e+03 +/- 0.000000e+00)

Average pressure tensor: 
-------------------------------------------------------------------------------
 1.7380e+02 -2.7535e+01  4.6266e+01 +/- 0.0000e+00 0.0000e+00 0.0000e+00 [bar]
-2.7535e+01  2.3638e+02  4.8200e+01 +/- 0.0000e+00 0.0000e+00 0.0000e+00 [bar]
 4.6266e+01  4.8200e+01  1.8238e+02 +/- 0.0000e+00 0.0000e+00 0.0000e+00 [bar]
Ideal-gas pressure:   5.129389e+02 +/ 0.000000e+00 [bar]
Excess pressure:     -3.154214e+02 +/ 0.000000e+00 [bar]
Pressure:             1.975176e+02 +/ 0.000000e+00 [bar]

Total potential energy/kʙ  -3.219293e+05 (-3.121493e+05 +/- 0.000000e+00) [K]
-------------------------------------------------------------------------------
ExternalField-molecule
    Van der Waals/kʙ        0.000000e+00 ( 0.000000e+00 +/- 0.000000e+00) [K]
Framework-molecule
    Van der Waals/kʙ        0.000000e+00 ( 0.000000e+00 +/- 0.000000e+00) [K]
    Van der Waals (Tail)/kʙ 0.000000e+00 ( 0.000000e+00 +/- 0.000000e+00) [K]
    Coulombic Real/kʙ       0.000000e+00 ( 0.000000e+00 +/- 0.000000e+00) [K]
    Coulombic Fourier/kʙ    0.000000e+00 ( 0.000000e+00 +/- 0.000000e+00) [K]
Molecule-molecule
    Van der Waals/kʙ       -2.326963e+05 (-2.221258e+05 +/- 0.000000e+00) [K]
    Van der Waals (Tail)/kʙ-9.852084e+03 (-9.536762e+03 +/- 0.000000e+00) [K]
    Coulombic Real/kʙ      -6.498120e+04 (-6.492689e+04 +/- 0.000000e+00) [K]
    Coulombic Fourier/kʙ   -1.439977e+04 (-1.555985e+04 +/- 0.000000e+00) [K]
    Molecule Intra/kʙ       0.000000e+00 ( 0.000000e+00 +/- 0.000000e+00) [K]

Current cycle: 1900 out of 5000
===============================================================================

Box:      23.63240   0.00000   0.00000  Average:  23.77752   0.00000   0.00000
           0.00000  23.63240   0.00000             0.00000  23.77752   0.00000
           0.00000   0.00000  23.63240             0.00000   0.00000  23.77752
Lengths:  23.63240  23.63240  23.63240  Average:  23.77752  23.77752  23.77752
Angles:   90.00000  90.00000  90.00000  Average:  90.00000  90.00000  90.00000
Rectangular boundary conditions

net charge:   0.00000000

component 0 (CO2) lambda:  0 occupancy:  1 (1.000000)
    net charge:   0.00000000 [e]

Amount of molecules per component :
-------------------------------------------------------------------------------
Component 0 (CO2)
    molecules:      2.000000e+02 molecules  (2.000000e+02 +/- 0.000000e+00)
    number density: 1.515328e-02 molec./A^3 (1.488251e-02 +/- 0.000000e+00)
    density:        1.107124e+03 kg/m^3     (1.087342e+03 +/- 0.000000e+00)

Average pressure tensor: 
-------------------------------------------------------------------------------
 1.7182e+02 -8.2078e+00  3.7560e+01 +/- 0.0000e+00 0.0000e+00 0.0000e+00 [bar]
-8.2078e+00  2.2332e+02  4.5548e+01 +/- 0.0000e+00 0.0000e+00 0.0000e+00 [bar]
 3.7560e+01  4.5548e+01  1.8904e+02 +/- 0.0000e+00 0.0000e+00 0.0000e+00 [bar]
Ideal-gas pressure:   5.136886e+02 +/ 0.000000e+00 [bar]
Excess pressure:     -3.189610e+02 +/ 0.000000e+00 [bar]
Pressure:             1.947276e+02 +/ 0.000000e+00 [bar]

Total potential energy/kʙ  -3.165303e+05 (-3.126447e+05 +/- 0.000000e+00) [K]
-------------------------------------------------------------------------------
ExternalField-molecule
    Van der Waals/kʙ        0.000000e+00 ( 0.000000e+00 +/- 0.000000e+00) [K]
Framework-molecule
    Van der Waals/kʙ        0.000000e+00 ( 0.000000e+00 +/- 0.000000e+00) [K]
    Van der Waals (Tail)/kʙ 0.000000e+00 ( 0.000000e+00 +/- 0.000000e+00) [K]
    Coulombic Real/kʙ       0.000000e+00 ( 0.000000e+00 +/- 0.000000e+00) [K]
    Coulombic Fourier/kʙ    0.000000e+00 ( 0.000000e+00 +/- 0.000000e+00) [K]
Molecule-molecule
    Van der Waals/kʙ       -2.231435e+05 (-2.224488e+05 +/- 0.000000e+00) [K]
    Van der Waals (Tail)/kʙ-9.724007e+03 (-9.549059e+03 +/- 0.000000e+00) [K]
    Coulombic Real/kʙ      -6.764461e+04 (-6.508364e+04 +/- 0.000000e+00) [K]
    Coulombic Fourier/kʙ   -1.601812e+04 (-1.556326e+04 +/- 0.000000e+00) [K]
    Molecule Intra/kʙ       0.000000e+00 ( 0.000000e+00 +/- 0.000000e+00) [K]

Current cycle: 2000 out of 5000
===============================================================================

Box:      23.59609   0.00000   0.00000  Average:  23.77358   0.00000   0.00000
           0.00000  23.59609   0.00000             0.00000  23.77358   0.00000
           0.00000   0.00000  23.59609             0.00000   0.00000  23.77358
Lengths:  23.59609  23.59609  23.59609  Average:  23.77358  23.77358  23.77358
Angles:   90.00000  90.00000  90.00000  Average:  90.00000  90.00000  90.00000
Rectangular boundary conditions

net charge:   0.00000000

component 0 (CO2) lambda:  0 occupancy:  1 (1.000000)
    net charge:   0.00000000 [e]

Amount of molecules per component :
-------------------------------------------------------------------------------
Component 0 (CO2)
    molecules:      2.000000e+02 molecules  (2.000000e+02 +/- 0.000000e+00)
    number density: 1.522334e-02 molec./A^3 (1.488978e-02 +/- 0.000000e+00)
    density:        1.112243e+03 kg/m^3     (1.087873e+03 +/- 0.000000e+00)

Average pressure tensor: 
-------------------------------------------------------------------------------
 1.7313e+02 -5.1486e+00  2.8849e+01 +/- 0.0000e+00 0.0000e+00 0.0000e+00 [bar]
-5.1486e+00  2.1908e+02  4.3122e+01 +/- 0.0000e+00 0.0000e+00 0.0000e+00 [bar]
 2.8849e+01  4.3122e+01  1.9452e+02 +/- 0.0000e+00 0.0000e+00 0.0000e+00 [bar]
Ideal-gas pressure:   5.139395e+02 +/ 0.000000e+00 [bar]
Excess pressure:     -3.183622e+02 +/ 0.000000e+00 [bar]
Pressure:             1.955773e+02 +/ 0.000000e+00 [bar]

Total potential energy/kʙ  -3.302162e+05 (-3.129959e+05 +/- 0.000000e+00) [K]
-------------------------------------------------------------------------------
ExternalField-molecule
    Van der Waals/kʙ        0.000000e+00 ( 0.000000e+00 +/- 0.000000e+00) [K]
Framework-molecule
    Van der Waals/kʙ        0.000000e+00 ( 0.000000e+00 +/- 0.000000e+00) [K]
    Van der Waals (Tail)/kʙ 0.000000e+00 ( 0.000000e+00 +/- 0.000000e+00) [K]
    Coulombic Real/kʙ       0.000000e+00 ( 0.000000e+00 +/- 0.000000e+00) [K]
    Coulombic Fourier/kʙ    0.000000e+00 ( 0.000000e+00 +/- 0.000000e+00) [K]
Molecule-molecule
    Van der Waals/kʙ       -2.287164e+05 (-2.225047e+05 +/- 0.000000e+00) [K]
    Van der Waals (Tail)/kʙ-9.768963e+03 (-9.554316e+03 +/- 0.000000e+00) [K]
    Coulombic Real/kʙ      -7.439914e+04 (-6.531693e+04 +/- 0.000000e+00) [K]
    Coulombic Fourier/kʙ   -1.733171e+04 (-1.562002e+04 +/- 0.000000e+00) [K]
    Molecule Intra/kʙ       0.000000e+00 ( 0.000000e+00 +/- 0.000000e+00) [K]

Current cycle: 2100 out of 5000
===============================================================================

Box:      23.60930   0.00000   0.00000  Average:  23.76240   0.00000   0.00000
           0.00000  23.60930   0.00000             0.00000  23.76240   0.00000
           0.00000   0.00000  23.60930             0.00000   0.00000  23.76240
Lengths:  23.60930  23.60930  23.60930  Average:  23.76240  23.76240  23.76240
Angles:   90.00000  90.00000  90.00000  Average:  90.00000  90.00000  90.00000
Rectangular boundary conditions

net charge:   0.00000000

component 0 (CO2) lambda:  0 occupancy:  1 (1.000000)
    net charge:   0.00000000 [e]

Amount of molecules per component :
-------------------------------------------------------------------------------
Component 0 (CO2)
    molecules:      2.000000e+02 molecules  (2.000000e+02 +/- 0.000000e+00)
    number density: 1.519780e-02 molec./A^3 (1.491104e-02 +/- 0.000000e+00)
    density:        1.110377e+03 kg/m^3     (1.089426e+03 +/- 0.000000e+00)

Average pressure tensor: 
-------------------------------------------------------------------------------
 1.7268e+02 -8.3746e+00  2.4629e+01 +/- 0.0000e+00 0.0000e+00 0.0000e+00 [bar]
-8.3746e+00  2.1185e+02  4.7678e+01 +/- 0.0000e+00 0.0000e+00 0.0000e+00 [bar]
 2.4629e+01  4.7678e+01  1.9295e+02 +/- 0.0000e+00 0.0000e+00 0.0000e+00 [bar]
Ideal-gas pressure:   5.146733e+02 +/ 0.000000e+00 [bar]
Excess pressure:     -3.221813e+02 +/ 0.000000e+00 [bar]
Pressure:             1.924919e+02 +/ 0.000000e+00 [bar]

Total potential energy/kʙ  -3.184307e+05 (-3.135119e+05 +/- 0.000000e+00) [K]
-------------------------------------------------------------------------------
ExternalField-molecule
    Van der Waals/kʙ        0.000000e+00 ( 0.000000e+00 +/- 0.000000e+00) [K]
Framework-molecule
    Van der Waals/kʙ        0.000000e+00 ( 0.000000e+00 +/- 0.000000e+00) [K]
    Van der Waals (Tail)/kʙ 0.000000e+00 ( 0.000000e+00 +/- 0.000000e+00) [K]
[...]
    Coulombic Fourier/kʙ    0.000000e+00 ( 0.000000e+00 +/- 0.000000e+00) [K]
Molecule-molecule
    Van der Waals/kʙ       -2.212972e+05 (-2.228073e+05 +/- 1.702453e+03) [K]
    Van der Waals (Tail)/kʙ-9.531091e+03 (-9.554499e+03 +/- 6.328948e+01) [K]
    Coulombic Real/kʙ      -6.622046e+04 (-6.515449e+04 +/- 7.583516e+02) [K]
    Coulombic Fourier/kʙ   -1.558081e+04 (-1.574707e+04 +/- 2.452680e+02) [K]
    Molecule Intra/kʙ       0.000000e+00 ( 0.000000e+00 +/- 0.000000e+00) [K]

Current cycle: 4700 out of 5000
===============================================================================

Box:      23.77642   0.00000   0.00000  Average:  23.77470   0.00000   0.00000
           0.00000  23.77642   0.00000             0.00000  23.77470   0.00000
           0.00000   0.00000  23.77642             0.00000   0.00000  23.77470
Lengths:  23.77642  23.77642  23.77642  Average:  23.77470  23.77470  23.77470
Angles:   90.00000  90.00000  90.00000  Average:  90.00000  90.00000  90.00000
Rectangular boundary conditions

net charge:   0.00000000

component 0 (CO2) lambda:  0 occupancy:  1 (1.000000)
    net charge:   0.00000000 [e]

Amount of molecules per component :
-------------------------------------------------------------------------------
Component 0 (CO2)
    molecules:      2.000000e+02 molecules  (2.000000e+02 +/- 0.000000e+00)
    number density: 1.487957e-02 molec./A^3 (1.488751e-02 +/- 9.452951e-05)
    density:        1.087127e+03 kg/m^3     (1.087707e+03 +/- 6.906488e+00)

Average pressure tensor: 
-------------------------------------------------------------------------------
 2.2272e+02 -3.0692e+00 -2.8339e+01 +/- 7.8731e+01 4.9147e+01 7.3827e+01 [bar]
-3.0692e+00  2.0382e+02  2.3330e+01 +/- 4.9147e+01 4.3958e+01 6.0994e+01 [bar]
-2.8339e+01  2.3330e+01  1.4471e+02 +/- 7.3827e+01 6.0994e+01 9.1193e+01 [bar]
Ideal-gas pressure:   5.138612e+02 +/ 3.262805e+00 [bar]
Excess pressure:     -3.234428e+02 +/ 2.513374e+01 [bar]
Pressure:             1.904184e+02 +/ 2.284525e+01 [bar]

Total potential energy/kʙ  -3.129665e+05 (-3.132774e+05 +/- 2.251069e+03) [K]
-------------------------------------------------------------------------------
ExternalField-molecule
    Van der Waals/kʙ        0.000000e+00 ( 0.000000e+00 +/- 0.000000e+00) [K]
Framework-molecule
    Van der Waals/kʙ        0.000000e+00 ( 0.000000e+00 +/- 0.000000e+00) [K]
    Van der Waals (Tail)/kʙ 0.000000e+00 ( 0.000000e+00 +/- 0.000000e+00) [K]
    Coulombic Real/kʙ       0.000000e+00 ( 0.000000e+00 +/- 0.000000e+00) [K]
    Coulombic Fourier/kʙ    0.000000e+00 ( 0.000000e+00 +/- 0.000000e+00) [K]
Molecule-molecule
    Van der Waals/kʙ       -2.218618e+05 (-2.228490e+05 +/- 1.458322e+03) [K]
    Van der Waals (Tail)/kʙ-9.548369e+03 (-9.556175e+03 +/- 5.290001e+01) [K]
    Coulombic Real/kʙ      -6.591183e+04 (-6.512166e+04 +/- 7.955784e+02) [K]
    Coulombic Fourier/kʙ   -1.564447e+04 (-1.575052e+04 +/- 2.323797e+02) [K]
    Molecule Intra/kʙ       0.000000e+00 ( 0.000000e+00 +/- 0.000000e+00) [K]

Current cycle: 4800 out of 5000
===============================================================================

Box:      23.82488   0.00000   0.00000  Average:  23.77411   0.00000   0.00000
           0.00000  23.82488   0.00000             0.00000  23.77411   0.00000
           0.00000   0.00000  23.82488             0.00000   0.00000  23.77411
Lengths:  23.82488  23.82488  23.82488  Average:  23.77411  23.77411  23.77411
Angles:   90.00000  90.00000  90.00000  Average:  90.00000  90.00000  90.00000
Rectangular boundary conditions

net charge:   0.00000000

component 0 (CO2) lambda:  0 occupancy:  1 (1.000000)
    net charge:   0.00000000 [e]

Amount of molecules per component :
-------------------------------------------------------------------------------
Component 0 (CO2)
    molecules:      2.000000e+02 molecules  (2.000000e+02 +/- 0.000000e+00)
    number density: 1.478896e-02 molec./A^3 (1.488855e-02 +/- 8.397458e-05)
    density:        1.080507e+03 kg/m^3     (1.087783e+03 +/- 6.135327e+00)

Average pressure tensor: 
-------------------------------------------------------------------------------
 2.2130e+02 -1.6171e+00 -3.1548e+01 +/- 7.4128e+01 4.9377e+01 7.5343e+01 [bar]
-1.6171e+00  2.0090e+02  3.0162e+01 +/- 4.9377e+01 4.8083e+01 6.7280e+01 [bar]
-3.1548e+01  3.0162e+01  1.4383e+02 +/- 7.5343e+01 6.7280e+01 8.9422e+01 [bar]
Ideal-gas pressure:   5.138971e+02 +/ 2.898488e+00 [bar]
Excess pressure:     -3.252194e+02 +/ 1.971894e+01 [bar]
Pressure:             1.886777e+02 +/ 1.821257e+01 [bar]

Total potential energy/kʙ  -3.174199e+05 (-3.133456e+05 +/- 2.001212e+03) [K]
-------------------------------------------------------------------------------
ExternalField-molecule
    Van der Waals/kʙ        0.000000e+00 ( 0.000000e+00 +/- 0.000000e+00) [K]
Framework-molecule
    Van der Waals/kʙ        0.000000e+00 ( 0.000000e+00 +/- 0.000000e+00) [K]
    Van der Waals (Tail)/kʙ 0.000000e+00 ( 0.000000e+00 +/- 0.000000e+00) [K]
    Coulombic Real/kʙ       0.000000e+00 ( 0.000000e+00 +/- 0.000000e+00) [K]
    Coulombic Fourier/kʙ    0.000000e+00 ( 0.000000e+00 +/- 0.000000e+00) [K]
Molecule-molecule
    Van der Waals/kʙ       -2.223948e+05 (-2.228482e+05 +/- 1.385065e+03) [K]
    Van der Waals (Tail)/kʙ-9.490219e+03 (-9.556368e+03 +/- 4.924158e+01) [K]
    Coulombic Real/kʙ      -6.916442e+04 (-6.518649e+04 +/- 7.044225e+02) [K]
    Coulombic Fourier/kʙ   -1.637047e+04 (-1.575453e+04 +/- 2.239266e+02) [K]
    Molecule Intra/kʙ       0.000000e+00 ( 0.000000e+00 +/- 0.000000e+00) [K]

Current cycle: 4900 out of 5000
===============================================================================

Box:      24.07022   0.00000   0.00000  Average:  23.77498   0.00000   0.00000
           0.00000  24.07022   0.00000             0.00000  23.77498   0.00000
           0.00000   0.00000  24.07022             0.00000   0.00000  23.77498
Lengths:  24.07022  24.07022  24.07022  Average:  23.77498  23.77498  23.77498
Angles:   90.00000  90.00000  90.00000  Average:  90.00000  90.00000  90.00000
Rectangular boundary conditions

net charge:   0.00000000

component 0 (CO2) lambda:  0 occupancy:  1 (1.000000)
    net charge:   0.00000000 [e]

Amount of molecules per component :
-------------------------------------------------------------------------------
Component 0 (CO2)
    molecules:      2.000000e+02 molecules  (2.000000e+02 +/- 0.000000e+00)
    number density: 1.434134e-02 molec./A^3 (1.488686e-02 +/- 8.277754e-05)
    density:        1.047803e+03 kg/m^3     (1.087660e+03 +/- 6.047869e+00)

Average pressure tensor: 
-------------------------------------------------------------------------------
 2.1816e+02 -3.7333e-01 -3.0903e+01 +/- 6.9495e+01 4.9209e+01 7.4665e+01 [bar]
-3.7333e-01  2.0386e+02  3.2327e+01 +/- 4.9209e+01 4.1865e+01 6.9004e+01 [bar]
-3.0903e+01  3.2327e+01  1.4335e+02 +/- 7.4665e+01 6.9004e+01 8.8554e+01 [bar]
Ideal-gas pressure:   5.138387e+02 +/ 2.857171e+00 [bar]
Excess pressure:     -3.253818e+02 +/ 1.889582e+01 [bar]
Pressure:             1.884569e+02 +/ 1.754997e+01 [bar]

Total potential energy/kʙ  -3.002401e+05 (-3.133163e+05 +/- 1.989791e+03) [K]
-------------------------------------------------------------------------------
ExternalField-molecule
    Van der Waals/kʙ        0.000000e+00 ( 0.000000e+00 +/- 0.000000e+00) [K]
Framework-molecule
    Van der Waals/kʙ        0.000000e+00 ( 0.000000e+00 +/- 0.000000e+00) [K]
    Van der Waals (Tail)/kʙ 0.000000e+00 ( 0.000000e+00 +/- 0.000000e+00) [K]
    Coulombic Real/kʙ       0.000000e+00 ( 0.000000e+00 +/- 0.000000e+00) [K]
    Coulombic Fourier/kʙ    0.000000e+00 ( 0.000000e+00 +/- 0.000000e+00) [K]
Molecule-molecule
    Van der Waals/kʙ       -2.138179e+05 (-2.228139e+05 +/- 1.396774e+03) [K]
    Van der Waals (Tail)/kʙ-9.202978e+03 (-9.555143e+03 +/- 4.952614e+01) [K]
    Coulombic Real/kʙ      -6.319063e+04 (-6.519902e+04 +/- 6.963783e+02) [K]
    Coulombic Fourier/kʙ   -1.402857e+04 (-1.574824e+04 +/- 2.280849e+02) [K]
    Molecule Intra/kʙ       0.000000e+00 ( 0.000000e+00 +/- 0.000000e+00) [K]


Energy statistics             |  Energy [K]   | Recomputed [K]|  Drift [K]    |
===============================================================================
Total potential energy/kʙ     | -3.107805e+05 | -3.107805e+05 |  2.830939e-09 |
    external field VDW/kʙ     |  0.000000e+00 |  0.000000e+00 |  0.000000e+00 |
    external field Real/kʙ    |  0.000000e+00 |  0.000000e+00 |  0.000000e+00 |
    framework-molecule VDW/kʙ |  0.000000e+00 |  0.000000e+00 |  0.000000e+00 |
    framework-molecule Real/kʙ|  0.000000e+00 |  0.000000e+00 |  0.000000e+00 |
    molecule-molecule VDW/kʙ  | -2.202076e+05 | -2.202076e+05 |  3.150350e-09 |
    molecule-molecule Real/kʙ | -6.500934e+04 | -6.500934e+04 | -3.500388e-10 |
    Van der Waals (Tail)/kʙ   | -9.543652e+03 | -9.543652e+03 |  0.000000e+00 |
    Ewald Fourier/kʙ          |  1.304182e+04 |  1.304182e+04 |  3.062840e-11 |
    Ewald self/kʙ             | -4.445846e+06 | -4.445846e+06 |  0.000000e+00 |
    Ewald exclusion/kʙ        |  4.416785e+06 |  4.416785e+06 |  0.000000e+00 |
    intra VDW/kʙ              |  0.000000e+00 |  0.000000e+00 |  0.000000e+00 |
    intra Coulombic/kʙ        |  0.000000e+00 |  0.000000e+00 |  0.000000e+00 |
    polarization/kʙ           |  0.000000e+00 |  0.000000e+00 |  0.000000e+00 |
    dU/dlambda VDW/kʙ         |  0.000000e+00 |  0.000000e+00 |  0.000000e+00 |
    dU/dlambda Real/kʙ        |  0.000000e+00 |  0.000000e+00 |  0.000000e+00 |
    dU/dlambda Ewald/kʙ       |  0.000000e+00 |  0.000000e+00 |  0.000000e+00 |
-------------------------------------------------------------------------------


Monte-Carlo moves statistics
===============================================================================

    Volume change        all:                6647
    Volume change        total:              6647
    Volume change        constructed:        6647
    Volume change        accepted:           2827
    Volume change        fraction:       0.425305
    Volume change        max-change:     0.033333

Component 0 [CO2]
    Reinsertion (CBMC)   all:              330557
    Reinsertion (CBMC)   total:            330557
    Reinsertion (CBMC)   constructed:      286351
    Reinsertion (CBMC)   accepted:           3141
    Reinsertion (CBMC)   fraction:       0.009502
    Reinsertion (CBMC)   max-change:     0.000000

    Translation          all:              331684
    Translation          total:            111028     110205     110451
    Translation          constructed:      110718     110205     110451
    Translation          accepted:          34917      48595      56859
    Translation          fraction:       0.314488   0.440951   0.514789
    Translation          max-change:     1.159420   0.780645   0.613636

    Rotation             all:              331112
    Rotation             total:            109975     110861     110276
    Rotation             constructed:      109933     110860     110276
    Rotation             accepted:          40715      56496      51874
    Rotation             fraction:       0.370221   0.509611   0.470402
    Rotation             max-change:     1.036437   0.655172   0.736842



Production run counting of the MC moves summed over systems and components
===============================================================================

Volume change                          6647 (0.6647 [%])
Reinsertion (CBMC)                   330557 (33.0557 [%])
Translation                          331684 (33.1684 [%])
Rotation                             331112 (33.1112 [%])

Production count MC-steps:          1000000 [-]
               All summed:          1000000 [-]
               difference:                0 [-]


Production run CPU timings of the MC moves
===============================================================================

Component 0 CO2

Rotation                             48.582358 [s]
    Ewald                            24.748442 [s]
    ExternalField-Molecule            0.012355 [s]
    Framework-Molecule                0.012068 [s]
    Molecule-Molecule                21.878291 [s]
    Overhead                          1.931202 [s]

Reinsertion (CBMC)                  166.921411 [s]
    Ewald                            21.535706 [s]
    NonEwald                        145.062700 [s]
    Overhead                          0.323005 [s]

Translation                          48.506516 [s]
    Ewald                            24.768055 [s]
    ExternalField-Molecule            0.010792 [s]
    Framework-Molecule                0.019450 [s]
    Molecule-Molecule                21.896148 [s]
    Overhead                          1.812071 [s]



Volume change                         41.165611 [s]
    Ewald                             17.913586 [s]
    NonEwald                          21.772228 [s]
    Tail                               1.248830 [s]

Property sampling                     0.284787 [s]
Energy/pressure sampling:             7.130552 [s]


Production run CPU timings of the MC moves summed over systems and components
===============================================================================


Translation                          48.506516 [s]
    Ewald                            24.768055 [s]
    ExternalField-Molecule            0.010792 [s]
    Framework-Molecule                0.019450 [s]
    Molecule-Molecule                21.896148 [s]
    Overhead                          1.812071 [s]

Rotation                             48.582358 [s]
    Ewald                            24.748442 [s]
    ExternalField-Molecule            0.012355 [s]
    Framework-Molecule                0.012068 [s]
    Molecule-Molecule                21.878291 [s]
    Overhead                          1.931202 [s]

Volume change                        41.165611 [s]
    Ewald                            17.913586 [s]
    NonEwald                         21.772228 [s]
    Tail                              1.248830 [s]
    Overhead                          0.230967 [s]

Reinsertion (CBMC)                  166.921411 [s]
    Ewald                            21.535706 [s]
    NonEwald                        145.062700 [s]
    Overhead                          0.323005 [s]

Property sampling:                    0.284787 [s]
Energy/pressure sampling:             7.130552 [s]

Production simulation time:         313.360536 [s]
                All summed:         312.591235 [s]
                  Overhead:           0.769301 [s]


Initalization simulation time:       62.059947 [s]
Equilibration simulation time:        0.000000 [s]
Production simulation time:         313.360536 [s]
Total simulation time:              375.420483 [s]


Energy averages and statistics:
===============================================================================

Framework-molecule energy:
-------------------------------------------------------------------------------



Framework-molecule energy contributions per energy type:
-------------------------------------------------------------------------------



Inter-molecular energy:
-------------------------------------------------------------------------------

    Inter-molecular energy/kʙ 0-0 [CO2-CO2]:
    ---------------------------------------------------------------------------
        Block[  0] -3.114169e+05
        Block[  1] -3.144027e+05
        Block[  2] -3.143468e+05
        Block[  3] -3.146090e+05
        Block[  4] -3.115816e+05
        -----------------------------------------------------------------------
        Average  -3.132714e+05 +/-  2.013341e+03 [K]



Inter-molecular energy contributions per energy type:
-------------------------------------------------------------------------------

    Van der Waals energy/kʙ 0-0 [CO2-CO2]:
    ---------------------------------------------------------------------------
        Block[  0] -2.218155e+05
        Block[  1] -2.231317e+05
        Block[  2] -2.233993e+05
        Block[  3] -2.241462e+05
        Block[  4] -2.216986e+05
        -----------------------------------------------------------------------
        Average  -2.228383e+05 +/-  1.310362e+03 [K]

    VDW Tail-Correction energy/kʙ 0-0 [CO2-CO2]:
    ---------------------------------------------------------------------------
        Block[  0] -9.520190e+03
        Block[  1] -9.586296e+03
        Block[  2] -9.571055e+03
        Block[  3] -9.590227e+03
        Block[  4] -9.513670e+03
        -----------------------------------------------------------------------
        Average  -9.556287e+03 +/-  4.557104e+01 [K]

    Coulomb Real energy/kʙ 0-0 [CO2-CO2]:
    ---------------------------------------------------------------------------
        Block[  0] -6.453493e+04
        Block[  1] -6.600812e+04
        Block[  2] -6.545484e+04
        Block[  3] -6.491384e+04
        Block[  4] -6.474527e+04
        -----------------------------------------------------------------------
        Average  -6.513140e+04 +/-  7.411063e+02 [K]

    Coulomb Fourier energy/kʙ 0-0 [CO2-CO2]:
    ---------------------------------------------------------------------------
        Block[  0] -1.554630e+04
        Block[  1] -1.567663e+04
        Block[  2] -1.592165e+04
        Block[  3] -1.595876e+04
        Block[  4] -1.562401e+04
        -----------------------------------------------------------------------
        Average  -1.574547e+04 +/-  2.286576e+02 [K]


Total energy/kʙ
-------------------------------------------------------------------------------
    Block[  0] -3.114169e+05
    Block[  1] -3.144027e+05
    Block[  2] -3.143468e+05
    Block[  3] -3.146090e+05
    Block[  4] -3.115816e+05
    ---------------------------------------------------------------------------
    Average  -3.132714e+05 +/-  2.013341e+03 [K]

Pressure averages and statistics:
===============================================================================

Average pressure tensor: 
-------------------------------------------------------------------------------
 2.1768e+02  2.5111e-01 -2.5367e+01 +/- 6.8687e+01 4.7820e+01 7.3649e+01 [bar]
 2.5111e-01  2.0226e+02  2.9463e+01 +/- 4.7820e+01 4.3229e+01 6.4577e+01 [bar]
-2.5367e+01  2.9463e+01  1.4809e+02 +/- 7.3649e+01 6.4577e+01 9.1786e+01 [bar]

    Block[  0]  5.123671e+07
    Block[  1]  5.155003e+07
    Block[  2]  5.149464e+07
    Block[  3]  5.156364e+07
    Block[  4]  5.108896e+07
    ---------------------------------------------------------------------------
    Ideal gas pressure   5.138680e+07 +/-  1.589394e-02 [Pa]
                         5.138680e+02 +/-  2.639253e+00 [bar]


    Block[  0] -3.193695e+07
    Block[  1] -3.174506e+07
    Block[  2] -3.504649e+07
    Block[  3] -3.268643e+07
    Block[  4] -3.084811e+07
    ---------------------------------------------------------------------------
    Excess pressure  -3.245261e+07 +/-  1.975047e+06 [Pa]
                     -3.245261e+02 +/-  1.975047e+01 [bar]


    Block[  0]  1.929975e+07
    Block[  1]  1.980497e+07
    Block[  2]  1.644815e+07
    Block[  3]  1.887721e+07
    Block[  4]  2.024086e+07
    ---------------------------------------------------------------------------
    Pressure average   1.893419e+07 +/-  1.839603e+06 [Pa]
                       1.893419e+02 +/-  1.839603e+01 [bar]


Enthalpy of adsorption
===============================================================================

No fluctuating components present.


Densities
===============================================================================

Component 0 (CO2)
    Block[  0] 200
    Block[  1] 200
    Block[  2] 200
    Block[  3] 200
    Block[  4] 200
    -----------------------------------------------------------------------
    Density average   2.000000e+02 +/-  0.000000e+00 [molecules]
    Density average   1.488771e-02 +/-  7.646406e-05 [molec/A^3]
    Density average   1.087721e+03 +/-  5.586595e+00 [kg.m⁻³]

