Compiler and run-time data
===============================================================================
RASPA 3.0.4

Random seed: 2951912554

Compiled as a 64-bits application
Compiler: gcc Ubuntu Clang 18.1.3 (1ubuntu1)
Compile Date = Mar 15 2025, Compile Time = 19:39:45

2025-06-02 13:11:29.150598
Simulation started on Mon, Jun 02
The start time was 13:11:00

Hostname:    c062
OS type:     Linux on x86_64
OS release:  6.8.0-58-generic
OS version:  #60-Ubuntu SMP PREEMPT_DYNAMIC Fri Mar 14 18:29:48 UTC 2025


Mutual consistent basic set of units:
===============================================================================

Unit of temperature: 1 [K]
Unit of length:      1e-10 [m]
Unit of time:        1e-12 [s]
Unit of mass:        1.6605402e-27 [kg]
Unit of charge:      1.60217733e-19 [C/particle]


Boltzmann constant (internal units):          0.8314464919307584 [-]
represents conversion from energy (internal units) to temperature (in Kelvin)

Derived units and their conversion factors:
===============================================================================

Unit of energy:                           1.6605402000000002e-23 [J]
Unit of energy:                           10.000008872307538 [J.mol⁻¹]
Unit of velocity:                         100 [m.s⁻¹]
Unit of force:                            1.6605402000000002e-13 [N]
Unit of diffusion:                        1.0000000000000002e-08 [m².s⁻¹]
Unit of acceleration:                     1.0000000000000002e-08 [m².s⁻¹]
Unit of torque:                           1.6605402000000002e-23 [N.m]
Unit of pressure:                         16605402 [Pa]
Unit of volume:                           1e-30 [m³]
Unit of density:                          1660.5402 [kg.m⁻³]
Unit of dynamic viscosity:                1.6605401999999997e-05 [N.s.m⁻²]
Unit of enthalpy:                         1.6605402000000002e-23 [J]
Unit of polarizability:                   1.5458657349975198e-35 [-]
Unit of Coulomb potential:                167101.08000665612 [K]
Unit of dielectric constant:              1.5458657349975193e-05 [s².C².kg⁻¹.m⁻³]
Unit of dipole moment:                    1.60217733e-29 [C.m]
Unit of Debye:                            4.803206799099162 [C.m]
Unit of electric potential:               0.00010364272224473431 [V]
Unit of electric field:                   1036427.222447343 [V.m⁻¹]
Unit of isothermal compressibility:       6.02213665167516e-08 [Pa⁻¹]
Unit of heat capacity:                    10.000008872307538 [J.mol⁻¹.K⁻¹]
Unit of volumetric expansion coefficient: 1 [K⁻¹]


Internal conversion factors:
===============================================================================

Energy (internal units) to Kelvin:      1.202724284692786 [-]
Kelvin to energy (internal units):      0.8314457542157567 [-]


System definitions
===============================================================================

Temperature:          250 [K]
Beta:                 0.0048108928702210625 [-]
Pressure:             1.6e+07 [Pa]
Helium void fraction: 1 [-]

Box:      30.00000   0.00000   0.00000
           0.00000  30.00000   0.00000
           0.00000   0.00000  30.00000
Lengths:  30.00000  30.00000  30.00000
Angles:   90.00000  90.00000  90.00000
Rectangular boundary conditions



Property measurement settings
===============================================================================




Pseudo-atoms
===============================================================================

  0 - C_co2    framework-atom: false
  1 - O_co2    framework-atom: false

  0 - C_co2    mass: 12.00000, charge:  0.70000
  1 - O_co2    mass: 15.99940, charge: -0.35000

  0 - C_co2    polarizability:  0.00000
  1 - O_co2    polarizability:  0.00000

  0 - J. J. Potoff et al., AIChE J. 2001, 47, 1676–1682.
  1 - J. J. Potoff et al., AIChE J. 2001, 47, 1676–1682.

Force field status
===============================================================================

Cutoff Framework-Molecule VDW:  11.00000 [Å]
Cutoff Molecule-Molecule VDW:   11.00000 [Å]
Cutoff Coulomb:                 11.00000 [Å]

Overlap-criteria VDW:           1.000000e+05 [K]

C_co2    - C_co2    Lennard-Jones p₀/kʙ:  27.00000 [K], p₁:  2.80000 [Å]
                                  shift:   0.00000 [K], tailcorrections: true
C_co2    - O_co2    Lennard-Jones p₀/kʙ:  46.18441 [K], p₁:  2.92500 [Å]
                                  shift:   0.00000 [K], tailcorrections: true
O_co2    - O_co2    Lennard-Jones p₀/kʙ:  79.00000 [K], p₁:  3.05000 [Å]
                                  shift:   0.00000 [K], tailcorrections: true

Ewald precision: 1e-06
Ewald alpha: 0.2903408740940883
Ewald k-vectors: 9 9 9


Component definitions
===============================================================================

Component 0 [CO2]

    Type: Adsorbate

    Critical temperature:  304.1282 [K]
    Critical pressure:     7377300 [Pa]
    Acentric factor:       0.22394 [-]

    Mol-fraction:                 1 [-]
    Swappable:                   false

    Mass:                         43.9988 [-]
    Bulk fluid density:           0 [-]
    Compressibility:              0 [-]
    Excess molecules:             0 [-]

    Number Of Atoms:    3
    CBMC starting bead: 0
      0: O_co2  position  0.00000 -0.00000  1.16000, charge -0.35000
      1: C_co2  position  0.00000 -0.00000  0.00000, charge  0.70000
      2: O_co2  position  0.00000 -0.00000 -1.16000, charge -0.35000
    Diagonalized inertia-vector:      43.05758528 43.05758528 0.00000000
    Translational degrees of freedom: 3
    Rotational degrees of freedom:    2
    Shape of the molecule is: 'Linear'
    Net-charge:        0.00000000 [e]

    Move probabilities:
    Translation:                   0.331126 [-]
    Random translation:            0.000000 [-]
    Rotation:                      0.331126 [-]
    Random rotation:               0.000000 [-]
    Volume change:                 0.006623 [-]
    Reinsertion (CBMC):            0.331126 [-]
    Identity change (CBMC):        0.000000 [-]
    Swap:                          0.000000 [-]
    Swap (CBMC):                   0.000000 [-]
    Swap (CFCMC):                  0.000000 [-]
    Swap (CB/CFCMC):               0.000000 [-]
    Gibbs volume:                  0.000000 [-]
    Gibbs swap (CBMC):             0.000000 [-]
    Gibbs swap (CFCMC):            0.000000 [-]
    Widom:                         0.000000 [-]
    Widom (CFCMC):                 0.000000 [-]
    Widom (CB/CFCMC):              0.000000 [-]
    Parallel tempering:            0.000000 [-]
    Hybrid MC:                     0.000000 [-]

    number of blocking-pockets: 0

    number of bonds: 0





Number of pseudo-atoms
===============================================================================

Component   0 (CO2)
-------------------------------------------------------------------------------
    index   0 (C_co2): 250 atoms
    index   1 (O_co2): 500 atoms

Total number of pseudo-atoms:
-------------------------------------------------------------------------------
    index   0 (C_co2): 250 atoms
    index   1 (O_co2): 500 atoms




Energy status Recomputed from scratch
===============================================================================

Total potential energy/kʙ       -1.401057e+05 [K]
    external field VDW/kʙ        0.000000e+00 [K]
    external field Real/kʙ       0.000000e+00 [K]
    framework-molecule VDW/kʙ    0.000000e+00 [K]
    framework-molecule Real/kʙ   0.000000e+00 [K]
    molecule-molecule VDW/kʙ    -1.080488e+05 [K]
    molecule-molecule Real/kʙ   -2.354709e+04 [K]
    Van der Waals (Tail)/kʙ     -5.580763e+03 [K]
    Ewald Fourier/kʙ             1.976235e+04 [K]
    Ewald self/kʙ               -5.029674e+06 [K]
    Ewald exclusion/kʙ           5.006983e+06 [K]
    intra VDW/kʙ                 0.000000e+00 [K]
    intra Coulombic/kʙ           0.000000e+00 [K]
    polarization/kʙ              0.000000e+00 [K]
    dU/dlambda VDW/kʙ            0.000000e+00 [K]
    dU/dlambda Real/kʙ           0.000000e+00 [K]
    dU/dlambda Ewald/kʙ          0.000000e+00 [K]





Initialization: Current cycle: 0 out of 1000
===============================================================================

Box:      30.99646   0.00000   0.00000
           0.00000  30.99646   0.00000
           0.00000   0.00000  30.99646
Lengths:  30.99646  30.99646  30.99646
Angles:   90.00000  90.00000  90.00000
Rectangular boundary conditions

net charge:   0.00000000

component   0 (CO2) lambda:  0 occupancy:  1 (1.000000)
    net charge:   0.00000000 [e]

Amount of molecules per component :
-------------------------------------------------------------------------------
Component 0 (CO2)
    molecules:         2.500000e+02 molecules
    number density:    8.394672e-03 molec/A^3
    density:           6.133291e+02 kg/m^3

Total potential energy/kʙ       -1.840723e+05 [K]
-------------------------------------------------------------------------------
    external field VDW/kʙ        0.000000e+00 [K]
    external field Real/kʙ       0.000000e+00 [K]
    framework-molecule VDW/kʙ    0.000000e+00 [K]
    framework-molecule Real/kʙ   0.000000e+00 [K]
    molecule-molecule VDW/kʙ    -1.535589e+05 [K]
    molecule-molecule Real/kʙ   -2.157653e+04 [K]
    Van der Waals (Tail)/kʙ     -5.059657e+03 [K]
    Ewald Fourier/kʙ             1.881414e+04 [K]
    Ewald self/kʙ               -5.029674e+06 [K]
    Ewald exclusion/kʙ           5.006983e+06 [K]
    intra VDW/kʙ                 0.000000e+00 [K]
    intra Coulombic/kʙ           0.000000e+00 [K]
    polarization/kʙ              0.000000e+00 [K]
    dU/dlambda VDW/kʙ            0.000000e+00 [K]
    dU/dlambda Real/kʙ           0.000000e+00 [K]
    dU/dlambda Ewald/kʙ          0.000000e+00 [K]


Initialization: Current cycle: 100 out of 1000
===============================================================================

Box:      27.72527   0.00000   0.00000
           0.00000  27.72527   0.00000
           0.00000   0.00000  27.72527
Lengths:  27.72527  27.72527  27.72527
Angles:   90.00000  90.00000  90.00000
Rectangular boundary conditions

net charge:   0.00000000

component   0 (CO2) lambda:  0 occupancy:  1 (1.000000)
    net charge:   0.00000000 [e]

Amount of molecules per component :
-------------------------------------------------------------------------------
Component 0 (CO2)
    molecules:         2.500000e+02 molecules
    number density:    1.173040e-02 molec/A^3
    density:           8.570428e+02 kg/m^3

Total potential energy/kʙ       -3.228321e+05 [K]
-------------------------------------------------------------------------------
    external field VDW/kʙ        0.000000e+00 [K]
    external field Real/kʙ       0.000000e+00 [K]
    framework-molecule VDW/kʙ    0.000000e+00 [K]
    framework-molecule Real/kʙ   0.000000e+00 [K]
    molecule-molecule VDW/kʙ    -2.322464e+05 [K]
    molecule-molecule Real/kʙ   -7.301958e+04 [K]
    Van der Waals (Tail)/kʙ     -7.070172e+03 [K]
    Ewald Fourier/kʙ             1.219541e+04 [K]
    Ewald self/kʙ               -5.029674e+06 [K]
    Ewald exclusion/kʙ           5.006983e+06 [K]
    intra VDW/kʙ                 0.000000e+00 [K]
    intra Coulombic/kʙ           0.000000e+00 [K]
    polarization/kʙ              0.000000e+00 [K]
    dU/dlambda VDW/kʙ            0.000000e+00 [K]
    dU/dlambda Real/kʙ           0.000000e+00 [K]
    dU/dlambda Ewald/kʙ          0.000000e+00 [K]


Initialization: Current cycle: 200 out of 1000
===============================================================================

Box:      26.38067   0.00000   0.00000
           0.00000  26.38067   0.00000
           0.00000   0.00000  26.38067
Lengths:  26.38067  26.38067  26.38067
Angles:   90.00000  90.00000  90.00000
Rectangular boundary conditions

net charge:   0.00000000

component   0 (CO2) lambda:  0 occupancy:  1 (1.000000)
    net charge:   0.00000000 [e]

Amount of molecules per component :
-------------------------------------------------------------------------------
Component 0 (CO2)
    molecules:         2.500000e+02 molecules
    number density:    1.361703e-02 molec/A^3
    density:           9.948837e+02 kg/m^3

Total potential energy/kʙ       -3.458041e+05 [K]
-------------------------------------------------------------------------------
    external field VDW/kʙ        0.000000e+00 [K]
    external field Real/kʙ       0.000000e+00 [K]
    framework-molecule VDW/kʙ    0.000000e+00 [K]
    framework-molecule Real/kʙ   0.000000e+00 [K]
    molecule-molecule VDW/kʙ    -2.533620e+05 [K]
    molecule-molecule Real/kʙ   -7.311205e+04 [K]
    Van der Waals (Tail)/kʙ     -8.207290e+03 [K]
    Ewald Fourier/kʙ             1.156861e+04 [K]
    Ewald self/kʙ               -5.029674e+06 [K]
    Ewald exclusion/kʙ           5.006983e+06 [K]
    intra VDW/kʙ                 0.000000e+00 [K]
    intra Coulombic/kʙ           0.000000e+00 [K]
    polarization/kʙ              0.000000e+00 [K]
    dU/dlambda VDW/kʙ            0.000000e+00 [K]
    dU/dlambda Real/kʙ           0.000000e+00 [K]
    dU/dlambda Ewald/kʙ          0.000000e+00 [K]


Initialization: Current cycle: 300 out of 1000
===============================================================================

Box:      26.07034   0.00000   0.00000
           0.00000  26.07034   0.00000
           0.00000   0.00000  26.07034
Lengths:  26.07034  26.07034  26.07034
Angles:   90.00000  90.00000  90.00000
Rectangular boundary conditions

net charge:   0.00000000

component   0 (CO2) lambda:  0 occupancy:  1 (1.000000)
    net charge:   0.00000000 [e]

Amount of molecules per component :
-------------------------------------------------------------------------------
Component 0 (CO2)
    molecules:         2.500000e+02 molecules
    number density:    1.410911e-02 molec/A^3
    density:           1.030836e+03 kg/m^3

Total potential energy/kʙ       -3.723548e+05 [K]
-------------------------------------------------------------------------------
    external field VDW/kʙ        0.000000e+00 [K]
    external field Real/kʙ       0.000000e+00 [K]
    framework-molecule VDW/kʙ    0.000000e+00 [K]
    framework-molecule Real/kʙ   0.000000e+00 [K]
    molecule-molecule VDW/kʙ    -2.695964e+05 [K]
    molecule-molecule Real/kʙ   -8.231965e+04 [K]
    Van der Waals (Tail)/kʙ     -8.503878e+03 [K]
    Ewald Fourier/kʙ             1.075654e+04 [K]
    Ewald self/kʙ               -5.029674e+06 [K]
    Ewald exclusion/kʙ           5.006983e+06 [K]
    intra VDW/kʙ                 0.000000e+00 [K]
    intra Coulombic/kʙ           0.000000e+00 [K]
    polarization/kʙ              0.000000e+00 [K]
    dU/dlambda VDW/kʙ            0.000000e+00 [K]
    dU/dlambda Real/kʙ           0.000000e+00 [K]
    dU/dlambda Ewald/kʙ          0.000000e+00 [K]


Initialization: Current cycle: 400 out of 1000
===============================================================================

Box:      26.11322   0.00000   0.00000
           0.00000  26.11322   0.00000
           0.00000   0.00000  26.11322
Lengths:  26.11322  26.11322  26.11322
Angles:   90.00000  90.00000  90.00000
Rectangular boundary conditions

net charge:   0.00000000

component   0 (CO2) lambda:  0 occupancy:  1 (1.000000)
    net charge:   0.00000000 [e]

Amount of molecules per component :
-------------------------------------------------------------------------------
Component 0 (CO2)
    molecules:         2.500000e+02 molecules
    number density:    1.403973e-02 molec/A^3
    density:           1.025767e+03 kg/m^3

Total potential energy/kʙ       -3.642813e+05 [K]
-------------------------------------------------------------------------------
    external field VDW/kʙ        0.000000e+00 [K]
    external field Real/kʙ       0.000000e+00 [K]
    framework-molecule VDW/kʙ    0.000000e+00 [K]
    framework-molecule Real/kʙ   0.000000e+00 [K]
    molecule-molecule VDW/kʙ    -2.655171e+05 [K]
    molecule-molecule Real/kʙ   -7.767800e+04 [K]
    Van der Waals (Tail)/kʙ     -8.462060e+03 [K]
    Ewald Fourier/kʙ             1.006727e+04 [K]
    Ewald self/kʙ               -5.029674e+06 [K]
    Ewald exclusion/kʙ           5.006983e+06 [K]
    intra VDW/kʙ                 0.000000e+00 [K]
    intra Coulombic/kʙ           0.000000e+00 [K]
    polarization/kʙ              0.000000e+00 [K]
    dU/dlambda VDW/kʙ            0.000000e+00 [K]
    dU/dlambda Real/kʙ           0.000000e+00 [K]
    dU/dlambda Ewald/kʙ          0.000000e+00 [K]


Initialization: Current cycle: 500 out of 1000
===============================================================================

Box:      26.07160   0.00000   0.00000
           0.00000  26.07160   0.00000
           0.00000   0.00000  26.07160
Lengths:  26.07160  26.07160  26.07160
Angles:   90.00000  90.00000  90.00000
Rectangular boundary conditions

net charge:   0.00000000

component   0 (CO2) lambda:  0 occupancy:  1 (1.000000)
    net charge:   0.00000000 [e]

Amount of molecules per component :
-------------------------------------------------------------------------------
Component 0 (CO2)
    molecules:         2.500000e+02 molecules
    number density:    1.410708e-02 molec/A^3
    density:           1.030688e+03 kg/m^3

Total potential energy/kʙ       -3.638781e+05 [K]
-------------------------------------------------------------------------------
    external field VDW/kʙ        0.000000e+00 [K]
    external field Real/kʙ       0.000000e+00 [K]
    framework-molecule VDW/kʙ    0.000000e+00 [K]
    framework-molecule Real/kʙ   0.000000e+00 [K]
    molecule-molecule VDW/kʙ    -2.668478e+05 [K]
    molecule-molecule Real/kʙ   -7.672571e+04 [K]
    Van der Waals (Tail)/kʙ     -8.502654e+03 [K]
    Ewald Fourier/kʙ             1.088940e+04 [K]
    Ewald self/kʙ               -5.029674e+06 [K]
    Ewald exclusion/kʙ           5.006983e+06 [K]
    intra VDW/kʙ                 0.000000e+00 [K]
    intra Coulombic/kʙ           0.000000e+00 [K]
    polarization/kʙ              0.000000e+00 [K]
    dU/dlambda VDW/kʙ            0.000000e+00 [K]
    dU/dlambda Real/kʙ           0.000000e+00 [K]
    dU/dlambda Ewald/kʙ          0.000000e+00 [K]


Initialization: Current cycle: 600 out of 1000
===============================================================================

Box:      25.98484   0.00000   0.00000
           0.00000  25.98484   0.00000
           0.00000   0.00000  25.98484
Lengths:  25.98484  25.98484  25.98484
Angles:   90.00000  90.00000  90.00000
Rectangular boundary conditions

net charge:   0.00000000

component   0 (CO2) lambda:  0 occupancy:  1 (1.000000)
    net charge:   0.00000000 [e]

Amount of molecules per component :
-------------------------------------------------------------------------------
Component 0 (CO2)
    molecules:         2.500000e+02 molecules
    number density:    1.424885e-02 molec/A^3
    density:           1.041046e+03 kg/m^3

Total potential energy/kʙ       -3.689712e+05 [K]
-------------------------------------------------------------------------------
    external field VDW/kʙ        0.000000e+00 [K]
    external field Real/kʙ       0.000000e+00 [K]
    framework-molecule VDW/kʙ    0.000000e+00 [K]
    framework-molecule Real/kʙ   0.000000e+00 [K]
    molecule-molecule VDW/kʙ    -2.701945e+05 [K]
    molecule-molecule Real/kʙ   -7.808524e+04 [K]
    Van der Waals (Tail)/kʙ     -8.588102e+03 [K]
    Ewald Fourier/kʙ             1.058803e+04 [K]
    Ewald self/kʙ               -5.029674e+06 [K]
    Ewald exclusion/kʙ           5.006983e+06 [K]
    intra VDW/kʙ                 0.000000e+00 [K]
    intra Coulombic/kʙ           0.000000e+00 [K]
    polarization/kʙ              0.000000e+00 [K]
    dU/dlambda VDW/kʙ            0.000000e+00 [K]
    dU/dlambda Real/kʙ           0.000000e+00 [K]
    dU/dlambda Ewald/kʙ          0.000000e+00 [K]


Initialization: Current cycle: 700 out of 1000
===============================================================================

Box:      25.67863   0.00000   0.00000
           0.00000  25.67863   0.00000
           0.00000   0.00000  25.67863
Lengths:  25.67863  25.67863  25.67863
Angles:   90.00000  90.00000  90.00000
Rectangular boundary conditions

net charge:   0.00000000

component   0 (CO2) lambda:  0 occupancy:  1 (1.000000)
    net charge:   0.00000000 [e]

Amount of molecules per component :
-------------------------------------------------------------------------------
Component 0 (CO2)
    molecules:         2.500000e+02 molecules
    number density:    1.476470e-02 molec/A^3
    density:           1.078734e+03 kg/m^3

Total potential energy/kʙ       -3.857666e+05 [K]
-------------------------------------------------------------------------------
    external field VDW/kʙ        0.000000e+00 [K]
    external field Real/kʙ       0.000000e+00 [K]
    framework-molecule VDW/kʙ    0.000000e+00 [K]
    framework-molecule Real/kʙ   0.000000e+00 [K]
    molecule-molecule VDW/kʙ    -2.788349e+05 [K]
    molecule-molecule Real/kʙ   -8.480642e+04 [K]
    Van der Waals (Tail)/kʙ     -8.899016e+03 [K]
    Ewald Fourier/kʙ             9.465059e+03 [K]
    Ewald self/kʙ               -5.029674e+06 [K]
    Ewald exclusion/kʙ           5.006983e+06 [K]
    intra VDW/kʙ                 0.000000e+00 [K]
    intra Coulombic/kʙ           0.000000e+00 [K]
    polarization/kʙ              0.000000e+00 [K]
    dU/dlambda VDW/kʙ            0.000000e+00 [K]
    dU/dlambda Real/kʙ           0.000000e+00 [K]
    dU/dlambda Ewald/kʙ          0.000000e+00 [K]


Initialization: Current cycle: 800 out of 1000
===============================================================================

Box:      25.66948   0.00000   0.00000
           0.00000  25.66948   0.00000
           0.00000   0.00000  25.66948
Lengths:  25.66948  25.66948  25.66948
Angles:   90.00000  90.00000  90.00000
Rectangular boundary conditions

net charge:   0.00000000

component   0 (CO2) lambda:  0 occupancy:  1 (1.000000)
    net charge:   0.00000000 [e]

Amount of molecules per component :
-------------------------------------------------------------------------------
Component 0 (CO2)
    molecules:         2.500000e+02 molecules
    number density:    1.478048e-02 molec/A^3
    density:           1.079887e+03 kg/m^3

Total potential energy/kʙ       -3.906690e+05 [K]
-------------------------------------------------------------------------------
    external field VDW/kʙ        0.000000e+00 [K]
    external field Real/kʙ       0.000000e+00 [K]
    framework-molecule VDW/kʙ    0.000000e+00 [K]
    framework-molecule Real/kʙ   0.000000e+00 [K]
    molecule-molecule VDW/kʙ    -2.777090e+05 [K]
    molecule-molecule Real/kʙ   -9.020487e+04 [K]
    Van der Waals (Tail)/kʙ     -8.908526e+03 [K]
    Ewald Fourier/kʙ             8.844673e+03 [K]
    Ewald self/kʙ               -5.029674e+06 [K]
    Ewald exclusion/kʙ           5.006983e+06 [K]
    intra VDW/kʙ                 0.000000e+00 [K]
    intra Coulombic/kʙ           0.000000e+00 [K]
    polarization/kʙ              0.000000e+00 [K]
    dU/dlambda VDW/kʙ            0.000000e+00 [K]
    dU/dlambda Real/kʙ           0.000000e+00 [K]
    dU/dlambda Ewald/kʙ          0.000000e+00 [K]


Initialization: Current cycle: 900 out of 1000
===============================================================================

Box:      25.68621   0.00000   0.00000
           0.00000  25.68621   0.00000
           0.00000   0.00000  25.68621
Lengths:  25.68621  25.68621  25.68621
Angles:   90.00000  90.00000  90.00000
Rectangular boundary conditions

net charge:   0.00000000

component   0 (CO2) lambda:  0 occupancy:  1 (1.000000)
    net charge:   0.00000000 [e]

Amount of molecules per component :
-------------------------------------------------------------------------------
Component 0 (CO2)
    molecules:         2.500000e+02 molecules
    number density:    1.475162e-02 molec/A^3
    density:           1.077779e+03 kg/m^3

Total potential energy/kʙ       -3.761655e+05 [K]
-------------------------------------------------------------------------------
    external field VDW/kʙ        0.000000e+00 [K]
    external field Real/kʙ       0.000000e+00 [K]
    framework-molecule VDW/kʙ    0.000000e+00 [K]
    framework-molecule Real/kʙ   0.000000e+00 [K]
    molecule-molecule VDW/kʙ    -2.683986e+05 [K]
    molecule-molecule Real/kʙ   -8.619915e+04 [K]
    Van der Waals (Tail)/kʙ     -8.891134e+03 [K]
    Ewald Fourier/kʙ             1.001476e+04 [K]
    Ewald self/kʙ               -5.029674e+06 [K]
    Ewald exclusion/kʙ           5.006983e+06 [K]
    intra VDW/kʙ                 0.000000e+00 [K]
    intra Coulombic/kʙ           0.000000e+00 [K]
    polarization/kʙ              0.000000e+00 [K]
    dU/dlambda VDW/kʙ            0.000000e+00 [K]
    dU/dlambda Real/kʙ           0.000000e+00 [K]
    dU/dlambda Ewald/kʙ          0.000000e+00 [K]


Current cycle: 0 out of 5000
===============================================================================

Box:      26.07422   0.00000   0.00000  Average:  26.07422   0.00000   0.00000
           0.00000  26.07422   0.00000             0.00000  26.07422   0.00000
           0.00000   0.00000  26.07422             0.00000   0.00000  26.07422
Lengths:  26.07422  26.07422  26.07422  Average:  26.07422  26.07422  26.07422
Angles:   90.00000  90.00000  90.00000  Average:  90.00000  90.00000  90.00000
Rectangular boundary conditions

net charge:   0.00000000

component 0 (CO2) lambda:  0 occupancy:  1 (1.000000)
    net charge:   0.00000000 [e]

Amount of molecules per component :
-------------------------------------------------------------------------------
Component 0 (CO2)
    molecules:      2.500000e+02 molecules  (2.500000e+02 +/- 0.000000e+00)
    number density: 1.410282e-02 molec./A^3 (1.410282e-02 +/- 0.000000e+00)
    density:        1.030376e+03 kg/m^3     (1.030376e+03 +/- 0.000000e+00)

Average pressure tensor: 
-------------------------------------------------------------------------------
 4.8678e+02  0.0000e+00  0.0000e+00 +/- 0.0000e+00 0.0000e+00 0.0000e+00 [bar]
 0.0000e+00  4.8678e+02  0.0000e+00 +/- 0.0000e+00 0.0000e+00 0.0000e+00 [bar]
 0.0000e+00  0.0000e+00  4.8678e+02 +/- 0.0000e+00 0.0000e+00 0.0000e+00 [bar]
Ideal-gas pressure:   4.867767e+02 +/ 0.000000e+00 [bar]
Excess pressure:      0.000000e+00 +/ 0.000000e+00 [bar]
Pressure:             4.867767e+02 +/ 0.000000e+00 [bar]

Total potential energy/kʙ  -3.781905e+05 (-3.781905e+05 +/- 0.000000e+00) [K]
-------------------------------------------------------------------------------
ExternalField-molecule
    Van der Waals/kʙ        0.000000e+00 ( 0.000000e+00 +/- 0.000000e+00) [K]
Framework-molecule
    Van der Waals/kʙ        0.000000e+00 ( 0.000000e+00 +/- 0.000000e+00) [K]
    Van der Waals (Tail)/kʙ 0.000000e+00 ( 0.000000e+00 +/- 0.000000e+00) [K]
    Coulombic Real/kʙ       0.000000e+00 ( 0.000000e+00 +/- 0.000000e+00) [K]
    Coulombic Fourier/kʙ    0.000000e+00 ( 0.000000e+00 +/- 0.000000e+00) [K]
Molecule-molecule
    Van der Waals/kʙ       -2.722588e+05 (-2.722588e+05 +/- 0.000000e+00) [K]
    Van der Waals (Tail)/kʙ-8.500087e+03 (-8.500087e+03 +/- 0.000000e+00) [K]
    Coulombic Real/kʙ      -8.442174e+04 (-8.442174e+04 +/- 0.000000e+00) [K]
    Coulombic Fourier/kʙ   -1.300989e+04 (-1.300989e+04 +/- 0.000000e+00) [K]
    Molecule Intra/kʙ       0.000000e+00 ( 0.000000e+00 +/- 0.000000e+00) [K]

Current cycle: 100 out of 5000
===============================================================================

Box:      26.12464   0.00000   0.00000  Average:  25.93329   0.00000   0.00000
           0.00000  26.12464   0.00000             0.00000  25.93329   0.00000
           0.00000   0.00000  26.12464             0.00000   0.00000  25.93329
Lengths:  26.12464  26.12464  26.12464  Average:  25.93329  25.93329  25.93329
Angles:   90.00000  90.00000  90.00000  Average:  90.00000  90.00000  90.00000
Rectangular boundary conditions

net charge:   0.00000000

component 0 (CO2) lambda:  0 occupancy:  1 (1.000000)
    net charge:   0.00000000 [e]

Amount of molecules per component :
-------------------------------------------------------------------------------
Component 0 (CO2)
    molecules:      2.500000e+02 molecules  (2.500000e+02 +/- 0.000000e+00)
    number density: 1.402133e-02 molec./A^3 (1.433588e-02 +/- 0.000000e+00)
    density:        1.024422e+03 kg/m^3     (1.047404e+03 +/- 0.000000e+00)

Average pressure tensor: 
-------------------------------------------------------------------------------
 3.5155e+01  5.8816e+01 -7.7701e+00 +/- 0.0000e+00 0.0000e+00 0.0000e+00 [bar]
 5.8816e+01  2.2142e+02 -3.3091e+01 +/- 0.0000e+00 0.0000e+00 0.0000e+00 [bar]
-7.7701e+00 -3.3091e+01  8.6573e+01 +/- 0.0000e+00 0.0000e+00 0.0000e+00 [bar]
Ideal-gas pressure:   4.948211e+02 +/ 0.000000e+00 [bar]
Excess pressure:     -3.804381e+02 +/ 0.000000e+00 [bar]
Pressure:             1.143830e+02 +/ 0.000000e+00 [bar]

Total potential energy/kʙ  -3.640823e+05 (-3.722590e+05 +/- 0.000000e+00) [K]
-------------------------------------------------------------------------------
ExternalField-molecule
    Van der Waals/kʙ        0.000000e+00 ( 0.000000e+00 +/- 0.000000e+00) [K]
Framework-molecule
    Van der Waals/kʙ        0.000000e+00 ( 0.000000e+00 +/- 0.000000e+00) [K]
    Van der Waals (Tail)/kʙ 0.000000e+00 ( 0.000000e+00 +/- 0.000000e+00) [K]
    Coulombic Real/kʙ       0.000000e+00 ( 0.000000e+00 +/- 0.000000e+00) [K]
    Coulombic Fourier/kʙ    0.000000e+00 ( 0.000000e+00 +/- 0.000000e+00) [K]
Molecule-molecule
    Van der Waals/kʙ       -2.648170e+05 (-2.697660e+05 +/- 0.000000e+00) [K]
    Van der Waals (Tail)/kʙ-8.450968e+03 (-8.620466e+03 +/- 0.000000e+00) [K]
    Coulombic Real/kʙ      -7.835018e+04 (-8.084186e+04 +/- 0.000000e+00) [K]
    Coulombic Fourier/kʙ   -1.246417e+04 (-1.303074e+04 +/- 0.000000e+00) [K]
    Molecule Intra/kʙ       0.000000e+00 ( 0.000000e+00 +/- 0.000000e+00) [K]

Current cycle: 200 out of 5000
===============================================================================

Box:      26.34752   0.00000   0.00000  Average:  26.03333   0.00000   0.00000
           0.00000  26.34752   0.00000             0.00000  26.03333   0.00000
           0.00000   0.00000  26.34752             0.00000   0.00000  26.03333
Lengths:  26.34752  26.34752  26.34752  Average:  26.03333  26.03333  26.03333
Angles:   90.00000  90.00000  90.00000  Average:  90.00000  90.00000  90.00000
Rectangular boundary conditions

net charge:   0.00000000

component 0 (CO2) lambda:  0 occupancy:  1 (1.000000)
    net charge:   0.00000000 [e]

Amount of molecules per component :
-------------------------------------------------------------------------------
Component 0 (CO2)
    molecules:      2.500000e+02 molecules  (2.500000e+02 +/- 0.000000e+00)
    number density: 1.366850e-02 molec./A^3 (1.417181e-02 +/- 0.000000e+00)
    density:        9.986438e+02 kg/m^3     (1.035417e+03 +/- 0.000000e+00)

Average pressure tensor: 
-------------------------------------------------------------------------------
 8.3698e+01  1.9976e+01  5.5448e+01 +/- 0.0000e+00 0.0000e+00 0.0000e+00 [bar]
 1.9976e+01  1.6498e+02 -5.1205e+01 +/- 0.0000e+00 0.0000e+00 0.0000e+00 [bar]
 5.5448e+01 -5.1205e+01  1.3553e+02 +/- 0.0000e+00 0.0000e+00 0.0000e+00 [bar]
Ideal-gas pressure:   4.891578e+02 +/ 0.000000e+00 [bar]
Excess pressure:     -3.610888e+02 +/ 0.000000e+00 [bar]
Pressure:             1.280690e+02 +/ 0.000000e+00 [bar]

Total potential energy/kʙ  -3.596990e+05 (-3.678437e+05 +/- 0.000000e+00) [K]
-------------------------------------------------------------------------------
ExternalField-molecule
    Van der Waals/kʙ        0.000000e+00 ( 0.000000e+00 +/- 0.000000e+00) [K]
Framework-molecule
    Van der Waals/kʙ        0.000000e+00 ( 0.000000e+00 +/- 0.000000e+00) [K]
    Van der Waals (Tail)/kʙ 0.000000e+00 ( 0.000000e+00 +/- 0.000000e+00) [K]
    Coulombic Real/kʙ       0.000000e+00 ( 0.000000e+00 +/- 0.000000e+00) [K]
    Coulombic Fourier/kʙ    0.000000e+00 ( 0.000000e+00 +/- 0.000000e+00) [K]
Molecule-molecule
    Van der Waals/kʙ       -2.598202e+05 (-2.663469e+05 +/- 0.000000e+00) [K]
    Van der Waals (Tail)/kʙ-8.238309e+03 (-8.532902e+03 +/- 0.000000e+00) [K]
    Coulombic Real/kʙ      -7.920195e+04 (-8.026496e+04 +/- 0.000000e+00) [K]
    Coulombic Fourier/kʙ   -1.243855e+04 (-1.269898e+04 +/- 0.000000e+00) [K]
    Molecule Intra/kʙ       0.000000e+00 ( 0.000000e+00 +/- 0.000000e+00) [K]

Current cycle: 300 out of 5000
===============================================================================

Box:      25.91000   0.00000   0.00000  Average:  26.06643   0.00000   0.00000
           0.00000  25.91000   0.00000             0.00000  26.06643   0.00000
           0.00000   0.00000  25.91000             0.00000   0.00000  26.06643
Lengths:  25.91000  25.91000  25.91000  Average:  26.06643  26.06643  26.06643
Angles:   90.00000  90.00000  90.00000  Average:  90.00000  90.00000  90.00000
Rectangular boundary conditions

net charge:   0.00000000

component 0 (CO2) lambda:  0 occupancy:  1 (1.000000)
    net charge:   0.00000000 [e]

Amount of molecules per component :
-------------------------------------------------------------------------------
Component 0 (CO2)
    molecules:      2.500000e+02 molecules  (2.500000e+02 +/- 0.000000e+00)
    number density: 1.437268e-02 molec./A^3 (1.411822e-02 +/- 0.000000e+00)
    density:        1.050093e+03 kg/m^3     (1.031501e+03 +/- 0.000000e+00)

Average pressure tensor: 
-------------------------------------------------------------------------------
 1.4471e+02 -2.6718e+01  6.7065e+01 +/- 0.0000e+00 0.0000e+00 0.0000e+00 [bar]
-2.6718e+01  1.5212e+02 -5.5647e+01 +/- 0.0000e+00 0.0000e+00 0.0000e+00 [bar]
 6.7065e+01 -5.5647e+01  1.3501e+02 +/- 0.0000e+00 0.0000e+00 0.0000e+00 [bar]
Ideal-gas pressure:   4.873082e+02 +/ 0.000000e+00 [bar]
Excess pressure:     -3.433620e+02 +/ 0.000000e+00 [bar]
Pressure:             1.439461e+02 +/ 0.000000e+00 [bar]

Total potential energy/kʙ  -3.764453e+05 (-3.681407e+05 +/- 0.000000e+00) [K]
-------------------------------------------------------------------------------
ExternalField-molecule
    Van der Waals/kʙ        0.000000e+00 ( 0.000000e+00 +/- 0.000000e+00) [K]
Framework-molecule
    Van der Waals/kʙ        0.000000e+00 ( 0.000000e+00 +/- 0.000000e+00) [K]
    Van der Waals (Tail)/kʙ 0.000000e+00 ( 0.000000e+00 +/- 0.000000e+00) [K]
    Coulombic Real/kʙ       0.000000e+00 ( 0.000000e+00 +/- 0.000000e+00) [K]
    Coulombic Fourier/kʙ    0.000000e+00 ( 0.000000e+00 +/- 0.000000e+00) [K]
Molecule-molecule
    Van der Waals/kʙ       -2.708820e+05 (-2.659722e+05 +/- 0.000000e+00) [K]
    Van der Waals (Tail)/kʙ-8.662737e+03 (-8.516152e+03 +/- 0.000000e+00) [K]
    Coulombic Real/kʙ      -8.407365e+04 (-8.108538e+04 +/- 0.000000e+00) [K]
    Coulombic Fourier/kʙ   -1.282689e+04 (-1.256696e+04 +/- 0.000000e+00) [K]
    Molecule Intra/kʙ       0.000000e+00 ( 0.000000e+00 +/- 0.000000e+00) [K]

Current cycle: 400 out of 5000
===============================================================================

Box:      25.61081   0.00000   0.00000  Average:  26.00056   0.00000   0.00000
           0.00000  25.61081   0.00000             0.00000  26.00056   0.00000
           0.00000   0.00000  25.61081             0.00000   0.00000  26.00056
Lengths:  25.61081  25.61081  25.61081  Average:  26.00056  26.00056  26.00056
Angles:   90.00000  90.00000  90.00000  Average:  90.00000  90.00000  90.00000
Rectangular boundary conditions

net charge:   0.00000000

component 0 (CO2) lambda:  0 occupancy:  1 (1.000000)
    net charge:   0.00000000 [e]

Amount of molecules per component :
-------------------------------------------------------------------------------
Component 0 (CO2)
    molecules:      2.500000e+02 molecules  (2.500000e+02 +/- 0.000000e+00)
    number density: 1.488229e-02 molec./A^3 (1.422769e-02 +/- 0.000000e+00)
    density:        1.087326e+03 kg/m^3     (1.039499e+03 +/- 0.000000e+00)

Average pressure tensor: 
-------------------------------------------------------------------------------
 1.1577e+02 -1.9828e+01  6.0959e+01 +/- 0.0000e+00 0.0000e+00 0.0000e+00 [bar]
-1.9828e+01  1.2257e+02 -3.8135e+01 +/- 0.0000e+00 0.0000e+00 0.0000e+00 [bar]
 6.0959e+01 -3.8135e+01  1.8468e+02 +/- 0.0000e+00 0.0000e+00 0.0000e+00 [bar]
Ideal-gas pressure:   4.910865e+02 +/ 0.000000e+00 [bar]
Excess pressure:     -3.500805e+02 +/ 0.000000e+00 [bar]
Pressure:             1.410060e+02 +/ 0.000000e+00 [bar]

Total potential energy/kʙ  -3.920391e+05 (-3.726716e+05 +/- 0.000000e+00) [K]
-------------------------------------------------------------------------------
ExternalField-molecule
    Van der Waals/kʙ        0.000000e+00 ( 0.000000e+00 +/- 0.000000e+00) [K]
Framework-molecule
    Van der Waals/kʙ        0.000000e+00 ( 0.000000e+00 +/- 0.000000e+00) [K]
    Van der Waals (Tail)/kʙ 0.000000e+00 ( 0.000000e+00 +/- 0.000000e+00) [K]
    Coulombic Real/kʙ       0.000000e+00 ( 0.000000e+00 +/- 0.000000e+00) [K]
    Coulombic Fourier/kʙ    0.000000e+00 ( 0.000000e+00 +/- 0.000000e+00) [K]
Molecule-molecule
    Van der Waals/kʙ       -2.741248e+05 (-2.680888e+05 +/- 0.000000e+00) [K]
    Van der Waals (Tail)/kʙ-8.969891e+03 (-8.582909e+03 +/- 0.000000e+00) [K]
    Coulombic Real/kʙ      -9.468167e+04 (-8.323959e+04 +/- 0.000000e+00) [K]
    Coulombic Fourier/kʙ   -1.426279e+04 (-1.276032e+04 +/- 0.000000e+00) [K]
    Molecule Intra/kʙ       0.000000e+00 ( 0.000000e+00 +/- 0.000000e+00) [K]

Current cycle: 500 out of 5000
===============================================================================

Box:      25.63781   0.00000   0.00000  Average:  25.93759   0.00000   0.00000
           0.00000  25.63781   0.00000             0.00000  25.93759   0.00000
           0.00000   0.00000  25.63781             0.00000   0.00000  25.93759
Lengths:  25.63781  25.63781  25.63781  Average:  25.93759  25.93759  25.93759
Angles:   90.00000  90.00000  90.00000  Average:  90.00000  90.00000  90.00000
Rectangular boundary conditions

net charge:   0.00000000

component 0 (CO2) lambda:  0 occupancy:  1 (1.000000)
    net charge:   0.00000000 [e]

Amount of molecules per component :
-------------------------------------------------------------------------------
Component 0 (CO2)
    molecules:      2.500000e+02 molecules  (2.500000e+02 +/- 0.000000e+00)
    number density: 1.483534e-02 molec./A^3 (1.433304e-02 +/- 0.000000e+00)
    density:        1.083895e+03 kg/m^3     (1.047197e+03 +/- 0.000000e+00)

Average pressure tensor: 
-------------------------------------------------------------------------------
 1.0114e+02 -7.0236e+00  3.2211e+01 +/- 0.0000e+00 0.0000e+00 0.0000e+00 [bar]
-7.0236e+00  1.4393e+02 -4.6994e+01 +/- 0.0000e+00 0.0000e+00 0.0000e+00 [bar]
 3.2211e+01 -4.6994e+01  1.6300e+02 +/- 0.0000e+00 0.0000e+00 0.0000e+00 [bar]
Ideal-gas pressure:   4.947229e+02 +/ 0.000000e+00 [bar]
Excess pressure:     -3.587019e+02 +/ 0.000000e+00 [bar]
Pressure:             1.360211e+02 +/ 0.000000e+00 [bar]

Total potential energy/kʙ  -3.862836e+05 (-3.765076e+05 +/- 0.000000e+00) [K]
-------------------------------------------------------------------------------
ExternalField-molecule
    Van der Waals/kʙ        0.000000e+00 ( 0.000000e+00 +/- 0.000000e+00) [K]
Framework-molecule
    Van der Waals/kʙ        0.000000e+00 ( 0.000000e+00 +/- 0.000000e+00) [K]
    Van der Waals (Tail)/kʙ 0.000000e+00 ( 0.000000e+00 +/- 0.000000e+00) [K]
    Coulombic Real/kʙ       0.000000e+00 ( 0.000000e+00 +/- 0.000000e+00) [K]
    Coulombic Fourier/kʙ    0.000000e+00 ( 0.000000e+00 +/- 0.000000e+00) [K]
Molecule-molecule
    Van der Waals/kʙ       -2.742387e+05 (-2.703580e+05 +/- 0.000000e+00) [K]
    Van der Waals (Tail)/kʙ-8.941588e+03 (-8.643198e+03 +/- 0.000000e+00) [K]
    Coulombic Real/kʙ      -8.976893e+04 (-8.463723e+04 +/- 0.000000e+00) [K]
    Coulombic Fourier/kʙ   -1.333448e+04 (-1.286917e+04 +/- 0.000000e+00) [K]
    Molecule Intra/kʙ       0.000000e+00 ( 0.000000e+00 +/- 0.000000e+00) [K]

Current cycle: 600 out of 5000
===============================================================================

Box:      25.69620   0.00000   0.00000  Average:  25.89225   0.00000   0.00000
           0.00000  25.69620   0.00000             0.00000  25.89225   0.00000
           0.00000   0.00000  25.69620             0.00000   0.00000  25.89225
Lengths:  25.69620  25.69620  25.69620  Average:  25.89225  25.89225  25.89225
Angles:   90.00000  90.00000  90.00000  Average:  90.00000  90.00000  90.00000
Rectangular boundary conditions

net charge:   0.00000000

component 0 (CO2) lambda:  0 occupancy:  1 (1.000000)
    net charge:   0.00000000 [e]

Amount of molecules per component :
-------------------------------------------------------------------------------
Component 0 (CO2)
    molecules:      2.500000e+02 molecules  (2.500000e+02 +/- 0.000000e+00)
    number density: 1.473443e-02 molec./A^3 (1.440899e-02 +/- 0.000000e+00)
    density:        1.076522e+03 kg/m^3     (1.052746e+03 +/- 0.000000e+00)

Average pressure tensor: 
-------------------------------------------------------------------------------
 8.5140e+01  1.1321e+00  2.7278e+01 +/- 0.0000e+00 0.0000e+00 0.0000e+00 [bar]
 1.1321e+00  1.4953e+02 -1.7847e+01 +/- 0.0000e+00 0.0000e+00 0.0000e+00 [bar]
 2.7278e+01 -1.7847e+01  1.3992e+02 +/- 0.0000e+00 0.0000e+00 0.0000e+00 [bar]
Ideal-gas pressure:   4.973445e+02 +/ 0.000000e+00 [bar]
Excess pressure:     -3.724797e+02 +/ 0.000000e+00 [bar]
Pressure:             1.248648e+02 +/ 0.000000e+00 [bar]

Total potential energy/kʙ  -3.876374e+05 (-3.785046e+05 +/- 0.000000e+00) [K]
-------------------------------------------------------------------------------
ExternalField-molecule
    Van der Waals/kʙ        0.000000e+00 ( 0.000000e+00 +/- 0.000000e+00) [K]
Framework-molecule
    Van der Waals/kʙ        0.000000e+00 ( 0.000000e+00 +/- 0.000000e+00) [K]
    Van der Waals (Tail)/kʙ 0.000000e+00 ( 0.000000e+00 +/- 0.000000e+00) [K]
    Coulombic Real/kʙ       0.000000e+00 ( 0.000000e+00 +/- 0.000000e+00) [K]
    Coulombic Fourier/kʙ    0.000000e+00 ( 0.000000e+00 +/- 0.000000e+00) [K]
Molecule-molecule
    Van der Waals/kʙ       -2.791775e+05 (-2.720880e+05 +/- 0.000000e+00) [K]
    Van der Waals (Tail)/kʙ-8.880768e+03 (-8.685280e+03 +/- 0.000000e+00) [K]
    Coulombic Real/kʙ      -8.776358e+04 (-8.486827e+04 +/- 0.000000e+00) [K]
    Coulombic Fourier/kʙ   -1.181560e+04 (-1.286303e+04 +/- 0.000000e+00) [K]
    Molecule Intra/kʙ       0.000000e+00 ( 0.000000e+00 +/- 0.000000e+00) [K]

Current cycle: 700 out of 5000
===============================================================================

Box:      25.60864   0.00000   0.00000  Average:  25.86135   0.00000   0.00000
           0.00000  25.60864   0.00000             0.00000  25.86135   0.00000
           0.00000   0.00000  25.60864             0.00000   0.00000  25.86135
Lengths:  25.60864  25.60864  25.60864  Average:  25.86135  25.86135  25.86135
Angles:   90.00000  90.00000  90.00000  Average:  90.00000  90.00000  90.00000
Rectangular boundary conditions

net charge:   0.00000000

component 0 (CO2) lambda:  0 occupancy:  1 (1.000000)
    net charge:   0.00000000 [e]

Amount of molecules per component :
-------------------------------------------------------------------------------
Component 0 (CO2)
    molecules:      2.500000e+02 molecules  (2.500000e+02 +/- 0.000000e+00)
    number density: 1.488608e-02 molec./A^3 (1.446067e-02 +/- 0.000000e+00)
    density:        1.087603e+03 kg/m^3     (1.056521e+03 +/- 0.000000e+00)

Average pressure tensor: 
-------------------------------------------------------------------------------
 7.8125e+01 -1.8319e+00  1.5652e+01 +/- 0.0000e+00 0.0000e+00 0.0000e+00 [bar]
-1.8319e+00  1.5052e+02 -2.2831e+01 +/- 0.0000e+00 0.0000e+00 0.0000e+00 [bar]
 1.5652e+01 -2.2831e+01  1.7129e+02 +/- 0.0000e+00 0.0000e+00 0.0000e+00 [bar]
Ideal-gas pressure:   4.991282e+02 +/ 0.000000e+00 [bar]
Excess pressure:     -3.658182e+02 +/ 0.000000e+00 [bar]
Pressure:             1.333100e+02 +/ 0.000000e+00 [bar]

Total potential energy/kʙ  -3.937744e+05 (-3.796622e+05 +/- 0.000000e+00) [K]
-------------------------------------------------------------------------------
ExternalField-molecule
    Van der Waals/kʙ        0.000000e+00 ( 0.000000e+00 +/- 0.000000e+00) [K]
Framework-molecule
    Van der Waals/kʙ        0.000000e+00 ( 0.000000e+00 +/- 0.000000e+00) [K]
    Van der Waals (Tail)/kʙ 0.000000e+00 ( 0.000000e+00 +/- 0.000000e+00) [K]
    Coulombic Real/kʙ       0.000000e+00 ( 0.000000e+00 +/- 0.000000e+00) [K]
    Coulombic Fourier/kʙ    0.000000e+00 ( 0.000000e+00 +/- 0.000000e+00) [K]
Molecule-molecule
    Van der Waals/kʙ       -2.897222e+05 (-2.733716e+05 +/- 0.000000e+00) [K]
    Van der Waals (Tail)/kʙ-8.972174e+03 (-8.715737e+03 +/- 0.000000e+00) [K]
    Coulombic Real/kʙ      -8.299197e+04 (-8.482510e+04 +/- 0.000000e+00) [K]
    Coulombic Fourier/kʙ   -1.208804e+04 (-1.274983e+04 +/- 0.000000e+00) [K]
    Molecule Intra/kʙ       0.000000e+00 ( 0.000000e+00 +/- 0.000000e+00) [K]

Current cycle: 800 out of 5000
===============================================================================

Box:      25.32565   0.00000   0.00000  Average:  25.81854   0.00000   0.00000
           0.00000  25.32565   0.00000             0.00000  25.81854   0.00000
           0.00000   0.00000  25.32565             0.00000   0.00000  25.81854
Lengths:  25.32565  25.32565  25.32565  Average:  25.81854  25.81854  25.81854
Angles:   90.00000  90.00000  90.00000  Average:  90.00000  90.00000  90.00000
Rectangular boundary conditions

net charge:   0.00000000

component 0 (CO2) lambda:  0 occupancy:  1 (1.000000)
    net charge:   0.00000000 [e]

Amount of molecules per component :
-------------------------------------------------------------------------------
Component 0 (CO2)
    molecules:      2.500000e+02 molecules  (2.500000e+02 +/- 0.000000e+00)
    number density: 1.539069e-02 molec./A^3 (1.453372e-02 +/- 0.000000e+00)
    density:        1.124470e+03 kg/m^3     (1.061858e+03 +/- 0.000000e+00)

Average pressure tensor: 
-------------------------------------------------------------------------------
 6.9663e+01  9.2912e+00  6.6830e+00 +/- 0.0000e+00 0.0000e+00 0.0000e+00 [bar]
 9.2912e+00  1.2965e+02 -2.4690e+01 +/- 0.0000e+00 0.0000e+00 0.0000e+00 [bar]
 6.6830e+00 -2.4690e+01  2.0269e+02 +/- 0.0000e+00 0.0000e+00 0.0000e+00 [bar]
Ideal-gas pressure:   5.016496e+02 +/ 0.000000e+00 [bar]
Excess pressure:     -3.676504e+02 +/ 0.000000e+00 [bar]
Pressure:             1.339992e+02 +/ 0.000000e+00 [bar]

Total potential energy/kʙ  -4.062332e+05 (-3.815323e+05 +/- 0.000000e+00) [K]
-------------------------------------------------------------------------------
ExternalField-molecule
    Van der Waals/kʙ        0.000000e+00 ( 0.000000e+00 +/- 0.000000e+00) [K]
Framework-molecule
    Van der Waals/kʙ        0.000000e+00 ( 0.000000e+00 +/- 0.000000e+00) [K]
    Van der Waals (Tail)/kʙ 0.000000e+00 ( 0.000000e+00 +/- 0.000000e+00) [K]
    Coulombic Real/kʙ       0.000000e+00 ( 0.000000e+00 +/- 0.000000e+00) [K]
    Coulombic Fourier/kʙ    0.000000e+00 ( 0.000000e+00 +/- 0.000000e+00) [K]
Molecule-molecule
    Van der Waals/kʙ       -2.911928e+05 (-2.752646e+05 +/- 0.000000e+00) [K]
    Van der Waals (Tail)/kʙ-9.276313e+03 (-8.759738e+03 +/- 0.000000e+00) [K]
    Coulombic Real/kʙ      -9.221372e+04 (-8.475196e+04 +/- 0.000000e+00) [K]
    Coulombic Fourier/kʙ   -1.355035e+04 (-1.275603e+04 +/- 0.000000e+00) [K]
    Molecule Intra/kʙ       0.000000e+00 ( 0.000000e+00 +/- 0.000000e+00) [K]

Current cycle: 900 out of 5000
===============================================================================

Box:      25.50477   0.00000   0.00000  Average:  25.78345   0.00000   0.00000
           0.00000  25.50477   0.00000             0.00000  25.78345   0.00000
           0.00000   0.00000  25.50477             0.00000   0.00000  25.78345
Lengths:  25.50477  25.50477  25.50477  Average:  25.78345  25.78345  25.78345
Angles:   90.00000  90.00000  90.00000  Average:  90.00000  90.00000  90.00000
Rectangular boundary conditions

net charge:   0.00000000

component 0 (CO2) lambda:  0 occupancy:  1 (1.000000)
    net charge:   0.00000000 [e]

Amount of molecules per component :
-------------------------------------------------------------------------------
Component 0 (CO2)
    molecules:      2.500000e+02 molecules  (2.500000e+02 +/- 0.000000e+00)
    number density: 1.506871e-02 molec./A^3 (1.459360e-02 +/- 0.000000e+00)
    density:        1.100945e+03 kg/m^3     (1.066234e+03 +/- 0.000000e+00)

Average pressure tensor: 
-------------------------------------------------------------------------------
 8.1785e+01  1.0556e+01  7.1572e+00 +/- 0.0000e+00 0.0000e+00 0.0000e+00 [bar]
 1.0556e+01  1.4951e+02 -2.6110e+01 +/- 0.0000e+00 0.0000e+00 0.0000e+00 [bar]
 7.1572e+00 -2.6110e+01  2.1042e+02 +/- 0.0000e+00 0.0000e+00 0.0000e+00 [bar]
Ideal-gas pressure:   5.037166e+02 +/ 0.000000e+00 [bar]
Excess pressure:     -3.564787e+02 +/ 0.000000e+00 [bar]
Pressure:             1.472379e+02 +/ 0.000000e+00 [bar]

Total potential energy/kʙ  -3.958906e+05 (-3.829157e+05 +/- 0.000000e+00) [K]
-------------------------------------------------------------------------------
ExternalField-molecule
    Van der Waals/kʙ        0.000000e+00 ( 0.000000e+00 +/- 0.000000e+00) [K]
Framework-molecule
    Van der Waals/kʙ        0.000000e+00 ( 0.000000e+00 +/- 0.000000e+00) [K]
    Van der Waals (Tail)/kʙ 0.000000e+00 ( 0.000000e+00 +/- 0.000000e+00) [K]
    Coulombic Real/kʙ       0.000000e+00 ( 0.000000e+00 +/- 0.000000e+00) [K]
    Coulombic Fourier/kʙ    0.000000e+00 ( 0.000000e+00 +/- 0.000000e+00) [K]
Molecule-molecule
    Van der Waals/kʙ       -2.882857e+05 (-2.764404e+05 +/- 0.000000e+00) [K]
    Van der Waals (Tail)/kʙ-9.082246e+03 (-8.794202e+03 +/- 0.000000e+00) [K]
    Coulombic Real/kʙ      -8.556712e+04 (-8.501684e+04 +/- 0.000000e+00) [K]
    Coulombic Fourier/kʙ   -1.295548e+04 (-1.266430e+04 +/- 0.000000e+00) [K]
    Molecule Intra/kʙ       0.000000e+00 ( 0.000000e+00 +/- 0.000000e+00) [K]

Current cycle: 1000 out of 5000
===============================================================================

Box:      25.79340   0.00000   0.00000  Average:  25.77036   0.00000   0.00000
           0.00000  25.79340   0.00000             0.00000  25.77036   0.00000
           0.00000   0.00000  25.79340             0.00000   0.00000  25.77036
Lengths:  25.79340  25.79340  25.79340  Average:  25.77036  25.77036  25.77036
Angles:   90.00000  90.00000  90.00000  Average:  90.00000  90.00000  90.00000
Rectangular boundary conditions

net charge:   0.00000000

component 0 (CO2) lambda:  0 occupancy:  1 (1.000000)
    net charge:   0.00000000 [e]

Amount of molecules per component :
-------------------------------------------------------------------------------
Component 0 (CO2)
    molecules:      2.500000e+02 molecules  (2.500000e+02 +/- 0.000000e+00)
    number density: 1.456848e-02 molec./A^3 (1.461536e-02 +/- 0.000000e+00)
    density:        1.064398e+03 kg/m^3     (1.067823e+03 +/- 0.000000e+00)

Average pressure tensor: 
-------------------------------------------------------------------------------
 7.0665e+01  5.9617e+00  1.1448e+01 +/- 0.0000e+00 0.0000e+00 0.0000e+00 [bar]
 5.9617e+00  1.7139e+02 -4.6350e+01 +/- 0.0000e+00 0.0000e+00 0.0000e+00 [bar]
 1.1448e+01 -4.6350e+01  2.1010e+02 +/- 0.0000e+00 0.0000e+00 0.0000e+00 [bar]
Ideal-gas pressure:   5.044675e+02 +/ 0.000000e+00 [bar]
Excess pressure:     -3.537479e+02 +/ 0.000000e+00 [bar]
Pressure:             1.507196e+02 +/ 0.000000e+00 [bar]

Total potential energy/kʙ  -3.833365e+05 (-3.833702e+05 +/- 0.000000e+00) [K]
-------------------------------------------------------------------------------
ExternalField-molecule
    Van der Waals/kʙ        0.000000e+00 ( 0.000000e+00 +/- 0.000000e+00) [K]
Framework-molecule
    Van der Waals/kʙ        0.000000e+00 ( 0.000000e+00 +/- 0.000000e+00) [K]
    Van der Waals (Tail)/kʙ 0.000000e+00 ( 0.000000e+00 +/- 0.000000e+00) [K]
    Coulombic Real/kʙ       0.000000e+00 ( 0.000000e+00 +/- 0.000000e+00) [K]
    Coulombic Fourier/kʙ    0.000000e+00 ( 0.000000e+00 +/- 0.000000e+00) [K]
Molecule-molecule
    Van der Waals/kʙ       -2.745699e+05 (-2.766131e+05 +/- 0.000000e+00) [K]
    Van der Waals (Tail)/kʙ-8.780746e+03 (-8.807383e+03 +/- 0.000000e+00) [K]
    Coulombic Real/kʙ      -8.698795e+04 (-8.525123e+04 +/- 0.000000e+00) [K]
    Coulombic Fourier/kʙ   -1.299789e+04 (-1.269840e+04 +/- 0.000000e+00) [K]
    Molecule Intra/kʙ       0.000000e+00 ( 0.000000e+00 +/- 0.000000e+00) [K]

Current cycle: 1100 out of 5000
===============================================================================

Box:      25.76444   0.00000   0.00000  Average:  25.78023   0.00000   0.00000
           0.00000  25.76444   0.00000             0.00000  25.78023   0.00000
           0.00000   0.00000  25.76444             0.00000   0.00000  25.78023
Lengths:  25.76444  25.76444  25.76444  Average:  25.78023  25.78023  25.78023
Angles:   90.00000  90.00000  90.00000  Average:  90.00000  90.00000  90.00000
Rectangular boundary conditions

net charge:   0.00000000

component 0 (CO2) lambda:  0 occupancy:  1 (1.000000)
    net charge:   0.00000000 [e]

Amount of molecules per component :
-------------------------------------------------------------------------------
Component 0 (CO2)
    molecules:      2.500000e+02 molecules  (2.500000e+02 +/- 0.000000e+00)
    number density: 1.461766e-02 molec./A^3 (1.459805e-02 +/- 0.000000e+00)
    density:        1.067991e+03 kg/m^3     (1.066559e+03 +/- 0.000000e+00)

Average pressure tensor: 
-------------------------------------------------------------------------------
 5.9367e+01  4.7799e+00  1.1995e+01 +/- 0.0000e+00 0.0000e+00 0.0000e+00 [bar]
 4.7799e+00  1.6267e+02 -3.2749e+01 +/- 0.0000e+00 0.0000e+00 0.0000e+00 [bar]
 1.1995e+01 -3.2749e+01  1.9827e+02 +/- 0.0000e+00 0.0000e+00 0.0000e+00 [bar]
Ideal-gas pressure:   5.038702e+02 +/ 0.000000e+00 [bar]
Excess pressure:     -3.637678e+02 +/ 0.000000e+00 [bar]
Pressure:             1.401024e+02 +/ 0.000000e+00 [bar]

Total potential energy/kʙ  -3.887624e+05 (-3.830845e+05 +/- 0.000000e+00) [K]
-------------------------------------------------------------------------------
ExternalField-molecule
    Van der Waals/kʙ        0.000000e+00 ( 0.000000e+00 +/- 0.000000e+00) [K]
Framework-molecule
    Van der Waals/kʙ        0.000000e+00 ( 0.000000e+00 +/- 0.000000e+00) [K]
    Van der Waals (Tail)/kʙ 0.000000e+00 ( 0.000000e+00 +/- 0.000000e+00) [K]
    Coulombic Real/kʙ       0.000000e+00 ( 0.000000e+00 +/- 0.000000e+00) [K]
    Coulombic Fourier/kʙ    0.000000e+00 ( 0.000000e+00 +/- 0.000000e+00) [K]
Molecule-molecule
    Van der Waals/kʙ       -2.779397e+05 (-2.763242e+05 +/- 0.000000e+00) [K]
    Van der Waals (Tail)/kʙ-8.810392e+03 (-8.795774e+03 +/- 0.000000e+00) [K]
    Coulombic Real/kʙ      -8.908539e+04 (-8.526751e+04 +/- 0.000000e+00) [K]
    Coulombic Fourier/kʙ   -1.292694e+04 (-1.269703e+04 +/- 0.000000e+00) [K]
    Molecule Intra/kʙ       0.000000e+00 ( 0.000000e+00 +/- 0.000000e+00) [K]

Current cycle: 1200 out of 5000
===============================================================================

Box:      25.45401   0.00000   0.00000  Average:  25.77435   0.00000   0.00000
           0.00000  25.45401   0.00000             0.00000  25.77435   0.00000
           0.00000   0.00000  25.45401             0.00000   0.00000  25.77435
Lengths:  25.45401  25.45401  25.45401  Average:  25.77435  25.77435  25.77435
Angles:   90.00000  90.00000  90.00000  Average:  90.00000  90.00000  90.00000
Rectangular boundary conditions

net charge:   0.00000000

component 0 (CO2) lambda:  0 occupancy:  1 (1.000000)
    net charge:   0.00000000 [e]

Amount of molecules per component :
-------------------------------------------------------------------------------
Component 0 (CO2)
    molecules:      2.500000e+02 molecules  (2.500000e+02 +/- 0.000000e+00)
    number density: 1.515904e-02 molec./A^3 (1.460759e-02 +/- 0.000000e+00)
    density:        1.107545e+03 kg/m^3     (1.067256e+03 +/- 0.000000e+00)

Average pressure tensor: 
-------------------------------------------------------------------------------
 7.5432e+01  1.3714e+01  1.4701e+01 +/- 0.0000e+00 0.0000e+00 0.0000e+00 [bar]
 1.3714e+01  1.6526e+02 -2.3855e+01 +/- 0.0000e+00 0.0000e+00 0.0000e+00 [bar]
 1.4701e+01 -2.3855e+01  1.9945e+02 +/- 0.0000e+00 0.0000e+00 0.0000e+00 [bar]
Ideal-gas pressure:   5.041994e+02 +/ 0.000000e+00 [bar]
Excess pressure:     -3.574854e+02 +/ 0.000000e+00 [bar]
Pressure:             1.467139e+02 +/ 0.000000e+00 [bar]

Total potential energy/kʙ  -3.941590e+05 (-3.832713e+05 +/- 0.000000e+00) [K]
-------------------------------------------------------------------------------
ExternalField-molecule
    Van der Waals/kʙ        0.000000e+00 ( 0.000000e+00 +/- 0.000000e+00) [K]
Framework-molecule
    Van der Waals/kʙ        0.000000e+00 ( 0.000000e+00 +/- 0.000000e+00) [K]
    Van der Waals (Tail)/kʙ 0.000000e+00 ( 0.000000e+00 +/- 0.000000e+00) [K]
    Coulombic Real/kʙ       0.000000e+00 ( 0.000000e+00 +/- 0.000000e+00) [K]
    Coulombic Fourier/kʙ    0.000000e+00 ( 0.000000e+00 +/- 0.000000e+00) [K]
Molecule-molecule
    Van der Waals/kʙ       -2.825874e+05 (-2.764899e+05 +/- 0.000000e+00) [K]
    Van der Waals (Tail)/kʙ-9.136690e+03 (-8.805755e+03 +/- 0.000000e+00) [K]
    Coulombic Real/kʙ      -8.895415e+04 (-8.527690e+04 +/- 0.000000e+00) [K]
    Coulombic Fourier/kʙ   -1.348070e+04 (-1.269875e+04 +/- 0.000000e+00) [K]
    Molecule Intra/kʙ       0.000000e+00 ( 0.000000e+00 +/- 0.000000e+00) [K]

Current cycle: 1300 out of 5000
===============================================================================

Box:      25.94376   0.00000   0.00000  Average:  25.77115   0.00000   0.00000
           0.00000  25.94376   0.00000             0.00000  25.77115   0.00000
           0.00000   0.00000  25.94376             0.00000   0.00000  25.77115
Lengths:  25.94376  25.94376  25.94376  Average:  25.77115  25.77115  25.77115
Angles:   90.00000  90.00000  90.00000  Average:  90.00000  90.00000  90.00000
Rectangular boundary conditions

net charge:   0.00000000

component 0 (CO2) lambda:  0 occupancy:  1 (1.000000)
    net charge:   0.00000000 [e]

Amount of molecules per component :
-------------------------------------------------------------------------------
Component 0 (CO2)
    molecules:      2.500000e+02 molecules  (2.500000e+02 +/- 0.000000e+00)
    number density: 1.431665e-02 molec./A^3 (1.461266e-02 +/- 0.000000e+00)
    density:        1.045999e+03 kg/m^3     (1.067626e+03 +/- 0.000000e+00)

Average pressure tensor: 
-------------------------------------------------------------------------------
 1.0171e+02  1.2309e+01  8.7747e+00 +/- 0.0000e+00 0.0000e+00 0.0000e+00 [bar]
 1.2309e+01  1.4944e+02 -2.1972e+01 +/- 0.0000e+00 0.0000e+00 0.0000e+00 [bar]
 8.7747e+00 -2.1972e+01  2.0533e+02 +/- 0.0000e+00 0.0000e+00 0.0000e+00 [bar]
Ideal-gas pressure:   5.043744e+02 +/ 0.000000e+00 [bar]
Excess pressure:     -3.522123e+02 +/ 0.000000e+00 [bar]
Pressure:             1.521621e+02 +/ 0.000000e+00 [bar]

Total potential energy/kʙ  -3.769946e+05 (-3.833532e+05 +/- 0.000000e+00) [K]
-------------------------------------------------------------------------------
ExternalField-molecule
    Van der Waals/kʙ        0.000000e+00 ( 0.000000e+00 +/- 0.000000e+00) [K]
Framework-molecule
    Van der Waals/kʙ        0.000000e+00 ( 0.000000e+00 +/- 0.000000e+00) [K]
    Van der Waals (Tail)/kʙ 0.000000e+00 ( 0.000000e+00 +/- 0.000000e+00) [K]
    Coulombic Real/kʙ       0.000000e+00 ( 0.000000e+00 +/- 0.000000e+00) [K]
    Coulombic Fourier/kʙ    0.000000e+00 ( 0.000000e+00 +/- 0.000000e+00) [K]
Molecule-molecule
    Van der Waals/kʙ       -2.722680e+05 (-2.765497e+05 +/- 0.000000e+00) [K]
    Van der Waals (Tail)/kʙ-8.628966e+03 (-8.806780e+03 +/- 0.000000e+00) [K]
    Coulombic Real/kʙ      -8.265337e+04 (-8.527541e+04 +/- 0.000000e+00) [K]
    Coulombic Fourier/kʙ   -1.344427e+04 (-1.272132e+04 +/- 0.000000e+00) [K]
    Molecule Intra/kʙ       0.000000e+00 ( 0.000000e+00 +/- 0.000000e+00) [K]

Current cycle: 1400 out of 5000
===============================================================================

Box:      25.73662   0.00000   0.00000  Average:  25.77257   0.00000   0.00000
           0.00000  25.73662   0.00000             0.00000  25.77257   0.00000
           0.00000   0.00000  25.73662             0.00000   0.00000  25.77257
Lengths:  25.73662  25.73662  25.73662  Average:  25.77257  25.77257  25.77257
Angles:   90.00000  90.00000  90.00000  Average:  90.00000  90.00000  90.00000
Rectangular boundary conditions

net charge:   0.00000000

component 0 (CO2) lambda:  0 occupancy:  1 (1.000000)
    net charge:   0.00000000 [e]

Amount of molecules per component :
-------------------------------------------------------------------------------
Component 0 (CO2)
    molecules:      2.500000e+02 molecules  (2.500000e+02 +/- 0.000000e+00)
    number density: 1.466512e-02 molec./A^3 (1.460989e-02 +/- 0.000000e+00)
    density:        1.071458e+03 kg/m^3     (1.067423e+03 +/- 0.000000e+00)

Average pressure tensor: 
-------------------------------------------------------------------------------
 1.0969e+02  2.1788e+01  2.2444e+00 +/- 0.0000e+00 0.0000e+00 0.0000e+00 [bar]
 2.1788e+01  1.4440e+02 -9.9437e+00 +/- 0.0000e+00 0.0000e+00 0.0000e+00 [bar]
 2.2444e+00 -9.9437e+00  1.8477e+02 +/- 0.0000e+00 0.0000e+00 0.0000e+00 [bar]
Ideal-gas pressure:   5.042786e+02 +/ 0.000000e+00 [bar]
Excess pressure:     -3.579906e+02 +/ 0.000000e+00 [bar]
Pressure:             1.462880e+02 +/ 0.000000e+00 [bar]

Total potential energy/kʙ  -3.866870e+05 (-3.831134e+05 +/- 0.000000e+00) [K]
-------------------------------------------------------------------------------
ExternalField-molecule
    Van der Waals/kʙ        0.000000e+00 ( 0.000000e+00 +/- 0.000000e+00) [K]
Framework-molecule
    Van der Waals/kʙ        0.000000e+00 ( 0.000000e+00 +/- 0.000000e+00) [K]
    Van der Waals (Tail)/kʙ 0.000000e+00 ( 0.000000e+00 +/- 0.000000e+00) [K]
    Coulombic Real/kʙ       0.000000e+00 ( 0.000000e+00 +/- 0.000000e+00) [K]
    Coulombic Fourier/kʙ    0.000000e+00 ( 0.000000e+00 +/- 0.000000e+00) [K]
Molecule-molecule
    Van der Waals/kʙ       -2.739301e+05 (-2.763730e+05 +/- 0.000000e+00) [K]
    Van der Waals (Tail)/kʙ-8.838993e+03 (-8.803784e+03 +/- 0.000000e+00) [K]
    Coulombic Real/kʙ      -9.082126e+04 (-8.522355e+04 +/- 0.000000e+00) [K]
    Coulombic Fourier/kʙ   -1.309661e+04 (-1.271297e+04 +/- 0.000000e+00) [K]
    Molecule Intra/kʙ       0.000000e+00 ( 0.000000e+00 +/- 0.000000e+00) [K]

Current cycle: 1500 out of 5000
===============================================================================

Box:      25.63375   0.00000   0.00000  Average:  25.75707   0.00000   0.00000
           0.00000  25.63375   0.00000             0.00000  25.75707   0.00000
           0.00000   0.00000  25.63375             0.00000   0.00000  25.75707
Lengths:  25.63375  25.63375  25.63375  Average:  25.75707  25.75707  25.75707
Angles:   90.00000  90.00000  90.00000  Average:  90.00000  90.00000  90.00000
Rectangular boundary conditions

net charge:   0.00000000

component 0 (CO2) lambda:  0 occupancy:  1 (1.000000)
    net charge:   0.00000000 [e]

Amount of molecules per component :
-------------------------------------------------------------------------------
Component 0 (CO2)
    molecules:      2.500000e+02 molecules  (2.500000e+02 +/- 0.000000e+00)
    number density: 1.484239e-02 molec./A^3 (1.463644e-02 +/- 0.000000e+00)
    density:        1.084410e+03 kg/m^3     (1.069363e+03 +/- 0.000000e+00)

Average pressure tensor: 
-------------------------------------------------------------------------------
 1.2197e+02  2.8433e+01  1.3349e+01 +/- 0.0000e+00 0.0000e+00 0.0000e+00 [bar]
 2.8433e+01  1.5234e+02 -8.7634e+00 +/- 0.0000e+00 0.0000e+00 0.0000e+00 [bar]
 1.3349e+01 -8.7634e+00  1.8591e+02 +/- 0.0000e+00 0.0000e+00 0.0000e+00 [bar]
Ideal-gas pressure:   5.051950e+02 +/ 0.000000e+00 [bar]
Excess pressure:     -3.517891e+02 +/ 0.000000e+00 [bar]
Pressure:             1.534059e+02 +/ 0.000000e+00 [bar]

Total potential energy/kʙ  -3.881880e+05 (-3.839593e+05 +/- 0.000000e+00) [K]
-------------------------------------------------------------------------------
ExternalField-molecule
    Van der Waals/kʙ        0.000000e+00 ( 0.000000e+00 +/- 0.000000e+00) [K]
Framework-molecule
    Van der Waals/kʙ        0.000000e+00 ( 0.000000e+00 +/- 0.000000e+00) [K]
    Van der Waals (Tail)/kʙ 0.000000e+00 ( 0.000000e+00 +/- 0.000000e+00) [K]
    Coulombic Real/kʙ       0.000000e+00 ( 0.000000e+00 +/- 0.000000e+00) [K]
    Coulombic Fourier/kʙ    0.000000e+00 ( 0.000000e+00 +/- 0.000000e+00) [K]
Molecule-molecule
    Van der Waals/kʙ       -2.789818e+05 (-2.769494e+05 +/- 0.000000e+00) [K]
    Van der Waals (Tail)/kʙ-8.945839e+03 (-8.822034e+03 +/- 0.000000e+00) [K]
    Coulombic Real/kʙ      -8.711177e+04 (-8.544224e+04 +/- 0.000000e+00) [K]
    Coulombic Fourier/kʙ   -1.314863e+04 (-1.274564e+04 +/- 0.000000e+00) [K]
    Molecule Intra/kʙ       0.000000e+00 ( 0.000000e+00 +/- 0.000000e+00) [K]

Current cycle: 1600 out of 5000
===============================================================================

Box:      25.27032   0.00000   0.00000  Average:  25.73865   0.00000   0.00000
           0.00000  25.27032   0.00000             0.00000  25.73865   0.00000
           0.00000   0.00000  25.27032             0.00000   0.00000  25.73865
Lengths:  25.27032  25.27032  25.27032  Average:  25.73865  25.73865  25.73865
Angles:   90.00000  90.00000  90.00000  Average:  90.00000  90.00000  90.00000
Rectangular boundary conditions

net charge:   0.00000000

component 0 (CO2) lambda:  0 occupancy:  1 (1.000000)
    net charge:   0.00000000 [e]

Amount of molecules per component :
-------------------------------------------------------------------------------
Component 0 (CO2)
    molecules:      2.500000e+02 molecules  (2.500000e+02 +/- 0.000000e+00)
    number density: 1.549201e-02 molec./A^3 (1.466828e-02 +/- 0.000000e+00)
    density:        1.131873e+03 kg/m^3     (1.071690e+03 +/- 0.000000e+00)

Average pressure tensor: 
-------------------------------------------------------------------------------
 1.2639e+02  1.9142e+01  2.2956e+01 +/- 0.0000e+00 0.0000e+00 0.0000e+00 [bar]
 1.9142e+01  1.5024e+02 -2.4178e+00 +/- 0.0000e+00 0.0000e+00 0.0000e+00 [bar]
 2.2956e+01 -2.4178e+00  1.7376e+02 +/- 0.0000e+00 0.0000e+00 0.0000e+00 [bar]
Ideal-gas pressure:   5.062942e+02 +/ 0.000000e+00 [bar]
Excess pressure:     -3.561651e+02 +/ 0.000000e+00 [bar]
Pressure:             1.501291e+02 +/ 0.000000e+00 [bar]

Total potential energy/kʙ  -4.037170e+05 (-3.851705e+05 +/- 0.000000e+00) [K]
-------------------------------------------------------------------------------
ExternalField-molecule
    Van der Waals/kʙ        0.000000e+00 ( 0.000000e+00 +/- 0.000000e+00) [K]
Framework-molecule
    Van der Waals/kʙ        0.000000e+00 ( 0.000000e+00 +/- 0.000000e+00) [K]
    Van der Waals (Tail)/kʙ 0.000000e+00 ( 0.000000e+00 +/- 0.000000e+00) [K]
    Coulombic Real/kʙ       0.000000e+00 ( 0.000000e+00 +/- 0.000000e+00) [K]
    Coulombic Fourier/kʙ    0.000000e+00 ( 0.000000e+00 +/- 0.000000e+00) [K]
Molecule-molecule
    Van der Waals/kʙ       -2.892264e+05 (-2.777064e+05 +/- 0.000000e+00) [K]
    Van der Waals (Tail)/kʙ-9.337380e+03 (-8.843222e+03 +/- 0.000000e+00) [K]
    Coulombic Real/kʙ      -9.208358e+04 (-8.582920e+04 +/- 0.000000e+00) [K]
    Coulombic Fourier/kʙ   -1.306960e+04 (-1.279165e+04 +/- 0.000000e+00) [K]
    Molecule Intra/kʙ       0.000000e+00 ( 0.000000e+00 +/- 0.000000e+00) [K]

Current cycle: 1700 out of 5000
===============================================================================

Box:      25.28976   0.00000   0.00000  Average:  25.72557   0.00000   0.00000
           0.00000  25.28976   0.00000             0.00000  25.72557   0.00000
           0.00000   0.00000  25.28976             0.00000   0.00000  25.72557
Lengths:  25.28976  25.28976  25.28976  Average:  25.72557  25.72557  25.72557
Angles:   90.00000  90.00000  90.00000  Average:  90.00000  90.00000  90.00000
Rectangular boundary conditions

net charge:   0.00000000

component 0 (CO2) lambda:  0 occupancy:  1 (1.000000)
    net charge:   0.00000000 [e]

Amount of molecules per component :
-------------------------------------------------------------------------------
Component 0 (CO2)
    molecules:      2.500000e+02 molecules  (2.500000e+02 +/- 0.000000e+00)
    number density: 1.545631e-02 molec./A^3 (1.469071e-02 +/- 0.000000e+00)
    density:        1.129265e+03 kg/m^3     (1.073328e+03 +/- 0.000000e+00)

Average pressure tensor: 
-------------------------------------------------------------------------------
 1.2689e+02  2.2235e+01  3.3433e+01 +/- 0.0000e+00 0.0000e+00 0.0000e+00 [bar]
 2.2235e+01  1.6890e+02 -5.8369e+00 +/- 0.0000e+00 0.0000e+00 0.0000e+00 [bar]
 3.3433e+01 -5.8369e+00  1.7522e+02 +/- 0.0000e+00 0.0000e+00 0.0000e+00 [bar]
Ideal-gas pressure:   5.070682e+02 +/ 0.000000e+00 [bar]
Excess pressure:     -3.500671e+02 +/ 0.000000e+00 [bar]
Pressure:             1.570011e+02 +/ 0.000000e+00 [bar]

Total potential energy/kʙ  -4.119148e+05 (-3.859376e+05 +/- 0.000000e+00) [K]
-------------------------------------------------------------------------------
ExternalField-molecule
    Van der Waals/kʙ        0.000000e+00 ( 0.000000e+00 +/- 0.000000e+00) [K]
Framework-molecule
    Van der Waals/kʙ        0.000000e+00 ( 0.000000e+00 +/- 0.000000e+00) [K]
    Van der Waals (Tail)/kʙ 0.000000e+00 ( 0.000000e+00 +/- 0.000000e+00) [K]
    Coulombic Real/kʙ       0.000000e+00 ( 0.000000e+00 +/- 0.000000e+00) [K]
    Coulombic Fourier/kʙ    0.000000e+00 ( 0.000000e+00 +/- 0.000000e+00) [K]
Molecule-molecule
    Van der Waals/kʙ       -2.908015e+05 (-2.781131e+05 +/- 0.000000e+00) [K]
    Van der Waals (Tail)/kʙ-9.315865e+03 (-8.857645e+03 +/- 0.000000e+00) [K]
    Coulombic Real/kʙ      -9.781664e+04 (-8.612862e+04 +/- 0.000000e+00) [K]
    Coulombic Fourier/kʙ   -1.398083e+04 (-1.283826e+04 +/- 0.000000e+00) [K]
    Molecule Intra/kʙ       0.000000e+00 ( 0.000000e+00 +/- 0.000000e+00) [K]

Current cycle: 1800 out of 5000
===============================================================================

Box:      25.71840   0.00000   0.00000  Average:  25.71897   0.00000   0.00000
           0.00000  25.71840   0.00000             0.00000  25.71897   0.00000
           0.00000   0.00000  25.71840             0.00000   0.00000  25.71897
Lengths:  25.71840  25.71840  25.71840  Average:  25.71897  25.71897  25.71897
Angles:   90.00000  90.00000  90.00000  Average:  90.00000  90.00000  90.00000
Rectangular boundary conditions

net charge:   0.00000000

component 0 (CO2) lambda:  0 occupancy:  1 (1.000000)
    net charge:   0.00000000 [e]

Amount of molecules per component :
-------------------------------------------------------------------------------
Component 0 (CO2)
    molecules:      2.500000e+02 molecules  (2.500000e+02 +/- 0.000000e+00)
    number density: 1.469631e-02 molec./A^3 (1.470185e-02 +/- 0.000000e+00)
    density:        1.073737e+03 kg/m^3     (1.074142e+03 +/- 0.000000e+00)

Average pressure tensor: 
-------------------------------------------------------------------------------
 1.3331e+02  2.1664e+01  3.5669e+01 +/- 0.0000e+00 0.0000e+00 0.0000e+00 [bar]
 2.1664e+01  1.8784e+02 -1.0748e+01 +/- 0.0000e+00 0.0000e+00 0.0000e+00 [bar]
 3.5669e+01 -1.0748e+01  1.7438e+02 +/- 0.0000e+00 0.0000e+00 0.0000e+00 [bar]
Ideal-gas pressure:   5.074529e+02 +/ 0.000000e+00 [bar]
Excess pressure:     -3.422765e+02 +/ 0.000000e+00 [bar]
Pressure:             1.651764e+02 +/ 0.000000e+00 [bar]

Total potential energy/kʙ  -3.917791e+05 (-3.865645e+05 +/- 0.000000e+00) [K]
-------------------------------------------------------------------------------
ExternalField-molecule
    Van der Waals/kʙ        0.000000e+00 ( 0.000000e+00 +/- 0.000000e+00) [K]
Framework-molecule
    Van der Waals/kʙ        0.000000e+00 ( 0.000000e+00 +/- 0.000000e+00) [K]
    Van der Waals (Tail)/kʙ 0.000000e+00 ( 0.000000e+00 +/- 0.000000e+00) [K]
    Coulombic Real/kʙ       0.000000e+00 ( 0.000000e+00 +/- 0.000000e+00) [K]
    Coulombic Fourier/kʙ    0.000000e+00 ( 0.000000e+00 +/- 0.000000e+00) [K]
Molecule-molecule
    Van der Waals/kʙ       -2.790857e+05 (-2.783212e+05 +/- 0.000000e+00) [K]
    Van der Waals (Tail)/kʙ-8.857792e+03 (-8.864577e+03 +/- 0.000000e+00) [K]
    Coulombic Real/kʙ      -9.101727e+04 (-8.651644e+04 +/- 0.000000e+00) [K]
    Coulombic Fourier/kʙ   -1.281830e+04 (-1.286227e+04 +/- 0.000000e+00) [K]
    Molecule Intra/kʙ       0.000000e+00 ( 0.000000e+00 +/- 0.000000e+00) [K]

Current cycle: 1900 out of 5000
===============================================================================

Box:      25.78760   0.00000   0.00000  Average:  25.71580   0.00000   0.00000
           0.00000  25.78760   0.00000             0.00000  25.71580   0.00000
           0.00000   0.00000  25.78760             0.00000   0.00000  25.71580
Lengths:  25.78760  25.78760  25.78760  Average:  25.71580  25.71580  25.71580
Angles:   90.00000  90.00000  90.00000  Average:  90.00000  90.00000  90.00000
Rectangular boundary conditions

net charge:   0.00000000

component 0 (CO2) lambda:  0 occupancy:  1 (1.000000)
    net charge:   0.00000000 [e]

Amount of molecules per component :
-------------------------------------------------------------------------------
Component 0 (CO2)
    molecules:      2.500000e+02 molecules  (2.500000e+02 +/- 0.000000e+00)
    number density: 1.457832e-02 molec./A^3 (1.470706e-02 +/- 0.000000e+00)
    density:        1.065117e+03 kg/m^3     (1.074523e+03 +/- 0.000000e+00)

Average pressure tensor: 
-------------------------------------------------------------------------------
 1.2154e+02  7.1803e+00  3.0095e+01 +/- 0.0000e+00 0.0000e+00 0.0000e+00 [bar]
 7.1803e+00  2.0470e+02 -7.1056e+00 +/- 0.0000e+00 0.0000e+00 0.0000e+00 [bar]
 3.0095e+01 -7.1056e+00  1.7111e+02 +/- 0.0000e+00 0.0000e+00 0.0000e+00 [bar]
Ideal-gas pressure:   5.076327e+02 +/ 0.000000e+00 [bar]
Excess pressure:     -3.418496e+02 +/ 0.000000e+00 [bar]
Pressure:             1.657831e+02 +/ 0.000000e+00 [bar]

Total potential energy/kʙ  -3.875038e+05 (-3.868521e+05 +/- 0.000000e+00) [K]
-------------------------------------------------------------------------------
ExternalField-molecule
    Van der Waals/kʙ        0.000000e+00 ( 0.000000e+00 +/- 0.000000e+00) [K]
Framework-molecule
    Van der Waals/kʙ        0.000000e+00 ( 0.000000e+00 +/- 0.000000e+00) [K]
    Van der Waals (Tail)/kʙ 0.000000e+00 ( 0.000000e+00 +/- 0.000000e+00) [K]
    Coulombic Real/kʙ       0.000000e+00 ( 0.000000e+00 +/- 0.000000e+00) [K]
    Coulombic Fourier/kʙ    0.000000e+00 ( 0.000000e+00 +/- 0.000000e+00) [K]
Molecule-molecule
    Van der Waals/kʙ       -2.792047e+05 (-2.784653e+05 +/- 0.000000e+00) [K]
    Van der Waals (Tail)/kʙ-8.786678e+03 (-8.867995e+03 +/- 0.000000e+00) [K]
    Coulombic Real/kʙ      -8.650553e+04 (-8.665676e+04 +/- 0.000000e+00) [K]
    Coulombic Fourier/kʙ   -1.300689e+04 (-1.286206e+04 +/- 0.000000e+00) [K]
    Molecule Intra/kʙ       0.000000e+00 ( 0.000000e+00 +/- 0.000000e+00) [K]

Current cycle: 2000 out of 5000
===============================================================================

Box:      25.65230   0.00000   0.00000  Average:  25.71822   0.00000   0.00000
           0.00000  25.65230   0.00000             0.00000  25.71822   0.00000
           0.00000   0.00000  25.65230             0.00000   0.00000  25.71822
Lengths:  25.65230  25.65230  25.65230  Average:  25.71822  25.71822  25.71822
Angles:   90.00000  90.00000  90.00000  Average:  90.00000  90.00000  90.00000
Rectangular boundary conditions

net charge:   0.00000000

component 0 (CO2) lambda:  0 occupancy:  1 (1.000000)
    net charge:   0.00000000 [e]

Amount of molecules per component :
-------------------------------------------------------------------------------
Component 0 (CO2)
    molecules:      2.500000e+02 molecules  (2.500000e+02 +/- 0.000000e+00)
    number density: 1.481021e-02 molec./A^3 (1.470266e-02 +/- 0.000000e+00)
    density:        1.082059e+03 kg/m^3     (1.074202e+03 +/- 0.000000e+00)

Average pressure tensor: 
-------------------------------------------------------------------------------
 1.2840e+02  5.8310e+00  2.9011e+01 +/- 0.0000e+00 0.0000e+00 0.0000e+00 [bar]
 5.8310e+00  2.1096e+02 -6.5671e-01 +/- 0.0000e+00 0.0000e+00 0.0000e+00 [bar]
 2.9011e+01 -6.5671e-01  1.6814e+02 +/- 0.0000e+00 0.0000e+00 0.0000e+00 [bar]
Ideal-gas pressure:   5.074809e+02 +/ 0.000000e+00 [bar]
Excess pressure:     -3.383139e+02 +/ 0.000000e+00 [bar]
Pressure:             1.691670e+02 +/ 0.000000e+00 [bar]

Total potential energy/kʙ  -3.881101e+05 (-3.868639e+05 +/- 0.000000e+00) [K]
-------------------------------------------------------------------------------
ExternalField-molecule
    Van der Waals/kʙ        0.000000e+00 ( 0.000000e+00 +/- 0.000000e+00) [K]
Framework-molecule
    Van der Waals/kʙ        0.000000e+00 ( 0.000000e+00 +/- 0.000000e+00) [K]
    Van der Waals (Tail)/kʙ 0.000000e+00 ( 0.000000e+00 +/- 0.000000e+00) [K]
    Coulombic Real/kʙ       0.000000e+00 ( 0.000000e+00 +/- 0.000000e+00) [K]
    Coulombic Fourier/kʙ    0.000000e+00 ( 0.000000e+00 +/- 0.000000e+00) [K]
Molecule-molecule
    Van der Waals/kʙ       -2.792978e+05 (-2.782834e+05 +/- 0.000000e+00) [K]
    Van der Waals (Tail)/kʙ-8.926442e+03 (-8.866960e+03 +/- 0.000000e+00) [K]
    Coulombic Real/kʙ      -8.776668e+04 (-8.684696e+04 +/- 0.000000e+00) [K]
    Coulombic Fourier/kʙ   -1.211916e+04 (-1.286656e+04 +/- 0.000000e+00) [K]
    Molecule Intra/kʙ       0.000000e+00 ( 0.000000e+00 +/- 0.000000e+00) [K]

Current cycle: 2100 out of 5000
===============================================================================

Box:      25.61345   0.00000   0.00000  Average:  25.71001   0.00000   0.00000
           0.00000  25.61345   0.00000             0.00000  25.71001   0.00000
           0.00000   0.00000  25.61345             0.00000   0.00000  25.71001
Lengths:  25.61345  25.61345  25.61345  Average:  25.71001  25.71001  25.71001
Angles:   90.00000  90.00000  90.00000  Average:  90.00000  90.00000  90.00000
Rectangular boundary conditions

net charge:   0.00000000

component 0 (CO2) lambda:  0 occupancy:  1 (1.000000)
    net charge:   0.00000000 [e]

Amount of molecules per component :
-------------------------------------------------------------------------------
Component 0 (CO2)
    molecules:      2.500000e+02 molecules  (2.500000e+02 +/- 0.000000e+00)
    number density: 1.487769e-02 molec./A^3 (1.471672e-02 +/- 0.000000e+00)
    density:        1.086990e+03 kg/m^3     (1.075229e+03 +/- 0.000000e+00)

Average pressure tensor: 
-------------------------------------------------------------------------------
 1.2652e+02  8.2929e+00  2.9113e+01 +/- 0.0000e+00 0.0000e+00 0.0000e+00 [bar]
 8.2929e+00  2.0072e+02 -7.9943e+00 +/- 0.0000e+00 0.0000e+00 0.0000e+00 [bar]
 2.9113e+01 -7.9943e+00  1.7047e+02 +/- 0.0000e+00 0.0000e+00 0.0000e+00 [bar]
Ideal-gas pressure:   5.079663e+02 +/ 0.000000e+00 [bar]
Excess pressure:     -3.420641e+02 +/ 0.000000e+00 [bar]
Pressure:             1.659021e+02 +/ 0.000000e+00 [bar]

Total potential energy/kʙ  -3.919964e+05 (-3.872673e+05 +/- 0.000000e+00) [K]
-------------------------------------------------------------------------------
ExternalField-molecule
    Van der Waals/kʙ        0.000000e+00 ( 0.000000e+00 +/- 0.000000e+00) [K]
Framework-molecule
    Van der Waals/kʙ        0.000000e+00 ( 0.000000e+00 +/- 0.000000e+00) [K]
    Van der Waals (Tail)/kʙ 0.000000e+00 ( 0.000000e+00 +/- 0.000000e+00) [K]
[...]
    Coulombic Fourier/kʙ    0.000000e+00 ( 0.000000e+00 +/- 0.000000e+00) [K]
Molecule-molecule
    Van der Waals/kʙ       -2.669998e+05 (-2.798427e+05 +/- 3.607921e+03) [K]
    Van der Waals (Tail)/kʙ-8.714040e+03 (-8.906918e+03 +/- 9.577081e+01) [K]
    Coulombic Real/kʙ      -9.298081e+04 (-8.678531e+04 +/- 2.235858e+03) [K]
    Coulombic Fourier/kʙ   -1.269300e+04 (-1.286619e+04 +/- 2.433927e+02) [K]
    Molecule Intra/kʙ       0.000000e+00 ( 0.000000e+00 +/- 0.000000e+00) [K]

Current cycle: 4700 out of 5000
===============================================================================

Box:      25.92303   0.00000   0.00000  Average:  25.67902   0.00000   0.00000
           0.00000  25.92303   0.00000             0.00000  25.67902   0.00000
           0.00000   0.00000  25.92303             0.00000   0.00000  25.67902
Lengths:  25.92303  25.92303  25.92303  Average:  25.67902  25.67902  25.67902
Angles:   90.00000  90.00000  90.00000  Average:  90.00000  90.00000  90.00000
Rectangular boundary conditions

net charge:   0.00000000

component 0 (CO2) lambda:  0 occupancy:  1 (1.000000)
    net charge:   0.00000000 [e]

Amount of molecules per component :
-------------------------------------------------------------------------------
Component 0 (CO2)
    molecules:      2.500000e+02 molecules  (2.500000e+02 +/- 3.944933e-14)
    number density: 1.435101e-02 molec./A^3 (1.476923e-02 +/- 1.729404e-04)
    density:        1.048510e+03 kg/m^3     (1.079065e+03 +/- 1.263532e+01)

Average pressure tensor: 
-------------------------------------------------------------------------------
 1.4052e+02  4.8285e+00  2.8506e+01 +/- 6.0094e+01 4.0069e+01 5.3176e+01 [bar]
 4.8285e+00  1.6844e+02  4.8313e-01 +/- 4.0069e+01 1.0700e+02 4.2187e+01 [bar]
 2.8506e+01  4.8313e-01  1.4538e+02 +/- 5.3176e+01 4.2187e+01 6.9885e+01 [bar]
Ideal-gas pressure:   5.097785e+02 +/ 5.969256e+00 [bar]
Excess pressure:     -3.583338e+02 +/ 3.722515e+01 [bar]
Pressure:             1.514448e+02 +/ 3.508093e+01 [bar]

Total potential energy/kʙ  -3.802720e+05 (-3.882420e+05 +/- 5.962017e+03) [K]
-------------------------------------------------------------------------------
ExternalField-molecule
    Van der Waals/kʙ        0.000000e+00 ( 0.000000e+00 +/- 0.000000e+00) [K]
Framework-molecule
    Van der Waals/kʙ        0.000000e+00 ( 0.000000e+00 +/- 0.000000e+00) [K]
    Van der Waals (Tail)/kʙ 0.000000e+00 ( 0.000000e+00 +/- 0.000000e+00) [K]
    Coulombic Real/kʙ       0.000000e+00 ( 0.000000e+00 +/- 0.000000e+00) [K]
    Coulombic Fourier/kʙ    0.000000e+00 ( 0.000000e+00 +/- 0.000000e+00) [K]
Molecule-molecule
    Van der Waals/kʙ       -2.669486e+05 (-2.796299e+05 +/- 3.933544e+03) [K]
    Van der Waals (Tail)/kʙ-8.649676e+03 (-8.901463e+03 +/- 1.035074e+02) [K]
    Coulombic Real/kʙ      -9.097999e+04 (-8.684698e+04 +/- 1.926054e+03) [K]
    Coulombic Fourier/kʙ   -1.369369e+04 (-1.286367e+04 +/- 2.338033e+02) [K]
    Molecule Intra/kʙ       0.000000e+00 ( 0.000000e+00 +/- 0.000000e+00) [K]

Current cycle: 4800 out of 5000
===============================================================================

Box:      26.07350   0.00000   0.00000  Average:  25.68513   0.00000   0.00000
           0.00000  26.07350   0.00000             0.00000  25.68513   0.00000
           0.00000   0.00000  26.07350             0.00000   0.00000  25.68513
Lengths:  26.07350  26.07350  26.07350  Average:  25.68513  25.68513  25.68513
Angles:   90.00000  90.00000  90.00000  Average:  90.00000  90.00000  90.00000
Rectangular boundary conditions

net charge:   0.00000000

component 0 (CO2) lambda:  0 occupancy:  1 (1.000000)
    net charge:   0.00000000 [e]

Amount of molecules per component :
-------------------------------------------------------------------------------
Component 0 (CO2)
    molecules:      2.500000e+02 molecules  (2.500000e+02 +/- 0.000000e+00)
    number density: 1.410399e-02 molec./A^3 (1.475883e-02 +/- 1.877038e-04)
    density:        1.030462e+03 kg/m^3     (1.078305e+03 +/- 1.371396e+01)

Average pressure tensor: 
-------------------------------------------------------------------------------
 1.3819e+02  7.0483e+00  2.3872e+01 +/- 5.6794e+01 3.2648e+01 6.2297e+01 [bar]
 7.0483e+00  1.6990e+02  2.4153e+00 +/- 3.2648e+01 1.0638e+02 4.1801e+01 [bar]
 2.3872e+01  2.4153e+00  1.4347e+02 +/- 6.2297e+01 4.1801e+01 6.9664e+01 [bar]
Ideal-gas pressure:   5.094196e+02 +/ 6.478834e+00 [bar]
Excess pressure:     -3.589001e+02 +/ 3.665508e+01 [bar]
Pressure:             1.505195e+02 +/ 3.471697e+01 [bar]

Total potential energy/kʙ  -3.710025e+05 (-3.879802e+05 +/- 6.258526e+03) [K]
-------------------------------------------------------------------------------
ExternalField-molecule
    Van der Waals/kʙ        0.000000e+00 ( 0.000000e+00 +/- 0.000000e+00) [K]
Framework-molecule
    Van der Waals/kʙ        0.000000e+00 ( 0.000000e+00 +/- 0.000000e+00) [K]
    Van der Waals (Tail)/kʙ 0.000000e+00 ( 0.000000e+00 +/- 0.000000e+00) [K]
    Coulombic Real/kʙ       0.000000e+00 ( 0.000000e+00 +/- 0.000000e+00) [K]
    Coulombic Fourier/kʙ    0.000000e+00 ( 0.000000e+00 +/- 0.000000e+00) [K]
Molecule-molecule
    Van der Waals/kʙ       -2.658053e+05 (-2.794254e+05 +/- 4.204201e+03) [K]
    Van der Waals (Tail)/kʙ-8.500790e+03 (-8.895110e+03 +/- 1.125981e+02) [K]
    Coulombic Real/kʙ      -8.427251e+04 (-8.680539e+04 +/- 1.928262e+03) [K]
    Coulombic Fourier/kʙ   -1.242382e+04 (-1.285426e+04 +/- 2.433072e+02) [K]
    Molecule Intra/kʙ       0.000000e+00 ( 0.000000e+00 +/- 0.000000e+00) [K]

Current cycle: 4900 out of 5000
===============================================================================

Box:      25.76734   0.00000   0.00000  Average:  25.68944   0.00000   0.00000
           0.00000  25.76734   0.00000             0.00000  25.68944   0.00000
           0.00000   0.00000  25.76734             0.00000   0.00000  25.68944
Lengths:  25.76734  25.76734  25.76734  Average:  25.68944  25.68944  25.68944
Angles:   90.00000  90.00000  90.00000  Average:  90.00000  90.00000  90.00000
Rectangular boundary conditions

net charge:   0.00000000

component 0 (CO2) lambda:  0 occupancy:  1 (1.000000)
    net charge:   0.00000000 [e]

Amount of molecules per component :
-------------------------------------------------------------------------------
Component 0 (CO2)
    molecules:      2.500000e+02 molecules  (2.500000e+02 +/- 0.000000e+00)
    number density: 1.461273e-02 molec./A^3 (1.475145e-02 +/- 1.948212e-04)
    density:        1.067631e+03 kg/m^3     (1.077766e+03 +/- 1.423397e+01)

Average pressure tensor: 
-------------------------------------------------------------------------------
 1.3866e+02  7.0772e+00  2.0333e+01 +/- 5.6833e+01 3.1510e+01 6.7185e+01 [bar]
 7.0772e+00  1.7124e+02  2.3377e+00 +/- 3.1510e+01 1.0616e+02 4.1792e+01 [bar]
 2.0333e+01  2.3377e+00  1.4250e+02 +/- 6.7185e+01 4.1792e+01 6.9773e+01 [bar]
Ideal-gas pressure:   5.091649e+02 +/ 6.724500e+00 [bar]
Excess pressure:     -3.583649e+02 +/ 3.684051e+01 [bar]
Pressure:             1.508000e+02 +/ 3.475628e+01 [bar]

Total potential energy/kʙ  -3.880311e+05 (-3.879007e+05 +/- 6.128788e+03) [K]
-------------------------------------------------------------------------------
ExternalField-molecule
    Van der Waals/kʙ        0.000000e+00 ( 0.000000e+00 +/- 0.000000e+00) [K]
Framework-molecule
    Van der Waals/kʙ        0.000000e+00 ( 0.000000e+00 +/- 0.000000e+00) [K]
    Van der Waals (Tail)/kʙ 0.000000e+00 ( 0.000000e+00 +/- 0.000000e+00) [K]
    Coulombic Real/kʙ       0.000000e+00 ( 0.000000e+00 +/- 0.000000e+00) [K]
    Coulombic Fourier/kʙ    0.000000e+00 ( 0.000000e+00 +/- 0.000000e+00) [K]
Molecule-molecule
    Van der Waals/kʙ       -2.727071e+05 (-2.792510e+05 +/- 4.380276e+03) [K]
    Van der Waals (Tail)/kʙ-8.807421e+03 (-8.891149e+03 +/- 1.158713e+02) [K]
    Coulombic Real/kʙ      -9.276379e+04 (-8.690055e+04 +/- 1.699362e+03) [K]
    Coulombic Fourier/kʙ   -1.375274e+04 (-1.285805e+04 +/- 2.237264e+02) [K]
    Molecule Intra/kʙ       0.000000e+00 ( 0.000000e+00 +/- 0.000000e+00) [K]


Energy statistics             |  Energy [K]   | Recomputed [K]|  Drift [K]    |
===============================================================================
Total potential energy/kʙ     | -3.922278e+05 | -3.922278e+05 |  1.903336e-09 |
    external field VDW/kʙ     |  0.000000e+00 |  0.000000e+00 |  0.000000e+00 |
    external field Real/kʙ    |  0.000000e+00 |  0.000000e+00 |  0.000000e+00 |
    framework-molecule VDW/kʙ |  0.000000e+00 |  0.000000e+00 |  0.000000e+00 |
    framework-molecule Real/kʙ|  0.000000e+00 |  0.000000e+00 |  0.000000e+00 |
    molecule-molecule VDW/kʙ  | -2.787153e+05 | -2.787153e+05 |  1.960217e-09 |
    molecule-molecule Real/kʙ | -9.166376e+04 | -9.166376e+04 | -5.250583e-11 |
    Van der Waals (Tail)/kʙ   | -8.838046e+03 | -8.838046e+03 |  0.000000e+00 |
    Ewald Fourier/kʙ          |  9.680721e+03 |  9.680721e+03 | -4.375485e-12 |
    Ewald self/kʙ             | -5.029674e+06 | -5.029674e+06 |  0.000000e+00 |
    Ewald exclusion/kʙ        |  5.006983e+06 |  5.006983e+06 |  0.000000e+00 |
    intra VDW/kʙ              |  0.000000e+00 |  0.000000e+00 |  0.000000e+00 |
    intra Coulombic/kʙ        |  0.000000e+00 |  0.000000e+00 |  0.000000e+00 |
    polarization/kʙ           |  0.000000e+00 |  0.000000e+00 |  0.000000e+00 |
    dU/dlambda VDW/kʙ         |  0.000000e+00 |  0.000000e+00 |  0.000000e+00 |
    dU/dlambda Real/kʙ        |  0.000000e+00 |  0.000000e+00 |  0.000000e+00 |
    dU/dlambda Ewald/kʙ       |  0.000000e+00 |  0.000000e+00 |  0.000000e+00 |
-------------------------------------------------------------------------------


Monte-Carlo moves statistics
===============================================================================

    Volume change        all:                8219
    Volume change        total:              8219
    Volume change        constructed:        8219
    Volume change        accepted:           2642
    Volume change        fraction:       0.321450
    Volume change        max-change:     0.040000

Component 0 [CO2]
    Reinsertion (CBMC)   all:              414634
    Reinsertion (CBMC)   total:            414634
    Reinsertion (CBMC)   constructed:      362855
    Reinsertion (CBMC)   accepted:           4735
    Reinsertion (CBMC)   fraction:       0.011420
    Reinsertion (CBMC)   max-change:     0.000000

    Translation          all:              414091
    Translation          total:            138143     137726     138222
    Translation          constructed:      138143     137717     138222
    Translation          accepted:          60223      53517      62870
    Translation          fraction:       0.435947   0.388576   0.454848
    Translation          max-change:     0.791209   0.909091   0.746929

    Rotation             all:              413056
    Rotation             total:            137345     137920     137791
    Rotation             constructed:      137345     137915     137791
    Rotation             accepted:          63225      57223      68259
    Rotation             fraction:       0.460337   0.414900   0.495381
    Rotation             max-change:     0.758621   0.899550   0.695652



Production run counting of the MC moves summed over systems and components
===============================================================================

Volume change                          8219 (0.6575 [%])
Reinsertion (CBMC)                   414634 (33.1707 [%])
Translation                          414091 (33.1273 [%])
Rotation                             413056 (33.0445 [%])

Production count MC-steps:          1250000 [-]
               All summed:          1250000 [-]
               difference:                0 [-]


Production run CPU timings of the MC moves
===============================================================================

Component 0 CO2

Rotation                             60.207292 [s]
    Ewald                            23.243744 [s]
    ExternalField-Molecule            0.017415 [s]
    Framework-Molecule                0.014579 [s]
    Molecule-Molecule                35.108541 [s]
    Overhead                          1.823013 [s]

Reinsertion (CBMC)                  254.531482 [s]
    Ewald                            20.509809 [s]
    NonEwald                        233.640695 [s]
    Overhead                          0.380978 [s]

Translation                          60.487386 [s]
    Ewald                            23.359063 [s]
    ExternalField-Molecule            0.015975 [s]
    Framework-Molecule                0.023965 [s]
    Molecule-Molecule                35.386066 [s]
    Overhead                          1.702317 [s]



Volume change                         70.973246 [s]
    Ewald                             23.837540 [s]
    NonEwald                          43.654853 [s]
    Tail                               3.185293 [s]

Property sampling                     0.313094 [s]
Energy/pressure sampling:             8.739863 [s]


Production run CPU timings of the MC moves summed over systems and components
===============================================================================


Translation                          60.487386 [s]
    Ewald                            23.359063 [s]
    ExternalField-Molecule            0.015975 [s]
    Framework-Molecule                0.023965 [s]
    Molecule-Molecule                35.386066 [s]
    Overhead                          1.702317 [s]

Rotation                             60.207292 [s]
    Ewald                            23.243744 [s]
    ExternalField-Molecule            0.017415 [s]
    Framework-Molecule                0.014579 [s]
    Molecule-Molecule                35.108541 [s]
    Overhead                          1.823013 [s]

Volume change                        70.973246 [s]
    Ewald                            23.837540 [s]
    NonEwald                         43.654853 [s]
    Tail                              3.185293 [s]
    Overhead                          0.295560 [s]

Reinsertion (CBMC)                  254.531482 [s]
    Ewald                            20.509809 [s]
    NonEwald                        233.640695 [s]
    Overhead                          0.380978 [s]

Property sampling:                    0.313094 [s]
Energy/pressure sampling:             8.739863 [s]

Production simulation time:         456.192395 [s]
                All summed:         455.252363 [s]
                  Overhead:           0.940032 [s]


Initalization simulation time:       90.447949 [s]
Equilibration simulation time:        0.000000 [s]
Production simulation time:         456.192395 [s]
Total simulation time:              546.640344 [s]


Energy averages and statistics:
===============================================================================

Framework-molecule energy:
-------------------------------------------------------------------------------



Framework-molecule energy contributions per energy type:
-------------------------------------------------------------------------------



Inter-molecular energy:
-------------------------------------------------------------------------------

    Inter-molecular energy/kʙ 0-0 [CO2-CO2]:
    ---------------------------------------------------------------------------
        Block[  0] -3.833705e+05
        Block[  1] -3.903449e+05
        Block[  2] -3.914697e+05
        Block[  3] -3.921730e+05
        Block[  4] -3.827814e+05
        -----------------------------------------------------------------------
        Average  -3.880279e+05 +/-  5.676011e+03 [K]



Inter-molecular energy contributions per energy type:
-------------------------------------------------------------------------------

    Van der Waals energy/kʙ 0-0 [CO2-CO2]:
    ---------------------------------------------------------------------------
        Block[  0] -2.766336e+05
        Block[  1] -2.799231e+05
        Block[  2] -2.821732e+05
        Block[  3] -2.826080e+05
        Block[  4] -2.750152e+05
        -----------------------------------------------------------------------
        Average  -2.792706e+05 +/-  4.166378e+03 [K]

    VDW Tail-Correction energy/kʙ 0-0 [CO2-CO2]:
    ---------------------------------------------------------------------------
        Block[  0] -8.807649e+03
        Block[  1] -8.925676e+03
        Block[  2] -8.953028e+03
        Block[  3] -8.985628e+03
        Block[  4] -8.780852e+03
        -----------------------------------------------------------------------
        Average  -8.890567e+03 +/-  1.129044e+02 [K]

    Coulomb Real energy/kʙ 0-0 [CO2-CO2]:
    ---------------------------------------------------------------------------
        Block[  0] -8.523386e+04
        Block[  1] -8.845086e+04
        Block[  2] -8.734740e+04
        Block[  3] -8.768439e+04
        Block[  4] -8.630172e+04
        -----------------------------------------------------------------------
        Average  -8.700365e+04 +/-  1.558132e+03 [K]

    Coulomb Fourier energy/kʙ 0-0 [CO2-CO2]:
    ---------------------------------------------------------------------------
        Block[  0] -1.269541e+04
        Block[  1] -1.304519e+04
        Block[  2] -1.299605e+04
        Block[  3] -1.289498e+04
        Block[  4] -1.268358e+04
        -----------------------------------------------------------------------
        Average  -1.286304e+04 +/-  2.079205e+02 [K]


Total energy/kʙ
-------------------------------------------------------------------------------
    Block[  0] -3.833705e+05
    Block[  1] -3.903449e+05
    Block[  2] -3.914697e+05
    Block[  3] -3.921730e+05
    Block[  4] -3.827814e+05
    ---------------------------------------------------------------------------
    Average  -3.880279e+05 +/-  5.676011e+03 [K]

Pressure averages and statistics:
===============================================================================

Average pressure tensor: 
-------------------------------------------------------------------------------
 1.3799e+02  5.8760e+00  1.9434e+01 +/- 5.6203e+01 3.2610e+01 6.4976e+01 [bar]
 5.8760e+00  1.7190e+02  5.8764e+00 +/- 3.2610e+01 1.0614e+02 4.3121e+01 [bar]
 1.9434e+01  5.8764e+00  1.4107e+02 +/- 6.4976e+01 4.3121e+01 7.0081e+01 [bar]

    Block[  0]  5.044691e+07
    Block[  1]  5.104890e+07
    Block[  2]  5.132833e+07
    Block[  3]  5.145993e+07
    Block[  4]  5.026465e+07
    ---------------------------------------------------------------------------
    Ideal gas pressure   5.090974e+07 +/-  3.969534e-02 [Pa]
                         5.090974e+02 +/-  6.591570e+00 [bar]


    Block[  0] -3.536714e+07
    Block[  1] -3.230765e+07
    Block[  2] -4.046373e+07
    Block[  3] -3.613190e+07
    Block[  4] -3.511865e+07
    ---------------------------------------------------------------------------
    Excess pressure  -3.587781e+07 +/-  3.655390e+06 [Pa]
                     -3.587781e+02 +/-  3.655390e+01 [bar]


    Block[  0]  1.507977e+07
    Block[  1]  1.874125e+07
    Block[  2]  1.086460e+07
    Block[  3]  1.532803e+07
    Block[  4]  1.514600e+07
    ---------------------------------------------------------------------------
    Pressure average   1.503193e+07 +/-  3.468814e+06 [Pa]
                       1.503193e+02 +/-  3.468814e+01 [bar]


Enthalpy of adsorption
===============================================================================

No fluctuating components present.


Densities
===============================================================================

Component 0 (CO2)
    Block[  0] 250
    Block[  1] 250
    Block[  2] 250
    Block[  3] 250
    Block[  4] 250
    -----------------------------------------------------------------------
    Density average   2.500000e+02 +/-  0.000000e+00 [molecules]
    Density average   1.474950e-02 +/-  1.909700e-04 [molec/A^3]
    Density average   1.077623e+03 +/-  1.395260e+01 [kg.m⁻³]

