Compiler and run-time data
===============================================================================
RASPA 3.0.4

Random seed: 555714797

Compiled as a 64-bits application
Compiler: gcc Ubuntu Clang 18.1.3 (1ubuntu1)
Compile Date = Mar 15 2025, Compile Time = 19:39:45

2025-06-02 12:33:28.182787
Simulation started on Mon, Jun 02
The start time was 12:33:00

Hostname:    c061
OS type:     Linux on x86_64
OS release:  6.8.0-58-generic
OS version:  #60-Ubuntu SMP PREEMPT_DYNAMIC Fri Mar 14 18:29:48 UTC 2025


Mutual consistent basic set of units:
===============================================================================

Unit of temperature: 1 [K]
Unit of length:      1e-10 [m]
Unit of time:        1e-12 [s]
Unit of mass:        1.6605402e-27 [kg]
Unit of charge:      1.60217733e-19 [C/particle]


Boltzmann constant (internal units):          0.8314464919307584 [-]
represents conversion from energy (internal units) to temperature (in Kelvin)

Derived units and their conversion factors:
===============================================================================

Unit of energy:                           1.6605402000000002e-23 [J]
Unit of energy:                           10.000008872307538 [J.mol⁻¹]
Unit of velocity:                         100 [m.s⁻¹]
Unit of force:                            1.6605402000000002e-13 [N]
Unit of diffusion:                        1.0000000000000002e-08 [m².s⁻¹]
Unit of acceleration:                     1.0000000000000002e-08 [m².s⁻¹]
Unit of torque:                           1.6605402000000002e-23 [N.m]
Unit of pressure:                         16605402 [Pa]
Unit of volume:                           1e-30 [m³]
Unit of density:                          1660.5402 [kg.m⁻³]
Unit of dynamic viscosity:                1.6605401999999997e-05 [N.s.m⁻²]
Unit of enthalpy:                         1.6605402000000002e-23 [J]
Unit of polarizability:                   1.5458657349975198e-35 [-]
Unit of Coulomb potential:                167101.08000665612 [K]
Unit of dielectric constant:              1.5458657349975193e-05 [s².C².kg⁻¹.m⁻³]
Unit of dipole moment:                    1.60217733e-29 [C.m]
Unit of Debye:                            4.803206799099162 [C.m]
Unit of electric potential:               0.00010364272224473431 [V]
Unit of electric field:                   1036427.222447343 [V.m⁻¹]
Unit of isothermal compressibility:       6.02213665167516e-08 [Pa⁻¹]
Unit of heat capacity:                    10.000008872307538 [J.mol⁻¹.K⁻¹]
Unit of volumetric expansion coefficient: 1 [K⁻¹]


Internal conversion factors:
===============================================================================

Energy (internal units) to Kelvin:      1.202724284692786 [-]
Kelvin to energy (internal units):      0.8314457542157567 [-]


System definitions
===============================================================================

Temperature:          250 [K]
Beta:                 0.0048108928702210625 [-]
Pressure:             1.4e+07 [Pa]
Helium void fraction: 1 [-]

Box:      30.00000   0.00000   0.00000
           0.00000  30.00000   0.00000
           0.00000   0.00000  30.00000
Lengths:  30.00000  30.00000  30.00000
Angles:   90.00000  90.00000  90.00000
Rectangular boundary conditions



Property measurement settings
===============================================================================




Pseudo-atoms
===============================================================================

  0 - C_co2    framework-atom: false
  1 - O_co2    framework-atom: false

  0 - C_co2    mass: 12.00000, charge:  0.70000
  1 - O_co2    mass: 15.99940, charge: -0.35000

  0 - C_co2    polarizability:  0.00000
  1 - O_co2    polarizability:  0.00000

  0 - J. J. Potoff et al., AIChE J. 2001, 47, 1676–1682.
  1 - J. J. Potoff et al., AIChE J. 2001, 47, 1676–1682.

Force field status
===============================================================================

Cutoff Framework-Molecule VDW:  12.00000 [Å]
Cutoff Molecule-Molecule VDW:   12.00000 [Å]
Cutoff Coulomb:                 12.00000 [Å]

Overlap-criteria VDW:           1.000000e+05 [K]

C_co2    - C_co2    Lennard-Jones p₀/kʙ:  27.00000 [K], p₁:  2.80000 [Å]
                                  shift:   0.00000 [K], tailcorrections: true
C_co2    - O_co2    Lennard-Jones p₀/kʙ:  46.18441 [K], p₁:  2.92500 [Å]
                                  shift:   0.00000 [K], tailcorrections: true
O_co2    - O_co2    Lennard-Jones p₀/kʙ:  79.00000 [K], p₁:  3.05000 [Å]
                                  shift:   0.00000 [K], tailcorrections: true

Ewald precision: 1e-06
Ewald alpha: 0.26505830360350674
Ewald k-vectors: 8 8 8


Component definitions
===============================================================================

Component 0 [CO2]

    Type: Adsorbate

    Critical temperature:  304.1282 [K]
    Critical pressure:     7377300 [Pa]
    Acentric factor:       0.22394 [-]

    Mol-fraction:                 1 [-]
    Swappable:                   false

    Mass:                         43.9988 [-]
    Bulk fluid density:           0 [-]
    Compressibility:              0 [-]
    Excess molecules:             0 [-]

    Number Of Atoms:    3
    CBMC starting bead: 0
      0: O_co2  position  0.00000 -0.00000  1.16000, charge -0.35000
      1: C_co2  position  0.00000 -0.00000  0.00000, charge  0.70000
      2: O_co2  position  0.00000 -0.00000 -1.16000, charge -0.35000
    Diagonalized inertia-vector:      43.05758528 43.05758528 0.00000000
    Translational degrees of freedom: 3
    Rotational degrees of freedom:    2
    Shape of the molecule is: 'Linear'
    Net-charge:        0.00000000 [e]

    Move probabilities:
    Translation:                   0.331126 [-]
    Random translation:            0.000000 [-]
    Rotation:                      0.331126 [-]
    Random rotation:               0.000000 [-]
    Volume change:                 0.006623 [-]
    Reinsertion (CBMC):            0.331126 [-]
    Identity change (CBMC):        0.000000 [-]
    Swap:                          0.000000 [-]
    Swap (CBMC):                   0.000000 [-]
    Swap (CFCMC):                  0.000000 [-]
    Swap (CB/CFCMC):               0.000000 [-]
    Gibbs volume:                  0.000000 [-]
    Gibbs swap (CBMC):             0.000000 [-]
    Gibbs swap (CFCMC):            0.000000 [-]
    Widom:                         0.000000 [-]
    Widom (CFCMC):                 0.000000 [-]
    Widom (CB/CFCMC):              0.000000 [-]
    Parallel tempering:            0.000000 [-]
    Hybrid MC:                     0.000000 [-]

    number of blocking-pockets: 0

    number of bonds: 0





Number of pseudo-atoms
===============================================================================

Component   0 (CO2)
-------------------------------------------------------------------------------
    index   0 (C_co2): 250 atoms
    index   1 (O_co2): 500 atoms

Total number of pseudo-atoms:
-------------------------------------------------------------------------------
    index   0 (C_co2): 250 atoms
    index   1 (O_co2): 500 atoms




Energy status Recomputed from scratch
===============================================================================

Total potential energy/kʙ       -6.393731e+04 [K]
    external field VDW/kʙ        0.000000e+00 [K]
    external field Real/kʙ       0.000000e+00 [K]
    framework-molecule VDW/kʙ    0.000000e+00 [K]
    framework-molecule Real/kʙ   0.000000e+00 [K]
    molecule-molecule VDW/kʙ    -3.215269e+04 [K]
    molecule-molecule Real/kʙ   -2.621884e+04 [K]
    Van der Waals (Tail)/kʙ     -4.298852e+03 [K]
    Ewald Fourier/kʙ             1.343448e+04 [K]
    Ewald self/kʙ               -4.591696e+06 [K]
    Ewald exclusion/kʙ           4.576994e+06 [K]
    intra VDW/kʙ                 0.000000e+00 [K]
    intra Coulombic/kʙ           0.000000e+00 [K]
    polarization/kʙ              0.000000e+00 [K]
    dU/dlambda VDW/kʙ            0.000000e+00 [K]
    dU/dlambda Real/kʙ           0.000000e+00 [K]
    dU/dlambda Ewald/kʙ          0.000000e+00 [K]





Initialization: Current cycle: 0 out of 1000
===============================================================================

Box:      30.32740   0.00000   0.00000
           0.00000  30.32740   0.00000
           0.00000   0.00000  30.32740
Lengths:  30.32740  30.32740  30.32740
Angles:   90.00000  90.00000  90.00000
Rectangular boundary conditions

net charge:   0.00000000

component   0 (CO2) lambda:  0 occupancy:  1 (1.000000)
    net charge:   0.00000000 [e]

Amount of molecules per component :
-------------------------------------------------------------------------------
Component 0 (CO2)
    molecules:         2.500000e+02 molecules
    number density:    8.962612e-03 molec/A^3
    density:           6.548238e+02 kg/m^3

Total potential energy/kʙ       -1.693157e+05 [K]
-------------------------------------------------------------------------------
    external field VDW/kʙ        0.000000e+00 [K]
    external field Real/kʙ       0.000000e+00 [K]
    framework-molecule VDW/kʙ    0.000000e+00 [K]
    framework-molecule Real/kʙ   0.000000e+00 [K]
    molecule-molecule VDW/kʙ    -1.321242e+05 [K]
    molecule-molecule Real/kʙ   -3.026550e+04 [K]
    Van der Waals (Tail)/kʙ     -4.161125e+03 [K]
    Ewald Fourier/kʙ             1.193653e+04 [K]
    Ewald self/kʙ               -4.591696e+06 [K]
    Ewald exclusion/kʙ           4.576994e+06 [K]
    intra VDW/kʙ                 0.000000e+00 [K]
    intra Coulombic/kʙ           0.000000e+00 [K]
    polarization/kʙ              0.000000e+00 [K]
    dU/dlambda VDW/kʙ            0.000000e+00 [K]
    dU/dlambda Real/kʙ           0.000000e+00 [K]
    dU/dlambda Ewald/kʙ          0.000000e+00 [K]


Initialization: Current cycle: 100 out of 1000
===============================================================================

Box:      28.36336   0.00000   0.00000
           0.00000  28.36336   0.00000
           0.00000   0.00000  28.36336
Lengths:  28.36336  28.36336  28.36336
Angles:   90.00000  90.00000  90.00000
Rectangular boundary conditions

net charge:   0.00000000

component   0 (CO2) lambda:  0 occupancy:  1 (1.000000)
    net charge:   0.00000000 [e]

Amount of molecules per component :
-------------------------------------------------------------------------------
Component 0 (CO2)
    molecules:         2.500000e+02 molecules
    number density:    1.095638e-02 molec/A^3
    density:           8.004916e+02 kg/m^3

Total potential energy/kʙ       -2.955564e+05 [K]
-------------------------------------------------------------------------------
    external field VDW/kʙ        0.000000e+00 [K]
    external field Real/kʙ       0.000000e+00 [K]
    framework-molecule VDW/kʙ    0.000000e+00 [K]
    framework-molecule Real/kʙ   0.000000e+00 [K]
    molecule-molecule VDW/kʙ    -2.137666e+05 [K]
    molecule-molecule Real/kʙ   -7.013115e+04 [K]
    Van der Waals (Tail)/kʙ     -5.086783e+03 [K]
    Ewald Fourier/kʙ             8.129558e+03 [K]
    Ewald self/kʙ               -4.591696e+06 [K]
    Ewald exclusion/kʙ           4.576994e+06 [K]
    intra VDW/kʙ                 0.000000e+00 [K]
    intra Coulombic/kʙ           0.000000e+00 [K]
    polarization/kʙ              0.000000e+00 [K]
    dU/dlambda VDW/kʙ            0.000000e+00 [K]
    dU/dlambda Real/kʙ           0.000000e+00 [K]
    dU/dlambda Ewald/kʙ          0.000000e+00 [K]


Initialization: Current cycle: 200 out of 1000
===============================================================================

Box:      26.76146   0.00000   0.00000
           0.00000  26.76146   0.00000
           0.00000   0.00000  26.76146
Lengths:  26.76146  26.76146  26.76146
Angles:   90.00000  90.00000  90.00000
Rectangular boundary conditions

net charge:   0.00000000

component   0 (CO2) lambda:  0 occupancy:  1 (1.000000)
    net charge:   0.00000000 [e]

Amount of molecules per component :
-------------------------------------------------------------------------------
Component 0 (CO2)
    molecules:         2.500000e+02 molecules
    number density:    1.304400e-02 molec/A^3
    density:           9.530170e+02 kg/m^3

Total potential energy/kʙ       -3.413933e+05 [K]
-------------------------------------------------------------------------------
    external field VDW/kʙ        0.000000e+00 [K]
    external field Real/kʙ       0.000000e+00 [K]
    framework-molecule VDW/kʙ    0.000000e+00 [K]
    framework-molecule Real/kʙ   0.000000e+00 [K]
    molecule-molecule VDW/kʙ    -2.497177e+05 [K]
    molecule-molecule Real/kʙ   -7.791757e+04 [K]
    Van der Waals (Tail)/kʙ     -6.056016e+03 [K]
    Ewald Fourier/kʙ             6.999333e+03 [K]
    Ewald self/kʙ               -4.591696e+06 [K]
    Ewald exclusion/kʙ           4.576994e+06 [K]
    intra VDW/kʙ                 0.000000e+00 [K]
    intra Coulombic/kʙ           0.000000e+00 [K]
    polarization/kʙ              0.000000e+00 [K]
    dU/dlambda VDW/kʙ            0.000000e+00 [K]
    dU/dlambda Real/kʙ           0.000000e+00 [K]
    dU/dlambda Ewald/kʙ          0.000000e+00 [K]


Initialization: Current cycle: 300 out of 1000
===============================================================================

Box:      26.26376   0.00000   0.00000
           0.00000  26.26376   0.00000
           0.00000   0.00000  26.26376
Lengths:  26.26376  26.26376  26.26376
Angles:   90.00000  90.00000  90.00000
Rectangular boundary conditions

net charge:   0.00000000

component   0 (CO2) lambda:  0 occupancy:  1 (1.000000)
    net charge:   0.00000000 [e]

Amount of molecules per component :
-------------------------------------------------------------------------------
Component 0 (CO2)
    molecules:         2.500000e+02 molecules
    number density:    1.379969e-02 molec/A^3
    density:           1.008229e+03 kg/m^3

Total potential energy/kʙ       -3.553595e+05 [K]
-------------------------------------------------------------------------------
    external field VDW/kʙ        0.000000e+00 [K]
    external field Real/kʙ       0.000000e+00 [K]
    framework-molecule VDW/kʙ    0.000000e+00 [K]
    framework-molecule Real/kʙ   0.000000e+00 [K]
    molecule-molecule VDW/kʙ    -2.627852e+05 [K]
    molecule-molecule Real/kʙ   -7.843260e+04 [K]
    Van der Waals (Tail)/kʙ     -6.406866e+03 [K]
    Ewald Fourier/kʙ             6.966524e+03 [K]
    Ewald self/kʙ               -4.591696e+06 [K]
    Ewald exclusion/kʙ           4.576994e+06 [K]
    intra VDW/kʙ                 0.000000e+00 [K]
    intra Coulombic/kʙ           0.000000e+00 [K]
    polarization/kʙ              0.000000e+00 [K]
    dU/dlambda VDW/kʙ            0.000000e+00 [K]
    dU/dlambda Real/kʙ           0.000000e+00 [K]
    dU/dlambda Ewald/kʙ          0.000000e+00 [K]


Initialization: Current cycle: 400 out of 1000
===============================================================================

Box:      25.88839   0.00000   0.00000
           0.00000  25.88839   0.00000
           0.00000   0.00000  25.88839
Lengths:  25.88839  25.88839  25.88839
Angles:   90.00000  90.00000  90.00000
Rectangular boundary conditions

net charge:   0.00000000

component   0 (CO2) lambda:  0 occupancy:  1 (1.000000)
    net charge:   0.00000000 [e]

Amount of molecules per component :
-------------------------------------------------------------------------------
Component 0 (CO2)
    molecules:         2.500000e+02 molecules
    number density:    1.440871e-02 molec/A^3
    density:           1.052725e+03 kg/m^3

Total potential energy/kʙ       -3.704266e+05 [K]
-------------------------------------------------------------------------------
    external field VDW/kʙ        0.000000e+00 [K]
    external field Real/kʙ       0.000000e+00 [K]
    framework-molecule VDW/kʙ    0.000000e+00 [K]
    framework-molecule Real/kʙ   0.000000e+00 [K]
    molecule-molecule VDW/kʙ    -2.724046e+05 [K]
    molecule-molecule Real/kʙ   -8.236379e+04 [K]
    Van der Waals (Tail)/kʙ     -6.689617e+03 [K]
    Ewald Fourier/kʙ             5.732760e+03 [K]
    Ewald self/kʙ               -4.591696e+06 [K]
    Ewald exclusion/kʙ           4.576994e+06 [K]
    intra VDW/kʙ                 0.000000e+00 [K]
    intra Coulombic/kʙ           0.000000e+00 [K]
    polarization/kʙ              0.000000e+00 [K]
    dU/dlambda VDW/kʙ            0.000000e+00 [K]
    dU/dlambda Real/kʙ           0.000000e+00 [K]
    dU/dlambda Ewald/kʙ          0.000000e+00 [K]


Initialization: Current cycle: 500 out of 1000
===============================================================================

Box:      26.00410   0.00000   0.00000
           0.00000  26.00410   0.00000
           0.00000   0.00000  26.00410
Lengths:  26.00410  26.00410  26.00410
Angles:   90.00000  90.00000  90.00000
Rectangular boundary conditions

net charge:   0.00000000

component   0 (CO2) lambda:  0 occupancy:  1 (1.000000)
    net charge:   0.00000000 [e]

Amount of molecules per component :
-------------------------------------------------------------------------------
Component 0 (CO2)
    molecules:         2.500000e+02 molecules
    number density:    1.421721e-02 molec/A^3
    density:           1.038734e+03 kg/m^3

Total potential energy/kʙ       -3.723962e+05 [K]
-------------------------------------------------------------------------------
    external field VDW/kʙ        0.000000e+00 [K]
    external field Real/kʙ       0.000000e+00 [K]
    framework-molecule VDW/kʙ    0.000000e+00 [K]
    framework-molecule Real/kʙ   0.000000e+00 [K]
    molecule-molecule VDW/kʙ    -2.794189e+05 [K]
    molecule-molecule Real/kʙ   -7.796263e+04 [K]
    Van der Waals (Tail)/kʙ     -6.600711e+03 [K]
    Ewald Fourier/kʙ             6.287445e+03 [K]
    Ewald self/kʙ               -4.591696e+06 [K]
    Ewald exclusion/kʙ           4.576994e+06 [K]
    intra VDW/kʙ                 0.000000e+00 [K]
    intra Coulombic/kʙ           0.000000e+00 [K]
    polarization/kʙ              0.000000e+00 [K]
    dU/dlambda VDW/kʙ            0.000000e+00 [K]
    dU/dlambda Real/kʙ           0.000000e+00 [K]
    dU/dlambda Ewald/kʙ          0.000000e+00 [K]


Initialization: Current cycle: 600 out of 1000
===============================================================================

Box:      25.96145   0.00000   0.00000
           0.00000  25.96145   0.00000
           0.00000   0.00000  25.96145
Lengths:  25.96145  25.96145  25.96145
Angles:   90.00000  90.00000  90.00000
Rectangular boundary conditions

net charge:   0.00000000

component   0 (CO2) lambda:  0 occupancy:  1 (1.000000)
    net charge:   0.00000000 [e]

Amount of molecules per component :
-------------------------------------------------------------------------------
Component 0 (CO2)
    molecules:         2.500000e+02 molecules
    number density:    1.428740e-02 molec/A^3
    density:           1.043862e+03 kg/m^3

Total potential energy/kʙ       -3.689091e+05 [K]
-------------------------------------------------------------------------------
    external field VDW/kʙ        0.000000e+00 [K]
    external field Real/kʙ       0.000000e+00 [K]
    framework-molecule VDW/kʙ    0.000000e+00 [K]
    framework-molecule Real/kʙ   0.000000e+00 [K]
    molecule-molecule VDW/kʙ    -2.729533e+05 [K]
    molecule-molecule Real/kʙ   -8.093548e+04 [K]
    Van der Waals (Tail)/kʙ     -6.633295e+03 [K]
    Ewald Fourier/kʙ             6.314396e+03 [K]
    Ewald self/kʙ               -4.591696e+06 [K]
    Ewald exclusion/kʙ           4.576994e+06 [K]
    intra VDW/kʙ                 0.000000e+00 [K]
    intra Coulombic/kʙ           0.000000e+00 [K]
    polarization/kʙ              0.000000e+00 [K]
    dU/dlambda VDW/kʙ            0.000000e+00 [K]
    dU/dlambda Real/kʙ           0.000000e+00 [K]
    dU/dlambda Ewald/kʙ          0.000000e+00 [K]


Initialization: Current cycle: 700 out of 1000
===============================================================================

Box:      25.87009   0.00000   0.00000
           0.00000  25.87009   0.00000
           0.00000   0.00000  25.87009
Lengths:  25.87009  25.87009  25.87009
Angles:   90.00000  90.00000  90.00000
Rectangular boundary conditions

net charge:   0.00000000

component   0 (CO2) lambda:  0 occupancy:  1 (1.000000)
    net charge:   0.00000000 [e]

Amount of molecules per component :
-------------------------------------------------------------------------------
Component 0 (CO2)
    molecules:         2.500000e+02 molecules
    number density:    1.443931e-02 molec/A^3
    density:           1.054961e+03 kg/m^3

Total potential energy/kʙ       -3.758217e+05 [K]
-------------------------------------------------------------------------------
    external field VDW/kʙ        0.000000e+00 [K]
    external field Real/kʙ       0.000000e+00 [K]
    framework-molecule VDW/kʙ    0.000000e+00 [K]
    framework-molecule Real/kʙ   0.000000e+00 [K]
    molecule-molecule VDW/kʙ    -2.738215e+05 [K]
    molecule-molecule Real/kʙ   -8.705881e+04 [K]
    Van der Waals (Tail)/kʙ     -6.703824e+03 [K]
    Ewald Fourier/kʙ             6.463859e+03 [K]
    Ewald self/kʙ               -4.591696e+06 [K]
    Ewald exclusion/kʙ           4.576994e+06 [K]
    intra VDW/kʙ                 0.000000e+00 [K]
    intra Coulombic/kʙ           0.000000e+00 [K]
    polarization/kʙ              0.000000e+00 [K]
    dU/dlambda VDW/kʙ            0.000000e+00 [K]
    dU/dlambda Real/kʙ           0.000000e+00 [K]
    dU/dlambda Ewald/kʙ          0.000000e+00 [K]


Initialization: Current cycle: 800 out of 1000
===============================================================================

Box:      25.75371   0.00000   0.00000
           0.00000  25.75371   0.00000
           0.00000   0.00000  25.75371
Lengths:  25.75371  25.75371  25.75371
Angles:   90.00000  90.00000  90.00000
Rectangular boundary conditions

net charge:   0.00000000

component   0 (CO2) lambda:  0 occupancy:  1 (1.000000)
    net charge:   0.00000000 [e]

Amount of molecules per component :
-------------------------------------------------------------------------------
Component 0 (CO2)
    molecules:         2.500000e+02 molecules
    number density:    1.463594e-02 molec/A^3
    density:           1.069327e+03 kg/m^3

Total potential energy/kʙ       -3.747404e+05 [K]
-------------------------------------------------------------------------------
    external field VDW/kʙ        0.000000e+00 [K]
    external field Real/kʙ       0.000000e+00 [K]
    framework-molecule VDW/kʙ    0.000000e+00 [K]
    framework-molecule Real/kʙ   0.000000e+00 [K]
    molecule-molecule VDW/kʙ    -2.751946e+05 [K]
    molecule-molecule Real/kʙ   -8.511596e+04 [K]
    Van der Waals (Tail)/kʙ     -6.795115e+03 [K]
    Ewald Fourier/kʙ             7.066722e+03 [K]
    Ewald self/kʙ               -4.591696e+06 [K]
    Ewald exclusion/kʙ           4.576994e+06 [K]
    intra VDW/kʙ                 0.000000e+00 [K]
    intra Coulombic/kʙ           0.000000e+00 [K]
    polarization/kʙ              0.000000e+00 [K]
    dU/dlambda VDW/kʙ            0.000000e+00 [K]
    dU/dlambda Real/kʙ           0.000000e+00 [K]
    dU/dlambda Ewald/kʙ          0.000000e+00 [K]


Initialization: Current cycle: 900 out of 1000
===============================================================================

Box:      25.67283   0.00000   0.00000
           0.00000  25.67283   0.00000
           0.00000   0.00000  25.67283
Lengths:  25.67283  25.67283  25.67283
Angles:   90.00000  90.00000  90.00000
Rectangular boundary conditions

net charge:   0.00000000

component   0 (CO2) lambda:  0 occupancy:  1 (1.000000)
    net charge:   0.00000000 [e]

Amount of molecules per component :
-------------------------------------------------------------------------------
Component 0 (CO2)
    molecules:         2.500000e+02 molecules
    number density:    1.477470e-02 molec/A^3
    density:           1.079465e+03 kg/m^3

Total potential energy/kʙ       -3.864432e+05 [K]
-------------------------------------------------------------------------------
    external field VDW/kʙ        0.000000e+00 [K]
    external field Real/kʙ       0.000000e+00 [K]
    framework-molecule VDW/kʙ    0.000000e+00 [K]
    framework-molecule Real/kʙ   0.000000e+00 [K]
    molecule-molecule VDW/kʙ    -2.804283e+05 [K]
    molecule-molecule Real/kʙ   -8.987703e+04 [K]
    Van der Waals (Tail)/kʙ     -6.859537e+03 [K]
    Ewald Fourier/kʙ             5.423057e+03 [K]
    Ewald self/kʙ               -4.591696e+06 [K]
    Ewald exclusion/kʙ           4.576994e+06 [K]
    intra VDW/kʙ                 0.000000e+00 [K]
    intra Coulombic/kʙ           0.000000e+00 [K]
    polarization/kʙ              0.000000e+00 [K]
    dU/dlambda VDW/kʙ            0.000000e+00 [K]
    dU/dlambda Real/kʙ           0.000000e+00 [K]
    dU/dlambda Ewald/kʙ          0.000000e+00 [K]


Current cycle: 0 out of 5000
===============================================================================

Box:      25.33363   0.00000   0.00000  Average:  25.33363   0.00000   0.00000
           0.00000  25.33363   0.00000             0.00000  25.33363   0.00000
           0.00000   0.00000  25.33363             0.00000   0.00000  25.33363
Lengths:  25.33363  25.33363  25.33363  Average:  25.33363  25.33363  25.33363
Angles:   90.00000  90.00000  90.00000  Average:  90.00000  90.00000  90.00000
Rectangular boundary conditions

net charge:   0.00000000

component 0 (CO2) lambda:  0 occupancy:  1 (1.000000)
    net charge:   0.00000000 [e]

Amount of molecules per component :
-------------------------------------------------------------------------------
Component 0 (CO2)
    molecules:      2.500000e+02 molecules  (2.500000e+02 +/- 0.000000e+00)
    number density: 1.537615e-02 molec./A^3 (1.537615e-02 +/- 0.000000e+00)
    density:        1.123408e+03 kg/m^3     (1.123408e+03 +/- 0.000000e+00)

Average pressure tensor: 
-------------------------------------------------------------------------------
 5.3073e+02  0.0000e+00  0.0000e+00 +/- 0.0000e+00 0.0000e+00 0.0000e+00 [bar]
 0.0000e+00  5.3073e+02  0.0000e+00 +/- 0.0000e+00 0.0000e+00 0.0000e+00 [bar]
 0.0000e+00  0.0000e+00  5.3073e+02 +/- 0.0000e+00 0.0000e+00 0.0000e+00 [bar]
Ideal-gas pressure:   5.307271e+02 +/ 0.000000e+00 [bar]
Excess pressure:      0.000000e+00 +/ 0.000000e+00 [bar]
Pressure:             5.307271e+02 +/ 0.000000e+00 [bar]

Total potential energy/kʙ  -4.029319e+05 (-4.029319e+05 +/- 0.000000e+00) [K]
-------------------------------------------------------------------------------
ExternalField-molecule
    Van der Waals/kʙ        0.000000e+00 ( 0.000000e+00 +/- 0.000000e+00) [K]
Framework-molecule
    Van der Waals/kʙ        0.000000e+00 ( 0.000000e+00 +/- 0.000000e+00) [K]
    Van der Waals (Tail)/kʙ 0.000000e+00 ( 0.000000e+00 +/- 0.000000e+00) [K]
    Coulombic Real/kʙ       0.000000e+00 ( 0.000000e+00 +/- 0.000000e+00) [K]
    Coulombic Fourier/kʙ    0.000000e+00 ( 0.000000e+00 +/- 0.000000e+00) [K]
Molecule-molecule
    Van der Waals/kʙ       -2.900708e+05 (-2.900708e+05 +/- 0.000000e+00) [K]
    Van der Waals (Tail)/kʙ-7.138776e+03 (-7.138776e+03 +/- 0.000000e+00) [K]
    Coulombic Real/kʙ      -9.723083e+04 (-9.723083e+04 +/- 0.000000e+00) [K]
    Coulombic Fourier/kʙ   -8.491559e+03 (-8.491559e+03 +/- 0.000000e+00) [K]
    Molecule Intra/kʙ       0.000000e+00 ( 0.000000e+00 +/- 0.000000e+00) [K]

Current cycle: 100 out of 5000
===============================================================================

Box:      25.56895   0.00000   0.00000  Average:  25.59197   0.00000   0.00000
           0.00000  25.56895   0.00000             0.00000  25.59197   0.00000
           0.00000   0.00000  25.56895             0.00000   0.00000  25.59197
Lengths:  25.56895  25.56895  25.56895  Average:  25.59197  25.59197  25.59197
Angles:   90.00000  90.00000  90.00000  Average:  90.00000  90.00000  90.00000
Rectangular boundary conditions

net charge:   0.00000000

component 0 (CO2) lambda:  0 occupancy:  1 (1.000000)
    net charge:   0.00000000 [e]

Amount of molecules per component :
-------------------------------------------------------------------------------
Component 0 (CO2)
    molecules:      2.500000e+02 molecules  (2.500000e+02 +/- 0.000000e+00)
    number density: 1.495551e-02 molec./A^3 (1.491658e-02 +/- 0.000000e+00)
    density:        1.092675e+03 kg/m^3     (1.089831e+03 +/- 0.000000e+00)

Average pressure tensor: 
-------------------------------------------------------------------------------
 4.3189e+02 -1.0920e+01  4.8732e+01 +/- 0.0000e+00 0.0000e+00 0.0000e+00 [bar]
-1.0920e+01  8.0568e+01 -1.9768e+01 +/- 0.0000e+00 0.0000e+00 0.0000e+00 [bar]
 4.8732e+01 -1.9768e+01  1.0894e+02 +/- 0.0000e+00 0.0000e+00 0.0000e+00 [bar]
Ideal-gas pressure:   5.148645e+02 +/ 0.000000e+00 [bar]
Excess pressure:     -3.077315e+02 +/ 0.000000e+00 [bar]
Pressure:             2.071330e+02 +/ 0.000000e+00 [bar]

Total potential energy/kʙ  -4.003820e+05 (-3.972059e+05 +/- 0.000000e+00) [K]
-------------------------------------------------------------------------------
ExternalField-molecule
    Van der Waals/kʙ        0.000000e+00 ( 0.000000e+00 +/- 0.000000e+00) [K]
Framework-molecule
    Van der Waals/kʙ        0.000000e+00 ( 0.000000e+00 +/- 0.000000e+00) [K]
    Van der Waals (Tail)/kʙ 0.000000e+00 ( 0.000000e+00 +/- 0.000000e+00) [K]
    Coulombic Real/kʙ       0.000000e+00 ( 0.000000e+00 +/- 0.000000e+00) [K]
    Coulombic Fourier/kʙ    0.000000e+00 ( 0.000000e+00 +/- 0.000000e+00) [K]
Molecule-molecule
    Van der Waals/kʙ       -2.881353e+05 (-2.849929e+05 +/- 0.000000e+00) [K]
    Van der Waals (Tail)/kʙ-6.943482e+03 (-6.946402e+03 +/- 0.000000e+00) [K]
    Coulombic Real/kʙ      -9.667828e+04 (-9.671697e+04 +/- 0.000000e+00) [K]
    Coulombic Fourier/kʙ   -8.624857e+03 (-8.549590e+03 +/- 0.000000e+00) [K]
    Molecule Intra/kʙ       0.000000e+00 ( 0.000000e+00 +/- 0.000000e+00) [K]

Current cycle: 200 out of 5000
===============================================================================

Box:      25.70879   0.00000   0.00000  Average:  25.66150   0.00000   0.00000
           0.00000  25.70879   0.00000             0.00000  25.66150   0.00000
           0.00000   0.00000  25.70879             0.00000   0.00000  25.66150
Lengths:  25.70879  25.70879  25.70879  Average:  25.66150  25.66150  25.66150
Angles:   90.00000  90.00000  90.00000  Average:  90.00000  90.00000  90.00000
Rectangular boundary conditions

net charge:   0.00000000

component 0 (CO2) lambda:  0 occupancy:  1 (1.000000)
    net charge:   0.00000000 [e]

Amount of molecules per component :
-------------------------------------------------------------------------------
Component 0 (CO2)
    molecules:      2.500000e+02 molecules  (2.500000e+02 +/- 0.000000e+00)
    number density: 1.471280e-02 molec./A^3 (1.479616e-02 +/- 0.000000e+00)
    density:        1.074942e+03 kg/m^3     (1.081033e+03 +/- 0.000000e+00)

Average pressure tensor: 
-------------------------------------------------------------------------------
 2.3443e+02 -5.8229e+01  1.3875e+01 +/- 0.0000e+00 0.0000e+00 0.0000e+00 [bar]
-5.8229e+01  1.2754e+02  1.5503e+01 +/- 0.0000e+00 0.0000e+00 0.0000e+00 [bar]
 1.3875e+01  1.5503e+01 -3.0848e+00 +/- 0.0000e+00 0.0000e+00 0.0000e+00 [bar]
Ideal-gas pressure:   5.107081e+02 +/ 0.000000e+00 [bar]
Excess pressure:     -3.910812e+02 +/ 0.000000e+00 [bar]
Pressure:             1.196270e+02 +/ 0.000000e+00 [bar]

Total potential energy/kʙ  -3.807547e+05 (-3.921451e+05 +/- 0.000000e+00) [K]
-------------------------------------------------------------------------------
ExternalField-molecule
    Van der Waals/kʙ        0.000000e+00 ( 0.000000e+00 +/- 0.000000e+00) [K]
Framework-molecule
    Van der Waals/kʙ        0.000000e+00 ( 0.000000e+00 +/- 0.000000e+00) [K]
    Van der Waals (Tail)/kʙ 0.000000e+00 ( 0.000000e+00 +/- 0.000000e+00) [K]
    Coulombic Real/kʙ       0.000000e+00 ( 0.000000e+00 +/- 0.000000e+00) [K]
    Coulombic Fourier/kʙ    0.000000e+00 ( 0.000000e+00 +/- 0.000000e+00) [K]
Molecule-molecule
    Van der Waals/kʙ       -2.812218e+05 (-2.828025e+05 +/- 0.000000e+00) [K]
    Van der Waals (Tail)/kʙ-6.830798e+03 (-6.879274e+03 +/- 0.000000e+00) [K]
    Coulombic Real/kʙ      -8.445216e+04 (-9.409239e+04 +/- 0.000000e+00) [K]
    Coulombic Fourier/kʙ   -8.249924e+03 (-8.370912e+03 +/- 0.000000e+00) [K]
    Molecule Intra/kʙ       0.000000e+00 ( 0.000000e+00 +/- 0.000000e+00) [K]

Current cycle: 300 out of 5000
===============================================================================

Box:      25.62188   0.00000   0.00000  Average:  25.68640   0.00000   0.00000
           0.00000  25.62188   0.00000             0.00000  25.68640   0.00000
           0.00000   0.00000  25.62188             0.00000   0.00000  25.68640
Lengths:  25.62188  25.62188  25.62188  Average:  25.68640  25.68640  25.68640
Angles:   90.00000  90.00000  90.00000  Average:  90.00000  90.00000  90.00000
Rectangular boundary conditions

net charge:   0.00000000

component 0 (CO2) lambda:  0 occupancy:  1 (1.000000)
    net charge:   0.00000000 [e]

Amount of molecules per component :
-------------------------------------------------------------------------------
Component 0 (CO2)
    molecules:      2.500000e+02 molecules  (2.500000e+02 +/- 0.000000e+00)
    number density: 1.486301e-02 molec./A^3 (1.475325e-02 +/- 0.000000e+00)
    density:        1.085917e+03 kg/m^3     (1.077897e+03 +/- 0.000000e+00)

Average pressure tensor: 
-------------------------------------------------------------------------------
 1.7757e+02 -2.6431e+01  7.0410e+01 +/- 0.0000e+00 0.0000e+00 0.0000e+00 [bar]
-2.6431e+01  1.5455e+02  1.3746e+00 +/- 0.0000e+00 0.0000e+00 0.0000e+00 [bar]
 7.0410e+01  1.3746e+00  4.7240e+01 +/- 0.0000e+00 0.0000e+00 0.0000e+00 [bar]
Ideal-gas pressure:   5.092269e+02 +/ 0.000000e+00 [bar]
Excess pressure:     -3.827717e+02 +/ 0.000000e+00 [bar]
Pressure:             1.264551e+02 +/ 0.000000e+00 [bar]

Total potential energy/kʙ  -3.930565e+05 (-3.910644e+05 +/- 0.000000e+00) [K]
-------------------------------------------------------------------------------
ExternalField-molecule
    Van der Waals/kʙ        0.000000e+00 ( 0.000000e+00 +/- 0.000000e+00) [K]
Framework-molecule
    Van der Waals/kʙ        0.000000e+00 ( 0.000000e+00 +/- 0.000000e+00) [K]
    Van der Waals (Tail)/kʙ 0.000000e+00 ( 0.000000e+00 +/- 0.000000e+00) [K]
    Coulombic Real/kʙ       0.000000e+00 ( 0.000000e+00 +/- 0.000000e+00) [K]
    Coulombic Fourier/kʙ    0.000000e+00 ( 0.000000e+00 +/- 0.000000e+00) [K]
Molecule-molecule
    Van der Waals/kʙ       -2.796219e+05 (-2.824128e+05 +/- 0.000000e+00) [K]
    Van der Waals (Tail)/kʙ-6.900540e+03 (-6.860351e+03 +/- 0.000000e+00) [K]
    Coulombic Real/kʙ      -9.803048e+04 (-9.342438e+04 +/- 0.000000e+00) [K]
    Coulombic Fourier/kʙ   -8.503602e+03 (-8.366916e+03 +/- 0.000000e+00) [K]
    Molecule Intra/kʙ       0.000000e+00 ( 0.000000e+00 +/- 0.000000e+00) [K]

Current cycle: 400 out of 5000
===============================================================================

Box:      25.52074   0.00000   0.00000  Average:  25.65423   0.00000   0.00000
           0.00000  25.52074   0.00000             0.00000  25.65423   0.00000
           0.00000   0.00000  25.52074             0.00000   0.00000  25.65423
Lengths:  25.52074  25.52074  25.52074  Average:  25.65423  25.65423  25.65423
Angles:   90.00000  90.00000  90.00000  Average:  90.00000  90.00000  90.00000
Rectangular boundary conditions

net charge:   0.00000000

component 0 (CO2) lambda:  0 occupancy:  1 (1.000000)
    net charge:   0.00000000 [e]

Amount of molecules per component :
-------------------------------------------------------------------------------
Component 0 (CO2)
    molecules:      2.500000e+02 molecules  (2.500000e+02 +/- 0.000000e+00)
    number density: 1.504043e-02 molec./A^3 (1.480897e-02 +/- 0.000000e+00)
    density:        1.098879e+03 kg/m^3     (1.081969e+03 +/- 0.000000e+00)

Average pressure tensor: 
-------------------------------------------------------------------------------
 2.0650e+02  1.4698e-01  9.9872e+01 +/- 0.0000e+00 0.0000e+00 0.0000e+00 [bar]
 1.4698e-01  1.2339e+02 -1.4095e+01 +/- 0.0000e+00 0.0000e+00 0.0000e+00 [bar]
 9.9872e+01 -1.4095e+01  1.1484e+02 +/- 0.0000e+00 0.0000e+00 0.0000e+00 [bar]
Ideal-gas pressure:   5.111503e+02 +/ 0.000000e+00 [bar]
Excess pressure:     -3.629097e+02 +/ 0.000000e+00 [bar]
Pressure:             1.482406e+02 +/ 0.000000e+00 [bar]

Total potential energy/kʙ  -4.033585e+05 (-3.921622e+05 +/- 0.000000e+00) [K]
-------------------------------------------------------------------------------
ExternalField-molecule
    Van der Waals/kʙ        0.000000e+00 ( 0.000000e+00 +/- 0.000000e+00) [K]
Framework-molecule
    Van der Waals/kʙ        0.000000e+00 ( 0.000000e+00 +/- 0.000000e+00) [K]
    Van der Waals (Tail)/kʙ 0.000000e+00 ( 0.000000e+00 +/- 0.000000e+00) [K]
    Coulombic Real/kʙ       0.000000e+00 ( 0.000000e+00 +/- 0.000000e+00) [K]
    Coulombic Fourier/kʙ    0.000000e+00 ( 0.000000e+00 +/- 0.000000e+00) [K]
Molecule-molecule
    Van der Waals/kʙ       -2.941880e+05 (-2.838631e+05 +/- 0.000000e+00) [K]
    Van der Waals (Tail)/kʙ-6.982909e+03 (-6.883942e+03 +/- 0.000000e+00) [K]
    Coulombic Real/kʙ      -9.334137e+04 (-9.300397e+04 +/- 0.000000e+00) [K]
    Coulombic Fourier/kʙ   -8.846275e+03 (-8.411150e+03 +/- 0.000000e+00) [K]
    Molecule Intra/kʙ       0.000000e+00 ( 0.000000e+00 +/- 0.000000e+00) [K]

Current cycle: 500 out of 5000
===============================================================================

Box:      25.80303   0.00000   0.00000  Average:  25.65159   0.00000   0.00000
           0.00000  25.80303   0.00000             0.00000  25.65159   0.00000
           0.00000   0.00000  25.80303             0.00000   0.00000  25.65159
Lengths:  25.80303  25.80303  25.80303  Average:  25.65159  25.65159  25.65159
Angles:   90.00000  90.00000  90.00000  Average:  90.00000  90.00000  90.00000
Rectangular boundary conditions

net charge:   0.00000000

component 0 (CO2) lambda:  0 occupancy:  1 (1.000000)
    net charge:   0.00000000 [e]

Amount of molecules per component :
-------------------------------------------------------------------------------
Component 0 (CO2)
    molecules:      2.500000e+02 molecules  (2.500000e+02 +/- 0.000000e+00)
    number density: 1.455218e-02 molec./A^3 (1.481331e-02 +/- 0.000000e+00)
    density:        1.063207e+03 kg/m^3     (1.082286e+03 +/- 0.000000e+00)

Average pressure tensor: 
-------------------------------------------------------------------------------
 1.9302e+02  8.4674e+00  9.2746e+01 +/- 0.0000e+00 0.0000e+00 0.0000e+00 [bar]
 8.4674e+00  1.0572e+02 -8.4618e+00 +/- 0.0000e+00 0.0000e+00 0.0000e+00 [bar]
 9.2746e+01 -8.4618e+00  1.3111e+02 +/- 0.0000e+00 0.0000e+00 0.0000e+00 [bar]
Ideal-gas pressure:   5.113001e+02 +/ 0.000000e+00 [bar]
Excess pressure:     -3.680140e+02 +/ 0.000000e+00 [bar]
Pressure:             1.432861e+02 +/ 0.000000e+00 [bar]

Total potential energy/kʙ  -3.879146e+05 (-3.915496e+05 +/- 0.000000e+00) [K]
-------------------------------------------------------------------------------
ExternalField-molecule
    Van der Waals/kʙ        0.000000e+00 ( 0.000000e+00 +/- 0.000000e+00) [K]
Framework-molecule
    Van der Waals/kʙ        0.000000e+00 ( 0.000000e+00 +/- 0.000000e+00) [K]
    Van der Waals (Tail)/kʙ 0.000000e+00 ( 0.000000e+00 +/- 0.000000e+00) [K]
    Coulombic Real/kʙ       0.000000e+00 ( 0.000000e+00 +/- 0.000000e+00) [K]
    Coulombic Fourier/kʙ    0.000000e+00 ( 0.000000e+00 +/- 0.000000e+00) [K]
Molecule-molecule
    Van der Waals/kʙ       -2.819467e+05 (-2.835946e+05 +/- 0.000000e+00) [K]
    Van der Waals (Tail)/kʙ-6.756229e+03 (-6.880522e+03 +/- 0.000000e+00) [K]
    Coulombic Real/kʙ      -9.080417e+04 (-9.264671e+04 +/- 0.000000e+00) [K]
    Coulombic Fourier/kʙ   -8.407431e+03 (-8.427779e+03 +/- 0.000000e+00) [K]
    Molecule Intra/kʙ       0.000000e+00 ( 0.000000e+00 +/- 0.000000e+00) [K]

Current cycle: 600 out of 5000
===============================================================================

Box:      25.60077   0.00000   0.00000  Average:  25.63693   0.00000   0.00000
           0.00000  25.60077   0.00000             0.00000  25.63693   0.00000
           0.00000   0.00000  25.60077             0.00000   0.00000  25.63693
Lengths:  25.60077  25.60077  25.60077  Average:  25.63693  25.63693  25.63693
Angles:   90.00000  90.00000  90.00000  Average:  90.00000  90.00000  90.00000
Rectangular boundary conditions

net charge:   0.00000000

component 0 (CO2) lambda:  0 occupancy:  1 (1.000000)
    net charge:   0.00000000 [e]

Amount of molecules per component :
-------------------------------------------------------------------------------
Component 0 (CO2)
    molecules:      2.500000e+02 molecules  (2.500000e+02 +/- 0.000000e+00)
    number density: 1.489981e-02 molec./A^3 (1.483892e-02 +/- 0.000000e+00)
    density:        1.088606e+03 kg/m^3     (1.084157e+03 +/- 0.000000e+00)

Average pressure tensor: 
-------------------------------------------------------------------------------
 1.8705e+02 -1.2480e+01  3.8338e+01 +/- 0.0000e+00 0.0000e+00 0.0000e+00 [bar]
-1.2480e+01  1.2292e+02 -4.3920e+01 +/- 0.0000e+00 0.0000e+00 0.0000e+00 [bar]
 3.8338e+01 -4.3920e+01  1.1169e+02 +/- 0.0000e+00 0.0000e+00 0.0000e+00 [bar]
Ideal-gas pressure:   5.121840e+02 +/ 0.000000e+00 [bar]
Excess pressure:     -3.716294e+02 +/ 0.000000e+00 [bar]
Pressure:             1.405546e+02 +/ 0.000000e+00 [bar]

Total potential energy/kʙ  -3.950669e+05 (-3.919253e+05 +/- 0.000000e+00) [K]
-------------------------------------------------------------------------------
ExternalField-molecule
    Van der Waals/kʙ        0.000000e+00 ( 0.000000e+00 +/- 0.000000e+00) [K]
Framework-molecule
    Van der Waals/kʙ        0.000000e+00 ( 0.000000e+00 +/- 0.000000e+00) [K]
    Van der Waals (Tail)/kʙ 0.000000e+00 ( 0.000000e+00 +/- 0.000000e+00) [K]
    Coulombic Real/kʙ       0.000000e+00 ( 0.000000e+00 +/- 0.000000e+00) [K]
    Coulombic Fourier/kʙ    0.000000e+00 ( 0.000000e+00 +/- 0.000000e+00) [K]
Molecule-molecule
    Van der Waals/kʙ       -2.837891e+05 (-2.840708e+05 +/- 0.000000e+00) [K]
    Van der Waals (Tail)/kʙ-6.917626e+03 (-6.893477e+03 +/- 0.000000e+00) [K]
    Coulombic Real/kʙ      -9.514299e+04 (-9.245933e+04 +/- 0.000000e+00) [K]
    Coulombic Fourier/kʙ   -9.217246e+03 (-8.501609e+03 +/- 0.000000e+00) [K]
    Molecule Intra/kʙ       0.000000e+00 ( 0.000000e+00 +/- 0.000000e+00) [K]

Current cycle: 700 out of 5000
===============================================================================

Box:      25.62661   0.00000   0.00000  Average:  25.62383   0.00000   0.00000
           0.00000  25.62661   0.00000             0.00000  25.62383   0.00000
           0.00000   0.00000  25.62661             0.00000   0.00000  25.62383
Lengths:  25.62661  25.62661  25.62661  Average:  25.62383  25.62383  25.62383
Angles:   90.00000  90.00000  90.00000  Average:  90.00000  90.00000  90.00000
Rectangular boundary conditions

net charge:   0.00000000

component 0 (CO2) lambda:  0 occupancy:  1 (1.000000)
    net charge:   0.00000000 [e]

Amount of molecules per component :
-------------------------------------------------------------------------------
Component 0 (CO2)
    molecules:      2.500000e+02 molecules  (2.500000e+02 +/- 0.000000e+00)
    number density: 1.485479e-02 molec./A^3 (1.486162e-02 +/- 0.000000e+00)
    density:        1.085316e+03 kg/m^3     (1.085816e+03 +/- 0.000000e+00)

Average pressure tensor: 
-------------------------------------------------------------------------------
 1.8333e+02 -2.0390e+01  4.5078e+01 +/- 0.0000e+00 0.0000e+00 0.0000e+00 [bar]
-2.0390e+01  1.2178e+02 -5.1995e+01 +/- 0.0000e+00 0.0000e+00 0.0000e+00 [bar]
 4.5078e+01 -5.1995e+01  1.0245e+02 +/- 0.0000e+00 0.0000e+00 0.0000e+00 [bar]
Ideal-gas pressure:   5.129677e+02 +/ 0.000000e+00 [bar]
Excess pressure:     -3.771132e+02 +/ 0.000000e+00 [bar]
Pressure:             1.358545e+02 +/ 0.000000e+00 [bar]

Total potential energy/kʙ  -3.932675e+05 (-3.930774e+05 +/- 0.000000e+00) [K]
-------------------------------------------------------------------------------
ExternalField-molecule
    Van der Waals/kʙ        0.000000e+00 ( 0.000000e+00 +/- 0.000000e+00) [K]
Framework-molecule
    Van der Waals/kʙ        0.000000e+00 ( 0.000000e+00 +/- 0.000000e+00) [K]
    Van der Waals (Tail)/kʙ 0.000000e+00 ( 0.000000e+00 +/- 0.000000e+00) [K]
    Coulombic Real/kʙ       0.000000e+00 ( 0.000000e+00 +/- 0.000000e+00) [K]
    Coulombic Fourier/kʙ    0.000000e+00 ( 0.000000e+00 +/- 0.000000e+00) [K]
Molecule-molecule
    Van der Waals/kʙ       -2.829818e+05 (-2.847514e+05 +/- 0.000000e+00) [K]
    Van der Waals (Tail)/kʙ-6.896723e+03 (-6.904864e+03 +/- 0.000000e+00) [K]
    Coulombic Real/kʙ      -9.526924e+04 (-9.285904e+04 +/- 0.000000e+00) [K]
    Coulombic Fourier/kʙ   -8.119693e+03 (-8.562108e+03 +/- 0.000000e+00) [K]
    Molecule Intra/kʙ       0.000000e+00 ( 0.000000e+00 +/- 0.000000e+00) [K]

Current cycle: 800 out of 5000
===============================================================================

Box:      25.43938   0.00000   0.00000  Average:  25.61641   0.00000   0.00000
           0.00000  25.43938   0.00000             0.00000  25.61641   0.00000
           0.00000   0.00000  25.43938             0.00000   0.00000  25.61641
Lengths:  25.43938  25.43938  25.43938  Average:  25.61641  25.61641  25.61641
Angles:   90.00000  90.00000  90.00000  Average:  90.00000  90.00000  90.00000
Rectangular boundary conditions

net charge:   0.00000000

component 0 (CO2) lambda:  0 occupancy:  1 (1.000000)
    net charge:   0.00000000 [e]

Amount of molecules per component :
-------------------------------------------------------------------------------
Component 0 (CO2)
    molecules:      2.500000e+02 molecules  (2.500000e+02 +/- 0.000000e+00)
    number density: 1.518520e-02 molec./A^3 (1.487464e-02 +/- 0.000000e+00)
    density:        1.109457e+03 kg/m^3     (1.086767e+03 +/- 0.000000e+00)

Average pressure tensor: 
-------------------------------------------------------------------------------
 1.9597e+02 -1.8684e+01  3.0453e+01 +/- 0.0000e+00 0.0000e+00 0.0000e+00 [bar]
-1.8684e+01  1.0660e+02 -5.9831e+01 +/- 0.0000e+00 0.0000e+00 0.0000e+00 [bar]
 3.0453e+01 -5.9831e+01  1.0795e+02 +/- 0.0000e+00 0.0000e+00 0.0000e+00 [bar]
Ideal-gas pressure:   5.134169e+02 +/ 0.000000e+00 [bar]
Excess pressure:     -3.765754e+02 +/ 0.000000e+00 [bar]
Pressure:             1.368415e+02 +/ 0.000000e+00 [bar]

Total potential energy/kʙ  -4.072263e+05 (-3.937613e+05 +/- 0.000000e+00) [K]
-------------------------------------------------------------------------------
ExternalField-molecule
    Van der Waals/kʙ        0.000000e+00 ( 0.000000e+00 +/- 0.000000e+00) [K]
Framework-molecule
    Van der Waals/kʙ        0.000000e+00 ( 0.000000e+00 +/- 0.000000e+00) [K]
    Van der Waals (Tail)/kʙ 0.000000e+00 ( 0.000000e+00 +/- 0.000000e+00) [K]
    Coulombic Real/kʙ       0.000000e+00 ( 0.000000e+00 +/- 0.000000e+00) [K]
    Coulombic Fourier/kʙ    0.000000e+00 ( 0.000000e+00 +/- 0.000000e+00) [K]
Molecule-molecule
    Van der Waals/kʙ       -2.920040e+05 (-2.851009e+05 +/- 0.000000e+00) [K]
    Van der Waals (Tail)/kʙ-7.050125e+03 (-6.913080e+03 +/- 0.000000e+00) [K]
    Coulombic Real/kʙ      -9.969564e+04 (-9.321752e+04 +/- 0.000000e+00) [K]
    Coulombic Fourier/kʙ   -8.476498e+03 (-8.529881e+03 +/- 0.000000e+00) [K]
    Molecule Intra/kʙ       0.000000e+00 ( 0.000000e+00 +/- 0.000000e+00) [K]

Current cycle: 900 out of 5000
===============================================================================

Box:      25.35252   0.00000   0.00000  Average:  25.60791   0.00000   0.00000
           0.00000  25.35252   0.00000             0.00000  25.60791   0.00000
           0.00000   0.00000  25.35252             0.00000   0.00000  25.60791
Lengths:  25.35252  25.35252  25.35252  Average:  25.60791  25.60791  25.60791
Angles:   90.00000  90.00000  90.00000  Average:  90.00000  90.00000  90.00000
Rectangular boundary conditions

net charge:   0.00000000

component 0 (CO2) lambda:  0 occupancy:  1 (1.000000)
    net charge:   0.00000000 [e]

Amount of molecules per component :
-------------------------------------------------------------------------------
Component 0 (CO2)
    molecules:      2.500000e+02 molecules  (2.500000e+02 +/- 0.000000e+00)
    number density: 1.534181e-02 molec./A^3 (1.488947e-02 +/- 0.000000e+00)
    density:        1.120899e+03 kg/m^3     (1.087850e+03 +/- 0.000000e+00)

Average pressure tensor: 
-------------------------------------------------------------------------------
 1.9480e+02 -3.4682e+01  3.4528e+01 +/- 0.0000e+00 0.0000e+00 0.0000e+00 [bar]
-3.4682e+01  1.0373e+02 -5.1269e+01 +/- 0.0000e+00 0.0000e+00 0.0000e+00 [bar]
 3.4528e+01 -5.1269e+01  1.3011e+02 +/- 0.0000e+00 0.0000e+00 0.0000e+00 [bar]
Ideal-gas pressure:   5.139289e+02 +/ 0.000000e+00 [bar]
Excess pressure:     -3.710509e+02 +/ 0.000000e+00 [bar]
Pressure:             1.428780e+02 +/ 0.000000e+00 [bar]

Total potential energy/kʙ  -3.996262e+05 (-3.940448e+05 +/- 0.000000e+00) [K]
-------------------------------------------------------------------------------
ExternalField-molecule
    Van der Waals/kʙ        0.000000e+00 ( 0.000000e+00 +/- 0.000000e+00) [K]
Framework-molecule
    Van der Waals/kʙ        0.000000e+00 ( 0.000000e+00 +/- 0.000000e+00) [K]
    Van der Waals (Tail)/kʙ 0.000000e+00 ( 0.000000e+00 +/- 0.000000e+00) [K]
    Coulombic Real/kʙ       0.000000e+00 ( 0.000000e+00 +/- 0.000000e+00) [K]
    Coulombic Fourier/kʙ    0.000000e+00 ( 0.000000e+00 +/- 0.000000e+00) [K]
Molecule-molecule
    Van der Waals/kʙ       -2.816148e+05 (-2.852391e+05 +/- 0.000000e+00) [K]
    Van der Waals (Tail)/kʙ-7.122833e+03 (-6.920322e+03 +/- 0.000000e+00) [K]
    Coulombic Real/kʙ      -1.011482e+05 (-9.330771e+04 +/- 0.000000e+00) [K]
    Coulombic Fourier/kʙ   -9.740434e+03 (-8.577691e+03 +/- 0.000000e+00) [K]
    Molecule Intra/kʙ       0.000000e+00 ( 0.000000e+00 +/- 0.000000e+00) [K]

Current cycle: 1000 out of 5000
===============================================================================

Box:      25.47642   0.00000   0.00000  Average:  25.60251   0.00000   0.00000
           0.00000  25.47642   0.00000             0.00000  25.60251   0.00000
           0.00000   0.00000  25.47642             0.00000   0.00000  25.60251
Lengths:  25.47642  25.47642  25.47642  Average:  25.60251  25.60251  25.60251
Angles:   90.00000  90.00000  90.00000  Average:  90.00000  90.00000  90.00000
Rectangular boundary conditions

net charge:   0.00000000

component 0 (CO2) lambda:  0 occupancy:  1 (1.000000)
    net charge:   0.00000000 [e]

Amount of molecules per component :
-------------------------------------------------------------------------------
Component 0 (CO2)
    molecules:      2.500000e+02 molecules  (2.500000e+02 +/- 0.000000e+00)
    number density: 1.511906e-02 molec./A^3 (1.489880e-02 +/- 0.000000e+00)
    density:        1.104625e+03 kg/m^3     (1.088532e+03 +/- 0.000000e+00)

Average pressure tensor: 
-------------------------------------------------------------------------------
 2.1206e+02 -3.3896e+01  2.0013e+01 +/- 0.0000e+00 0.0000e+00 0.0000e+00 [bar]
-3.3896e+01  1.2989e+02 -6.7865e+01 +/- 0.0000e+00 0.0000e+00 0.0000e+00 [bar]
 2.0013e+01 -6.7865e+01  1.3365e+02 +/- 0.0000e+00 0.0000e+00 0.0000e+00 [bar]
Ideal-gas pressure:   5.142507e+02 +/ 0.000000e+00 [bar]
Excess pressure:     -3.557167e+02 +/ 0.000000e+00 [bar]
Pressure:             1.585340e+02 +/ 0.000000e+00 [bar]

Total potential energy/kʙ  -3.907631e+05 (-3.943325e+05 +/- 0.000000e+00) [K]
-------------------------------------------------------------------------------
ExternalField-molecule
    Van der Waals/kʙ        0.000000e+00 ( 0.000000e+00 +/- 0.000000e+00) [K]
Framework-molecule
    Van der Waals/kʙ        0.000000e+00 ( 0.000000e+00 +/- 0.000000e+00) [K]
    Van der Waals (Tail)/kʙ 0.000000e+00 ( 0.000000e+00 +/- 0.000000e+00) [K]
    Coulombic Real/kʙ       0.000000e+00 ( 0.000000e+00 +/- 0.000000e+00) [K]
    Coulombic Fourier/kʙ    0.000000e+00 ( 0.000000e+00 +/- 0.000000e+00) [K]
Molecule-molecule
    Van der Waals/kʙ       -2.822642e+05 (-2.852149e+05 +/- 0.000000e+00) [K]
    Van der Waals (Tail)/kʙ-7.019418e+03 (-6.925743e+03 +/- 0.000000e+00) [K]
    Coulombic Real/kʙ      -9.284801e+04 (-9.354291e+04 +/- 0.000000e+00) [K]
    Coulombic Fourier/kʙ   -8.631449e+03 (-8.648961e+03 +/- 0.000000e+00) [K]
    Molecule Intra/kʙ       0.000000e+00 ( 0.000000e+00 +/- 0.000000e+00) [K]

Current cycle: 1100 out of 5000
===============================================================================

Box:      25.55500   0.00000   0.00000  Average:  25.59495   0.00000   0.00000
           0.00000  25.55500   0.00000             0.00000  25.59495   0.00000
           0.00000   0.00000  25.55500             0.00000   0.00000  25.59495
Lengths:  25.55500  25.55500  25.55500  Average:  25.59495  25.59495  25.59495
Angles:   90.00000  90.00000  90.00000  Average:  90.00000  90.00000  90.00000
Rectangular boundary conditions

net charge:   0.00000000

component 0 (CO2) lambda:  0 occupancy:  1 (1.000000)
    net charge:   0.00000000 [e]

Amount of molecules per component :
-------------------------------------------------------------------------------
Component 0 (CO2)
    molecules:      2.500000e+02 molecules  (2.500000e+02 +/- 0.000000e+00)
    number density: 1.498001e-02 molec./A^3 (1.491197e-02 +/- 0.000000e+00)
    density:        1.094465e+03 kg/m^3     (1.089494e+03 +/- 0.000000e+00)

Average pressure tensor: 
-------------------------------------------------------------------------------
 2.2620e+02 -2.9946e+01  2.8848e+01 +/- 0.0000e+00 0.0000e+00 0.0000e+00 [bar]
-2.9946e+01  1.2828e+02 -7.2223e+01 +/- 0.0000e+00 0.0000e+00 0.0000e+00 [bar]
 2.8848e+01 -7.2223e+01  1.3543e+02 +/- 0.0000e+00 0.0000e+00 0.0000e+00 [bar]
Ideal-gas pressure:   5.147054e+02 +/ 0.000000e+00 [bar]
Excess pressure:     -3.514014e+02 +/ 0.000000e+00 [bar]
Pressure:             1.633041e+02 +/ 0.000000e+00 [bar]

Total potential energy/kʙ  -3.892263e+05 (-3.945633e+05 +/- 0.000000e+00) [K]
-------------------------------------------------------------------------------
ExternalField-molecule
    Van der Waals/kʙ        0.000000e+00 ( 0.000000e+00 +/- 0.000000e+00) [K]
Framework-molecule
    Van der Waals/kʙ        0.000000e+00 ( 0.000000e+00 +/- 0.000000e+00) [K]
    Van der Waals (Tail)/kʙ 0.000000e+00 ( 0.000000e+00 +/- 0.000000e+00) [K]
    Coulombic Real/kʙ       0.000000e+00 ( 0.000000e+00 +/- 0.000000e+00) [K]
    Coulombic Fourier/kʙ    0.000000e+00 ( 0.000000e+00 +/- 0.000000e+00) [K]
Molecule-molecule
    Van der Waals/kʙ       -2.806111e+05 (-2.852353e+05 +/- 0.000000e+00) [K]
    Van der Waals (Tail)/kʙ-6.954859e+03 (-6.930236e+03 +/- 0.000000e+00) [K]
    Coulombic Real/kʙ      -9.269452e+04 (-9.372812e+04 +/- 0.000000e+00) [K]
    Coulombic Fourier/kʙ   -8.965770e+03 (-8.669589e+03 +/- 0.000000e+00) [K]
    Molecule Intra/kʙ       0.000000e+00 ( 0.000000e+00 +/- 0.000000e+00) [K]

Current cycle: 1200 out of 5000
===============================================================================

Box:      25.72220   0.00000   0.00000  Average:  25.59557   0.00000   0.00000
           0.00000  25.72220   0.00000             0.00000  25.59557   0.00000
           0.00000   0.00000  25.72220             0.00000   0.00000  25.59557
Lengths:  25.72220  25.72220  25.72220  Average:  25.59557  25.59557  25.59557
Angles:   90.00000  90.00000  90.00000  Average:  90.00000  90.00000  90.00000
Rectangular boundary conditions

net charge:   0.00000000

component 0 (CO2) lambda:  0 occupancy:  1 (1.000000)
    net charge:   0.00000000 [e]

Amount of molecules per component :
-------------------------------------------------------------------------------
Component 0 (CO2)
    molecules:      2.500000e+02 molecules  (2.500000e+02 +/- 0.000000e+00)
    number density: 1.468980e-02 molec./A^3 (1.491079e-02 +/- 0.000000e+00)
    density:        1.073262e+03 kg/m^3     (1.089408e+03 +/- 0.000000e+00)

Average pressure tensor: 
-------------------------------------------------------------------------------
 2.0902e+02 -3.9487e+01  1.9498e+01 +/- 0.0000e+00 0.0000e+00 0.0000e+00 [bar]
-3.9487e+01  1.1852e+02 -5.6523e+01 +/- 0.0000e+00 0.0000e+00 0.0000e+00 [bar]
 1.9498e+01 -5.6523e+01  1.2242e+02 +/- 0.0000e+00 0.0000e+00 0.0000e+00 [bar]
Ideal-gas pressure:   5.146646e+02 +/ 0.000000e+00 [bar]
Excess pressure:     -3.646751e+02 +/ 0.000000e+00 [bar]
Pressure:             1.499895e+02 +/ 0.000000e+00 [bar]

Total potential energy/kʙ  -3.916488e+05 (-3.942771e+05 +/- 0.000000e+00) [K]
-------------------------------------------------------------------------------
ExternalField-molecule
    Van der Waals/kʙ        0.000000e+00 ( 0.000000e+00 +/- 0.000000e+00) [K]
Framework-molecule
    Van der Waals/kʙ        0.000000e+00 ( 0.000000e+00 +/- 0.000000e+00) [K]
    Van der Waals (Tail)/kʙ 0.000000e+00 ( 0.000000e+00 +/- 0.000000e+00) [K]
    Coulombic Real/kʙ       0.000000e+00 ( 0.000000e+00 +/- 0.000000e+00) [K]
    Coulombic Fourier/kʙ    0.000000e+00 ( 0.000000e+00 +/- 0.000000e+00) [K]
Molecule-molecule
    Van der Waals/kʙ       -2.888497e+05 (-2.853865e+05 +/- 0.000000e+00) [K]
    Van der Waals (Tail)/kʙ-6.820121e+03 (-6.927635e+03 +/- 0.000000e+00) [K]
    Coulombic Real/kʙ      -8.710361e+04 (-9.329821e+04 +/- 0.000000e+00) [K]
    Coulombic Fourier/kʙ   -8.875342e+03 (-8.664729e+03 +/- 0.000000e+00) [K]
    Molecule Intra/kʙ       0.000000e+00 ( 0.000000e+00 +/- 0.000000e+00) [K]

Current cycle: 1300 out of 5000
===============================================================================

Box:      26.05119   0.00000   0.00000  Average:  25.60666   0.00000   0.00000
           0.00000  26.05119   0.00000             0.00000  25.60666   0.00000
           0.00000   0.00000  26.05119             0.00000   0.00000  25.60666
Lengths:  26.05119  26.05119  26.05119  Average:  25.60666  25.60666  25.60666
Angles:   90.00000  90.00000  90.00000  Average:  90.00000  90.00000  90.00000
Rectangular boundary conditions

net charge:   0.00000000

component 0 (CO2) lambda:  0 occupancy:  1 (1.000000)
    net charge:   0.00000000 [e]

Amount of molecules per component :
-------------------------------------------------------------------------------
Component 0 (CO2)
    molecules:      2.500000e+02 molecules  (2.500000e+02 +/- 0.000000e+00)
    number density: 1.414026e-02 molec./A^3 (1.489193e-02 +/- 0.000000e+00)
    density:        1.033112e+03 kg/m^3     (1.088030e+03 +/- 0.000000e+00)

Average pressure tensor: 
-------------------------------------------------------------------------------
 2.0208e+02 -3.2667e+01  1.2356e+01 +/- 0.0000e+00 0.0000e+00 0.0000e+00 [bar]
-3.2667e+01  1.1102e+02 -5.5142e+01 +/- 0.0000e+00 0.0000e+00 0.0000e+00 [bar]
 1.2356e+01 -5.5142e+01  1.0744e+02 +/- 0.0000e+00 0.0000e+00 0.0000e+00 [bar]
Ideal-gas pressure:   5.140136e+02 +/ 0.000000e+00 [bar]
Excess pressure:     -3.738338e+02 +/ 0.000000e+00 [bar]
Pressure:             1.401798e+02 +/ 0.000000e+00 [bar]

Total potential energy/kʙ  -3.657121e+05 (-3.935013e+05 +/- 0.000000e+00) [K]
-------------------------------------------------------------------------------
ExternalField-molecule
    Van der Waals/kʙ        0.000000e+00 ( 0.000000e+00 +/- 0.000000e+00) [K]
Framework-molecule
    Van der Waals/kʙ        0.000000e+00 ( 0.000000e+00 +/- 0.000000e+00) [K]
    Van der Waals (Tail)/kʙ 0.000000e+00 ( 0.000000e+00 +/- 0.000000e+00) [K]
    Coulombic Real/kʙ       0.000000e+00 ( 0.000000e+00 +/- 0.000000e+00) [K]
    Coulombic Fourier/kʙ    0.000000e+00 ( 0.000000e+00 +/- 0.000000e+00) [K]
Molecule-molecule
    Van der Waals/kʙ       -2.743259e+05 (-2.849636e+05 +/- 0.000000e+00) [K]
    Van der Waals (Tail)/kʙ-6.564984e+03 (-6.916640e+03 +/- 0.000000e+00) [K]
    Coulombic Real/kʙ      -7.687003e+04 (-9.298220e+04 +/- 0.000000e+00) [K]
    Coulombic Fourier/kʙ   -7.951190e+03 (-8.638768e+03 +/- 0.000000e+00) [K]
    Molecule Intra/kʙ       0.000000e+00 ( 0.000000e+00 +/- 0.000000e+00) [K]

Current cycle: 1400 out of 5000
===============================================================================

Box:      25.95023   0.00000   0.00000  Average:  25.63464   0.00000   0.00000
           0.00000  25.95023   0.00000             0.00000  25.63464   0.00000
           0.00000   0.00000  25.95023             0.00000   0.00000  25.63464
Lengths:  25.95023  25.95023  25.95023  Average:  25.63464  25.63464  25.63464
Angles:   90.00000  90.00000  90.00000  Average:  90.00000  90.00000  90.00000
Rectangular boundary conditions

net charge:   0.00000000

component 0 (CO2) lambda:  0 occupancy:  1 (1.000000)
    net charge:   0.00000000 [e]

Amount of molecules per component :
-------------------------------------------------------------------------------
Component 0 (CO2)
    molecules:      2.500000e+02 molecules  (2.500000e+02 +/- 0.000000e+00)
    number density: 1.430594e-02 molec./A^3 (1.484446e-02 +/- 0.000000e+00)
    density:        1.045216e+03 kg/m^3     (1.084562e+03 +/- 0.000000e+00)

Average pressure tensor: 
-------------------------------------------------------------------------------
 2.0560e+02 -3.3065e+01  1.9455e+01 +/- 0.0000e+00 0.0000e+00 0.0000e+00 [bar]
-3.3065e+01  1.0146e+02 -5.2107e+01 +/- 0.0000e+00 0.0000e+00 0.0000e+00 [bar]
 1.9455e+01 -5.2107e+01  1.0849e+02 +/- 0.0000e+00 0.0000e+00 0.0000e+00 [bar]
Ideal-gas pressure:   5.123753e+02 +/ 0.000000e+00 [bar]
Excess pressure:     -3.738574e+02 +/ 0.000000e+00 [bar]
Pressure:             1.385179e+02 +/ 0.000000e+00 [bar]

Total potential energy/kʙ  -3.897499e+05 (-3.924521e+05 +/- 0.000000e+00) [K]
-------------------------------------------------------------------------------
ExternalField-molecule
    Van der Waals/kʙ        0.000000e+00 ( 0.000000e+00 +/- 0.000000e+00) [K]
Framework-molecule
    Van der Waals/kʙ        0.000000e+00 ( 0.000000e+00 +/- 0.000000e+00) [K]
    Van der Waals (Tail)/kʙ 0.000000e+00 ( 0.000000e+00 +/- 0.000000e+00) [K]
    Coulombic Real/kʙ       0.000000e+00 ( 0.000000e+00 +/- 0.000000e+00) [K]
    Coulombic Fourier/kʙ    0.000000e+00 ( 0.000000e+00 +/- 0.000000e+00) [K]
Molecule-molecule
    Van der Waals/kʙ       -2.783330e+05 (-2.841140e+05 +/- 0.000000e+00) [K]
    Van der Waals (Tail)/kʙ-6.641904e+03 (-6.895808e+03 +/- 0.000000e+00) [K]
    Coulombic Real/kʙ      -9.567845e+04 (-9.280036e+04 +/- 0.000000e+00) [K]
    Coulombic Fourier/kʙ   -9.096522e+03 (-8.641939e+03 +/- 0.000000e+00) [K]
    Molecule Intra/kʙ       0.000000e+00 ( 0.000000e+00 +/- 0.000000e+00) [K]

Current cycle: 1500 out of 5000
===============================================================================

Box:      25.82415   0.00000   0.00000  Average:  25.64890   0.00000   0.00000
           0.00000  25.82415   0.00000             0.00000  25.64890   0.00000
           0.00000   0.00000  25.82415             0.00000   0.00000  25.64890
Lengths:  25.82415  25.82415  25.82415  Average:  25.64890  25.64890  25.64890
Angles:   90.00000  90.00000  90.00000  Average:  90.00000  90.00000  90.00000
Rectangular boundary conditions

net charge:   0.00000000

component 0 (CO2) lambda:  0 occupancy:  1 (1.000000)
    net charge:   0.00000000 [e]

Amount of molecules per component :
-------------------------------------------------------------------------------
Component 0 (CO2)
    molecules:      2.500000e+02 molecules  (2.500000e+02 +/- 0.000000e+00)
    number density: 1.451650e-02 molec./A^3 (1.481996e-02 +/- 0.000000e+00)
    density:        1.060600e+03 kg/m^3     (1.082772e+03 +/- 0.000000e+00)

Average pressure tensor: 
-------------------------------------------------------------------------------
 2.0481e+02 -3.2783e+01  1.5077e+01 +/- 0.0000e+00 0.0000e+00 0.0000e+00 [bar]
-3.2783e+01  9.1572e+01 -5.5077e+01 +/- 0.0000e+00 0.0000e+00 0.0000e+00 [bar]
 1.5077e+01 -5.5077e+01  1.0313e+02 +/- 0.0000e+00 0.0000e+00 0.0000e+00 [bar]
Ideal-gas pressure:   5.115296e+02 +/ 0.000000e+00 [bar]
Excess pressure:     -3.783598e+02 +/ 0.000000e+00 [bar]
Pressure:             1.331698e+02 +/ 0.000000e+00 [bar]

Total potential energy/kʙ  -3.813143e+05 (-3.916711e+05 +/- 0.000000e+00) [K]
-------------------------------------------------------------------------------
ExternalField-molecule
    Van der Waals/kʙ        0.000000e+00 ( 0.000000e+00 +/- 0.000000e+00) [K]
Framework-molecule
    Van der Waals/kʙ        0.000000e+00 ( 0.000000e+00 +/- 0.000000e+00) [K]
    Van der Waals (Tail)/kʙ 0.000000e+00 ( 0.000000e+00 +/- 0.000000e+00) [K]
    Coulombic Real/kʙ       0.000000e+00 ( 0.000000e+00 +/- 0.000000e+00) [K]
    Coulombic Fourier/kʙ    0.000000e+00 ( 0.000000e+00 +/- 0.000000e+00) [K]
Molecule-molecule
    Van der Waals/kʙ       -2.785082e+05 (-2.835611e+05 +/- 0.000000e+00) [K]
    Van der Waals (Tail)/kʙ-6.739661e+03 (-6.884540e+03 +/- 0.000000e+00) [K]
    Coulombic Real/kʙ      -8.761142e+04 (-9.258263e+04 +/- 0.000000e+00) [K]
    Coulombic Fourier/kʙ   -8.455011e+03 (-8.642815e+03 +/- 0.000000e+00) [K]
    Molecule Intra/kʙ       0.000000e+00 ( 0.000000e+00 +/- 0.000000e+00) [K]

Current cycle: 1600 out of 5000
===============================================================================

Box:      25.65149   0.00000   0.00000  Average:  25.65191   0.00000   0.00000
           0.00000  25.65149   0.00000             0.00000  25.65191   0.00000
           0.00000   0.00000  25.65149             0.00000   0.00000  25.65191
Lengths:  25.65149  25.65149  25.65149  Average:  25.65191  25.65191  25.65191
Angles:   90.00000  90.00000  90.00000  Average:  90.00000  90.00000  90.00000
Rectangular boundary conditions

net charge:   0.00000000

component 0 (CO2) lambda:  0 occupancy:  1 (1.000000)
    net charge:   0.00000000 [e]

Amount of molecules per component :
-------------------------------------------------------------------------------
Component 0 (CO2)
    molecules:      2.500000e+02 molecules  (2.500000e+02 +/- 0.000000e+00)
    number density: 1.481162e-02 molec./A^3 (1.481459e-02 +/- 0.000000e+00)
    density:        1.082162e+03 kg/m^3     (1.082379e+03 +/- 0.000000e+00)

Average pressure tensor: 
-------------------------------------------------------------------------------
 2.0469e+02 -2.8983e+01  1.5983e+01 +/- 0.0000e+00 0.0000e+00 0.0000e+00 [bar]
-2.8983e+01  9.2666e+01 -6.1167e+01 +/- 0.0000e+00 0.0000e+00 0.0000e+00 [bar]
 1.5983e+01 -6.1167e+01  9.4750e+01 +/- 0.0000e+00 0.0000e+00 0.0000e+00 [bar]
Ideal-gas pressure:   5.113442e+02 +/ 0.000000e+00 [bar]
Excess pressure:     -3.806421e+02 +/ 0.000000e+00 [bar]
Pressure:             1.307021e+02 +/ 0.000000e+00 [bar]

Total potential energy/kʙ  -3.936074e+05 (-3.915311e+05 +/- 0.000000e+00) [K]
-------------------------------------------------------------------------------
ExternalField-molecule
    Van der Waals/kʙ        0.000000e+00 ( 0.000000e+00 +/- 0.000000e+00) [K]
Framework-molecule
    Van der Waals/kʙ        0.000000e+00 ( 0.000000e+00 +/- 0.000000e+00) [K]
    Van der Waals (Tail)/kʙ 0.000000e+00 ( 0.000000e+00 +/- 0.000000e+00) [K]
    Coulombic Real/kʙ       0.000000e+00 ( 0.000000e+00 +/- 0.000000e+00) [K]
    Coulombic Fourier/kʙ    0.000000e+00 ( 0.000000e+00 +/- 0.000000e+00) [K]
Molecule-molecule
    Van der Waals/kʙ       -2.883486e+05 (-2.833538e+05 +/- 0.000000e+00) [K]
    Van der Waals (Tail)/kʙ-6.876678e+03 (-6.882026e+03 +/- 0.000000e+00) [K]
    Coulombic Real/kʙ      -9.069565e+04 (-9.264939e+04 +/- 0.000000e+00) [K]
    Coulombic Fourier/kʙ   -7.686431e+03 (-8.645905e+03 +/- 0.000000e+00) [K]
    Molecule Intra/kʙ       0.000000e+00 ( 0.000000e+00 +/- 0.000000e+00) [K]

Current cycle: 1700 out of 5000
===============================================================================

Box:      25.95924   0.00000   0.00000  Average:  25.65830   0.00000   0.00000
           0.00000  25.95924   0.00000             0.00000  25.65830   0.00000
           0.00000   0.00000  25.95924             0.00000   0.00000  25.65830
Lengths:  25.95924  25.95924  25.95924  Average:  25.65830  25.65830  25.65830
Angles:   90.00000  90.00000  90.00000  Average:  90.00000  90.00000  90.00000
Rectangular boundary conditions

net charge:   0.00000000

component 0 (CO2) lambda:  0 occupancy:  1 (1.000000)
    net charge:   0.00000000 [e]

Amount of molecules per component :
-------------------------------------------------------------------------------
Component 0 (CO2)
    molecules:      2.500000e+02 molecules  (2.500000e+02 +/- 0.000000e+00)
    number density: 1.429105e-02 molec./A^3 (1.480346e-02 +/- 0.000000e+00)
    density:        1.044129e+03 kg/m^3     (1.081566e+03 +/- 0.000000e+00)

Average pressure tensor: 
-------------------------------------------------------------------------------
 1.9443e+02 -3.2010e+01  2.0413e+01 +/- 0.0000e+00 0.0000e+00 0.0000e+00 [bar]
-3.2010e+01  9.6831e+01 -6.1187e+01 +/- 0.0000e+00 0.0000e+00 0.0000e+00 [bar]
 2.0413e+01 -6.1187e+01  1.0885e+02 +/- 0.0000e+00 0.0000e+00 0.0000e+00 [bar]
Ideal-gas pressure:   5.109600e+02 +/ 0.000000e+00 [bar]
Excess pressure:     -3.775910e+02 +/ 0.000000e+00 [bar]
Pressure:             1.333691e+02 +/ 0.000000e+00 [bar]

Total potential energy/kʙ  -3.804887e+05 (-3.913184e+05 +/- 0.000000e+00) [K]
-------------------------------------------------------------------------------
ExternalField-molecule
    Van der Waals/kʙ        0.000000e+00 ( 0.000000e+00 +/- 0.000000e+00) [K]
Framework-molecule
    Van der Waals/kʙ        0.000000e+00 ( 0.000000e+00 +/- 0.000000e+00) [K]
    Van der Waals (Tail)/kʙ 0.000000e+00 ( 0.000000e+00 +/- 0.000000e+00) [K]
    Coulombic Real/kʙ       0.000000e+00 ( 0.000000e+00 +/- 0.000000e+00) [K]
    Coulombic Fourier/kʙ    0.000000e+00 ( 0.000000e+00 +/- 0.000000e+00) [K]
Molecule-molecule
    Van der Waals/kʙ       -2.773730e+05 (-2.831505e+05 +/- 0.000000e+00) [K]
    Van der Waals (Tail)/kʙ-6.634991e+03 (-6.877316e+03 +/- 0.000000e+00) [K]
    Coulombic Real/kʙ      -8.809340e+04 (-9.266660e+04 +/- 0.000000e+00) [K]
    Coulombic Fourier/kʙ   -8.387305e+03 (-8.624036e+03 +/- 0.000000e+00) [K]
    Molecule Intra/kʙ       0.000000e+00 ( 0.000000e+00 +/- 0.000000e+00) [K]

Current cycle: 1800 out of 5000
===============================================================================

Box:      25.65700   0.00000   0.00000  Average:  25.65705   0.00000   0.00000
           0.00000  25.65700   0.00000             0.00000  25.65705   0.00000
           0.00000   0.00000  25.65700             0.00000   0.00000  25.65705
Lengths:  25.65700  25.65700  25.65700  Average:  25.65705  25.65705  25.65705
Angles:   90.00000  90.00000  90.00000  Average:  90.00000  90.00000  90.00000
Rectangular boundary conditions

net charge:   0.00000000

component 0 (CO2) lambda:  0 occupancy:  1 (1.000000)
    net charge:   0.00000000 [e]

Amount of molecules per component :
-------------------------------------------------------------------------------
Component 0 (CO2)
    molecules:      2.500000e+02 molecules  (2.500000e+02 +/- 0.000000e+00)
    number density: 1.480206e-02 molec./A^3 (1.480549e-02 +/- 0.000000e+00)
    density:        1.081464e+03 kg/m^3     (1.081715e+03 +/- 0.000000e+00)

Average pressure tensor: 
-------------------------------------------------------------------------------
 1.9001e+02 -2.5566e+01  2.4485e+01 +/- 0.0000e+00 0.0000e+00 0.0000e+00 [bar]
-2.5566e+01  1.0128e+02 -6.0573e+01 +/- 0.0000e+00 0.0000e+00 0.0000e+00 [bar]
 2.4485e+01 -6.0573e+01  1.0412e+02 +/- 0.0000e+00 0.0000e+00 0.0000e+00 [bar]
Ideal-gas pressure:   5.110302e+02 +/ 0.000000e+00 [bar]
Excess pressure:     -3.792263e+02 +/ 0.000000e+00 [bar]
Pressure:             1.318038e+02 +/ 0.000000e+00 [bar]

Total potential energy/kʙ  -3.883755e+05 (-3.912966e+05 +/- 0.000000e+00) [K]
-------------------------------------------------------------------------------
ExternalField-molecule
    Van der Waals/kʙ        0.000000e+00 ( 0.000000e+00 +/- 0.000000e+00) [K]
Framework-molecule
    Van der Waals/kʙ        0.000000e+00 ( 0.000000e+00 +/- 0.000000e+00) [K]
    Van der Waals (Tail)/kʙ 0.000000e+00 ( 0.000000e+00 +/- 0.000000e+00) [K]
    Coulombic Real/kʙ       0.000000e+00 ( 0.000000e+00 +/- 0.000000e+00) [K]
    Coulombic Fourier/kʙ    0.000000e+00 ( 0.000000e+00 +/- 0.000000e+00) [K]
Molecule-molecule
    Van der Waals/kʙ       -2.834153e+05 (-2.832068e+05 +/- 0.000000e+00) [K]
    Van der Waals (Tail)/kʙ-6.872241e+03 (-6.878697e+03 +/- 0.000000e+00) [K]
    Coulombic Real/kʙ      -8.923303e+04 (-9.257359e+04 +/- 0.000000e+00) [K]
    Coulombic Fourier/kʙ   -8.854923e+03 (-8.637474e+03 +/- 0.000000e+00) [K]
    Molecule Intra/kʙ       0.000000e+00 ( 0.000000e+00 +/- 0.000000e+00) [K]

Current cycle: 1900 out of 5000
===============================================================================

Box:      25.47279   0.00000   0.00000  Average:  25.64758   0.00000   0.00000
           0.00000  25.47279   0.00000             0.00000  25.64758   0.00000
           0.00000   0.00000  25.47279             0.00000   0.00000  25.64758
Lengths:  25.47279  25.47279  25.47279  Average:  25.64758  25.64758  25.64758
Angles:   90.00000  90.00000  90.00000  Average:  90.00000  90.00000  90.00000
Rectangular boundary conditions

net charge:   0.00000000

component 0 (CO2) lambda:  0 occupancy:  1 (1.000000)
    net charge:   0.00000000 [e]

Amount of molecules per component :
-------------------------------------------------------------------------------
Component 0 (CO2)
    molecules:      2.500000e+02 molecules  (2.500000e+02 +/- 0.000000e+00)
    number density: 1.512553e-02 molec./A^3 (1.482198e-02 +/- 0.000000e+00)
    density:        1.105097e+03 kg/m^3     (1.082919e+03 +/- 0.000000e+00)

Average pressure tensor: 
-------------------------------------------------------------------------------
 2.0285e+02 -3.5096e+01  2.3777e+01 +/- 0.0000e+00 0.0000e+00 0.0000e+00 [bar]
-3.5096e+01  1.0178e+02 -6.5649e+01 +/- 0.0000e+00 0.0000e+00 0.0000e+00 [bar]
 2.3777e+01 -6.5649e+01  1.0487e+02 +/- 0.0000e+00 0.0000e+00 0.0000e+00 [bar]
Ideal-gas pressure:   5.115993e+02 +/ 0.000000e+00 [bar]
Excess pressure:     -3.750968e+02 +/ 0.000000e+00 [bar]
Pressure:             1.365025e+02 +/ 0.000000e+00 [bar]

Total potential energy/kʙ  -3.964334e+05 (-3.914857e+05 +/- 0.000000e+00) [K]
-------------------------------------------------------------------------------
ExternalField-molecule
    Van der Waals/kʙ        0.000000e+00 ( 0.000000e+00 +/- 0.000000e+00) [K]
Framework-molecule
    Van der Waals/kʙ        0.000000e+00 ( 0.000000e+00 +/- 0.000000e+00) [K]
    Van der Waals (Tail)/kʙ 0.000000e+00 ( 0.000000e+00 +/- 0.000000e+00) [K]
    Coulombic Real/kʙ       0.000000e+00 ( 0.000000e+00 +/- 0.000000e+00) [K]
    Coulombic Fourier/kʙ    0.000000e+00 ( 0.000000e+00 +/- 0.000000e+00) [K]
Molecule-molecule
    Van der Waals/kʙ       -2.946746e+05 (-2.834027e+05 +/- 0.000000e+00) [K]
    Van der Waals (Tail)/kʙ-7.022422e+03 (-6.885694e+03 +/- 0.000000e+00) [K]
    Coulombic Real/kʙ      -8.576366e+04 (-9.253406e+04 +/- 0.000000e+00) [K]
    Coulombic Fourier/kʙ   -8.972689e+03 (-8.663312e+03 +/- 0.000000e+00) [K]
    Molecule Intra/kʙ       0.000000e+00 ( 0.000000e+00 +/- 0.000000e+00) [K]

Current cycle: 2000 out of 5000
===============================================================================

Box:      25.56708   0.00000   0.00000  Average:  25.63906   0.00000   0.00000
           0.00000  25.56708   0.00000             0.00000  25.63906   0.00000
           0.00000   0.00000  25.56708             0.00000   0.00000  25.63906
Lengths:  25.56708  25.56708  25.56708  Average:  25.63906  25.63906  25.63906
Angles:   90.00000  90.00000  90.00000  Average:  90.00000  90.00000  90.00000
Rectangular boundary conditions

net charge:   0.00000000

component 0 (CO2) lambda:  0 occupancy:  1 (1.000000)
    net charge:   0.00000000 [e]

Amount of molecules per component :
-------------------------------------------------------------------------------
Component 0 (CO2)
    molecules:      2.500000e+02 molecules  (2.500000e+02 +/- 0.000000e+00)
    number density: 1.495879e-02 molec./A^3 (1.483683e-02 +/- 0.000000e+00)
    density:        1.092915e+03 kg/m^3     (1.084005e+03 +/- 0.000000e+00)

Average pressure tensor: 
-------------------------------------------------------------------------------
 2.0639e+02 -3.1373e+01  2.1125e+01 +/- 0.0000e+00 0.0000e+00 0.0000e+00 [bar]
-3.1373e+01  9.8432e+01 -7.1254e+01 +/- 0.0000e+00 0.0000e+00 0.0000e+00 [bar]
 2.1125e+01 -7.1254e+01  9.9688e+01 +/- 0.0000e+00 0.0000e+00 0.0000e+00 [bar]
Ideal-gas pressure:   5.121120e+02 +/ 0.000000e+00 [bar]
Excess pressure:     -3.772754e+02 +/ 0.000000e+00 [bar]
Pressure:             1.348366e+02 +/ 0.000000e+00 [bar]

Total potential energy/kʙ  -3.920663e+05 (-3.917872e+05 +/- 0.000000e+00) [K]
-------------------------------------------------------------------------------
ExternalField-molecule
    Van der Waals/kʙ        0.000000e+00 ( 0.000000e+00 +/- 0.000000e+00) [K]
Framework-molecule
    Van der Waals/kʙ        0.000000e+00 ( 0.000000e+00 +/- 0.000000e+00) [K]
    Van der Waals (Tail)/kʙ 0.000000e+00 ( 0.000000e+00 +/- 0.000000e+00) [K]
    Coulombic Real/kʙ       0.000000e+00 ( 0.000000e+00 +/- 0.000000e+00) [K]
    Coulombic Fourier/kʙ    0.000000e+00 ( 0.000000e+00 +/- 0.000000e+00) [K]
Molecule-molecule
    Van der Waals/kʙ       -2.816801e+05 (-2.837358e+05 +/- 0.000000e+00) [K]
    Van der Waals (Tail)/kʙ-6.945009e+03 (-6.892006e+03 +/- 0.000000e+00) [K]
    Coulombic Real/kʙ      -9.419366e+04 (-9.247302e+04 +/- 0.000000e+00) [K]
    Coulombic Fourier/kʙ   -9.247613e+03 (-8.686455e+03 +/- 0.000000e+00) [K]
    Molecule Intra/kʙ       0.000000e+00 ( 0.000000e+00 +/- 0.000000e+00) [K]

Current cycle: 2100 out of 5000
===============================================================================

Box:      25.46874   0.00000   0.00000  Average:  25.62956   0.00000   0.00000
           0.00000  25.46874   0.00000             0.00000  25.62956   0.00000
           0.00000   0.00000  25.46874             0.00000   0.00000  25.62956
Lengths:  25.46874  25.46874  25.46874  Average:  25.62956  25.62956  25.62956
Angles:   90.00000  90.00000  90.00000  Average:  90.00000  90.00000  90.00000
Rectangular boundary conditions

net charge:   0.00000000

component 0 (CO2) lambda:  0 occupancy:  1 (1.000000)
    net charge:   0.00000000 [e]

Amount of molecules per component :
-------------------------------------------------------------------------------
Component 0 (CO2)
    molecules:      2.500000e+02 molecules  (2.500000e+02 +/- 0.000000e+00)
    number density: 1.513274e-02 molec./A^3 (1.485343e-02 +/- 0.000000e+00)
    density:        1.105624e+03 kg/m^3     (1.085217e+03 +/- 0.000000e+00)

Average pressure tensor: 
-------------------------------------------------------------------------------
 2.0782e+02 -2.5136e+01  1.9330e+01 +/- 0.0000e+00 0.0000e+00 0.0000e+00 [bar]
-2.5136e+01  1.0116e+02 -6.5924e+01 +/- 0.0000e+00 0.0000e+00 0.0000e+00 [bar]
 1.9330e+01 -6.5924e+01  9.4674e+01 +/- 0.0000e+00 0.0000e+00 0.0000e+00 [bar]
Ideal-gas pressure:   5.126848e+02 +/ 0.000000e+00 [bar]
Excess pressure:     -3.781355e+02 +/ 0.000000e+00 [bar]
Pressure:             1.345493e+02 +/ 0.000000e+00 [bar]

Total potential energy/kʙ  -4.025601e+05 (-3.925173e+05 +/- 0.000000e+00) [K]
-------------------------------------------------------------------------------
ExternalField-molecule
    Van der Waals/kʙ        0.000000e+00 ( 0.000000e+00 +/- 0.000000e+00) [K]
Framework-molecule
    Van der Waals/kʙ        0.000000e+00 ( 0.000000e+00 +/- 0.000000e+00) [K]
    Van der Waals (Tail)/kʙ 0.000000e+00 ( 0.000000e+00 +/- 0.000000e+00) [K]
[...]
    Coulombic Fourier/kʙ    0.000000e+00 ( 0.000000e+00 +/- 0.000000e+00) [K]
Molecule-molecule
    Van der Waals/kʙ       -2.908524e+05 (-2.827887e+05 +/- 5.731921e+03) [K]
    Van der Waals (Tail)/kʙ-6.795493e+03 (-6.871069e+03 +/- 1.287558e+02) [K]
    Coulombic Real/kʙ      -8.680967e+04 (-9.237015e+04 +/- 1.681338e+03) [K]
    Coulombic Fourier/kʙ   -8.493925e+03 (-8.628584e+03 +/- 1.301678e+02) [K]
    Molecule Intra/kʙ       0.000000e+00 ( 0.000000e+00 +/- 0.000000e+00) [K]

Current cycle: 4700 out of 5000
===============================================================================

Box:      25.76128   0.00000   0.00000  Average:  25.65929   0.00000   0.00000
           0.00000  25.76128   0.00000             0.00000  25.65929   0.00000
           0.00000   0.00000  25.76128             0.00000   0.00000  25.65929
Lengths:  25.76128  25.76128  25.76128  Average:  25.65929  25.65929  25.65929
Angles:   90.00000  90.00000  90.00000  Average:  90.00000  90.00000  90.00000
Rectangular boundary conditions

net charge:   0.00000000

component 0 (CO2) lambda:  0 occupancy:  1 (1.000000)
    net charge:   0.00000000 [e]

Amount of molecules per component :
-------------------------------------------------------------------------------
Component 0 (CO2)
    molecules:      2.500000e+02 molecules  (2.500000e+02 +/- 3.944933e-14)
    number density: 1.462304e-02 molec./A^3 (1.480450e-02 +/- 2.870778e-04)
    density:        1.068384e+03 kg/m^3     (1.081642e+03 +/- 2.097440e+01)

Average pressure tensor: 
-------------------------------------------------------------------------------
 1.3704e+02  1.5383e+01 -6.2654e+00 +/- 1.4374e+02 6.0513e+01 3.3845e+01 [bar]
 1.5383e+01  1.0740e+02 -4.0366e+01 +/- 6.0513e+01 7.0613e+01 5.2193e+01 [bar]
-6.2654e+00 -4.0366e+01  1.5158e+02 +/- 3.3845e+01 5.2193e+01 1.1717e+02 [bar]
Ideal-gas pressure:   5.109959e+02 +/ 9.908852e+00 [bar]
Excess pressure:     -3.789897e+02 +/ 2.088497e+01 [bar]
Pressure:             1.320062e+02 +/ 2.116452e+01 [bar]

Total potential energy/kʙ  -3.892775e+05 (-3.907086e+05 +/- 7.205436e+03) [K]
-------------------------------------------------------------------------------
ExternalField-molecule
    Van der Waals/kʙ        0.000000e+00 ( 0.000000e+00 +/- 0.000000e+00) [K]
Framework-molecule
    Van der Waals/kʙ        0.000000e+00 ( 0.000000e+00 +/- 0.000000e+00) [K]
    Van der Waals (Tail)/kʙ 0.000000e+00 ( 0.000000e+00 +/- 0.000000e+00) [K]
    Coulombic Real/kʙ       0.000000e+00 ( 0.000000e+00 +/- 0.000000e+00) [K]
    Coulombic Fourier/kʙ    0.000000e+00 ( 0.000000e+00 +/- 0.000000e+00) [K]
Molecule-molecule
    Van der Waals/kʙ       -2.868689e+05 (-2.828775e+05 +/- 5.654301e+03) [K]
    Van der Waals (Tail)/kʙ-6.789125e+03 (-6.873138e+03 +/- 1.272124e+02) [K]
    Coulombic Real/kʙ      -8.694962e+04 (-9.233178e+04 +/- 1.486337e+03) [K]
    Coulombic Fourier/kʙ   -8.669900e+03 (-8.626197e+03 +/- 1.232213e+02) [K]
    Molecule Intra/kʙ       0.000000e+00 ( 0.000000e+00 +/- 0.000000e+00) [K]

Current cycle: 4800 out of 5000
===============================================================================

Box:      25.50268   0.00000   0.00000  Average:  25.65837   0.00000   0.00000
           0.00000  25.50268   0.00000             0.00000  25.65837   0.00000
           0.00000   0.00000  25.50268             0.00000   0.00000  25.65837
Lengths:  25.50268  25.50268  25.50268  Average:  25.65837  25.65837  25.65837
Angles:   90.00000  90.00000  90.00000  Average:  90.00000  90.00000  90.00000
Rectangular boundary conditions

net charge:   0.00000000

component 0 (CO2) lambda:  0 occupancy:  1 (1.000000)
    net charge:   0.00000000 [e]

Amount of molecules per component :
-------------------------------------------------------------------------------
Component 0 (CO2)
    molecules:      2.500000e+02 molecules  (2.500000e+02 +/- 0.000000e+00)
    number density: 1.507241e-02 molec./A^3 (1.480599e-02 +/- 2.773668e-04)
    density:        1.101216e+03 kg/m^3     (1.081751e+03 +/- 2.026489e+01)

Average pressure tensor: 
-------------------------------------------------------------------------------
 1.3978e+02  1.3117e+01 -2.9024e+00 +/- 1.4003e+02 6.1372e+01 2.9866e+01 [bar]
 1.3117e+01  1.1022e+02 -3.8804e+01 +/- 6.1372e+01 6.4632e+01 5.0753e+01 [bar]
-2.9024e+00 -3.8804e+01  1.4643e+02 +/- 2.9866e+01 5.0753e+01 1.0023e+02 [bar]
Ideal-gas pressure:   5.110472e+02 +/ 9.573664e+00 [bar]
Excess pressure:     -3.789024e+02 +/ 2.064730e+01 [bar]
Pressure:             1.321448e+02 +/ 2.117961e+01 [bar]

Total potential energy/kʙ  -3.981729e+05 (-3.906747e+05 +/- 6.852807e+03) [K]
-------------------------------------------------------------------------------
ExternalField-molecule
    Van der Waals/kʙ        0.000000e+00 ( 0.000000e+00 +/- 0.000000e+00) [K]
Framework-molecule
    Van der Waals/kʙ        0.000000e+00 ( 0.000000e+00 +/- 0.000000e+00) [K]
    Van der Waals (Tail)/kʙ 0.000000e+00 ( 0.000000e+00 +/- 0.000000e+00) [K]
    Coulombic Real/kʙ       0.000000e+00 ( 0.000000e+00 +/- 0.000000e+00) [K]
    Coulombic Fourier/kʙ    0.000000e+00 ( 0.000000e+00 +/- 0.000000e+00) [K]
Molecule-molecule
    Van der Waals/kʙ       -2.935325e+05 (-2.829259e+05 +/- 5.527407e+03) [K]
    Van der Waals (Tail)/kʙ-6.997759e+03 (-6.873859e+03 +/- 1.236588e+02) [K]
    Coulombic Real/kʙ      -9.016240e+04 (-9.226425e+04 +/- 1.317251e+03) [K]
    Coulombic Fourier/kʙ   -7.480216e+03 (-8.610704e+03 +/- 1.155201e+02) [K]
    Molecule Intra/kʙ       0.000000e+00 ( 0.000000e+00 +/- 0.000000e+00) [K]

Current cycle: 4900 out of 5000
===============================================================================

Box:      25.58071   0.00000   0.00000  Average:  25.65742   0.00000   0.00000
           0.00000  25.58071   0.00000             0.00000  25.65742   0.00000
           0.00000   0.00000  25.58071             0.00000   0.00000  25.65742
Lengths:  25.58071  25.58071  25.58071  Average:  25.65742  25.65742  25.65742
Angles:   90.00000  90.00000  90.00000  Average:  90.00000  90.00000  90.00000
Rectangular boundary conditions

net charge:   0.00000000

component 0 (CO2) lambda:  0 occupancy:  1 (1.000000)
    net charge:   0.00000000 [e]

Amount of molecules per component :
-------------------------------------------------------------------------------
Component 0 (CO2)
    molecules:      2.500000e+02 molecules  (2.500000e+02 +/- 0.000000e+00)
    number density: 1.493489e-02 molec./A^3 (1.480753e-02 +/- 2.705379e-04)
    density:        1.091169e+03 kg/m^3     (1.081864e+03 +/- 1.976596e+01)

Average pressure tensor: 
-------------------------------------------------------------------------------
 1.3980e+02  1.4180e+01 -2.6399e+00 +/- 1.3942e+02 6.0762e+01 2.9768e+01 [bar]
 1.4180e+01  1.0676e+02 -3.4515e+01 +/- 6.0762e+01 6.8044e+01 5.0572e+01 [bar]
-2.6399e+00 -3.4515e+01  1.4156e+02 +/- 2.9768e+01 5.0572e+01 9.0396e+01 [bar]
Ideal-gas pressure:   5.111006e+02 +/ 9.337957e+00 [bar]
Excess pressure:     -3.817253e+02 +/ 2.386938e+01 [bar]
Pressure:             1.293753e+02 +/ 2.243263e+01 [bar]

Total potential energy/kʙ  -3.938996e+05 (-3.907675e+05 +/- 6.806402e+03) [K]
-------------------------------------------------------------------------------
ExternalField-molecule
    Van der Waals/kʙ        0.000000e+00 ( 0.000000e+00 +/- 0.000000e+00) [K]
Framework-molecule
    Van der Waals/kʙ        0.000000e+00 ( 0.000000e+00 +/- 0.000000e+00) [K]
    Van der Waals (Tail)/kʙ 0.000000e+00 ( 0.000000e+00 +/- 0.000000e+00) [K]
    Coulombic Real/kʙ       0.000000e+00 ( 0.000000e+00 +/- 0.000000e+00) [K]
    Coulombic Fourier/kʙ    0.000000e+00 ( 0.000000e+00 +/- 0.000000e+00) [K]
Molecule-molecule
    Van der Waals/kʙ       -2.775086e+05 (-2.829501e+05 +/- 5.397261e+03) [K]
    Van der Waals (Tail)/kʙ-6.933913e+03 (-6.874082e+03 +/- 1.203119e+02) [K]
    Coulombic Real/kʙ      -9.995145e+04 (-9.232753e+04 +/- 1.382111e+03) [K]
    Coulombic Fourier/kʙ   -9.505611e+03 (-8.615735e+03 +/- 1.150213e+02) [K]
    Molecule Intra/kʙ       0.000000e+00 ( 0.000000e+00 +/- 0.000000e+00) [K]


Energy statistics             |  Energy [K]   | Recomputed [K]|  Drift [K]    |
===============================================================================
Total potential energy/kʙ     | -3.937370e+05 | -3.937370e+05 | -3.661187e-09 |
    external field VDW/kʙ     |  0.000000e+00 |  0.000000e+00 |  0.000000e+00 |
    external field Real/kʙ    |  0.000000e+00 |  0.000000e+00 |  0.000000e+00 |
    framework-molecule VDW/kʙ |  0.000000e+00 |  0.000000e+00 |  0.000000e+00 |
    framework-molecule Real/kʙ|  0.000000e+00 |  0.000000e+00 |  0.000000e+00 |
    molecule-molecule VDW/kʙ  | -2.812598e+05 | -2.812598e+05 | -3.990443e-09 |
    molecule-molecule Real/kʙ | -9.708559e+04 | -9.708559e+04 |  3.325369e-10 |
    Van der Waals (Tail)/kʙ   | -6.852806e+03 | -6.852806e+03 |  0.000000e+00 |
    Ewald Fourier/kʙ          |  6.162635e+03 |  6.162635e+03 | -3.281614e-12 |
    Ewald self/kʙ             | -4.591696e+06 | -4.591696e+06 |  0.000000e+00 |
    Ewald exclusion/kʙ        |  4.576994e+06 |  4.576994e+06 |  0.000000e+00 |
    intra VDW/kʙ              |  0.000000e+00 |  0.000000e+00 |  0.000000e+00 |
    intra Coulombic/kʙ        |  0.000000e+00 |  0.000000e+00 |  0.000000e+00 |
    polarization/kʙ           |  0.000000e+00 |  0.000000e+00 |  0.000000e+00 |
    dU/dlambda VDW/kʙ         |  0.000000e+00 |  0.000000e+00 |  0.000000e+00 |
    dU/dlambda Real/kʙ        |  0.000000e+00 |  0.000000e+00 |  0.000000e+00 |
    dU/dlambda Ewald/kʙ       |  0.000000e+00 |  0.000000e+00 |  0.000000e+00 |
-------------------------------------------------------------------------------


Monte-Carlo moves statistics
===============================================================================

    Volume change        all:                8238
    Volume change        total:              8238
    Volume change        constructed:        8238
    Volume change        accepted:           1679
    Volume change        fraction:       0.203812
    Volume change        max-change:     0.066667

Component 0 [CO2]
    Reinsertion (CBMC)   all:              414697
    Reinsertion (CBMC)   total:            414697
    Reinsertion (CBMC)   constructed:      361177
    Reinsertion (CBMC)   accepted:           4264
    Reinsertion (CBMC)   fraction:       0.010282
    Reinsertion (CBMC)   max-change:     0.000000

    Translation          all:              413577
    Translation          total:            138101     137658     137818
    Translation          constructed:      138092     137658     137818
    Translation          accepted:          52691      56380      71966
    Translation          fraction:       0.381540   0.409566   0.522181
    Translation          max-change:     0.923077   0.857143   0.606061

    Rotation             all:              413488
    Rotation             total:            137503     138258     137727
    Rotation             constructed:      137503     138258     137580
    Rotation             accepted:          78839      65171      47941
    Rotation             fraction:       0.573362   0.471372   0.348087
    Rotation             max-change:     0.533333   0.746143   1.131986



Production run counting of the MC moves summed over systems and components
===============================================================================

Volume change                          8238 (0.6590 [%])
Reinsertion (CBMC)                   414697 (33.1758 [%])
Translation                          413577 (33.0862 [%])
Rotation                             413488 (33.0790 [%])

Production count MC-steps:          1250000 [-]
               All summed:          1250000 [-]
               difference:                0 [-]


Production run CPU timings of the MC moves
===============================================================================

Component 0 CO2

Rotation                             60.912653 [s]
    Ewald                            16.612910 [s]
    ExternalField-Molecule            0.013856 [s]
    Framework-Molecule                0.016955 [s]
    Molecule-Molecule                42.835540 [s]
    Overhead                          1.433392 [s]

Reinsertion (CBMC)                  293.158803 [s]
    Ewald                            14.609991 [s]
    NonEwald                        278.175173 [s]
    Overhead                          0.373639 [s]

Translation                          62.299288 [s]
    Ewald                            17.742215 [s]
    ExternalField-Molecule            0.013018 [s]
    Framework-Molecule                0.023473 [s]
    Molecule-Molecule                43.197585 [s]
    Overhead                          1.322997 [s]



Volume change                         71.782374 [s]
    Ewald                             15.346037 [s]
    NonEwald                          53.720497 [s]
    Tail                               2.439005 [s]

Property sampling                     0.296509 [s]
Energy/pressure sampling:             8.154262 [s]


Production run CPU timings of the MC moves summed over systems and components
===============================================================================


Translation                          62.299288 [s]
    Ewald                            17.742215 [s]
    ExternalField-Molecule            0.013018 [s]
    Framework-Molecule                0.023473 [s]
    Molecule-Molecule                43.197585 [s]
    Overhead                          1.322997 [s]

Rotation                             60.912653 [s]
    Ewald                            16.612910 [s]
    ExternalField-Molecule            0.013856 [s]
    Framework-Molecule                0.016955 [s]
    Molecule-Molecule                42.835540 [s]
    Overhead                          1.433392 [s]

Volume change                        71.782374 [s]
    Ewald                            15.346037 [s]
    NonEwald                         53.720497 [s]
    Tail                              2.439005 [s]
    Overhead                          0.276835 [s]

Reinsertion (CBMC)                  293.158803 [s]
    Ewald                            14.609991 [s]
    NonEwald                        278.175173 [s]
    Overhead                          0.373639 [s]

Property sampling:                    0.296509 [s]
Energy/pressure sampling:             8.154262 [s]

Production simulation time:         497.503204 [s]
                All summed:         496.603889 [s]
                  Overhead:           0.899315 [s]


Initalization simulation time:       97.679832 [s]
Equilibration simulation time:        0.000000 [s]
Production simulation time:         497.503204 [s]
Total simulation time:              595.183036 [s]


Energy averages and statistics:
===============================================================================

Framework-molecule energy:
-------------------------------------------------------------------------------



Framework-molecule energy contributions per energy type:
-------------------------------------------------------------------------------



Inter-molecular energy:
-------------------------------------------------------------------------------

    Inter-molecular energy/kʙ 0-0 [CO2-CO2]:
    ---------------------------------------------------------------------------
        Block[  0] -3.943682e+05
        Block[  1] -3.892035e+05
        Block[  2] -3.822724e+05
        Block[  3] -3.921890e+05
        Block[  4] -3.958004e+05
        -----------------------------------------------------------------------
        Average  -3.907667e+05 +/-  6.654533e+03 [K]



Inter-molecular energy contributions per energy type:
-------------------------------------------------------------------------------

    Van der Waals energy/kʙ 0-0 [CO2-CO2]:
    ---------------------------------------------------------------------------
        Block[  0] -2.852444e+05
        Block[  1] -2.822477e+05
        Block[  2] -2.759743e+05
        Block[  3] -2.843421e+05
        Block[  4] -2.869547e+05
        -----------------------------------------------------------------------
        Average  -2.829526e+05 +/-  5.281474e+03 [K]

    VDW Tail-Correction energy/kʙ 0-0 [CO2-CO2]:
    ---------------------------------------------------------------------------
        Block[  0] -6.924806e+03
        Block[  1] -6.858675e+03
        Block[  2] -6.717678e+03
        Block[  3] -6.908220e+03
        Block[  4] -6.961897e+03
        -----------------------------------------------------------------------
        Average  -6.874255e+03 +/-  1.180196e+02 [K]

    Coulomb Real energy/kʙ 0-0 [CO2-CO2]:
    ---------------------------------------------------------------------------
        Block[  0] -9.354985e+04
        Block[  1] -9.137899e+04
        Block[  2] -9.111512e+04
        Block[  3] -9.231446e+04
        Block[  4] -9.325530e+04
        -----------------------------------------------------------------------
        Average  -9.232274e+04 +/-  1.349229e+03 [K]

    Coulomb Fourier energy/kʙ 0-0 [CO2-CO2]:
    ---------------------------------------------------------------------------
        Block[  0] -8.649137e+03
        Block[  1] -8.718162e+03
        Block[  2] -8.465360e+03
        Block[  3] -8.624238e+03
        Block[  4] -8.628511e+03
        -----------------------------------------------------------------------
        Average  -8.617081e+03 +/-  1.152055e+02 [K]


Total energy/kʙ
-------------------------------------------------------------------------------
    Block[  0] -3.943682e+05
    Block[  1] -3.892035e+05
    Block[  2] -3.822724e+05
    Block[  3] -3.921890e+05
    Block[  4] -3.958004e+05
    ---------------------------------------------------------------------------
    Average  -3.907667e+05 +/-  6.654533e+03 [K]

Pressure averages and statistics:
===============================================================================

Average pressure tensor: 
-------------------------------------------------------------------------------
 1.4828e+02  1.3436e+01 -5.5150e+00 +/- 1.3669e+02 6.0947e+01 3.1309e+01 [bar]
 1.3436e+01  1.0682e+02 -3.3504e+01 +/- 6.0947e+01 6.6818e+01 5.0904e+01 [bar]
-5.5150e+00 -3.3504e+01  1.3977e+02 +/- 3.1309e+01 5.0904e+01 8.7473e+01 [bar]

    Block[  0]  5.142431e+07
    Block[  1]  5.099767e+07
    Block[  2]  4.991259e+07
    Block[  3]  5.138305e+07
    Block[  4]  5.183868e+07
    ---------------------------------------------------------------------------
    Ideal gas pressure   5.111126e+07 +/-  5.482125e-02 [Pa]
                         5.111126e+02 +/-  9.103288e+00 [bar]


    Block[  0] -3.556196e+07
    Block[  1] -3.987576e+07
    Block[  2] -3.701396e+07
    Block[  3] -3.852850e+07
    Block[  4] -3.876406e+07
    ---------------------------------------------------------------------------
    Excess pressure  -3.794885e+07 +/-  2.085217e+06 [Pa]
                     -3.794885e+02 +/-  2.085217e+01 [bar]


    Block[  0]  1.586235e+07
    Block[  1]  1.112191e+07
    Block[  2]  1.289862e+07
    Block[  3]  1.285455e+07
    Block[  4]  1.307463e+07
    ---------------------------------------------------------------------------
    Pressure average   1.316241e+07 +/-  2.116449e+06 [Pa]
                       1.316241e+02 +/-  2.116449e+01 [bar]


Enthalpy of adsorption
===============================================================================

No fluctuating components present.


Densities
===============================================================================

Component 0 (CO2)
    Block[  0] 250
    Block[  1] 250
    Block[  2] 250
    Block[  3] 250
    Block[  4] 250
    -----------------------------------------------------------------------
    Density average   2.500000e+02 +/-  0.000000e+00 [molecules]
    Density average   1.480788e-02 +/-  2.637391e-04 [molec/A^3]
    Density average   1.081889e+03 +/-  1.926923e+01 [kg.m⁻³]

