Compiler and run-time data
===============================================================================
RASPA 3.0.4

Random seed: 1662060889

Compiled as a 64-bits application
Compiler: gcc Ubuntu Clang 18.1.3 (1ubuntu1)
Compile Date = Mar 15 2025, Compile Time = 19:39:45

2025-06-02 13:48:15.164449
Simulation started on Mon, Jun 02
The start time was 13:48:00

Hostname:    c062
OS type:     Linux on x86_64
OS release:  6.8.0-58-generic
OS version:  #60-Ubuntu SMP PREEMPT_DYNAMIC Fri Mar 14 18:29:48 UTC 2025


Mutual consistent basic set of units:
===============================================================================

Unit of temperature: 1 [K]
Unit of length:      1e-10 [m]
Unit of time:        1e-12 [s]
Unit of mass:        1.6605402e-27 [kg]
Unit of charge:      1.60217733e-19 [C/particle]


Boltzmann constant (internal units):          0.8314464919307584 [-]
represents conversion from energy (internal units) to temperature (in Kelvin)

Derived units and their conversion factors:
===============================================================================

Unit of energy:                           1.6605402000000002e-23 [J]
Unit of energy:                           10.000008872307538 [J.mol⁻¹]
Unit of velocity:                         100 [m.s⁻¹]
Unit of force:                            1.6605402000000002e-13 [N]
Unit of diffusion:                        1.0000000000000002e-08 [m².s⁻¹]
Unit of acceleration:                     1.0000000000000002e-08 [m².s⁻¹]
Unit of torque:                           1.6605402000000002e-23 [N.m]
Unit of pressure:                         16605402 [Pa]
Unit of volume:                           1e-30 [m³]
Unit of density:                          1660.5402 [kg.m⁻³]
Unit of dynamic viscosity:                1.6605401999999997e-05 [N.s.m⁻²]
Unit of enthalpy:                         1.6605402000000002e-23 [J]
Unit of polarizability:                   1.5458657349975198e-35 [-]
Unit of Coulomb potential:                167101.08000665612 [K]
Unit of dielectric constant:              1.5458657349975193e-05 [s².C².kg⁻¹.m⁻³]
Unit of dipole moment:                    1.60217733e-29 [C.m]
Unit of Debye:                            4.803206799099162 [C.m]
Unit of electric potential:               0.00010364272224473431 [V]
Unit of electric field:                   1036427.222447343 [V.m⁻¹]
Unit of isothermal compressibility:       6.02213665167516e-08 [Pa⁻¹]
Unit of heat capacity:                    10.000008872307538 [J.mol⁻¹.K⁻¹]
Unit of volumetric expansion coefficient: 1 [K⁻¹]


Internal conversion factors:
===============================================================================

Energy (internal units) to Kelvin:      1.202724284692786 [-]
Kelvin to energy (internal units):      0.8314457542157567 [-]


System definitions
===============================================================================

Temperature:          250 [K]
Beta:                 0.0048108928702210625 [-]
Pressure:             1.8e+07 [Pa]
Helium void fraction: 1 [-]

Box:      30.00000   0.00000   0.00000
           0.00000  30.00000   0.00000
           0.00000   0.00000  30.00000
Lengths:  30.00000  30.00000  30.00000
Angles:   90.00000  90.00000  90.00000
Rectangular boundary conditions



Property measurement settings
===============================================================================




Pseudo-atoms
===============================================================================

  0 - C_co2    framework-atom: false
  1 - O_co2    framework-atom: false

  0 - C_co2    mass: 12.00000, charge:  0.70000
  1 - O_co2    mass: 15.99940, charge: -0.35000

  0 - C_co2    polarizability:  0.00000
  1 - O_co2    polarizability:  0.00000

  0 - J. J. Potoff et al., AIChE J. 2001, 47, 1676–1682.
  1 - J. J. Potoff et al., AIChE J. 2001, 47, 1676–1682.

Force field status
===============================================================================

Cutoff Framework-Molecule VDW:  10.00000 [Å]
Cutoff Molecule-Molecule VDW:   10.00000 [Å]
Cutoff Coulomb:                 10.00000 [Å]

Overlap-criteria VDW:           1.000000e+05 [K]

C_co2    - C_co2    Lennard-Jones p₀/kʙ:  27.00000 [K], p₁:  2.80000 [Å]
                                  shift:   0.00000 [K], tailcorrections: true
C_co2    - O_co2    Lennard-Jones p₀/kʙ:  46.18441 [K], p₁:  2.92500 [Å]
                                  shift:   0.00000 [K], tailcorrections: true
O_co2    - O_co2    Lennard-Jones p₀/kʙ:  79.00000 [K], p₁:  3.05000 [Å]
                                  shift:   0.00000 [K], tailcorrections: true

Ewald precision: 1e-06
Ewald alpha: 0.32079885109097883
Ewald k-vectors: 10 10 10


Component definitions
===============================================================================

Component 0 [CO2]

    Type: Adsorbate

    Critical temperature:  304.1282 [K]
    Critical pressure:     7377300 [Pa]
    Acentric factor:       0.22394 [-]

    Mol-fraction:                 1 [-]
    Swappable:                   false

    Mass:                         43.9988 [-]
    Bulk fluid density:           0 [-]
    Compressibility:              0 [-]
    Excess molecules:             0 [-]

    Number Of Atoms:    3
    CBMC starting bead: 0
      0: O_co2  position  0.00000 -0.00000  1.16000, charge -0.35000
      1: C_co2  position  0.00000 -0.00000  0.00000, charge  0.70000
      2: O_co2  position  0.00000 -0.00000 -1.16000, charge -0.35000
    Diagonalized inertia-vector:      43.05758528 43.05758528 0.00000000
    Translational degrees of freedom: 3
    Rotational degrees of freedom:    2
    Shape of the molecule is: 'Linear'
    Net-charge:        0.00000000 [e]

    Move probabilities:
    Translation:                   0.331126 [-]
    Random translation:            0.000000 [-]
    Rotation:                      0.331126 [-]
    Random rotation:               0.000000 [-]
    Volume change:                 0.006623 [-]
    Reinsertion (CBMC):            0.331126 [-]
    Identity change (CBMC):        0.000000 [-]
    Swap:                          0.000000 [-]
    Swap (CBMC):                   0.000000 [-]
    Swap (CFCMC):                  0.000000 [-]
    Swap (CB/CFCMC):               0.000000 [-]
    Gibbs volume:                  0.000000 [-]
    Gibbs swap (CBMC):             0.000000 [-]
    Gibbs swap (CFCMC):            0.000000 [-]
    Widom:                         0.000000 [-]
    Widom (CFCMC):                 0.000000 [-]
    Widom (CB/CFCMC):              0.000000 [-]
    Parallel tempering:            0.000000 [-]
    Hybrid MC:                     0.000000 [-]

    number of blocking-pockets: 0

    number of bonds: 0





Number of pseudo-atoms
===============================================================================

Component   0 (CO2)
-------------------------------------------------------------------------------
    index   0 (C_co2): 250 atoms
    index   1 (O_co2): 500 atoms

Total number of pseudo-atoms:
-------------------------------------------------------------------------------
    index   0 (C_co2): 250 atoms
    index   1 (O_co2): 500 atoms




Energy status Recomputed from scratch
===============================================================================

Total potential energy/kʙ       -5.911953e+04 [K]
    external field VDW/kʙ        0.000000e+00 [K]
    external field Real/kʙ       0.000000e+00 [K]
    framework-molecule VDW/kʙ    0.000000e+00 [K]
    framework-molecule Real/kʙ   0.000000e+00 [K]
    molecule-molecule VDW/kʙ    -2.933397e+04 [K]
    molecule-molecule Real/kʙ   -1.727783e+04 [K]
    Van der Waals (Tail)/kʙ     -7.427197e+03 [K]
    Ewald Fourier/kʙ             3.124661e+04 [K]
    Ewald self/kʙ               -5.557308e+06 [K]
    Ewald exclusion/kʙ           5.520981e+06 [K]
    intra VDW/kʙ                 0.000000e+00 [K]
    intra Coulombic/kʙ           0.000000e+00 [K]
    polarization/kʙ              0.000000e+00 [K]
    dU/dlambda VDW/kʙ            0.000000e+00 [K]
    dU/dlambda Real/kʙ           0.000000e+00 [K]
    dU/dlambda Ewald/kʙ          0.000000e+00 [K]





Initialization: Current cycle: 0 out of 1000
===============================================================================

Box:      30.67582   0.00000   0.00000
           0.00000  30.67582   0.00000
           0.00000   0.00000  30.67582
Lengths:  30.67582  30.67582  30.67582
Angles:   90.00000  90.00000  90.00000
Rectangular boundary conditions

net charge:   0.00000000

component   0 (CO2) lambda:  0 occupancy:  1 (1.000000)
    net charge:   0.00000000 [e]

Amount of molecules per component :
-------------------------------------------------------------------------------
Component 0 (CO2)
    molecules:         2.500000e+02 molecules
    number density:    8.660671e-03 molec/A^3
    density:           6.327635e+02 kg/m^3

Total potential energy/kʙ       -1.457629e+05 [K]
-------------------------------------------------------------------------------
    external field VDW/kʙ        0.000000e+00 [K]
    external field Real/kʙ       0.000000e+00 [K]
    framework-molecule VDW/kʙ    0.000000e+00 [K]
    framework-molecule Real/kʙ   0.000000e+00 [K]
    molecule-molecule VDW/kʙ    -1.137073e+05 [K]
    molecule-molecule Real/kʙ   -1.925161e+04 [K]
    Van der Waals (Tail)/kʙ     -6.947047e+03 [K]
    Ewald Fourier/kʙ             3.047022e+04 [K]
    Ewald self/kʙ               -5.557308e+06 [K]
    Ewald exclusion/kʙ           5.520981e+06 [K]
    intra VDW/kʙ                 0.000000e+00 [K]
    intra Coulombic/kʙ           0.000000e+00 [K]
    polarization/kʙ              0.000000e+00 [K]
    dU/dlambda VDW/kʙ            0.000000e+00 [K]
    dU/dlambda Real/kʙ           0.000000e+00 [K]
    dU/dlambda Ewald/kʙ          0.000000e+00 [K]


Initialization: Current cycle: 100 out of 1000
===============================================================================

Box:      28.36950   0.00000   0.00000
           0.00000  28.36950   0.00000
           0.00000   0.00000  28.36950
Lengths:  28.36950  28.36950  28.36950
Angles:   90.00000  90.00000  90.00000
Rectangular boundary conditions

net charge:   0.00000000

component   0 (CO2) lambda:  0 occupancy:  1 (1.000000)
    net charge:   0.00000000 [e]

Amount of molecules per component :
-------------------------------------------------------------------------------
Component 0 (CO2)
    molecules:         2.500000e+02 molecules
    number density:    1.094926e-02 molec/A^3
    density:           7.999717e+02 kg/m^3

Total potential energy/kʙ       -3.038043e+05 [K]
-------------------------------------------------------------------------------
    external field VDW/kʙ        0.000000e+00 [K]
    external field Real/kʙ       0.000000e+00 [K]
    framework-molecule VDW/kʙ    0.000000e+00 [K]
    framework-molecule Real/kʙ   0.000000e+00 [K]
    molecule-molecule VDW/kʙ    -2.177891e+05 [K]
    molecule-molecule Real/kʙ   -6.218828e+04 [K]
    Van der Waals (Tail)/kʙ     -8.782810e+03 [K]
    Ewald Fourier/kʙ             2.128298e+04 [K]
    Ewald self/kʙ               -5.557308e+06 [K]
    Ewald exclusion/kʙ           5.520981e+06 [K]
    intra VDW/kʙ                 0.000000e+00 [K]
    intra Coulombic/kʙ           0.000000e+00 [K]
    polarization/kʙ              0.000000e+00 [K]
    dU/dlambda VDW/kʙ            0.000000e+00 [K]
    dU/dlambda Real/kʙ           0.000000e+00 [K]
    dU/dlambda Ewald/kʙ          0.000000e+00 [K]


Initialization: Current cycle: 200 out of 1000
===============================================================================

Box:      27.16907   0.00000   0.00000
           0.00000  27.16907   0.00000
           0.00000   0.00000  27.16907
Lengths:  27.16907  27.16907  27.16907
Angles:   90.00000  90.00000  90.00000
Rectangular boundary conditions

net charge:   0.00000000

component   0 (CO2) lambda:  0 occupancy:  1 (1.000000)
    net charge:   0.00000000 [e]

Amount of molecules per component :
-------------------------------------------------------------------------------
Component 0 (CO2)
    molecules:         2.500000e+02 molecules
    number density:    1.246567e-02 molec/A^3
    density:           9.107634e+02 kg/m^3

Total potential energy/kʙ       -3.266044e+05 [K]
-------------------------------------------------------------------------------
    external field VDW/kʙ        0.000000e+00 [K]
    external field Real/kʙ       0.000000e+00 [K]
    framework-molecule VDW/kʙ    0.000000e+00 [K]
    framework-molecule Real/kʙ   0.000000e+00 [K]
    molecule-molecule VDW/kʙ    -2.397092e+05 [K]
    molecule-molecule Real/kʙ   -6.144943e+04 [K]
    Van der Waals (Tail)/kʙ     -9.999181e+03 [K]
    Ewald Fourier/kʙ             2.088050e+04 [K]
    Ewald self/kʙ               -5.557308e+06 [K]
    Ewald exclusion/kʙ           5.520981e+06 [K]
    intra VDW/kʙ                 0.000000e+00 [K]
    intra Coulombic/kʙ           0.000000e+00 [K]
    polarization/kʙ              0.000000e+00 [K]
    dU/dlambda VDW/kʙ            0.000000e+00 [K]
    dU/dlambda Real/kʙ           0.000000e+00 [K]
    dU/dlambda Ewald/kʙ          0.000000e+00 [K]


Initialization: Current cycle: 300 out of 1000
===============================================================================

Box:      26.46512   0.00000   0.00000
           0.00000  26.46512   0.00000
           0.00000   0.00000  26.46512
Lengths:  26.46512  26.46512  26.46512
Angles:   90.00000  90.00000  90.00000
Rectangular boundary conditions

net charge:   0.00000000

component   0 (CO2) lambda:  0 occupancy:  1 (1.000000)
    net charge:   0.00000000 [e]

Amount of molecules per component :
-------------------------------------------------------------------------------
Component 0 (CO2)
    molecules:         2.500000e+02 molecules
    number density:    1.348710e-02 molec/A^3
    density:           9.853905e+02 kg/m^3

Total potential energy/kʙ       -3.484763e+05 [K]
-------------------------------------------------------------------------------
    external field VDW/kʙ        0.000000e+00 [K]
    external field Real/kʙ       0.000000e+00 [K]
    framework-molecule VDW/kʙ    0.000000e+00 [K]
    framework-molecule Real/kʙ   0.000000e+00 [K]
    molecule-molecule VDW/kʙ    -2.506802e+05 [K]
    molecule-molecule Real/kʙ   -6.852887e+04 [K]
    Van der Waals (Tail)/kʙ     -1.081850e+04 [K]
    Ewald Fourier/kʙ             1.787841e+04 [K]
    Ewald self/kʙ               -5.557308e+06 [K]
    Ewald exclusion/kʙ           5.520981e+06 [K]
    intra VDW/kʙ                 0.000000e+00 [K]
    intra Coulombic/kʙ           0.000000e+00 [K]
    polarization/kʙ              0.000000e+00 [K]
    dU/dlambda VDW/kʙ            0.000000e+00 [K]
    dU/dlambda Real/kʙ           0.000000e+00 [K]
    dU/dlambda Ewald/kʙ          0.000000e+00 [K]


Initialization: Current cycle: 400 out of 1000
===============================================================================

Box:      25.69351   0.00000   0.00000
           0.00000  25.69351   0.00000
           0.00000   0.00000  25.69351
Lengths:  25.69351  25.69351  25.69351
Angles:   90.00000  90.00000  90.00000
Rectangular boundary conditions

net charge:   0.00000000

component   0 (CO2) lambda:  0 occupancy:  1 (1.000000)
    net charge:   0.00000000 [e]

Amount of molecules per component :
-------------------------------------------------------------------------------
Component 0 (CO2)
    molecules:         2.500000e+02 molecules
    number density:    1.473906e-02 molec/A^3
    density:           1.076861e+03 kg/m^3

Total potential energy/kʙ       -3.790774e+05 [K]
-------------------------------------------------------------------------------
    external field VDW/kʙ        0.000000e+00 [K]
    external field Real/kʙ       0.000000e+00 [K]
    framework-molecule VDW/kʙ    0.000000e+00 [K]
    framework-molecule Real/kʙ   0.000000e+00 [K]
    molecule-molecule VDW/kʙ    -2.732784e+05 [K]
    molecule-molecule Real/kʙ   -7.433509e+04 [K]
    Van der Waals (Tail)/kʙ     -1.182275e+04 [K]
    Ewald Fourier/kʙ             1.668601e+04 [K]
    Ewald self/kʙ               -5.557308e+06 [K]
    Ewald exclusion/kʙ           5.520981e+06 [K]
    intra VDW/kʙ                 0.000000e+00 [K]
    intra Coulombic/kʙ           0.000000e+00 [K]
    polarization/kʙ              0.000000e+00 [K]
    dU/dlambda VDW/kʙ            0.000000e+00 [K]
    dU/dlambda Real/kʙ           0.000000e+00 [K]
    dU/dlambda Ewald/kʙ          0.000000e+00 [K]


Initialization: Current cycle: 500 out of 1000
===============================================================================

Box:      25.67897   0.00000   0.00000
           0.00000  25.67897   0.00000
           0.00000   0.00000  25.67897
Lengths:  25.67897  25.67897  25.67897
Angles:   90.00000  90.00000  90.00000
Rectangular boundary conditions

net charge:   0.00000000

component   0 (CO2) lambda:  0 occupancy:  1 (1.000000)
    net charge:   0.00000000 [e]

Amount of molecules per component :
-------------------------------------------------------------------------------
Component 0 (CO2)
    molecules:         2.500000e+02 molecules
    number density:    1.476411e-02 molec/A^3
    density:           1.078691e+03 kg/m^3

Total potential energy/kʙ       -3.839937e+05 [K]
-------------------------------------------------------------------------------
    external field VDW/kʙ        0.000000e+00 [K]
    external field Real/kʙ       0.000000e+00 [K]
    framework-molecule VDW/kʙ    0.000000e+00 [K]
    framework-molecule Real/kʙ   0.000000e+00 [K]
    molecule-molecule VDW/kʙ    -2.757143e+05 [K]
    molecule-molecule Real/kʙ   -7.664199e+04 [K]
    Van der Waals (Tail)/kʙ     -1.184284e+04 [K]
    Ewald Fourier/kʙ             1.653265e+04 [K]
    Ewald self/kʙ               -5.557308e+06 [K]
    Ewald exclusion/kʙ           5.520981e+06 [K]
    intra VDW/kʙ                 0.000000e+00 [K]
    intra Coulombic/kʙ           0.000000e+00 [K]
    polarization/kʙ              0.000000e+00 [K]
    dU/dlambda VDW/kʙ            0.000000e+00 [K]
    dU/dlambda Real/kʙ           0.000000e+00 [K]
    dU/dlambda Ewald/kʙ          0.000000e+00 [K]


Initialization: Current cycle: 600 out of 1000
===============================================================================

Box:      25.45670   0.00000   0.00000
           0.00000  25.45670   0.00000
           0.00000   0.00000  25.45670
Lengths:  25.45670  25.45670  25.45670
Angles:   90.00000  90.00000  90.00000
Rectangular boundary conditions

net charge:   0.00000000

component   0 (CO2) lambda:  0 occupancy:  1 (1.000000)
    net charge:   0.00000000 [e]

Amount of molecules per component :
-------------------------------------------------------------------------------
Component 0 (CO2)
    molecules:         2.500000e+02 molecules
    number density:    1.515422e-02 molec/A^3
    density:           1.107193e+03 kg/m^3

Total potential energy/kʙ       -3.921020e+05 [K]
-------------------------------------------------------------------------------
    external field VDW/kʙ        0.000000e+00 [K]
    external field Real/kʙ       0.000000e+00 [K]
    framework-molecule VDW/kʙ    0.000000e+00 [K]
    framework-molecule Real/kʙ   0.000000e+00 [K]
    molecule-molecule VDW/kʙ    -2.870452e+05 [K]
    molecule-molecule Real/kʙ   -7.373601e+04 [K]
    Van der Waals (Tail)/kʙ     -1.215577e+04 [K]
    Ewald Fourier/kʙ             1.716217e+04 [K]
    Ewald self/kʙ               -5.557308e+06 [K]
    Ewald exclusion/kʙ           5.520981e+06 [K]
    intra VDW/kʙ                 0.000000e+00 [K]
    intra Coulombic/kʙ           0.000000e+00 [K]
    polarization/kʙ              0.000000e+00 [K]
    dU/dlambda VDW/kʙ            0.000000e+00 [K]
    dU/dlambda Real/kʙ           0.000000e+00 [K]
    dU/dlambda Ewald/kʙ          0.000000e+00 [K]


Initialization: Current cycle: 700 out of 1000
===============================================================================

Box:      25.56629   0.00000   0.00000
           0.00000  25.56629   0.00000
           0.00000   0.00000  25.56629
Lengths:  25.56629  25.56629  25.56629
Angles:   90.00000  90.00000  90.00000
Rectangular boundary conditions

net charge:   0.00000000

component   0 (CO2) lambda:  0 occupancy:  1 (1.000000)
    net charge:   0.00000000 [e]

Amount of molecules per component :
-------------------------------------------------------------------------------
Component 0 (CO2)
    molecules:         2.500000e+02 molecules
    number density:    1.496017e-02 molec/A^3
    density:           1.093016e+03 kg/m^3

Total potential energy/kʙ       -3.992215e+05 [K]
-------------------------------------------------------------------------------
    external field VDW/kʙ        0.000000e+00 [K]
    external field Real/kʙ       0.000000e+00 [K]
    framework-molecule VDW/kʙ    0.000000e+00 [K]
    framework-molecule Real/kʙ   0.000000e+00 [K]
    molecule-molecule VDW/kʙ    -2.852584e+05 [K]
    molecule-molecule Real/kʙ   -8.160129e+04 [K]
    Van der Waals (Tail)/kʙ     -1.200011e+04 [K]
    Ewald Fourier/kʙ             1.596546e+04 [K]
    Ewald self/kʙ               -5.557308e+06 [K]
    Ewald exclusion/kʙ           5.520981e+06 [K]
    intra VDW/kʙ                 0.000000e+00 [K]
    intra Coulombic/kʙ           0.000000e+00 [K]
    polarization/kʙ              0.000000e+00 [K]
    dU/dlambda VDW/kʙ            0.000000e+00 [K]
    dU/dlambda Real/kʙ           0.000000e+00 [K]
    dU/dlambda Ewald/kʙ          0.000000e+00 [K]


Initialization: Current cycle: 800 out of 1000
===============================================================================

Box:      25.73133   0.00000   0.00000
           0.00000  25.73133   0.00000
           0.00000   0.00000  25.73133
Lengths:  25.73133  25.73133  25.73133
Angles:   90.00000  90.00000  90.00000
Rectangular boundary conditions

net charge:   0.00000000

component   0 (CO2) lambda:  0 occupancy:  1 (1.000000)
    net charge:   0.00000000 [e]

Amount of molecules per component :
-------------------------------------------------------------------------------
Component 0 (CO2)
    molecules:         2.500000e+02 molecules
    number density:    1.467417e-02 molec/A^3
    density:           1.072120e+03 kg/m^3

Total potential energy/kʙ       -3.860679e+05 [K]
-------------------------------------------------------------------------------
    external field VDW/kʙ        0.000000e+00 [K]
    external field Real/kʙ       0.000000e+00 [K]
    framework-molecule VDW/kʙ    0.000000e+00 [K]
    framework-molecule Real/kʙ   0.000000e+00 [K]
    molecule-molecule VDW/kʙ    -2.714404e+05 [K]
    molecule-molecule Real/kʙ   -8.319924e+04 [K]
    Van der Waals (Tail)/kʙ     -1.177070e+04 [K]
    Ewald Fourier/kʙ             1.666952e+04 [K]
    Ewald self/kʙ               -5.557308e+06 [K]
    Ewald exclusion/kʙ           5.520981e+06 [K]
    intra VDW/kʙ                 0.000000e+00 [K]
    intra Coulombic/kʙ           0.000000e+00 [K]
    polarization/kʙ              0.000000e+00 [K]
    dU/dlambda VDW/kʙ            0.000000e+00 [K]
    dU/dlambda Real/kʙ           0.000000e+00 [K]
    dU/dlambda Ewald/kʙ          0.000000e+00 [K]


Initialization: Current cycle: 900 out of 1000
===============================================================================

Box:      25.73304   0.00000   0.00000
           0.00000  25.73304   0.00000
           0.00000   0.00000  25.73304
Lengths:  25.73304  25.73304  25.73304
Angles:   90.00000  90.00000  90.00000
Rectangular boundary conditions

net charge:   0.00000000

component   0 (CO2) lambda:  0 occupancy:  1 (1.000000)
    net charge:   0.00000000 [e]

Amount of molecules per component :
-------------------------------------------------------------------------------
Component 0 (CO2)
    molecules:         2.500000e+02 molecules
    number density:    1.467124e-02 molec/A^3
    density:           1.071906e+03 kg/m^3

Total potential energy/kʙ       -3.891508e+05 [K]
-------------------------------------------------------------------------------
    external field VDW/kʙ        0.000000e+00 [K]
    external field Real/kʙ       0.000000e+00 [K]
    framework-molecule VDW/kʙ    0.000000e+00 [K]
    framework-molecule Real/kʙ   0.000000e+00 [K]
    molecule-molecule VDW/kʙ    -2.726025e+05 [K]
    molecule-molecule Real/kʙ   -8.434363e+04 [K]
    Van der Waals (Tail)/kʙ     -1.176835e+04 [K]
    Ewald Fourier/kʙ             1.589080e+04 [K]
    Ewald self/kʙ               -5.557308e+06 [K]
    Ewald exclusion/kʙ           5.520981e+06 [K]
    intra VDW/kʙ                 0.000000e+00 [K]
    intra Coulombic/kʙ           0.000000e+00 [K]
    polarization/kʙ              0.000000e+00 [K]
    dU/dlambda VDW/kʙ            0.000000e+00 [K]
    dU/dlambda Real/kʙ           0.000000e+00 [K]
    dU/dlambda Ewald/kʙ          0.000000e+00 [K]


Current cycle: 0 out of 5000
===============================================================================

Box:      25.84803   0.00000   0.00000  Average:  25.84803   0.00000   0.00000
           0.00000  25.84803   0.00000             0.00000  25.84803   0.00000
           0.00000   0.00000  25.84803             0.00000   0.00000  25.84803
Lengths:  25.84803  25.84803  25.84803  Average:  25.84803  25.84803  25.84803
Angles:   90.00000  90.00000  90.00000  Average:  90.00000  90.00000  90.00000
Rectangular boundary conditions

net charge:   0.00000000

component 0 (CO2) lambda:  0 occupancy:  1 (1.000000)
    net charge:   0.00000000 [e]

Amount of molecules per component :
-------------------------------------------------------------------------------
Component 0 (CO2)
    molecules:      2.500000e+02 molecules  (2.500000e+02 +/- 0.000000e+00)
    number density: 1.447631e-02 molec./A^3 (1.447631e-02 +/- 0.000000e+00)
    density:        1.057664e+03 kg/m^3     (1.057664e+03 +/- 0.000000e+00)

Average pressure tensor: 
-------------------------------------------------------------------------------
 4.9967e+02  0.0000e+00  0.0000e+00 +/- 0.0000e+00 0.0000e+00 0.0000e+00 [bar]
 0.0000e+00  4.9967e+02  0.0000e+00 +/- 0.0000e+00 0.0000e+00 0.0000e+00 [bar]
 0.0000e+00  0.0000e+00  4.9967e+02 +/- 0.0000e+00 0.0000e+00 0.0000e+00 [bar]
Ideal-gas pressure:   4.996679e+02 +/ 0.000000e+00 [bar]
Excess pressure:      0.000000e+00 +/ 0.000000e+00 [bar]
Pressure:             4.996679e+02 +/ 0.000000e+00 [bar]

Total potential energy/kʙ  -3.801109e+05 (-3.801109e+05 +/- 0.000000e+00) [K]
-------------------------------------------------------------------------------
ExternalField-molecule
    Van der Waals/kʙ        0.000000e+00 ( 0.000000e+00 +/- 0.000000e+00) [K]
Framework-molecule
    Van der Waals/kʙ        0.000000e+00 ( 0.000000e+00 +/- 0.000000e+00) [K]
    Van der Waals (Tail)/kʙ 0.000000e+00 ( 0.000000e+00 +/- 0.000000e+00) [K]
    Coulombic Real/kʙ       0.000000e+00 ( 0.000000e+00 +/- 0.000000e+00) [K]
    Coulombic Fourier/kʙ    0.000000e+00 ( 0.000000e+00 +/- 0.000000e+00) [K]
Molecule-molecule
    Van der Waals/kʙ       -2.747517e+05 (-2.747517e+05 +/- 0.000000e+00) [K]
    Van der Waals (Tail)/kʙ-1.161198e+04 (-1.161198e+04 +/- 0.000000e+00) [K]
    Coulombic Real/kʙ      -7.599208e+04 (-7.599208e+04 +/- 0.000000e+00) [K]
    Coulombic Fourier/kʙ   -1.775512e+04 (-1.775512e+04 +/- 0.000000e+00) [K]
    Molecule Intra/kʙ       0.000000e+00 ( 0.000000e+00 +/- 0.000000e+00) [K]

Current cycle: 100 out of 5000
===============================================================================

Box:      25.71749   0.00000   0.00000  Average:  25.77896   0.00000   0.00000
           0.00000  25.71749   0.00000             0.00000  25.77896   0.00000
           0.00000   0.00000  25.71749             0.00000   0.00000  25.77896
Lengths:  25.71749  25.71749  25.71749  Average:  25.77896  25.77896  25.77896
Angles:   90.00000  90.00000  90.00000  Average:  90.00000  90.00000  90.00000
Rectangular boundary conditions

net charge:   0.00000000

component 0 (CO2) lambda:  0 occupancy:  1 (1.000000)
    net charge:   0.00000000 [e]

Amount of molecules per component :
-------------------------------------------------------------------------------
Component 0 (CO2)
    molecules:      2.500000e+02 molecules  (2.500000e+02 +/- 0.000000e+00)
    number density: 1.469786e-02 molec./A^3 (1.459387e-02 +/- 0.000000e+00)
    density:        1.073851e+03 kg/m^3     (1.066253e+03 +/- 0.000000e+00)

Average pressure tensor: 
-------------------------------------------------------------------------------
 1.4346e+02  7.9467e+01 -2.6892e+01 +/- 0.0000e+00 0.0000e+00 0.0000e+00 [bar]
 7.9467e+01  1.4147e+02  9.6442e+00 +/- 0.0000e+00 0.0000e+00 0.0000e+00 [bar]
-2.6892e+01  9.6442e+00  4.7989e+02 +/- 0.0000e+00 0.0000e+00 0.0000e+00 [bar]
Ideal-gas pressure:   5.037257e+02 +/ 0.000000e+00 [bar]
Excess pressure:     -2.487874e+02 +/ 0.000000e+00 [bar]
Pressure:             2.549383e+02 +/ 0.000000e+00 [bar]

Total potential energy/kʙ  -3.938645e+05 (-3.846788e+05 +/- 0.000000e+00) [K]
-------------------------------------------------------------------------------
ExternalField-molecule
    Van der Waals/kʙ        0.000000e+00 ( 0.000000e+00 +/- 0.000000e+00) [K]
Framework-molecule
    Van der Waals/kʙ        0.000000e+00 ( 0.000000e+00 +/- 0.000000e+00) [K]
    Van der Waals (Tail)/kʙ 0.000000e+00 ( 0.000000e+00 +/- 0.000000e+00) [K]
    Coulombic Real/kʙ       0.000000e+00 ( 0.000000e+00 +/- 0.000000e+00) [K]
    Coulombic Fourier/kʙ    0.000000e+00 ( 0.000000e+00 +/- 0.000000e+00) [K]
Molecule-molecule
    Van der Waals/kʙ       -2.806984e+05 (-2.732365e+05 +/- 0.000000e+00) [K]
    Van der Waals (Tail)/kʙ-1.178970e+04 (-1.172504e+04 +/- 0.000000e+00) [K]
    Coulombic Real/kʙ      -8.184241e+04 (-8.053069e+04 +/- 0.000000e+00) [K]
    Coulombic Fourier/kʙ   -1.953390e+04 (-1.918656e+04 +/- 0.000000e+00) [K]
    Molecule Intra/kʙ       0.000000e+00 ( 0.000000e+00 +/- 0.000000e+00) [K]

Current cycle: 200 out of 5000
===============================================================================

Box:      25.95821   0.00000   0.00000  Average:  25.77125   0.00000   0.00000
           0.00000  25.95821   0.00000             0.00000  25.77125   0.00000
           0.00000   0.00000  25.95821             0.00000   0.00000  25.77125
Lengths:  25.95821  25.95821  25.95821  Average:  25.77125  25.77125  25.77125
Angles:   90.00000  90.00000  90.00000  Average:  90.00000  90.00000  90.00000
Rectangular boundary conditions

net charge:   0.00000000

component 0 (CO2) lambda:  0 occupancy:  1 (1.000000)
    net charge:   0.00000000 [e]

Amount of molecules per component :
-------------------------------------------------------------------------------
Component 0 (CO2)
    molecules:      2.500000e+02 molecules  (2.500000e+02 +/- 0.000000e+00)
    number density: 1.429276e-02 molec./A^3 (1.460826e-02 +/- 0.000000e+00)
    density:        1.044253e+03 kg/m^3     (1.067305e+03 +/- 0.000000e+00)

Average pressure tensor: 
-------------------------------------------------------------------------------
 3.2369e+01  7.6933e+01  4.8586e+01 +/- 0.0000e+00 0.0000e+00 0.0000e+00 [bar]
 7.6933e+01  7.0695e+01 -1.5308e+01 +/- 0.0000e+00 0.0000e+00 0.0000e+00 [bar]
 4.8586e+01 -1.5308e+01  3.0781e+02 +/- 0.0000e+00 0.0000e+00 0.0000e+00 [bar]
Ideal-gas pressure:   5.042225e+02 +/ 0.000000e+00 [bar]
Excess pressure:     -3.672642e+02 +/ 0.000000e+00 [bar]
Pressure:             1.369583e+02 +/ 0.000000e+00 [bar]

Total potential energy/kʙ  -3.761584e+05 (-3.853683e+05 +/- 0.000000e+00) [K]
-------------------------------------------------------------------------------
ExternalField-molecule
    Van der Waals/kʙ        0.000000e+00 ( 0.000000e+00 +/- 0.000000e+00) [K]
Framework-molecule
    Van der Waals/kʙ        0.000000e+00 ( 0.000000e+00 +/- 0.000000e+00) [K]
    Van der Waals (Tail)/kʙ 0.000000e+00 ( 0.000000e+00 +/- 0.000000e+00) [K]
    Coulombic Real/kʙ       0.000000e+00 ( 0.000000e+00 +/- 0.000000e+00) [K]
    Coulombic Fourier/kʙ    0.000000e+00 ( 0.000000e+00 +/- 0.000000e+00) [K]
Molecule-molecule
    Van der Waals/kʙ       -2.673525e+05 (-2.740971e+05 +/- 0.000000e+00) [K]
    Van der Waals (Tail)/kʙ-1.146475e+04 (-1.168568e+04 +/- 0.000000e+00) [K]
    Coulombic Real/kʙ      -7.755398e+04 (-8.034455e+04 +/- 0.000000e+00) [K]
    Coulombic Fourier/kʙ   -1.978710e+04 (-1.924097e+04 +/- 0.000000e+00) [K]
    Molecule Intra/kʙ       0.000000e+00 ( 0.000000e+00 +/- 0.000000e+00) [K]

Current cycle: 300 out of 5000
===============================================================================

Box:      25.81736   0.00000   0.00000  Average:  25.77169   0.00000   0.00000
           0.00000  25.81736   0.00000             0.00000  25.77169   0.00000
           0.00000   0.00000  25.81736             0.00000   0.00000  25.77169
Lengths:  25.81736  25.81736  25.81736  Average:  25.77169  25.77169  25.77169
Angles:   90.00000  90.00000  90.00000  Average:  90.00000  90.00000  90.00000
Rectangular boundary conditions

net charge:   0.00000000

component 0 (CO2) lambda:  0 occupancy:  1 (1.000000)
    net charge:   0.00000000 [e]

Amount of molecules per component :
-------------------------------------------------------------------------------
Component 0 (CO2)
    molecules:      2.500000e+02 molecules  (2.500000e+02 +/- 0.000000e+00)
    number density: 1.452795e-02 molec./A^3 (1.460735e-02 +/- 0.000000e+00)
    density:        1.061437e+03 kg/m^3     (1.067238e+03 +/- 0.000000e+00)

Average pressure tensor: 
-------------------------------------------------------------------------------
 7.8004e+01  3.7170e+01  5.5743e+01 +/- 0.0000e+00 0.0000e+00 0.0000e+00 [bar]
 3.7170e+01  1.2980e+02 -1.5141e+01 +/- 0.0000e+00 0.0000e+00 0.0000e+00 [bar]
 5.5743e+01 -1.5141e+01  2.1032e+02 +/- 0.0000e+00 0.0000e+00 0.0000e+00 [bar]
Ideal-gas pressure:   5.041909e+02 +/ 0.000000e+00 [bar]
Excess pressure:     -3.648181e+02 +/ 0.000000e+00 [bar]
Pressure:             1.393728e+02 +/ 0.000000e+00 [bar]

Total potential energy/kʙ  -3.795933e+05 (-3.835704e+05 +/- 0.000000e+00) [K]
-------------------------------------------------------------------------------
ExternalField-molecule
    Van der Waals/kʙ        0.000000e+00 ( 0.000000e+00 +/- 0.000000e+00) [K]
Framework-molecule
    Van der Waals/kʙ        0.000000e+00 ( 0.000000e+00 +/- 0.000000e+00) [K]
    Van der Waals (Tail)/kʙ 0.000000e+00 ( 0.000000e+00 +/- 0.000000e+00) [K]
    Coulombic Real/kʙ       0.000000e+00 ( 0.000000e+00 +/- 0.000000e+00) [K]
    Coulombic Fourier/kʙ    0.000000e+00 ( 0.000000e+00 +/- 0.000000e+00) [K]
Molecule-molecule
    Van der Waals/kʙ       -2.714778e+05 (-2.738794e+05 +/- 0.000000e+00) [K]
    Van der Waals (Tail)/kʙ-1.165341e+04 (-1.169551e+04 +/- 0.000000e+00) [K]
    Coulombic Real/kʙ      -7.759200e+04 (-7.898549e+04 +/- 0.000000e+00) [K]
    Coulombic Fourier/kʙ   -1.887014e+04 (-1.900995e+04 +/- 0.000000e+00) [K]
    Molecule Intra/kʙ       0.000000e+00 ( 0.000000e+00 +/- 0.000000e+00) [K]

Current cycle: 400 out of 5000
===============================================================================

Box:      25.64136   0.00000   0.00000  Average:  25.75870   0.00000   0.00000
           0.00000  25.64136   0.00000             0.00000  25.75870   0.00000
           0.00000   0.00000  25.64136             0.00000   0.00000  25.75870
Lengths:  25.64136  25.64136  25.64136  Average:  25.75870  25.75870  25.75870
Angles:   90.00000  90.00000  90.00000  Average:  90.00000  90.00000  90.00000
Rectangular boundary conditions

net charge:   0.00000000

component 0 (CO2) lambda:  0 occupancy:  1 (1.000000)
    net charge:   0.00000000 [e]

Amount of molecules per component :
-------------------------------------------------------------------------------
Component 0 (CO2)
    molecules:      2.500000e+02 molecules  (2.500000e+02 +/- 0.000000e+00)
    number density: 1.482916e-02 molec./A^3 (1.462919e-02 +/- 0.000000e+00)
    density:        1.083444e+03 kg/m^3     (1.068834e+03 +/- 0.000000e+00)

Average pressure tensor: 
-------------------------------------------------------------------------------
 6.4129e+01  2.4861e+01  4.8171e+01 +/- 0.0000e+00 0.0000e+00 0.0000e+00 [bar]
 2.4861e+01  1.2920e+02 -1.8512e+01 +/- 0.0000e+00 0.0000e+00 0.0000e+00 [bar]
 4.8171e+01 -1.8512e+01  1.8967e+02 +/- 0.0000e+00 0.0000e+00 0.0000e+00 [bar]
Ideal-gas pressure:   5.049449e+02 +/ 0.000000e+00 [bar]
Excess pressure:     -3.772796e+02 +/ 0.000000e+00 [bar]
Pressure:             1.276654e+02 +/ 0.000000e+00 [bar]

Total potential energy/kʙ  -3.863510e+05 (-3.844242e+05 +/- 0.000000e+00) [K]
-------------------------------------------------------------------------------
ExternalField-molecule
    Van der Waals/kʙ        0.000000e+00 ( 0.000000e+00 +/- 0.000000e+00) [K]
Framework-molecule
    Van der Waals/kʙ        0.000000e+00 ( 0.000000e+00 +/- 0.000000e+00) [K]
    Van der Waals (Tail)/kʙ 0.000000e+00 ( 0.000000e+00 +/- 0.000000e+00) [K]
    Coulombic Real/kʙ       0.000000e+00 ( 0.000000e+00 +/- 0.000000e+00) [K]
    Coulombic Fourier/kʙ    0.000000e+00 ( 0.000000e+00 +/- 0.000000e+00) [K]
Molecule-molecule
    Van der Waals/kʙ       -2.759749e+05 (-2.745705e+05 +/- 0.000000e+00) [K]
    Van der Waals (Tail)/kʙ-1.189503e+04 (-1.171826e+04 +/- 0.000000e+00) [K]
    Coulombic Real/kʙ      -7.715953e+04 (-7.876744e+04 +/- 0.000000e+00) [K]
    Coulombic Fourier/kʙ   -2.132150e+04 (-1.936794e+04 +/- 0.000000e+00) [K]
    Molecule Intra/kʙ       0.000000e+00 ( 0.000000e+00 +/- 0.000000e+00) [K]

Current cycle: 500 out of 5000
===============================================================================

Box:      25.48072   0.00000   0.00000  Average:  25.72402   0.00000   0.00000
           0.00000  25.48072   0.00000             0.00000  25.72402   0.00000
           0.00000   0.00000  25.48072             0.00000   0.00000  25.72402
Lengths:  25.48072  25.48072  25.48072  Average:  25.72402  25.72402  25.72402
Angles:   90.00000  90.00000  90.00000  Average:  90.00000  90.00000  90.00000
Rectangular boundary conditions

net charge:   0.00000000

component 0 (CO2) lambda:  0 occupancy:  1 (1.000000)
    net charge:   0.00000000 [e]

Amount of molecules per component :
-------------------------------------------------------------------------------
Component 0 (CO2)
    molecules:      2.500000e+02 molecules  (2.500000e+02 +/- 0.000000e+00)
    number density: 1.511141e-02 molec./A^3 (1.468895e-02 +/- 0.000000e+00)
    density:        1.104065e+03 kg/m^3     (1.073200e+03 +/- 0.000000e+00)

Average pressure tensor: 
-------------------------------------------------------------------------------
 1.0919e+02  1.8913e+01 -1.2921e+01 +/- 0.0000e+00 0.0000e+00 0.0000e+00 [bar]
 1.8913e+01  1.4800e+02 -9.9180e+00 +/- 0.0000e+00 0.0000e+00 0.0000e+00 [bar]
-1.2921e+01 -9.9180e+00  1.6187e+02 +/- 0.0000e+00 0.0000e+00 0.0000e+00 [bar]
Ideal-gas pressure:   5.070077e+02 +/ 0.000000e+00 [bar]
Excess pressure:     -3.673192e+02 +/ 0.000000e+00 [bar]
Pressure:             1.396885e+02 +/ 0.000000e+00 [bar]

Total potential energy/kʙ  -3.985926e+05 (-3.868693e+05 +/- 0.000000e+00) [K]
-------------------------------------------------------------------------------
ExternalField-molecule
    Van der Waals/kʙ        0.000000e+00 ( 0.000000e+00 +/- 0.000000e+00) [K]
Framework-molecule
    Van der Waals/kʙ        0.000000e+00 ( 0.000000e+00 +/- 0.000000e+00) [K]
    Van der Waals (Tail)/kʙ 0.000000e+00 ( 0.000000e+00 +/- 0.000000e+00) [K]
    Coulombic Real/kʙ       0.000000e+00 ( 0.000000e+00 +/- 0.000000e+00) [K]
    Coulombic Fourier/kʙ    0.000000e+00 ( 0.000000e+00 +/- 0.000000e+00) [K]
Molecule-molecule
    Van der Waals/kʙ       -2.796131e+05 (-2.754733e+05 +/- 0.000000e+00) [K]
    Van der Waals (Tail)/kʙ-1.212142e+04 (-1.177126e+04 +/- 0.000000e+00) [K]
    Coulombic Real/kʙ      -8.645686e+04 (-7.994155e+04 +/- 0.000000e+00) [K]
    Coulombic Fourier/kʙ   -2.040117e+04 (-1.968327e+04 +/- 0.000000e+00) [K]
    Molecule Intra/kʙ       0.000000e+00 ( 0.000000e+00 +/- 0.000000e+00) [K]

Current cycle: 600 out of 5000
===============================================================================

Box:      25.87139   0.00000   0.00000  Average:  25.70471   0.00000   0.00000
           0.00000  25.87139   0.00000             0.00000  25.70471   0.00000
           0.00000   0.00000  25.87139             0.00000   0.00000  25.70471
Lengths:  25.87139  25.87139  25.87139  Average:  25.70471  25.70471  25.70471
Angles:   90.00000  90.00000  90.00000  Average:  90.00000  90.00000  90.00000
Rectangular boundary conditions

net charge:   0.00000000

component 0 (CO2) lambda:  0 occupancy:  1 (1.000000)
    net charge:   0.00000000 [e]

Amount of molecules per component :
-------------------------------------------------------------------------------
Component 0 (CO2)
    molecules:      2.500000e+02 molecules  (2.500000e+02 +/- 0.000000e+00)
    number density: 1.443713e-02 molec./A^3 (1.472228e-02 +/- 0.000000e+00)
    density:        1.054801e+03 kg/m^3     (1.075635e+03 +/- 0.000000e+00)

Average pressure tensor: 
-------------------------------------------------------------------------------
 1.4925e+02  1.8769e+01 -4.6278e+01 +/- 0.0000e+00 0.0000e+00 0.0000e+00 [bar]
 1.8769e+01  1.5590e+02 -2.5406e-01 +/- 0.0000e+00 0.0000e+00 0.0000e+00 [bar]
-4.6278e+01 -2.5406e-01  1.4051e+02 +/- 0.0000e+00 0.0000e+00 0.0000e+00 [bar]
Ideal-gas pressure:   5.081579e+02 +/ 0.000000e+00 [bar]
Excess pressure:     -3.596054e+02 +/ 0.000000e+00 [bar]
Pressure:             1.485524e+02 +/ 0.000000e+00 [bar]

Total potential energy/kʙ  -3.822826e+05 (-3.880368e+05 +/- 0.000000e+00) [K]
-------------------------------------------------------------------------------
ExternalField-molecule
    Van der Waals/kʙ        0.000000e+00 ( 0.000000e+00 +/- 0.000000e+00) [K]
Framework-molecule
    Van der Waals/kʙ        0.000000e+00 ( 0.000000e+00 +/- 0.000000e+00) [K]
    Van der Waals (Tail)/kʙ 0.000000e+00 ( 0.000000e+00 +/- 0.000000e+00) [K]
    Coulombic Real/kʙ       0.000000e+00 ( 0.000000e+00 +/- 0.000000e+00) [K]
    Coulombic Fourier/kʙ    0.000000e+00 ( 0.000000e+00 +/- 0.000000e+00) [K]
Molecule-molecule
    Van der Waals/kʙ       -2.690841e+05 (-2.760947e+05 +/- 0.000000e+00) [K]
    Van der Waals (Tail)/kʙ-1.158056e+04 (-1.179260e+04 +/- 0.000000e+00) [K]
    Coulombic Real/kʙ      -8.251734e+04 (-8.058696e+04 +/- 0.000000e+00) [K]
    Coulombic Fourier/kʙ   -1.910056e+04 (-1.956259e+04 +/- 0.000000e+00) [K]
    Molecule Intra/kʙ       0.000000e+00 ( 0.000000e+00 +/- 0.000000e+00) [K]

Current cycle: 700 out of 5000
===============================================================================

Box:      25.43448   0.00000   0.00000  Average:  25.71035   0.00000   0.00000
           0.00000  25.43448   0.00000             0.00000  25.71035   0.00000
           0.00000   0.00000  25.43448             0.00000   0.00000  25.71035
Lengths:  25.43448  25.43448  25.43448  Average:  25.71035  25.71035  25.71035
Angles:   90.00000  90.00000  90.00000  Average:  90.00000  90.00000  90.00000
Rectangular boundary conditions

net charge:   0.00000000

component 0 (CO2) lambda:  0 occupancy:  1 (1.000000)
    net charge:   0.00000000 [e]

Amount of molecules per component :
-------------------------------------------------------------------------------
Component 0 (CO2)
    molecules:      2.500000e+02 molecules  (2.500000e+02 +/- 0.000000e+00)
    number density: 1.519397e-02 molec./A^3 (1.471249e-02 +/- 0.000000e+00)
    density:        1.110097e+03 kg/m^3     (1.074920e+03 +/- 0.000000e+00)

Average pressure tensor: 
-------------------------------------------------------------------------------
 1.1652e+02  3.6864e+01 -5.5738e+01 +/- 0.0000e+00 0.0000e+00 0.0000e+00 [bar]
 3.6864e+01  1.6539e+02 -1.3622e+01 +/- 0.0000e+00 0.0000e+00 0.0000e+00 [bar]
-5.5738e+01 -1.3622e+01  1.3167e+02 +/- 0.0000e+00 0.0000e+00 0.0000e+00 [bar]
Ideal-gas pressure:   5.078202e+02 +/ 0.000000e+00 [bar]
Excess pressure:     -3.699589e+02 +/ 0.000000e+00 [bar]
Pressure:             1.378613e+02 +/ 0.000000e+00 [bar]

Total potential energy/kʙ  -3.926314e+05 (-3.873755e+05 +/- 0.000000e+00) [K]
-------------------------------------------------------------------------------
ExternalField-molecule
    Van der Waals/kʙ        0.000000e+00 ( 0.000000e+00 +/- 0.000000e+00) [K]
Framework-molecule
    Van der Waals/kʙ        0.000000e+00 ( 0.000000e+00 +/- 0.000000e+00) [K]
    Van der Waals (Tail)/kʙ 0.000000e+00 ( 0.000000e+00 +/- 0.000000e+00) [K]
    Coulombic Real/kʙ       0.000000e+00 ( 0.000000e+00 +/- 0.000000e+00) [K]
    Coulombic Fourier/kʙ    0.000000e+00 ( 0.000000e+00 +/- 0.000000e+00) [K]
Molecule-molecule
    Van der Waals/kʙ       -2.836241e+05 (-2.757184e+05 +/- 0.000000e+00) [K]
    Van der Waals (Tail)/kʙ-1.218765e+04 (-1.179014e+04 +/- 0.000000e+00) [K]
    Coulombic Real/kʙ      -7.764556e+04 (-8.037093e+04 +/- 0.000000e+00) [K]
    Coulombic Fourier/kʙ   -1.917413e+04 (-1.949602e+04 +/- 0.000000e+00) [K]
    Molecule Intra/kʙ       0.000000e+00 ( 0.000000e+00 +/- 0.000000e+00) [K]

Current cycle: 800 out of 5000
===============================================================================

Box:      25.80955   0.00000   0.00000  Average:  25.69978   0.00000   0.00000
           0.00000  25.80955   0.00000             0.00000  25.69978   0.00000
           0.00000   0.00000  25.80955             0.00000   0.00000  25.69978
Lengths:  25.80955  25.80955  25.80955  Average:  25.69978  25.69978  25.69978
Angles:   90.00000  90.00000  90.00000  Average:  90.00000  90.00000  90.00000
Rectangular boundary conditions

net charge:   0.00000000

component 0 (CO2) lambda:  0 occupancy:  1 (1.000000)
    net charge:   0.00000000 [e]

Amount of molecules per component :
-------------------------------------------------------------------------------
Component 0 (CO2)
    molecules:      2.500000e+02 molecules  (2.500000e+02 +/- 0.000000e+00)
    number density: 1.454116e-02 molec./A^3 (1.473079e-02 +/- 0.000000e+00)
    density:        1.062402e+03 kg/m^3     (1.076257e+03 +/- 0.000000e+00)

Average pressure tensor: 
-------------------------------------------------------------------------------
 7.8314e+01  1.8498e+01 -5.1167e+01 +/- 0.0000e+00 0.0000e+00 0.0000e+00 [bar]
 1.8498e+01  1.7483e+02 -2.0660e+01 +/- 0.0000e+00 0.0000e+00 0.0000e+00 [bar]
-5.1167e+01 -2.0660e+01  9.7108e+01 +/- 0.0000e+00 0.0000e+00 0.0000e+00 [bar]
Ideal-gas pressure:   5.084519e+02 +/ 0.000000e+00 [bar]
Excess pressure:     -3.917026e+02 +/ 0.000000e+00 [bar]
Pressure:             1.167493e+02 +/ 0.000000e+00 [bar]

Total potential energy/kʙ  -3.874316e+05 (-3.874735e+05 +/- 0.000000e+00) [K]
-------------------------------------------------------------------------------
ExternalField-molecule
    Van der Waals/kʙ        0.000000e+00 ( 0.000000e+00 +/- 0.000000e+00) [K]
Framework-molecule
    Van der Waals/kʙ        0.000000e+00 ( 0.000000e+00 +/- 0.000000e+00) [K]
    Van der Waals (Tail)/kʙ 0.000000e+00 ( 0.000000e+00 +/- 0.000000e+00) [K]
    Coulombic Real/kʙ       0.000000e+00 ( 0.000000e+00 +/- 0.000000e+00) [K]
    Coulombic Fourier/kʙ    0.000000e+00 ( 0.000000e+00 +/- 0.000000e+00) [K]
Molecule-molecule
    Van der Waals/kʙ       -2.774440e+05 (-2.764077e+05 +/- 0.000000e+00) [K]
    Van der Waals (Tail)/kʙ-1.166400e+04 (-1.179374e+04 +/- 0.000000e+00) [K]
    Coulombic Real/kʙ      -7.845997e+04 (-7.993408e+04 +/- 0.000000e+00) [K]
    Coulombic Fourier/kʙ   -1.986358e+04 (-1.933799e+04 +/- 0.000000e+00) [K]
    Molecule Intra/kʙ       0.000000e+00 ( 0.000000e+00 +/- 0.000000e+00) [K]

Current cycle: 900 out of 5000
===============================================================================

Box:      25.67342   0.00000   0.00000  Average:  25.69666   0.00000   0.00000
           0.00000  25.67342   0.00000             0.00000  25.69666   0.00000
           0.00000   0.00000  25.67342             0.00000   0.00000  25.69666
Lengths:  25.67342  25.67342  25.67342  Average:  25.69666  25.69666  25.69666
Angles:   90.00000  90.00000  90.00000  Average:  90.00000  90.00000  90.00000
Rectangular boundary conditions

net charge:   0.00000000

component 0 (CO2) lambda:  0 occupancy:  1 (1.000000)
    net charge:   0.00000000 [e]

Amount of molecules per component :
-------------------------------------------------------------------------------
Component 0 (CO2)
    molecules:      2.500000e+02 molecules  (2.500000e+02 +/- 0.000000e+00)
    number density: 1.477369e-02 molec./A^3 (1.473616e-02 +/- 0.000000e+00)
    density:        1.079391e+03 kg/m^3     (1.076649e+03 +/- 0.000000e+00)

Average pressure tensor: 
-------------------------------------------------------------------------------
 1.0043e+02  1.0271e+01 -4.3866e+01 +/- 0.0000e+00 0.0000e+00 0.0000e+00 [bar]
 1.0271e+01  1.5943e+02 -2.6172e+01 +/- 0.0000e+00 0.0000e+00 0.0000e+00 [bar]
-4.3866e+01 -2.6172e+01  9.5067e+01 +/- 0.0000e+00 0.0000e+00 0.0000e+00 [bar]
Ideal-gas pressure:   5.086371e+02 +/ 0.000000e+00 [bar]
Excess pressure:     -3.903293e+02 +/ 0.000000e+00 [bar]
Pressure:             1.183078e+02 +/ 0.000000e+00 [bar]

Total potential energy/kʙ  -3.939380e+05 (-3.879189e+05 +/- 0.000000e+00) [K]
-------------------------------------------------------------------------------
ExternalField-molecule
    Van der Waals/kʙ        0.000000e+00 ( 0.000000e+00 +/- 0.000000e+00) [K]
Framework-molecule
    Van der Waals/kʙ        0.000000e+00 ( 0.000000e+00 +/- 0.000000e+00) [K]
    Van der Waals (Tail)/kʙ 0.000000e+00 ( 0.000000e+00 +/- 0.000000e+00) [K]
    Coulombic Real/kʙ       0.000000e+00 ( 0.000000e+00 +/- 0.000000e+00) [K]
    Coulombic Fourier/kʙ    0.000000e+00 ( 0.000000e+00 +/- 0.000000e+00) [K]
Molecule-molecule
    Van der Waals/kʙ       -2.806214e+05 (-2.766525e+05 +/- 0.000000e+00) [K]
    Van der Waals (Tail)/kʙ-1.185053e+04 (-1.179961e+04 +/- 0.000000e+00) [K]
    Coulombic Real/kʙ      -8.048683e+04 (-8.005490e+04 +/- 0.000000e+00) [K]
    Coulombic Fourier/kʙ   -2.097921e+04 (-1.941188e+04 +/- 0.000000e+00) [K]
    Molecule Intra/kʙ       0.000000e+00 ( 0.000000e+00 +/- 0.000000e+00) [K]

Current cycle: 1000 out of 5000
===============================================================================

Box:      25.51561   0.00000   0.00000  Average:  25.68001   0.00000   0.00000
           0.00000  25.51561   0.00000             0.00000  25.68001   0.00000
           0.00000   0.00000  25.51561             0.00000   0.00000  25.68001
Lengths:  25.51561  25.51561  25.51561  Average:  25.68001  25.68001  25.68001
Angles:   90.00000  90.00000  90.00000  Average:  90.00000  90.00000  90.00000
Rectangular boundary conditions

net charge:   0.00000000

component 0 (CO2) lambda:  0 occupancy:  1 (1.000000)
    net charge:   0.00000000 [e]

Amount of molecules per component :
-------------------------------------------------------------------------------
Component 0 (CO2)
    molecules:      2.500000e+02 molecules  (2.500000e+02 +/- 0.000000e+00)
    number density: 1.504950e-02 molec./A^3 (1.476501e-02 +/- 0.000000e+00)
    density:        1.099542e+03 kg/m^3     (1.078757e+03 +/- 0.000000e+00)

Average pressure tensor: 
-------------------------------------------------------------------------------
 1.4347e+02 -6.4243e-01 -5.8878e+01 +/- 0.0000e+00 0.0000e+00 0.0000e+00 [bar]
-6.4243e-01  1.7362e+02 -2.5118e+01 +/- 0.0000e+00 0.0000e+00 0.0000e+00 [bar]
-5.8878e+01 -2.5118e+01  1.1585e+02 +/- 0.0000e+00 0.0000e+00 0.0000e+00 [bar]
Ideal-gas pressure:   5.096330e+02 +/ 0.000000e+00 [bar]
Excess pressure:     -3.653165e+02 +/ 0.000000e+00 [bar]
Pressure:             1.443166e+02 +/ 0.000000e+00 [bar]

Total potential energy/kʙ  -3.986936e+05 (-3.888497e+05 +/- 0.000000e+00) [K]
-------------------------------------------------------------------------------
ExternalField-molecule
    Van der Waals/kʙ        0.000000e+00 ( 0.000000e+00 +/- 0.000000e+00) [K]
Framework-molecule
    Van der Waals/kʙ        0.000000e+00 ( 0.000000e+00 +/- 0.000000e+00) [K]
    Van der Waals (Tail)/kʙ 0.000000e+00 ( 0.000000e+00 +/- 0.000000e+00) [K]
    Coulombic Real/kʙ       0.000000e+00 ( 0.000000e+00 +/- 0.000000e+00) [K]
    Coulombic Fourier/kʙ    0.000000e+00 ( 0.000000e+00 +/- 0.000000e+00) [K]
Molecule-molecule
    Van der Waals/kʙ       -2.816248e+05 (-2.767671e+05 +/- 0.000000e+00) [K]
    Van der Waals (Tail)/kʙ-1.207176e+04 (-1.183142e+04 +/- 0.000000e+00) [K]
    Coulombic Real/kʙ      -8.555558e+04 (-8.071424e+04 +/- 0.000000e+00) [K]
    Coulombic Fourier/kʙ   -1.944143e+04 (-1.953687e+04 +/- 0.000000e+00) [K]
    Molecule Intra/kʙ       0.000000e+00 ( 0.000000e+00 +/- 0.000000e+00) [K]

Current cycle: 1100 out of 5000
===============================================================================

Box:      25.57831   0.00000   0.00000  Average:  25.65734   0.00000   0.00000
           0.00000  25.57831   0.00000             0.00000  25.65734   0.00000
           0.00000   0.00000  25.57831             0.00000   0.00000  25.65734
Lengths:  25.57831  25.57831  25.57831  Average:  25.65734  25.65734  25.65734
Angles:   90.00000  90.00000  90.00000  Average:  90.00000  90.00000  90.00000
Rectangular boundary conditions

net charge:   0.00000000

component 0 (CO2) lambda:  0 occupancy:  1 (1.000000)
    net charge:   0.00000000 [e]

Amount of molecules per component :
-------------------------------------------------------------------------------
Component 0 (CO2)
    molecules:      2.500000e+02 molecules  (2.500000e+02 +/- 0.000000e+00)
    number density: 1.493911e-02 molec./A^3 (1.480477e-02 +/- 0.000000e+00)
    density:        1.091477e+03 kg/m^3     (1.081662e+03 +/- 0.000000e+00)

Average pressure tensor: 
-------------------------------------------------------------------------------
 1.5883e+02 -3.1742e+00 -6.1867e+01 +/- 0.0000e+00 0.0000e+00 0.0000e+00 [bar]
-3.1742e+00  1.7198e+02 -1.9748e+01 +/- 0.0000e+00 0.0000e+00 0.0000e+00 [bar]
-6.1867e+01 -1.9748e+01  1.1569e+02 +/- 0.0000e+00 0.0000e+00 0.0000e+00 [bar]
Ideal-gas pressure:   5.110053e+02 +/ 0.000000e+00 [bar]
Excess pressure:     -3.621734e+02 +/ 0.000000e+00 [bar]
Pressure:             1.488319e+02 +/ 0.000000e+00 [bar]

Total potential energy/kʙ  -3.947323e+05 (-3.897318e+05 +/- 0.000000e+00) [K]
-------------------------------------------------------------------------------
ExternalField-molecule
    Van der Waals/kʙ        0.000000e+00 ( 0.000000e+00 +/- 0.000000e+00) [K]
Framework-molecule
    Van der Waals/kʙ        0.000000e+00 ( 0.000000e+00 +/- 0.000000e+00) [K]
    Van der Waals (Tail)/kʙ 0.000000e+00 ( 0.000000e+00 +/- 0.000000e+00) [K]
    Coulombic Real/kʙ       0.000000e+00 ( 0.000000e+00 +/- 0.000000e+00) [K]
    Coulombic Fourier/kʙ    0.000000e+00 ( 0.000000e+00 +/- 0.000000e+00) [K]
Molecule-molecule
    Van der Waals/kʙ       -2.823768e+05 (-2.774033e+05 +/- 0.000000e+00) [K]
    Van der Waals (Tail)/kʙ-1.198321e+04 (-1.186386e+04 +/- 0.000000e+00) [K]
    Coulombic Real/kʙ      -8.035834e+04 (-8.091335e+04 +/- 0.000000e+00) [K]
    Coulombic Fourier/kʙ   -2.001389e+04 (-1.955127e+04 +/- 0.000000e+00) [K]
    Molecule Intra/kʙ       0.000000e+00 ( 0.000000e+00 +/- 0.000000e+00) [K]

Current cycle: 1200 out of 5000
===============================================================================

Box:      25.75012   0.00000   0.00000  Average:  25.65366   0.00000   0.00000
           0.00000  25.75012   0.00000             0.00000  25.65366   0.00000
           0.00000   0.00000  25.75012             0.00000   0.00000  25.65366
Lengths:  25.75012  25.75012  25.75012  Average:  25.65366  25.65366  25.65366
Angles:   90.00000  90.00000  90.00000  Average:  90.00000  90.00000  90.00000
Rectangular boundary conditions

net charge:   0.00000000

component 0 (CO2) lambda:  0 occupancy:  1 (1.000000)
    net charge:   0.00000000 [e]

Amount of molecules per component :
-------------------------------------------------------------------------------
Component 0 (CO2)
    molecules:      2.500000e+02 molecules  (2.500000e+02 +/- 0.000000e+00)
    number density: 1.464206e-02 molec./A^3 (1.481099e-02 +/- 0.000000e+00)
    density:        1.069774e+03 kg/m^3     (1.082117e+03 +/- 0.000000e+00)

Average pressure tensor: 
-------------------------------------------------------------------------------
 1.8310e+02 -6.1264e+00 -5.5608e+01 +/- 0.0000e+00 0.0000e+00 0.0000e+00 [bar]
-6.1264e+00  1.8267e+02 -1.2202e+01 +/- 0.0000e+00 0.0000e+00 0.0000e+00 [bar]
-5.5608e+01 -1.2202e+01  9.9703e+01 +/- 0.0000e+00 0.0000e+00 0.0000e+00 [bar]
Ideal-gas pressure:   5.112201e+02 +/ 0.000000e+00 [bar]
Excess pressure:     -3.560646e+02 +/ 0.000000e+00 [bar]
Pressure:             1.551554e+02 +/ 0.000000e+00 [bar]

Total potential energy/kʙ  -3.890035e+05 (-3.897523e+05 +/- 0.000000e+00) [K]
-------------------------------------------------------------------------------
ExternalField-molecule
    Van der Waals/kʙ        0.000000e+00 ( 0.000000e+00 +/- 0.000000e+00) [K]
Framework-molecule
    Van der Waals/kʙ        0.000000e+00 ( 0.000000e+00 +/- 0.000000e+00) [K]
    Van der Waals (Tail)/kʙ 0.000000e+00 ( 0.000000e+00 +/- 0.000000e+00) [K]
    Coulombic Real/kʙ       0.000000e+00 ( 0.000000e+00 +/- 0.000000e+00) [K]
    Coulombic Fourier/kʙ    0.000000e+00 ( 0.000000e+00 +/- 0.000000e+00) [K]
Molecule-molecule
    Van der Waals/kʙ       -2.791976e+05 (-2.773606e+05 +/- 0.000000e+00) [K]
    Van der Waals (Tail)/kʙ-1.174494e+04 (-1.186844e+04 +/- 0.000000e+00) [K]
    Coulombic Real/kʙ      -7.873356e+04 (-8.093732e+04 +/- 0.000000e+00) [K]
    Coulombic Fourier/kʙ   -1.932742e+04 (-1.958596e+04 +/- 0.000000e+00) [K]
    Molecule Intra/kʙ       0.000000e+00 ( 0.000000e+00 +/- 0.000000e+00) [K]

Current cycle: 1300 out of 5000
===============================================================================

Box:      25.45594   0.00000   0.00000  Average:  25.64827   0.00000   0.00000
           0.00000  25.45594   0.00000             0.00000  25.64827   0.00000
           0.00000   0.00000  25.45594             0.00000   0.00000  25.64827
Lengths:  25.45594  25.45594  25.45594  Average:  25.64827  25.64827  25.64827
Angles:   90.00000  90.00000  90.00000  Average:  90.00000  90.00000  90.00000
Rectangular boundary conditions

net charge:   0.00000000

component 0 (CO2) lambda:  0 occupancy:  1 (1.000000)
    net charge:   0.00000000 [e]

Amount of molecules per component :
-------------------------------------------------------------------------------
Component 0 (CO2)
    molecules:      2.500000e+02 molecules  (2.500000e+02 +/- 0.000000e+00)
    number density: 1.515558e-02 molec./A^3 (1.482021e-02 +/- 0.000000e+00)
    density:        1.107293e+03 kg/m^3     (1.082790e+03 +/- 0.000000e+00)

Average pressure tensor: 
-------------------------------------------------------------------------------
 1.8280e+02 -7.4808e+00 -4.7229e+01 +/- 0.0000e+00 0.0000e+00 0.0000e+00 [bar]
-7.4808e+00  1.8320e+02 -1.2355e+01 +/- 0.0000e+00 0.0000e+00 0.0000e+00 [bar]
-4.7229e+01 -1.2355e+01  9.1122e+01 +/- 0.0000e+00 0.0000e+00 0.0000e+00 [bar]
Ideal-gas pressure:   5.115383e+02 +/ 0.000000e+00 [bar]
Excess pressure:     -3.591638e+02 +/ 0.000000e+00 [bar]
Pressure:             1.523745e+02 +/ 0.000000e+00 [bar]

Total potential energy/kʙ  -4.012038e+05 (-3.903144e+05 +/- 0.000000e+00) [K]
-------------------------------------------------------------------------------
ExternalField-molecule
    Van der Waals/kʙ        0.000000e+00 ( 0.000000e+00 +/- 0.000000e+00) [K]
Framework-molecule
    Van der Waals/kʙ        0.000000e+00 ( 0.000000e+00 +/- 0.000000e+00) [K]
    Van der Waals (Tail)/kʙ 0.000000e+00 ( 0.000000e+00 +/- 0.000000e+00) [K]
    Coulombic Real/kʙ       0.000000e+00 ( 0.000000e+00 +/- 0.000000e+00) [K]
    Coulombic Fourier/kʙ    0.000000e+00 ( 0.000000e+00 +/- 0.000000e+00) [K]
Molecule-molecule
    Van der Waals/kʙ       -2.835613e+05 (-2.775997e+05 +/- 0.000000e+00) [K]
    Van der Waals (Tail)/kʙ-1.215686e+04 (-1.187733e+04 +/- 0.000000e+00) [K]
    Coulombic Real/kʙ      -8.578354e+04 (-8.123496e+04 +/- 0.000000e+00) [K]
    Coulombic Fourier/kʙ   -1.970215e+04 (-1.960236e+04 +/- 0.000000e+00) [K]
    Molecule Intra/kʙ       0.000000e+00 ( 0.000000e+00 +/- 0.000000e+00) [K]

Current cycle: 1400 out of 5000
===============================================================================

Box:      25.62812   0.00000   0.00000  Average:  25.64017   0.00000   0.00000
           0.00000  25.62812   0.00000             0.00000  25.64017   0.00000
           0.00000   0.00000  25.62812             0.00000   0.00000  25.64017
Lengths:  25.62812  25.62812  25.62812  Average:  25.64017  25.64017  25.64017
Angles:   90.00000  90.00000  90.00000  Average:  90.00000  90.00000  90.00000
Rectangular boundary conditions

net charge:   0.00000000

component 0 (CO2) lambda:  0 occupancy:  1 (1.000000)
    net charge:   0.00000000 [e]

Amount of molecules per component :
-------------------------------------------------------------------------------
Component 0 (CO2)
    molecules:      2.500000e+02 molecules  (2.500000e+02 +/- 0.000000e+00)
    number density: 1.485217e-02 molec./A^3 (1.483427e-02 +/- 0.000000e+00)
    density:        1.085125e+03 kg/m^3     (1.083817e+03 +/- 0.000000e+00)

Average pressure tensor: 
-------------------------------------------------------------------------------
 1.9028e+02  1.5068e+00 -4.3891e+01 +/- 0.0000e+00 0.0000e+00 0.0000e+00 [bar]
 1.5068e+00  1.7673e+02 -1.6578e+01 +/- 0.0000e+00 0.0000e+00 0.0000e+00 [bar]
-4.3891e+01 -1.6578e+01  1.0902e+02 +/- 0.0000e+00 0.0000e+00 0.0000e+00 [bar]
Ideal-gas pressure:   5.120233e+02 +/ 0.000000e+00 [bar]
Excess pressure:     -3.533461e+02 +/ 0.000000e+00 [bar]
Pressure:             1.586772e+02 +/ 0.000000e+00 [bar]

Total potential energy/kʙ  -3.959853e+05 (-3.907113e+05 +/- 0.000000e+00) [K]
-------------------------------------------------------------------------------
ExternalField-molecule
    Van der Waals/kʙ        0.000000e+00 ( 0.000000e+00 +/- 0.000000e+00) [K]
Framework-molecule
    Van der Waals/kʙ        0.000000e+00 ( 0.000000e+00 +/- 0.000000e+00) [K]
    Van der Waals (Tail)/kʙ 0.000000e+00 ( 0.000000e+00 +/- 0.000000e+00) [K]
    Coulombic Real/kʙ       0.000000e+00 ( 0.000000e+00 +/- 0.000000e+00) [K]
    Coulombic Fourier/kʙ    0.000000e+00 ( 0.000000e+00 +/- 0.000000e+00) [K]
Molecule-molecule
    Van der Waals/kʙ       -2.753678e+05 (-2.776854e+05 +/- 0.000000e+00) [K]
    Van der Waals (Tail)/kʙ-1.191348e+04 (-1.188725e+04 +/- 0.000000e+00) [K]
    Coulombic Real/kʙ      -8.776990e+04 (-8.149587e+04 +/- 0.000000e+00) [K]
    Coulombic Fourier/kʙ   -2.093410e+04 (-1.964283e+04 +/- 0.000000e+00) [K]
    Molecule Intra/kʙ       0.000000e+00 ( 0.000000e+00 +/- 0.000000e+00) [K]

Current cycle: 1500 out of 5000
===============================================================================

Box:      25.65873   0.00000   0.00000  Average:  25.64196   0.00000   0.00000
           0.00000  25.65873   0.00000             0.00000  25.64196   0.00000
           0.00000   0.00000  25.65873             0.00000   0.00000  25.64196
Lengths:  25.65873  25.65873  25.65873  Average:  25.64196  25.64196  25.64196
Angles:   90.00000  90.00000  90.00000  Average:  90.00000  90.00000  90.00000
Rectangular boundary conditions

net charge:   0.00000000

component 0 (CO2) lambda:  0 occupancy:  1 (1.000000)
    net charge:   0.00000000 [e]

Amount of molecules per component :
-------------------------------------------------------------------------------
Component 0 (CO2)
    molecules:      2.500000e+02 molecules  (2.500000e+02 +/- 0.000000e+00)
    number density: 1.479907e-02 molec./A^3 (1.483103e-02 +/- 0.000000e+00)
    density:        1.081246e+03 kg/m^3     (1.083581e+03 +/- 0.000000e+00)

Average pressure tensor: 
-------------------------------------------------------------------------------
 1.9542e+02 -5.4847e+00 -3.9204e+01 +/- 0.0000e+00 0.0000e+00 0.0000e+00 [bar]
-5.4847e+00  1.6194e+02 -1.3260e+01 +/- 0.0000e+00 0.0000e+00 0.0000e+00 [bar]
-3.9204e+01 -1.3260e+01  1.1357e+02 +/- 0.0000e+00 0.0000e+00 0.0000e+00 [bar]
Ideal-gas pressure:   5.119118e+02 +/ 0.000000e+00 [bar]
Excess pressure:     -3.549390e+02 +/ 0.000000e+00 [bar]
Pressure:             1.569729e+02 +/ 0.000000e+00 [bar]

Total potential energy/kʙ  -3.939253e+05 (-3.907930e+05 +/- 0.000000e+00) [K]
-------------------------------------------------------------------------------
ExternalField-molecule
    Van der Waals/kʙ        0.000000e+00 ( 0.000000e+00 +/- 0.000000e+00) [K]
Framework-molecule
    Van der Waals/kʙ        0.000000e+00 ( 0.000000e+00 +/- 0.000000e+00) [K]
    Van der Waals (Tail)/kʙ 0.000000e+00 ( 0.000000e+00 +/- 0.000000e+00) [K]
    Coulombic Real/kʙ       0.000000e+00 ( 0.000000e+00 +/- 0.000000e+00) [K]
    Coulombic Fourier/kʙ    0.000000e+00 ( 0.000000e+00 +/- 0.000000e+00) [K]
Molecule-molecule
    Van der Waals/kʙ       -2.758099e+05 (-2.775150e+05 +/- 0.000000e+00) [K]
    Van der Waals (Tail)/kʙ-1.187089e+04 (-1.188464e+04 +/- 0.000000e+00) [K]
    Coulombic Real/kʙ      -8.546543e+04 (-8.170452e+04 +/- 0.000000e+00) [K]
    Coulombic Fourier/kʙ   -2.077909e+04 (-1.968881e+04 +/- 0.000000e+00) [K]
    Molecule Intra/kʙ       0.000000e+00 ( 0.000000e+00 +/- 0.000000e+00) [K]

Current cycle: 1600 out of 5000
===============================================================================

Box:      25.70088   0.00000   0.00000  Average:  25.65681   0.00000   0.00000
           0.00000  25.70088   0.00000             0.00000  25.65681   0.00000
           0.00000   0.00000  25.70088             0.00000   0.00000  25.65681
Lengths:  25.70088  25.70088  25.70088  Average:  25.65681  25.65681  25.65681
Angles:   90.00000  90.00000  90.00000  Average:  90.00000  90.00000  90.00000
Rectangular boundary conditions

net charge:   0.00000000

component 0 (CO2) lambda:  0 occupancy:  1 (1.000000)
    net charge:   0.00000000 [e]

Amount of molecules per component :
-------------------------------------------------------------------------------
Component 0 (CO2)
    molecules:      2.500000e+02 molecules  (2.500000e+02 +/- 0.000000e+00)
    number density: 1.472638e-02 molec./A^3 (1.480565e-02 +/- 0.000000e+00)
    density:        1.075935e+03 kg/m^3     (1.081726e+03 +/- 0.000000e+00)

Average pressure tensor: 
-------------------------------------------------------------------------------
 1.9322e+02 -1.0553e+01 -3.6469e+01 +/- 0.0000e+00 0.0000e+00 0.0000e+00 [bar]
-1.0553e+01  1.7189e+02 -1.8958e+01 +/- 0.0000e+00 0.0000e+00 0.0000e+00 [bar]
-3.6469e+01 -1.8958e+01  1.1441e+02 +/- 0.0000e+00 0.0000e+00 0.0000e+00 [bar]
Ideal-gas pressure:   5.110358e+02 +/ 0.000000e+00 [bar]
Excess pressure:     -3.511962e+02 +/ 0.000000e+00 [bar]
Pressure:             1.598396e+02 +/ 0.000000e+00 [bar]

Total potential energy/kʙ  -3.897386e+05 (-3.901001e+05 +/- 0.000000e+00) [K]
-------------------------------------------------------------------------------
ExternalField-molecule
    Van der Waals/kʙ        0.000000e+00 ( 0.000000e+00 +/- 0.000000e+00) [K]
Framework-molecule
    Van der Waals/kʙ        0.000000e+00 ( 0.000000e+00 +/- 0.000000e+00) [K]
    Van der Waals (Tail)/kʙ 0.000000e+00 ( 0.000000e+00 +/- 0.000000e+00) [K]
    Coulombic Real/kʙ       0.000000e+00 ( 0.000000e+00 +/- 0.000000e+00) [K]
    Coulombic Fourier/kʙ    0.000000e+00 ( 0.000000e+00 +/- 0.000000e+00) [K]
Molecule-molecule
    Van der Waals/kʙ       -2.732898e+05 (-2.768452e+05 +/- 0.000000e+00) [K]
    Van der Waals (Tail)/kʙ-1.181258e+04 (-1.186628e+04 +/- 0.000000e+00) [K]
    Coulombic Real/kʙ      -8.399104e+04 (-8.171298e+04 +/- 0.000000e+00) [K]
    Coulombic Fourier/kʙ   -2.064519e+04 (-1.967557e+04 +/- 0.000000e+00) [K]
    Molecule Intra/kʙ       0.000000e+00 ( 0.000000e+00 +/- 0.000000e+00) [K]

Current cycle: 1700 out of 5000
===============================================================================

Box:      25.37525   0.00000   0.00000  Average:  25.65494   0.00000   0.00000
           0.00000  25.37525   0.00000             0.00000  25.65494   0.00000
           0.00000   0.00000  25.37525             0.00000   0.00000  25.65494
Lengths:  25.37525  25.37525  25.37525  Average:  25.65494  25.65494  25.65494
Angles:   90.00000  90.00000  90.00000  Average:  90.00000  90.00000  90.00000
Rectangular boundary conditions

net charge:   0.00000000

component 0 (CO2) lambda:  0 occupancy:  1 (1.000000)
    net charge:   0.00000000 [e]

Amount of molecules per component :
-------------------------------------------------------------------------------
Component 0 (CO2)
    molecules:      2.500000e+02 molecules  (2.500000e+02 +/- 0.000000e+00)
    number density: 1.530061e-02 molec./A^3 (1.480888e-02 +/- 0.000000e+00)
    density:        1.117889e+03 kg/m^3     (1.081962e+03 +/- 0.000000e+00)

Average pressure tensor: 
-------------------------------------------------------------------------------
 1.8465e+02 -9.3508e-01 -3.6189e+01 +/- 0.0000e+00 0.0000e+00 0.0000e+00 [bar]
-9.3508e-01  1.7348e+02 -2.6084e+01 +/- 0.0000e+00 0.0000e+00 0.0000e+00 [bar]
-3.6189e+01 -2.6084e+01  1.1622e+02 +/- 0.0000e+00 0.0000e+00 0.0000e+00 [bar]
Ideal-gas pressure:   5.111471e+02 +/ 0.000000e+00 [bar]
Excess pressure:     -3.530293e+02 +/ 0.000000e+00 [bar]
Pressure:             1.581179e+02 +/ 0.000000e+00 [bar]

Total potential energy/kʙ  -4.028164e+05 (-3.902826e+05 +/- 0.000000e+00) [K]
-------------------------------------------------------------------------------
ExternalField-molecule
    Van der Waals/kʙ        0.000000e+00 ( 0.000000e+00 +/- 0.000000e+00) [K]
Framework-molecule
    Van der Waals/kʙ        0.000000e+00 ( 0.000000e+00 +/- 0.000000e+00) [K]
    Van der Waals (Tail)/kʙ 0.000000e+00 ( 0.000000e+00 +/- 0.000000e+00) [K]
    Coulombic Real/kʙ       0.000000e+00 ( 0.000000e+00 +/- 0.000000e+00) [K]
    Coulombic Fourier/kʙ    0.000000e+00 ( 0.000000e+00 +/- 0.000000e+00) [K]
Molecule-molecule
    Van der Waals/kʙ       -2.879146e+05 (-2.770810e+05 +/- 0.000000e+00) [K]
    Van der Waals (Tail)/kʙ-1.227319e+04 (-1.187119e+04 +/- 0.000000e+00) [K]
    Coulombic Real/kʙ      -8.202182e+04 (-8.163895e+04 +/- 0.000000e+00) [K]
    Coulombic Fourier/kʙ   -2.060680e+04 (-1.969144e+04 +/- 0.000000e+00) [K]
    Molecule Intra/kʙ       0.000000e+00 ( 0.000000e+00 +/- 0.000000e+00) [K]

Current cycle: 1800 out of 5000
===============================================================================

Box:      25.45025   0.00000   0.00000  Average:  25.64289   0.00000   0.00000
           0.00000  25.45025   0.00000             0.00000  25.64289   0.00000
           0.00000   0.00000  25.45025             0.00000   0.00000  25.64289
Lengths:  25.45025  25.45025  25.45025  Average:  25.64289  25.64289  25.64289
Angles:   90.00000  90.00000  90.00000  Average:  90.00000  90.00000  90.00000
Rectangular boundary conditions

net charge:   0.00000000

component 0 (CO2) lambda:  0 occupancy:  1 (1.000000)
    net charge:   0.00000000 [e]

Amount of molecules per component :
-------------------------------------------------------------------------------
Component 0 (CO2)
    molecules:      2.500000e+02 molecules  (2.500000e+02 +/- 0.000000e+00)
    number density: 1.516575e-02 molec./A^3 (1.482994e-02 +/- 0.000000e+00)
    density:        1.108036e+03 kg/m^3     (1.083501e+03 +/- 0.000000e+00)

Average pressure tensor: 
-------------------------------------------------------------------------------
 1.7779e+02  6.6756e+00 -2.4488e+01 +/- 0.0000e+00 0.0000e+00 0.0000e+00 [bar]
 6.6756e+00  1.7048e+02 -3.4236e+01 +/- 0.0000e+00 0.0000e+00 0.0000e+00 [bar]
-2.4488e+01 -3.4236e+01  1.2225e+02 +/- 0.0000e+00 0.0000e+00 0.0000e+00 [bar]
Ideal-gas pressure:   5.118740e+02 +/ 0.000000e+00 [bar]
Excess pressure:     -3.550334e+02 +/ 0.000000e+00 [bar]
Pressure:             1.568406e+02 +/ 0.000000e+00 [bar]

Total potential energy/kʙ  -4.036407e+05 (-3.910188e+05 +/- 0.000000e+00) [K]
-------------------------------------------------------------------------------
ExternalField-molecule
    Van der Waals/kʙ        0.000000e+00 ( 0.000000e+00 +/- 0.000000e+00) [K]
Framework-molecule
    Van der Waals/kʙ        0.000000e+00 ( 0.000000e+00 +/- 0.000000e+00) [K]
    Van der Waals (Tail)/kʙ 0.000000e+00 ( 0.000000e+00 +/- 0.000000e+00) [K]
    Coulombic Real/kʙ       0.000000e+00 ( 0.000000e+00 +/- 0.000000e+00) [K]
    Coulombic Fourier/kʙ    0.000000e+00 ( 0.000000e+00 +/- 0.000000e+00) [K]
Molecule-molecule
    Van der Waals/kʙ       -2.820130e+05 (-2.775988e+05 +/- 0.000000e+00) [K]
    Van der Waals (Tail)/kʙ-1.216501e+04 (-1.188813e+04 +/- 0.000000e+00) [K]
    Coulombic Real/kʙ      -8.766938e+04 (-8.176816e+04 +/- 0.000000e+00) [K]
    Coulombic Fourier/kʙ   -2.179327e+04 (-1.976366e+04 +/- 0.000000e+00) [K]
    Molecule Intra/kʙ       0.000000e+00 ( 0.000000e+00 +/- 0.000000e+00) [K]

Current cycle: 1900 out of 5000
===============================================================================

Box:      25.75249   0.00000   0.00000  Average:  25.63674   0.00000   0.00000
           0.00000  25.75249   0.00000             0.00000  25.63674   0.00000
           0.00000   0.00000  25.75249             0.00000   0.00000  25.63674
Lengths:  25.75249  25.75249  25.75249  Average:  25.63674  25.63674  25.63674
Angles:   90.00000  90.00000  90.00000  Average:  90.00000  90.00000  90.00000
Rectangular boundary conditions

net charge:   0.00000000

component 0 (CO2) lambda:  0 occupancy:  1 (1.000000)
    net charge:   0.00000000 [e]

Amount of molecules per component :
-------------------------------------------------------------------------------
Component 0 (CO2)
    molecules:      2.500000e+02 molecules  (2.500000e+02 +/- 0.000000e+00)
    number density: 1.463802e-02 molec./A^3 (1.484061e-02 +/- 0.000000e+00)
    density:        1.069479e+03 kg/m^3     (1.084281e+03 +/- 0.000000e+00)

Average pressure tensor: 
-------------------------------------------------------------------------------
 1.7424e+02  4.9434e+00 -2.6306e+01 +/- 0.0000e+00 0.0000e+00 0.0000e+00 [bar]
 4.9434e+00  1.7706e+02 -3.2546e+01 +/- 0.0000e+00 0.0000e+00 0.0000e+00 [bar]
-2.6306e+01 -3.2546e+01  1.2567e+02 +/- 0.0000e+00 0.0000e+00 0.0000e+00 [bar]
Ideal-gas pressure:   5.122425e+02 +/ 0.000000e+00 [bar]
Excess pressure:     -3.532514e+02 +/ 0.000000e+00 [bar]
Pressure:             1.589911e+02 +/ 0.000000e+00 [bar]

Total potential energy/kʙ  -3.823280e+05 (-3.912696e+05 +/- 0.000000e+00) [K]
-------------------------------------------------------------------------------
ExternalField-molecule
    Van der Waals/kʙ        0.000000e+00 ( 0.000000e+00 +/- 0.000000e+00) [K]
Framework-molecule
    Van der Waals/kʙ        0.000000e+00 ( 0.000000e+00 +/- 0.000000e+00) [K]
    Van der Waals (Tail)/kʙ 0.000000e+00 ( 0.000000e+00 +/- 0.000000e+00) [K]
    Coulombic Real/kʙ       0.000000e+00 ( 0.000000e+00 +/- 0.000000e+00) [K]
    Coulombic Fourier/kʙ    0.000000e+00 ( 0.000000e+00 +/- 0.000000e+00) [K]
Molecule-molecule
    Van der Waals/kʙ       -2.708243e+05 (-2.777174e+05 +/- 0.000000e+00) [K]
    Van der Waals (Tail)/kʙ-1.174170e+04 (-1.189492e+04 +/- 0.000000e+00) [K]
    Coulombic Real/kʙ      -7.915386e+04 (-8.181867e+04 +/- 0.000000e+00) [K]
    Coulombic Fourier/kʙ   -2.060814e+04 (-1.983868e+04 +/- 0.000000e+00) [K]
    Molecule Intra/kʙ       0.000000e+00 ( 0.000000e+00 +/- 0.000000e+00) [K]

Current cycle: 2000 out of 5000
===============================================================================

Box:      25.75043   0.00000   0.00000  Average:  25.63825   0.00000   0.00000
           0.00000  25.75043   0.00000             0.00000  25.63825   0.00000
           0.00000   0.00000  25.75043             0.00000   0.00000  25.63825
Lengths:  25.75043  25.75043  25.75043  Average:  25.63825  25.63825  25.63825
Angles:   90.00000  90.00000  90.00000  Average:  90.00000  90.00000  90.00000
Rectangular boundary conditions

net charge:   0.00000000

component 0 (CO2) lambda:  0 occupancy:  1 (1.000000)
    net charge:   0.00000000 [e]

Amount of molecules per component :
-------------------------------------------------------------------------------
Component 0 (CO2)
    molecules:      2.500000e+02 molecules  (2.500000e+02 +/- 0.000000e+00)
    number density: 1.464154e-02 molec./A^3 (1.483789e-02 +/- 0.000000e+00)
    density:        1.069736e+03 kg/m^3     (1.084082e+03 +/- 0.000000e+00)

Average pressure tensor: 
-------------------------------------------------------------------------------
 1.7986e+02  7.9097e+00 -3.1970e+01 +/- 0.0000e+00 0.0000e+00 0.0000e+00 [bar]
 7.9097e+00  1.7978e+02 -2.9647e+01 +/- 0.0000e+00 0.0000e+00 0.0000e+00 [bar]
-3.1970e+01 -2.9647e+01  1.2784e+02 +/- 0.0000e+00 0.0000e+00 0.0000e+00 [bar]
Ideal-gas pressure:   5.121485e+02 +/ 0.000000e+00 [bar]
Excess pressure:     -3.496565e+02 +/ 0.000000e+00 [bar]
Pressure:             1.624921e+02 +/ 0.000000e+00 [bar]

Total potential energy/kʙ  -3.818928e+05 (-3.910592e+05 +/- 0.000000e+00) [K]
-------------------------------------------------------------------------------
ExternalField-molecule
    Van der Waals/kʙ        0.000000e+00 ( 0.000000e+00 +/- 0.000000e+00) [K]
Framework-molecule
    Van der Waals/kʙ        0.000000e+00 ( 0.000000e+00 +/- 0.000000e+00) [K]
    Van der Waals (Tail)/kʙ 0.000000e+00 ( 0.000000e+00 +/- 0.000000e+00) [K]
    Coulombic Real/kʙ       0.000000e+00 ( 0.000000e+00 +/- 0.000000e+00) [K]
    Coulombic Fourier/kʙ    0.000000e+00 ( 0.000000e+00 +/- 0.000000e+00) [K]
Molecule-molecule
    Van der Waals/kʙ       -2.768627e+05 (-2.776628e+05 +/- 0.000000e+00) [K]
    Van der Waals (Tail)/kʙ-1.174452e+04 (-1.189362e+04 +/- 0.000000e+00) [K]
    Coulombic Real/kʙ      -7.354493e+04 (-8.163351e+04 +/- 0.000000e+00) [K]
    Coulombic Fourier/kʙ   -1.974062e+04 (-1.986930e+04 +/- 0.000000e+00) [K]
    Molecule Intra/kʙ       0.000000e+00 ( 0.000000e+00 +/- 0.000000e+00) [K]

Current cycle: 2100 out of 5000
===============================================================================

Box:      25.65120   0.00000   0.00000  Average:  25.64352   0.00000   0.00000
           0.00000  25.65120   0.00000             0.00000  25.64352   0.00000
           0.00000   0.00000  25.65120             0.00000   0.00000  25.64352
Lengths:  25.65120  25.65120  25.65120  Average:  25.64352  25.64352  25.64352
Angles:   90.00000  90.00000  90.00000  Average:  90.00000  90.00000  90.00000
Rectangular boundary conditions

net charge:   0.00000000

component 0 (CO2) lambda:  0 occupancy:  1 (1.000000)
    net charge:   0.00000000 [e]

Amount of molecules per component :
-------------------------------------------------------------------------------
Component 0 (CO2)
    molecules:      2.500000e+02 molecules  (2.500000e+02 +/- 0.000000e+00)
    number density: 1.481211e-02 molec./A^3 (1.482876e-02 +/- 0.000000e+00)
    density:        1.082198e+03 kg/m^3     (1.083414e+03 +/- 0.000000e+00)

Average pressure tensor: 
-------------------------------------------------------------------------------
 1.7543e+02  9.9968e+00 -3.0820e+01 +/- 0.0000e+00 0.0000e+00 0.0000e+00 [bar]
 9.9968e+00  1.8281e+02 -2.7703e+01 +/- 0.0000e+00 0.0000e+00 0.0000e+00 [bar]
-3.0820e+01 -2.7703e+01  1.2121e+02 +/- 0.0000e+00 0.0000e+00 0.0000e+00 [bar]
Ideal-gas pressure:   5.118333e+02 +/ 0.000000e+00 [bar]
Excess pressure:     -3.520174e+02 +/ 0.000000e+00 [bar]
Pressure:             1.598159e+02 +/ 0.000000e+00 [bar]

Total potential energy/kʙ  -3.946931e+05 (-3.908999e+05 +/- 0.000000e+00) [K]
-------------------------------------------------------------------------------
ExternalField-molecule
    Van der Waals/kʙ        0.000000e+00 ( 0.000000e+00 +/- 0.000000e+00) [K]
Framework-molecule
    Van der Waals/kʙ        0.000000e+00 ( 0.000000e+00 +/- 0.000000e+00) [K]
    Van der Waals (Tail)/kʙ 0.000000e+00 ( 0.000000e+00 +/- 0.000000e+00) [K]
[...]
    Coulombic Fourier/kʙ    0.000000e+00 ( 0.000000e+00 +/- 0.000000e+00) [K]
Molecule-molecule
    Van der Waals/kʙ       -2.777046e+05 (-2.778761e+05 +/- 1.765146e+03) [K]
    Van der Waals (Tail)/kʙ-1.170682e+04 (-1.189351e+04 +/- 7.148404e+01) [K]
    Coulombic Real/kʙ      -8.648462e+04 (-8.131972e+04 +/- 1.068030e+03) [K]
    Coulombic Fourier/kʙ   -1.952935e+04 (-1.967515e+04 +/- 4.156302e+02) [K]
    Molecule Intra/kʙ       0.000000e+00 ( 0.000000e+00 +/- 0.000000e+00) [K]

Current cycle: 4700 out of 5000
===============================================================================

Box:      25.49173   0.00000   0.00000  Average:  25.64154   0.00000   0.00000
           0.00000  25.49173   0.00000             0.00000  25.64154   0.00000
           0.00000   0.00000  25.49173             0.00000   0.00000  25.64154
Lengths:  25.49173  25.49173  25.49173  Average:  25.64154  25.64154  25.64154
Angles:   90.00000  90.00000  90.00000  Average:  90.00000  90.00000  90.00000
Rectangular boundary conditions

net charge:   0.00000000

component 0 (CO2) lambda:  0 occupancy:  1 (1.000000)
    net charge:   0.00000000 [e]

Amount of molecules per component :
-------------------------------------------------------------------------------
Component 0 (CO2)
    molecules:      2.500000e+02 molecules  (2.500000e+02 +/- 3.944933e-14)
    number density: 1.509184e-02 molec./A^3 (1.483187e-02 +/- 8.274790e-05)
    density:        1.102636e+03 kg/m^3     (1.083642e+03 +/- 6.045703e+00)

Average pressure tensor: 
-------------------------------------------------------------------------------
 1.6102e+02 -5.3385e+00 -1.9697e+01 +/- 6.5963e+01 8.0477e+01 5.9178e+01 [bar]
-5.3385e+00  1.6935e+02  1.3973e+00 +/- 8.0477e+01 9.1961e+01 4.3945e+01 [bar]
-1.9697e+01  1.3973e+00  1.5611e+02 +/- 5.9178e+01 4.3945e+01 6.8360e+01 [bar]
Ideal-gas pressure:   5.119407e+02 +/ 2.856148e+00 [bar]
Excess pressure:     -3.497798e+02 +/ 4.659543e+01 [bar]
Pressure:             1.621609e+02 +/ 4.709750e+01 [bar]

Total potential energy/kʙ  -3.863770e+05 (-3.907623e+05 +/- 2.719715e+03) [K]
-------------------------------------------------------------------------------
ExternalField-molecule
    Van der Waals/kʙ        0.000000e+00 ( 0.000000e+00 +/- 0.000000e+00) [K]
Framework-molecule
    Van der Waals/kʙ        0.000000e+00 ( 0.000000e+00 +/- 0.000000e+00) [K]
    Van der Waals (Tail)/kʙ 0.000000e+00 ( 0.000000e+00 +/- 0.000000e+00) [K]
    Coulombic Real/kʙ       0.000000e+00 ( 0.000000e+00 +/- 0.000000e+00) [K]
    Coulombic Fourier/kʙ    0.000000e+00 ( 0.000000e+00 +/- 0.000000e+00) [K]
Molecule-molecule
    Van der Waals/kʙ       -2.803202e+05 (-2.778363e+05 +/- 1.769827e+03) [K]
    Van der Waals (Tail)/kʙ-1.210573e+04 (-1.189282e+04 +/- 7.121036e+01) [K]
    Coulombic Real/kʙ      -7.559152e+04 (-8.135624e+04 +/- 1.065374e+03) [K]
    Coulombic Fourier/kʙ   -1.835959e+04 (-1.967695e+04 +/- 4.023638e+02) [K]
    Molecule Intra/kʙ       0.000000e+00 ( 0.000000e+00 +/- 0.000000e+00) [K]

Current cycle: 4800 out of 5000
===============================================================================

Box:      25.62674   0.00000   0.00000  Average:  25.64026   0.00000   0.00000
           0.00000  25.62674   0.00000             0.00000  25.64026   0.00000
           0.00000   0.00000  25.62674             0.00000   0.00000  25.64026
Lengths:  25.62674  25.62674  25.62674  Average:  25.64026  25.64026  25.64026
Angles:   90.00000  90.00000  90.00000  Average:  90.00000  90.00000  90.00000
Rectangular boundary conditions

net charge:   0.00000000

component 0 (CO2) lambda:  0 occupancy:  1 (1.000000)
    net charge:   0.00000000 [e]

Amount of molecules per component :
-------------------------------------------------------------------------------
Component 0 (CO2)
    molecules:      2.500000e+02 molecules  (2.500000e+02 +/- 0.000000e+00)
    number density: 1.485456e-02 molec./A^3 (1.483405e-02 +/- 7.768140e-05)
    density:        1.085300e+03 kg/m^3     (1.083801e+03 +/- 5.675536e+00)

Average pressure tensor: 
-------------------------------------------------------------------------------
 1.5813e+02 -4.2390e+00 -1.7636e+01 +/- 5.8069e+01 6.9274e+01 5.3846e+01 [bar]
-4.2390e+00  1.6739e+02  9.2997e-01 +/- 6.9274e+01 9.2966e+01 4.4070e+01 [bar]
-1.7636e+01  9.2997e-01  1.5697e+02 +/- 5.3846e+01 4.4070e+01 6.4219e+01 [bar]
Ideal-gas pressure:   5.120159e+02 +/ 2.681271e+00 [bar]
Excess pressure:     -3.511864e+02 +/ 4.166493e+01 [bar]
Pressure:             1.608294e+02 +/ 4.269852e+01 [bar]

Total potential energy/kʙ  -3.870146e+05 (-3.907126e+05 +/- 2.733400e+03) [K]
-------------------------------------------------------------------------------
ExternalField-molecule
    Van der Waals/kʙ        0.000000e+00 ( 0.000000e+00 +/- 0.000000e+00) [K]
Framework-molecule
    Van der Waals/kʙ        0.000000e+00 ( 0.000000e+00 +/- 0.000000e+00) [K]
    Van der Waals (Tail)/kʙ 0.000000e+00 ( 0.000000e+00 +/- 0.000000e+00) [K]
    Coulombic Real/kʙ       0.000000e+00 ( 0.000000e+00 +/- 0.000000e+00) [K]
    Coulombic Fourier/kʙ    0.000000e+00 ( 0.000000e+00 +/- 0.000000e+00) [K]
Molecule-molecule
    Van der Waals/kʙ       -2.774626e+05 (-2.778833e+05 +/- 1.612274e+03) [K]
    Van der Waals (Tail)/kʙ-1.191540e+04 (-1.189433e+04 +/- 6.884620e+01) [K]
    Coulombic Real/kʙ      -7.850505e+04 (-8.127187e+04 +/- 1.088649e+03) [K]
    Coulombic Fourier/kʙ   -1.913155e+04 (-1.966313e+04 +/- 4.144109e+02) [K]
    Molecule Intra/kʙ       0.000000e+00 ( 0.000000e+00 +/- 0.000000e+00) [K]

Current cycle: 4900 out of 5000
===============================================================================

Box:      25.70073   0.00000   0.00000  Average:  25.63927   0.00000   0.00000
           0.00000  25.70073   0.00000             0.00000  25.63927   0.00000
           0.00000   0.00000  25.70073             0.00000   0.00000  25.63927
Lengths:  25.70073  25.70073  25.70073  Average:  25.63927  25.63927  25.63927
Angles:   90.00000  90.00000  90.00000  Average:  90.00000  90.00000  90.00000
Rectangular boundary conditions

net charge:   0.00000000

component 0 (CO2) lambda:  0 occupancy:  1 (1.000000)
    net charge:   0.00000000 [e]

Amount of molecules per component :
-------------------------------------------------------------------------------
Component 0 (CO2)
    molecules:      2.500000e+02 molecules  (2.500000e+02 +/- 0.000000e+00)
    number density: 1.472663e-02 molec./A^3 (1.483574e-02 +/- 7.513640e-05)
    density:        1.075953e+03 kg/m^3     (1.083924e+03 +/- 5.489594e+00)

Average pressure tensor: 
-------------------------------------------------------------------------------
 1.6136e+02 -7.3500e+00 -1.7421e+01 +/- 6.1764e+01 7.2376e+01 5.2689e+01 [bar]
-7.3500e+00  1.7296e+02 -1.2411e+00 +/- 7.2376e+01 9.0204e+01 4.5270e+01 [bar]
-1.7421e+01 -1.2411e+00  1.5392e+02 +/- 5.2689e+01 4.5270e+01 5.0204e+01 [bar]
Ideal-gas pressure:   5.120742e+02 +/ 2.593427e+00 [bar]
Excess pressure:     -3.493319e+02 +/ 4.364408e+01 [bar]
Pressure:             1.627423e+02 +/ 4.470897e+01 [bar]

Total potential energy/kʙ  -3.913827e+05 (-3.907215e+05 +/- 2.669456e+03) [K]
-------------------------------------------------------------------------------
ExternalField-molecule
    Van der Waals/kʙ        0.000000e+00 ( 0.000000e+00 +/- 0.000000e+00) [K]
Framework-molecule
    Van der Waals/kʙ        0.000000e+00 ( 0.000000e+00 +/- 0.000000e+00) [K]
    Van der Waals (Tail)/kʙ 0.000000e+00 ( 0.000000e+00 +/- 0.000000e+00) [K]
    Coulombic Real/kʙ       0.000000e+00 ( 0.000000e+00 +/- 0.000000e+00) [K]
    Coulombic Fourier/kʙ    0.000000e+00 ( 0.000000e+00 +/- 0.000000e+00) [K]
Molecule-molecule
    Van der Waals/kʙ       -2.767821e+05 (-2.778853e+05 +/- 1.570944e+03) [K]
    Van der Waals (Tail)/kʙ-1.181278e+04 (-1.189570e+04 +/- 6.760610e+01) [K]
    Coulombic Real/kʙ      -8.193420e+04 (-8.127514e+04 +/- 1.082445e+03) [K]
    Coulombic Fourier/kʙ   -2.085360e+04 (-1.966534e+04 +/- 4.040252e+02) [K]
    Molecule Intra/kʙ       0.000000e+00 ( 0.000000e+00 +/- 0.000000e+00) [K]


Energy statistics             |  Energy [K]   | Recomputed [K]|  Drift [K]    |
===============================================================================
Total potential energy/kʙ     | -3.882904e+05 | -3.882904e+05 | -1.645183e-09 |
    external field VDW/kʙ     |  0.000000e+00 |  0.000000e+00 |  0.000000e+00 |
    external field Real/kʙ    |  0.000000e+00 |  0.000000e+00 |  0.000000e+00 |
    framework-molecule VDW/kʙ |  0.000000e+00 |  0.000000e+00 |  0.000000e+00 |
    framework-molecule Real/kʙ|  0.000000e+00 |  0.000000e+00 |  0.000000e+00 |
    molecule-molecule VDW/kʙ  | -2.731219e+05 | -2.731219e+05 | -1.785198e-09 |
    molecule-molecule Real/kʙ | -8.381084e+04 | -8.381084e+04 |  1.050117e-10 |
    Van der Waals (Tail)/kʙ   | -1.177293e+04 | -1.177293e+04 |  0.000000e+00 |
    Ewald Fourier/kʙ          |  1.674241e+04 |  1.674241e+04 |  3.500388e-11 |
    Ewald self/kʙ             | -5.557308e+06 | -5.557308e+06 |  0.000000e+00 |
    Ewald exclusion/kʙ        |  5.520981e+06 |  5.520981e+06 |  0.000000e+00 |
    intra VDW/kʙ              |  0.000000e+00 |  0.000000e+00 |  0.000000e+00 |
    intra Coulombic/kʙ        |  0.000000e+00 |  0.000000e+00 |  0.000000e+00 |
    polarization/kʙ           |  0.000000e+00 |  0.000000e+00 |  0.000000e+00 |
    dU/dlambda VDW/kʙ         |  0.000000e+00 |  0.000000e+00 |  0.000000e+00 |
    dU/dlambda Real/kʙ        |  0.000000e+00 |  0.000000e+00 |  0.000000e+00 |
    dU/dlambda Ewald/kʙ       |  0.000000e+00 |  0.000000e+00 |  0.000000e+00 |
-------------------------------------------------------------------------------


Monte-Carlo moves statistics
===============================================================================

    Volume change        all:                8307
    Volume change        total:              8307
    Volume change        constructed:        8307
    Volume change        accepted:           2106
    Volume change        fraction:       0.253521
    Volume change        max-change:     0.050000

Component 0 [CO2]
    Reinsertion (CBMC)   all:              413915
    Reinsertion (CBMC)   total:            413915
    Reinsertion (CBMC)   constructed:      360281
    Reinsertion (CBMC)   accepted:           4078
    Reinsertion (CBMC)   fraction:       0.009852
    Reinsertion (CBMC)   max-change:     0.000000

    Translation          all:              413815
    Translation          total:            138131     137888     137796
    Translation          constructed:      138131     137887     137794
    Translation          accepted:          66683      57858      55685
    Translation          fraction:       0.482752   0.419601   0.404112
    Translation          max-change:     0.679117   0.820513   0.866667

    Rotation             all:              413963
    Rotation             total:            137826     138070     138067
    Rotation             constructed:      137811     138069     138063
    Rotation             accepted:          54048      59644      58265
    Rotation             fraction:       0.392147   0.431984   0.422005
    Rotation             max-change:     0.952586   0.832833   0.875789



Production run counting of the MC moves summed over systems and components
===============================================================================

Volume change                          8307 (0.6646 [%])
Reinsertion (CBMC)                   413915 (33.1132 [%])
Translation                          413815 (33.1052 [%])
Rotation                             413963 (33.1170 [%])

Production count MC-steps:          1250000 [-]
               All summed:          1250000 [-]
               difference:                0 [-]


Production run CPU timings of the MC moves
===============================================================================

Component 0 CO2

Rotation                             63.659154 [s]
    Ewald                            32.149135 [s]
    ExternalField-Molecule            0.015668 [s]
    Framework-Molecule                0.013314 [s]
    Molecule-Molecule                29.224352 [s]
    Overhead                          2.256685 [s]

Reinsertion (CBMC)                  221.599834 [s]
    Ewald                            27.394926 [s]
    NonEwald                        193.779375 [s]
    Overhead                          0.425533 [s]

Translation                          63.630461 [s]
    Ewald                            31.987218 [s]
    ExternalField-Molecule            0.016020 [s]
    Framework-Molecule                0.026211 [s]
    Molecule-Molecule                29.318516 [s]
    Overhead                          2.282496 [s]



Volume change                         72.164871 [s]
    Ewald                             29.769797 [s]
    NonEwald                          39.653551 [s]
    Tail                               2.436070 [s]

Property sampling                     0.308918 [s]
Energy/pressure sampling:             9.172195 [s]


Production run CPU timings of the MC moves summed over systems and components
===============================================================================


Translation                          63.630461 [s]
    Ewald                            31.987218 [s]
    ExternalField-Molecule            0.016020 [s]
    Framework-Molecule                0.026211 [s]
    Molecule-Molecule                29.318516 [s]
    Overhead                          2.282496 [s]

Rotation                             63.659154 [s]
    Ewald                            32.149135 [s]
    ExternalField-Molecule            0.015668 [s]
    Framework-Molecule                0.013314 [s]
    Molecule-Molecule                29.224352 [s]
    Overhead                          2.256685 [s]

Volume change                        72.164871 [s]
    Ewald                            29.769797 [s]
    NonEwald                         39.653551 [s]
    Tail                              2.436070 [s]
    Overhead                          0.305453 [s]

Reinsertion (CBMC)                  221.599834 [s]
    Ewald                            27.394926 [s]
    NonEwald                        193.779375 [s]
    Overhead                          0.425533 [s]

Property sampling:                    0.308918 [s]
Energy/pressure sampling:             9.172195 [s]

Production simulation time:         431.533883 [s]
                All summed:         430.535433 [s]
                  Overhead:           0.998450 [s]


Initalization simulation time:       83.796064 [s]
Equilibration simulation time:        0.000000 [s]
Production simulation time:         431.533883 [s]
Total simulation time:              515.329947 [s]


Energy averages and statistics:
===============================================================================

Framework-molecule energy:
-------------------------------------------------------------------------------



Framework-molecule energy contributions per energy type:
-------------------------------------------------------------------------------



Inter-molecular energy:
-------------------------------------------------------------------------------

    Inter-molecular energy/kʙ 0-0 [CO2-CO2]:
    ---------------------------------------------------------------------------
        Block[  0] -3.887512e+05
        Block[  1] -3.934588e+05
        Block[  2] -3.925272e+05
        Block[  3] -3.896424e+05
        Block[  4] -3.891692e+05
        -----------------------------------------------------------------------
        Average  -3.907098e+05 +/-  2.648808e+03 [K]



Inter-molecular energy contributions per energy type:
-------------------------------------------------------------------------------

    Van der Waals energy/kʙ 0-0 [CO2-CO2]:
    ---------------------------------------------------------------------------
        Block[  0] -2.767186e+05
        Block[  1] -2.786150e+05
        Block[  2] -2.796718e+05
        Block[  3] -2.775300e+05
        Block[  4] -2.764855e+05
        -----------------------------------------------------------------------
        Average  -2.778042e+05 +/-  1.658450e+03 [K]

    VDW Tail-Correction energy/kʙ 0-0 [CO2-CO2]:
    ---------------------------------------------------------------------------
        Block[  0] -1.182902e+04
        Block[  1] -1.195972e+04
        Block[  2] -1.194265e+04
        Block[  3] -1.186715e+04
        Block[  4] -1.187152e+04
        -----------------------------------------------------------------------
        Average  -1.189401e+04 +/-  6.837689e+01 [K]

    Coulomb Real energy/kʙ 0-0 [CO2-CO2]:
    ---------------------------------------------------------------------------
        Block[  0] -8.066583e+04
        Block[  1] -8.268207e+04
        Block[  2] -8.149054e+04
        Block[  3] -8.052777e+04
        Block[  4] -8.128767e+04
        -----------------------------------------------------------------------
        Average  -8.133078e+04 +/-  1.064400e+03 [K]

    Coulomb Fourier energy/kʙ 0-0 [CO2-CO2]:
    ---------------------------------------------------------------------------
        Block[  0] -1.953782e+04
        Block[  1] -2.020206e+04
        Block[  2] -1.942222e+04
        Block[  3] -1.971747e+04
        Block[  4] -1.952451e+04
        -----------------------------------------------------------------------
        Average  -1.968082e+04 +/-  3.850472e+02 [K]


Total energy/kʙ
-------------------------------------------------------------------------------
    Block[  0] -3.887512e+05
    Block[  1] -3.934588e+05
    Block[  2] -3.925272e+05
    Block[  3] -3.896424e+05
    Block[  4] -3.891692e+05
    ---------------------------------------------------------------------------
    Average  -3.907098e+05 +/-  2.648808e+03 [K]

Pressure averages and statistics:
===============================================================================

Average pressure tensor: 
-------------------------------------------------------------------------------
 1.6160e+02 -8.5905e+00 -1.6592e+01 +/- 6.0605e+01 7.0502e+01 5.1297e+01 [bar]
-8.5905e+00  1.7665e+02 -1.3666e+00 +/- 7.0502e+01 9.0374e+01 4.5109e+01 [bar]
-1.6592e+01 -1.3666e+00  1.5170e+02 +/- 5.1297e+01 4.5109e+01 4.1350e+01 [bar]

    Block[  0]  5.096232e+07
    Block[  1]  5.146806e+07
    Block[  2]  5.137413e+07
    Block[  3]  5.112068e+07
    Block[  4]  5.105952e+07
    ---------------------------------------------------------------------------
    Ideal gas pressure   5.119694e+07 +/-  1.606299e-02 [Pa]
                         5.119694e+02 +/-  2.667324e+00 [bar]


    Block[  0] -3.656762e+07
    Block[  1] -3.339170e+07
    Block[  2] -3.317076e+07
    Block[  3] -4.007456e+07
    Block[  4] -3.112060e+07
    ---------------------------------------------------------------------------
    Excess pressure  -3.486505e+07 +/-  4.349559e+06 [Pa]
                     -3.486505e+02 +/-  4.349559e+01 [bar]


    Block[  0]  1.439470e+07
    Block[  1]  1.807636e+07
    Block[  2]  1.820336e+07
    Block[  3]  1.104612e+07
    Block[  4]  1.993891e+07
    ---------------------------------------------------------------------------
    Pressure average   1.633189e+07 +/-  4.443692e+06 [Pa]
                       1.633189e+02 +/-  4.443692e+01 [bar]


Enthalpy of adsorption
===============================================================================

No fluctuating components present.


Densities
===============================================================================

Component 0 (CO2)
    Block[  0] 250
    Block[  1] 250
    Block[  2] 250
    Block[  3] 250
    Block[  4] 250
    -----------------------------------------------------------------------
    Density average   2.500000e+02 +/-  0.000000e+00 [molecules]
    Density average   1.483270e-02 +/-  7.727733e-05 [molec/A^3]
    Density average   1.083703e+03 +/-  5.646014e+00 [kg.m⁻³]

