Compiler and run-time data
===============================================================================
RASPA 3.0.4

Random seed: 4251599813

Compiled as a 64-bits application
Compiler: gcc Ubuntu Clang 18.1.3 (1ubuntu1)
Compile Date = Mar 15 2025, Compile Time = 19:39:45

2025-06-03 10:59:44.556643
Simulation started on Tue, Jun 03
The start time was 10:59:00

Hostname:    c109
OS type:     Linux on x86_64
OS release:  6.8.0-58-generic
OS version:  #60-Ubuntu SMP PREEMPT_DYNAMIC Fri Mar 14 18:29:48 UTC 2025


Mutual consistent basic set of units:
===============================================================================

Unit of temperature: 1 [K]
Unit of length:      1e-10 [m]
Unit of time:        1e-12 [s]
Unit of mass:        1.6605402e-27 [kg]
Unit of charge:      1.60217733e-19 [C/particle]


Boltzmann constant (internal units):          0.8314464919307584 [-]
represents conversion from energy (internal units) to temperature (in Kelvin)

Derived units and their conversion factors:
===============================================================================

Unit of energy:                           1.6605402000000002e-23 [J]
Unit of energy:                           10.000008872307538 [J.mol⁻¹]
Unit of velocity:                         100 [m.s⁻¹]
Unit of force:                            1.6605402000000002e-13 [N]
Unit of diffusion:                        1.0000000000000002e-08 [m².s⁻¹]
Unit of acceleration:                     1.0000000000000002e-08 [m².s⁻¹]
Unit of torque:                           1.6605402000000002e-23 [N.m]
Unit of pressure:                         16605402 [Pa]
Unit of volume:                           1e-30 [m³]
Unit of density:                          1660.5402 [kg.m⁻³]
Unit of dynamic viscosity:                1.6605401999999997e-05 [N.s.m⁻²]
Unit of enthalpy:                         1.6605402000000002e-23 [J]
Unit of polarizability:                   1.5458657349975198e-35 [-]
Unit of Coulomb potential:                167101.08000665612 [K]
Unit of dielectric constant:              1.5458657349975193e-05 [s².C².kg⁻¹.m⁻³]
Unit of dipole moment:                    1.60217733e-29 [C.m]
Unit of Debye:                            4.803206799099162 [C.m]
Unit of electric potential:               0.00010364272224473431 [V]
Unit of electric field:                   1036427.222447343 [V.m⁻¹]
Unit of isothermal compressibility:       6.02213665167516e-08 [Pa⁻¹]
Unit of heat capacity:                    10.000008872307538 [J.mol⁻¹.K⁻¹]
Unit of volumetric expansion coefficient: 1 [K⁻¹]


Internal conversion factors:
===============================================================================

Energy (internal units) to Kelvin:      1.202724284692786 [-]
Kelvin to energy (internal units):      0.8314457542157567 [-]


System definitions
===============================================================================

Temperature:          230 [K]
Beta:                 0.005229231380675068 [-]
Pressure:             0 [Pa]
Helium void fraction: 1 [-]

Box:      30.00000   0.00000   0.00000
           0.00000  30.00000   0.00000
           0.00000   0.00000  30.00000
Lengths:  30.00000  30.00000  30.00000
Angles:   90.00000  90.00000  90.00000
Rectangular boundary conditions



Property measurement settings
===============================================================================




Pseudo-atoms
===============================================================================

  0 - C_co2    framework-atom: false
  1 - O_co2    framework-atom: false

  0 - C_co2    mass: 12.00000, charge:  0.70000
  1 - O_co2    mass: 15.99940, charge: -0.35000

  0 - C_co2    polarizability:  0.00000
  1 - O_co2    polarizability:  0.00000

  0 - J. J. Potoff et al., AIChE J. 2001, 47, 1676–1682.
  1 - J. J. Potoff et al., AIChE J. 2001, 47, 1676–1682.

Force field status
===============================================================================

Cutoff Framework-Molecule VDW:  12.00000 [Å]
Cutoff Molecule-Molecule VDW:   12.00000 [Å]
Cutoff Coulomb:                 12.00000 [Å]

Overlap-criteria VDW:           1.000000e+05 [K]

C_co2    - C_co2    Lennard-Jones p₀/kʙ:  27.00000 [K], p₁:  2.80000 [Å]
                                  shift:   0.00000 [K], tailcorrections: true
C_co2    - O_co2    Lennard-Jones p₀/kʙ:  46.18441 [K], p₁:  2.92500 [Å]
                                  shift:   0.00000 [K], tailcorrections: true
O_co2    - O_co2    Lennard-Jones p₀/kʙ:  79.00000 [K], p₁:  3.05000 [Å]
                                  shift:   0.00000 [K], tailcorrections: true

Ewald precision: 1e-06
Ewald alpha: 0.26505830360350674
Ewald k-vectors: 8 8 8


Component definitions
===============================================================================

Component 0 [CO2]

    Type: Adsorbate

    Critical temperature:  304.1282 [K]
    Critical pressure:     7377300 [Pa]
    Acentric factor:       0.22394 [-]

    Mol-fraction:                 1 [-]
    Swappable:                   true

    Mass:                         43.9988 [-]
    Fugacity coefficient:         -nan [-]
    Bulk fluid density:           0 [-]
    Compressibility:              1 [-]
    Excess molecules:             0 [-]

    Number Of Atoms:    3
    CBMC starting bead: 0
      0: O_co2  position  0.00000 -0.00000  1.16000, charge -0.35000
      1: C_co2  position  0.00000 -0.00000  0.00000, charge  0.70000
      2: O_co2  position  0.00000 -0.00000 -1.16000, charge -0.35000
    Diagonalized inertia-vector:      43.05758528 43.05758528 0.00000000
    Translational degrees of freedom: 3
    Rotational degrees of freedom:    2
    Shape of the molecule is: 'Linear'
    Net-charge:        0.00000000 [e]

    Move probabilities:
    Translation:                   0.199203 [-]
    Random translation:            0.000000 [-]
    Rotation:                      0.199203 [-]
    Random rotation:               0.000000 [-]
    Volume change:                 0.000000 [-]
    Reinsertion (CBMC):            0.199203 [-]
    Identity change (CBMC):        0.000000 [-]
    Swap:                          0.000000 [-]
    Swap (CBMC):                   0.000000 [-]
    Swap (CFCMC):                  0.000000 [-]
    Swap (CB/CFCMC):               0.000000 [-]
    Gibbs volume:                  0.003984 [-]
    Gibbs swap (CBMC):             0.398406 [-]
    Gibbs swap (CFCMC):            0.000000 [-]
    Widom:                         0.000000 [-]
    Widom (CFCMC):                 0.000000 [-]
    Widom (CB/CFCMC):              0.000000 [-]
    Parallel tempering:            0.000000 [-]
    Hybrid MC:                     0.000000 [-]

    number of blocking-pockets: 0

    number of bonds: 0





Number of pseudo-atoms
===============================================================================

Component   0 (CO2)
-------------------------------------------------------------------------------
    index   0 (C_co2): 40 atoms
    index   1 (O_co2): 80 atoms

Total number of pseudo-atoms:
-------------------------------------------------------------------------------
    index   0 (C_co2): 40 atoms
    index   1 (O_co2): 80 atoms




Energy status Recomputed from scratch
===============================================================================

Total potential energy/kʙ       -5.881918e+03 [K]
    external field VDW/kʙ        0.000000e+00 [K]
    external field Real/kʙ       0.000000e+00 [K]
    framework-molecule VDW/kʙ    0.000000e+00 [K]
    framework-molecule Real/kʙ   0.000000e+00 [K]
    molecule-molecule VDW/kʙ    -4.635624e+03 [K]
    molecule-molecule Real/kʙ   -1.123125e+03 [K]
    Van der Waals (Tail)/kʙ     -1.100506e+02 [K]
    Ewald Fourier/kʙ             2.339107e+03 [K]
    Ewald self/kʙ               -7.346713e+05 [K]
    Ewald exclusion/kʙ           7.323191e+05 [K]
    intra VDW/kʙ                 0.000000e+00 [K]
    intra Coulombic/kʙ           0.000000e+00 [K]
    polarization/kʙ              0.000000e+00 [K]
    dU/dlambda VDW/kʙ            0.000000e+00 [K]
    dU/dlambda Real/kʙ           0.000000e+00 [K]
    dU/dlambda Ewald/kʙ          0.000000e+00 [K]





Initialization: Current cycle: 0 out of 2000
===============================================================================

Box:      30.00000   0.00000   0.00000
           0.00000  30.00000   0.00000
           0.00000   0.00000  30.00000
Lengths:  30.00000  30.00000  30.00000
Angles:   90.00000  90.00000  90.00000
Rectangular boundary conditions

net charge:   0.00000000

component   0 (CO2) lambda:  0 occupancy:  1 (1.000000)
    net charge:   0.00000000 [e]

Amount of molecules per component :
-------------------------------------------------------------------------------
Component 0 (CO2)
    molecules:         1.800000e+01 molecules
    number density:    6.666667e-04 molec/A^3
    density:           4.870781e+01 kg/m^3

Total potential energy/kʙ       -1.623124e+03 [K]
-------------------------------------------------------------------------------
    external field VDW/kʙ        0.000000e+00 [K]
    external field Real/kʙ       0.000000e+00 [K]
    framework-molecule VDW/kʙ    0.000000e+00 [K]
    framework-molecule Real/kʙ   0.000000e+00 [K]
    molecule-molecule VDW/kʙ    -1.362822e+03 [K]
    molecule-molecule Real/kʙ   -2.072694e+02 [K]
    Van der Waals (Tail)/kʙ     -2.228525e+01 [K]
    Ewald Fourier/kʙ             1.027755e+03 [K]
    Ewald self/kʙ               -3.306021e+05 [K]
    Ewald exclusion/kʙ           3.295436e+05 [K]
    intra VDW/kʙ                 0.000000e+00 [K]
    intra Coulombic/kʙ           0.000000e+00 [K]
    polarization/kʙ              0.000000e+00 [K]
    dU/dlambda VDW/kʙ            0.000000e+00 [K]
    dU/dlambda Real/kʙ           0.000000e+00 [K]
    dU/dlambda Ewald/kʙ          0.000000e+00 [K]


Initialization: Current cycle: 100 out of 2000
===============================================================================

Box:      31.18492   0.00000   0.00000
           0.00000  31.18492   0.00000
           0.00000   0.00000  31.18492
Lengths:  31.18492  31.18492  31.18492
Angles:   90.00000  90.00000  90.00000
Rectangular boundary conditions

net charge:   0.00000000

component   0 (CO2) lambda:  0 occupancy:  1 (1.000000)
    net charge:   0.00000000 [e]

Amount of molecules per component :
-------------------------------------------------------------------------------
Component 0 (CO2)
    molecules:         5.000000e+00 molecules
    number density:    1.648678e-04 molec/A^3
    density:           1.204553e+01 kg/m^3

Total potential energy/kʙ       -9.857210e+01 [K]
-------------------------------------------------------------------------------
    external field VDW/kʙ        0.000000e+00 [K]
    external field Real/kʙ       0.000000e+00 [K]
    framework-molecule VDW/kʙ    0.000000e+00 [K]
    framework-molecule Real/kʙ   0.000000e+00 [K]
    molecule-molecule VDW/kʙ    -6.589332e+01 [K]
    molecule-molecule Real/kʙ   -8.810166e+00 [K]
    Van der Waals (Tail)/kʙ     -1.530884e+00 [K]
    Ewald Fourier/kʙ             2.716905e+02 [K]
    Ewald self/kʙ               -9.183391e+04 [K]
    Ewald exclusion/kʙ           9.153988e+04 [K]
    intra VDW/kʙ                 0.000000e+00 [K]
    intra Coulombic/kʙ           0.000000e+00 [K]
    polarization/kʙ              0.000000e+00 [K]
    dU/dlambda VDW/kʙ            0.000000e+00 [K]
    dU/dlambda Real/kʙ           0.000000e+00 [K]
    dU/dlambda Ewald/kʙ          0.000000e+00 [K]


Initialization: Current cycle: 200 out of 2000
===============================================================================

Box:      31.89382   0.00000   0.00000
           0.00000  31.89382   0.00000
           0.00000   0.00000  31.89382
Lengths:  31.89382  31.89382  31.89382
Angles:   90.00000  90.00000  90.00000
Rectangular boundary conditions

net charge:   0.00000000

component   0 (CO2) lambda:  0 occupancy:  1 (1.000000)
    net charge:   0.00000000 [e]

Amount of molecules per component :
-------------------------------------------------------------------------------
Component 0 (CO2)
    molecules:         3.000000e+00 molecules
    number density:    9.247016e-05 molec/A^3
    density:           6.756028e+00 kg/m^3

Total potential energy/kʙ       -2.001104e+00 [K]
-------------------------------------------------------------------------------
    external field VDW/kʙ        0.000000e+00 [K]
    external field Real/kʙ       0.000000e+00 [K]
    framework-molecule VDW/kʙ    0.000000e+00 [K]
    framework-molecule Real/kʙ   0.000000e+00 [K]
    molecule-molecule VDW/kʙ    -5.566777e-01 [K]
    molecule-molecule Real/kʙ    6.710547e-02 [K]
    Van der Waals (Tail)/kʙ     -5.151801e-01 [K]
    Ewald Fourier/kʙ             1.754206e+02 [K]
    Ewald self/kʙ               -5.510035e+04 [K]
    Ewald exclusion/kʙ           5.492393e+04 [K]
    intra VDW/kʙ                 0.000000e+00 [K]
    intra Coulombic/kʙ           0.000000e+00 [K]
    polarization/kʙ              0.000000e+00 [K]
    dU/dlambda VDW/kʙ            0.000000e+00 [K]
    dU/dlambda Real/kʙ           0.000000e+00 [K]
    dU/dlambda Ewald/kʙ          0.000000e+00 [K]


Initialization: Current cycle: 300 out of 2000
===============================================================================

Box:      32.65097   0.00000   0.00000
           0.00000  32.65097   0.00000
           0.00000   0.00000  32.65097
Lengths:  32.65097  32.65097  32.65097
Angles:   90.00000  90.00000  90.00000
Rectangular boundary conditions

net charge:   0.00000000

component   0 (CO2) lambda:  0 occupancy:  1 (1.000000)
    net charge:   0.00000000 [e]

Amount of molecules per component :
-------------------------------------------------------------------------------
Component 0 (CO2)
    molecules:         5.000000e+00 molecules
    number density:    1.436421e-04 molec/A^3
    density:           1.049474e+01 kg/m^3

Total potential energy/kʙ       -9.989321e+01 [K]
-------------------------------------------------------------------------------
    external field VDW/kʙ        0.000000e+00 [K]
    external field Real/kʙ       0.000000e+00 [K]
    framework-molecule VDW/kʙ    0.000000e+00 [K]
    framework-molecule Real/kʙ   0.000000e+00 [K]
    molecule-molecule VDW/kʙ    -5.582909e+01 [K]
    molecule-molecule Real/kʙ   -2.943008e+01 [K]
    Van der Waals (Tail)/kʙ     -1.333792e+00 [K]
    Ewald Fourier/kʙ             2.807280e+02 [K]
    Ewald self/kʙ               -9.183391e+04 [K]
    Ewald exclusion/kʙ           9.153988e+04 [K]
    intra VDW/kʙ                 0.000000e+00 [K]
    intra Coulombic/kʙ           0.000000e+00 [K]
    polarization/kʙ              0.000000e+00 [K]
    dU/dlambda VDW/kʙ            0.000000e+00 [K]
    dU/dlambda Real/kʙ           0.000000e+00 [K]
    dU/dlambda Ewald/kʙ          0.000000e+00 [K]


Initialization: Current cycle: 400 out of 2000
===============================================================================

Box:      32.70291   0.00000   0.00000
           0.00000  32.70291   0.00000
           0.00000   0.00000  32.70291
Lengths:  32.70291  32.70291  32.70291
Angles:   90.00000  90.00000  90.00000
Rectangular boundary conditions

net charge:   0.00000000

component   0 (CO2) lambda:  0 occupancy:  1 (1.000000)
    net charge:   0.00000000 [e]

Amount of molecules per component :
-------------------------------------------------------------------------------
Component 0 (CO2)
    molecules:         2.000000e+00 molecules
    number density:    5.718352e-05 molec/A^3
    density:           4.177926e+00 kg/m^3

Total potential energy/kʙ       -6.380256e-01 [K]
-------------------------------------------------------------------------------
    external field VDW/kʙ        0.000000e+00 [K]
    external field Real/kʙ       0.000000e+00 [K]
    framework-molecule VDW/kʙ    0.000000e+00 [K]
    framework-molecule Real/kʙ   0.000000e+00 [K]
    molecule-molecule VDW/kʙ     0.000000e+00 [K]
    molecule-molecule Real/kʙ    4.172788e-18 [K]
    Van der Waals (Tail)/kʙ     -1.592936e-01 [K]
    Ewald Fourier/kʙ             1.171326e+02 [K]
    Ewald self/kʙ               -3.673356e+04 [K]
    Ewald exclusion/kʙ           3.661595e+04 [K]
    intra VDW/kʙ                 0.000000e+00 [K]
    intra Coulombic/kʙ           0.000000e+00 [K]
    polarization/kʙ              0.000000e+00 [K]
    dU/dlambda VDW/kʙ            0.000000e+00 [K]
    dU/dlambda Real/kʙ           0.000000e+00 [K]
    dU/dlambda Ewald/kʙ          0.000000e+00 [K]


Initialization: Current cycle: 500 out of 2000
===============================================================================

Box:      33.00067   0.00000   0.00000
           0.00000  33.00067   0.00000
           0.00000   0.00000  33.00067
Lengths:  33.00067  33.00067  33.00067
Angles:   90.00000  90.00000  90.00000
Rectangular boundary conditions

net charge:   0.00000000

component   0 (CO2) lambda:  0 occupancy:  1 (1.000000)
    net charge:   0.00000000 [e]

Amount of molecules per component :
-------------------------------------------------------------------------------
Component 0 (CO2)
    molecules:         1.100000e+01 molecules
    number density:    3.060726e-04 molec/A^3
    density:           2.236219e+01 kg/m^3

Total potential energy/kʙ       -7.780156e+02 [K]
-------------------------------------------------------------------------------
    external field VDW/kʙ        0.000000e+00 [K]
    external field Real/kʙ       0.000000e+00 [K]
    framework-molecule VDW/kʙ    0.000000e+00 [K]
    framework-molecule Real/kʙ   0.000000e+00 [K]
    molecule-molecule VDW/kʙ    -7.877747e+02 [K]
    molecule-molecule Real/kʙ    3.501470e+00 [K]
    Van der Waals (Tail)/kʙ     -6.252494e+00 [K]
    Ewald Fourier/kʙ             6.593722e+02 [K]
    Ewald self/kʙ               -2.020346e+05 [K]
    Ewald exclusion/kʙ           2.013877e+05 [K]
    intra VDW/kʙ                 0.000000e+00 [K]
    intra Coulombic/kʙ           0.000000e+00 [K]
    polarization/kʙ              0.000000e+00 [K]
    dU/dlambda VDW/kʙ            0.000000e+00 [K]
    dU/dlambda Real/kʙ           0.000000e+00 [K]
    dU/dlambda Ewald/kʙ          0.000000e+00 [K]


Initialization: Current cycle: 600 out of 2000
===============================================================================

Box:      33.26988   0.00000   0.00000
           0.00000  33.26988   0.00000
           0.00000   0.00000  33.26988
Lengths:  33.26988  33.26988  33.26988
Angles:   90.00000  90.00000  90.00000
Rectangular boundary conditions

net charge:   0.00000000

component   0 (CO2) lambda:  0 occupancy:  1 (1.000000)
    net charge:   0.00000000 [e]

Amount of molecules per component :
-------------------------------------------------------------------------------
Component 0 (CO2)
    molecules:         7.000000e+00 molecules
    number density:    1.900834e-04 molec/A^3
    density:           1.388782e+01 kg/m^3

Total potential energy/kʙ       -5.283388e+01 [K]
-------------------------------------------------------------------------------
    external field VDW/kʙ        0.000000e+00 [K]
    external field Real/kʙ       0.000000e+00 [K]
    framework-molecule VDW/kʙ    0.000000e+00 [K]
    framework-molecule Real/kʙ   0.000000e+00 [K]
    molecule-molecule VDW/kʙ    -2.763414e+01 [K]
    molecule-molecule Real/kʙ   -3.542254e+00 [K]
    Van der Waals (Tail)/kʙ     -2.471033e+00 [K]
    Ewald Fourier/kʙ             3.924530e+02 [K]
    Ewald self/kʙ               -1.285675e+05 [K]
    Ewald exclusion/kʙ           1.281558e+05 [K]
    intra VDW/kʙ                 0.000000e+00 [K]
    intra Coulombic/kʙ           0.000000e+00 [K]
    polarization/kʙ              0.000000e+00 [K]
    dU/dlambda VDW/kʙ            0.000000e+00 [K]
    dU/dlambda Real/kʙ           0.000000e+00 [K]
    dU/dlambda Ewald/kʙ          0.000000e+00 [K]


Initialization: Current cycle: 700 out of 2000
===============================================================================

Box:      33.41640   0.00000   0.00000
           0.00000  33.41640   0.00000
           0.00000   0.00000  33.41640
Lengths:  33.41640  33.41640  33.41640
Angles:   90.00000  90.00000  90.00000
Rectangular boundary conditions

net charge:   0.00000000

component   0 (CO2) lambda:  0 occupancy:  1 (1.000000)
    net charge:   0.00000000 [e]

Amount of molecules per component :
-------------------------------------------------------------------------------
Component 0 (CO2)
    molecules:         6.000000e+00 molecules
    number density:    1.607949e-04 molec/A^3
    density:           1.174795e+01 kg/m^3

Total potential energy/kʙ       -1.363197e+02 [K]
-------------------------------------------------------------------------------
    external field VDW/kʙ        0.000000e+00 [K]
    external field Real/kʙ       0.000000e+00 [K]
    framework-molecule VDW/kʙ    0.000000e+00 [K]
    framework-molecule Real/kʙ   0.000000e+00 [K]
    molecule-molecule VDW/kʙ    -1.845638e+02 [K]
    molecule-molecule Real/kʙ    4.363153e+01 [K]
    Van der Waals (Tail)/kʙ     -1.791677e+00 [K]
    Ewald Fourier/kʙ             3.592381e+02 [K]
    Ewald self/kʙ               -1.102007e+05 [K]
    Ewald exclusion/kʙ           1.098479e+05 [K]
    intra VDW/kʙ                 0.000000e+00 [K]
    intra Coulombic/kʙ           0.000000e+00 [K]
    polarization/kʙ              0.000000e+00 [K]
    dU/dlambda VDW/kʙ            0.000000e+00 [K]
    dU/dlambda Real/kʙ           0.000000e+00 [K]
    dU/dlambda Ewald/kʙ          0.000000e+00 [K]


Initialization: Current cycle: 800 out of 2000
===============================================================================

Box:      33.50888   0.00000   0.00000
           0.00000  33.50888   0.00000
           0.00000   0.00000  33.50888
Lengths:  33.50888  33.50888  33.50888
Angles:   90.00000  90.00000  90.00000
Rectangular boundary conditions

net charge:   0.00000000

component   0 (CO2) lambda:  0 occupancy:  1 (1.000000)
    net charge:   0.00000000 [e]

Amount of molecules per component :
-------------------------------------------------------------------------------
Component 0 (CO2)
    molecules:         4.000000e+00 molecules
    number density:    1.063115e-04 molec/A^3
    density:           7.767297e+00 kg/m^3

Total potential energy/kʙ       -3.298953e+00 [K]
-------------------------------------------------------------------------------
    external field VDW/kʙ        0.000000e+00 [K]
    external field Real/kʙ       0.000000e+00 [K]
    framework-molecule VDW/kʙ    0.000000e+00 [K]
    framework-molecule Real/kʙ   0.000000e+00 [K]
    molecule-molecule VDW/kʙ    -3.340777e+00 [K]
    molecule-molecule Real/kʙ   -3.569861e-02 [K]
    Van der Waals (Tail)/kʙ     -7.897257e-01 [K]
    Ewald Fourier/kʙ             2.360898e+02 [K]
    Ewald self/kʙ               -7.346713e+04 [K]
    Ewald exclusion/kʙ           7.323191e+04 [K]
    intra VDW/kʙ                 0.000000e+00 [K]
    intra Coulombic/kʙ           0.000000e+00 [K]
    polarization/kʙ              0.000000e+00 [K]
    dU/dlambda VDW/kʙ            0.000000e+00 [K]
    dU/dlambda Real/kʙ           0.000000e+00 [K]
    dU/dlambda Ewald/kʙ          0.000000e+00 [K]


Initialization: Current cycle: 900 out of 2000
===============================================================================

Box:      33.48594   0.00000   0.00000
           0.00000  33.48594   0.00000
           0.00000   0.00000  33.48594
Lengths:  33.48594  33.48594  33.48594
Angles:   90.00000  90.00000  90.00000
Rectangular boundary conditions

net charge:   0.00000000

component   0 (CO2) lambda:  0 occupancy:  1 (1.000000)
    net charge:   0.00000000 [e]

Amount of molecules per component :
-------------------------------------------------------------------------------
Component 0 (CO2)
    molecules:         8.000000e+00 molecules
    number density:    2.130603e-04 molec/A^3
    density:           1.556655e+01 kg/m^3

Total potential energy/kʙ       -2.368481e+01 [K]
-------------------------------------------------------------------------------
    external field VDW/kʙ        0.000000e+00 [K]
    external field Real/kʙ       0.000000e+00 [K]
    framework-molecule VDW/kʙ    0.000000e+00 [K]
    framework-molecule Real/kʙ   0.000000e+00 [K]
    molecule-molecule VDW/kʙ    -1.076188e+01 [K]
    molecule-molecule Real/kʙ   -1.061596e+00 [K]
    Van der Waals (Tail)/kʙ     -3.165401e+00 [K]
    Ewald Fourier/kʙ             4.617492e+02 [K]
    Ewald self/kʙ               -1.469343e+05 [K]
    Ewald exclusion/kʙ           1.464638e+05 [K]
    intra VDW/kʙ                 0.000000e+00 [K]
    intra Coulombic/kʙ           0.000000e+00 [K]
    polarization/kʙ              0.000000e+00 [K]
    dU/dlambda VDW/kʙ            0.000000e+00 [K]
    dU/dlambda Real/kʙ           0.000000e+00 [K]
    dU/dlambda Ewald/kʙ          0.000000e+00 [K]


Initialization: Current cycle: 1000 out of 2000
===============================================================================

Box:      33.57586   0.00000   0.00000
           0.00000  33.57586   0.00000
           0.00000   0.00000  33.57586
Lengths:  33.57586  33.57586  33.57586
Angles:   90.00000  90.00000  90.00000
Rectangular boundary conditions

net charge:   0.00000000

component   0 (CO2) lambda:  0 occupancy:  1 (1.000000)
    net charge:   0.00000000 [e]

Amount of molecules per component :
-------------------------------------------------------------------------------
Component 0 (CO2)
    molecules:         6.000000e+00 molecules
    number density:    1.585148e-04 molec/A^3
    density:           1.158136e+01 kg/m^3

Total potential energy/kʙ       -4.787613e+02 [K]
-------------------------------------------------------------------------------
    external field VDW/kʙ        0.000000e+00 [K]
    external field Real/kʙ       0.000000e+00 [K]
    framework-molecule VDW/kʙ    0.000000e+00 [K]
    framework-molecule Real/kʙ   0.000000e+00 [K]
    molecule-molecule VDW/kʙ    -2.881640e+02 [K]
    molecule-molecule Real/kʙ   -1.768592e+02 [K]
    Van der Waals (Tail)/kʙ     -1.766270e+00 [K]
    Ewald Fourier/kʙ             3.408620e+02 [K]
    Ewald self/kʙ               -1.102007e+05 [K]
    Ewald exclusion/kʙ           1.098479e+05 [K]
    intra VDW/kʙ                 0.000000e+00 [K]
    intra Coulombic/kʙ           0.000000e+00 [K]
    polarization/kʙ              0.000000e+00 [K]
    dU/dlambda VDW/kʙ            0.000000e+00 [K]
    dU/dlambda Real/kʙ           0.000000e+00 [K]
    dU/dlambda Ewald/kʙ          0.000000e+00 [K]


Initialization: Current cycle: 1100 out of 2000
===============================================================================

Box:      33.74404   0.00000   0.00000
           0.00000  33.74404   0.00000
           0.00000   0.00000  33.74404
Lengths:  33.74404  33.74404  33.74404
Angles:   90.00000  90.00000  90.00000
Rectangular boundary conditions

net charge:   0.00000000

component   0 (CO2) lambda:  0 occupancy:  1 (1.000000)
    net charge:   0.00000000 [e]

Amount of molecules per component :
-------------------------------------------------------------------------------
Component 0 (CO2)
    molecules:         1.200000e+01 molecules
    number density:    3.123129e-04 molec/A^3
    density:           2.281812e+01 kg/m^3

Total potential energy/kʙ       -8.065681e+02 [K]
-------------------------------------------------------------------------------
    external field VDW/kʙ        0.000000e+00 [K]
    external field Real/kʙ       0.000000e+00 [K]
    framework-molecule VDW/kʙ    0.000000e+00 [K]
    framework-molecule Real/kʙ   0.000000e+00 [K]
    molecule-molecule VDW/kʙ    -3.963737e+02 [K]
    molecule-molecule Real/kʙ   -4.005136e+02 [K]
    Van der Waals (Tail)/kʙ     -6.959971e+00 [K]
    Ewald Fourier/kʙ             7.029468e+02 [K]
    Ewald self/kʙ               -2.204014e+05 [K]
    Ewald exclusion/kʙ           2.196957e+05 [K]
    intra VDW/kʙ                 0.000000e+00 [K]
    intra Coulombic/kʙ           0.000000e+00 [K]
    polarization/kʙ              0.000000e+00 [K]
    dU/dlambda VDW/kʙ            0.000000e+00 [K]
    dU/dlambda Real/kʙ           0.000000e+00 [K]
    dU/dlambda Ewald/kʙ          0.000000e+00 [K]


Initialization: Current cycle: 1200 out of 2000
===============================================================================

Box:      33.69620   0.00000   0.00000
           0.00000  33.69620   0.00000
           0.00000   0.00000  33.69620
Lengths:  33.69620  33.69620  33.69620
Angles:   90.00000  90.00000  90.00000
Rectangular boundary conditions

net charge:   0.00000000

component   0 (CO2) lambda:  0 occupancy:  1 (1.000000)
    net charge:   0.00000000 [e]

Amount of molecules per component :
-------------------------------------------------------------------------------
Component 0 (CO2)
    molecules:         9.000000e+00 molecules
    number density:    2.352338e-04 molec/A^3
    density:           1.718659e+01 kg/m^3

Total potential energy/kʙ       -1.386811e+01 [K]
-------------------------------------------------------------------------------
    external field VDW/kʙ        0.000000e+00 [K]
    external field Real/kʙ       0.000000e+00 [K]
    framework-molecule VDW/kʙ    0.000000e+00 [K]
    framework-molecule Real/kʙ   0.000000e+00 [K]
    molecule-molecule VDW/kʙ    -4.244201e+00 [K]
    molecule-molecule Real/kʙ    7.966244e-01 [K]
    Van der Waals (Tail)/kʙ     -3.931683e+00 [K]
    Ewald Fourier/kʙ             5.227619e+02 [K]
    Ewald self/kʙ               -1.653010e+05 [K]
    Ewald exclusion/kʙ           1.647718e+05 [K]
    intra VDW/kʙ                 0.000000e+00 [K]
    intra Coulombic/kʙ           0.000000e+00 [K]
    polarization/kʙ              0.000000e+00 [K]
    dU/dlambda VDW/kʙ            0.000000e+00 [K]
    dU/dlambda Real/kʙ           0.000000e+00 [K]
    dU/dlambda Ewald/kʙ          0.000000e+00 [K]


Initialization: Current cycle: 1300 out of 2000
===============================================================================

Box:      33.69042   0.00000   0.00000
           0.00000  33.69042   0.00000
           0.00000   0.00000  33.69042
Lengths:  33.69042  33.69042  33.69042
Angles:   90.00000  90.00000  90.00000
Rectangular boundary conditions

net charge:   0.00000000

component   0 (CO2) lambda:  0 occupancy:  1 (1.000000)
    net charge:   0.00000000 [e]

Amount of molecules per component :
-------------------------------------------------------------------------------
Component 0 (CO2)
    molecules:         6.000000e+00 molecules
    number density:    1.569033e-04 molec/A^3
    density:           1.146362e+01 kg/m^3

Total potential energy/kʙ       -5.798879e+00 [K]
-------------------------------------------------------------------------------
    external field VDW/kʙ        0.000000e+00 [K]
    external field Real/kʙ       0.000000e+00 [K]
    framework-molecule VDW/kʙ    0.000000e+00 [K]
    framework-molecule Real/kʙ   0.000000e+00 [K]
    molecule-molecule VDW/kʙ    -1.084074e+00 [K]
    molecule-molecule Real/kʙ    1.988794e-03 [K]
    Van der Waals (Tail)/kʙ     -1.748314e+00 [K]
    Ewald Fourier/kʙ             3.498654e+02 [K]
    Ewald self/kʙ               -1.102007e+05 [K]
    Ewald exclusion/kʙ           1.098479e+05 [K]
    intra VDW/kʙ                 0.000000e+00 [K]
    intra Coulombic/kʙ           0.000000e+00 [K]
    polarization/kʙ              0.000000e+00 [K]
    dU/dlambda VDW/kʙ            0.000000e+00 [K]
    dU/dlambda Real/kʙ           0.000000e+00 [K]
    dU/dlambda Ewald/kʙ          0.000000e+00 [K]


Initialization: Current cycle: 1400 out of 2000
===============================================================================

Box:      33.73202   0.00000   0.00000
           0.00000  33.73202   0.00000
           0.00000   0.00000  33.73202
Lengths:  33.73202  33.73202  33.73202
Angles:   90.00000  90.00000  90.00000
Rectangular boundary conditions

net charge:   0.00000000

component   0 (CO2) lambda:  0 occupancy:  1 (1.000000)
    net charge:   0.00000000 [e]

Amount of molecules per component :
-------------------------------------------------------------------------------
Component 0 (CO2)
    molecules:         1.400000e+01 molecules
    number density:    3.647549e-04 molec/A^3
    density:           2.664961e+01 kg/m^3

Total potential energy/kʙ       -6.570790e+02 [K]
-------------------------------------------------------------------------------
    external field VDW/kʙ        0.000000e+00 [K]
    external field Real/kʙ       0.000000e+00 [K]
    framework-molecule VDW/kʙ    0.000000e+00 [K]
    framework-molecule Real/kʙ   0.000000e+00 [K]
    molecule-molecule VDW/kʙ    -5.891492e+02 [K]
    molecule-molecule Real/kʙ    6.394111e+00 [K]
    Van der Waals (Tail)/kʙ     -9.483428e+00 [K]
    Ewald Fourier/kʙ             7.584385e+02 [K]
    Ewald self/kʙ               -2.571349e+05 [K]
    Ewald exclusion/kʙ           2.563117e+05 [K]
    intra VDW/kʙ                 0.000000e+00 [K]
    intra Coulombic/kʙ           0.000000e+00 [K]
    polarization/kʙ              0.000000e+00 [K]
    dU/dlambda VDW/kʙ            0.000000e+00 [K]
    dU/dlambda Real/kʙ           0.000000e+00 [K]
    dU/dlambda Ewald/kʙ          0.000000e+00 [K]


Initialization: Current cycle: 1500 out of 2000
===============================================================================

Box:      33.62178   0.00000   0.00000
           0.00000  33.62178   0.00000
           0.00000   0.00000  33.62178
Lengths:  33.62178  33.62178  33.62178
Angles:   90.00000  90.00000  90.00000
Rectangular boundary conditions

net charge:   0.00000000

component   0 (CO2) lambda:  0 occupancy:  1 (1.000000)
    net charge:   0.00000000 [e]

Amount of molecules per component :
-------------------------------------------------------------------------------
Component 0 (CO2)
    molecules:         1.100000e+01 molecules
    number density:    2.894213e-04 molec/A^3
    density:           2.114561e+01 kg/m^3

Total potential energy/kʙ       -2.725197e+02 [K]
-------------------------------------------------------------------------------
    external field VDW/kʙ        0.000000e+00 [K]
    external field Real/kʙ       0.000000e+00 [K]
    framework-molecule VDW/kʙ    0.000000e+00 [K]
    framework-molecule Real/kʙ   0.000000e+00 [K]
    molecule-molecule VDW/kʙ    -2.441473e+02 [K]
    molecule-molecule Real/kʙ   -3.696235e+01 [K]
    Van der Waals (Tail)/kʙ     -5.912339e+00 [K]
    Ewald Fourier/kʙ             6.613643e+02 [K]
    Ewald self/kʙ               -2.020346e+05 [K]
    Ewald exclusion/kʙ           2.013877e+05 [K]
    intra VDW/kʙ                 0.000000e+00 [K]
    intra Coulombic/kʙ           0.000000e+00 [K]
    polarization/kʙ              0.000000e+00 [K]
    dU/dlambda VDW/kʙ            0.000000e+00 [K]
    dU/dlambda Real/kʙ           0.000000e+00 [K]
    dU/dlambda Ewald/kʙ          0.000000e+00 [K]


Initialization: Current cycle: 1600 out of 2000
===============================================================================

Box:      33.70058   0.00000   0.00000
           0.00000  33.70058   0.00000
           0.00000   0.00000  33.70058
Lengths:  33.70058  33.70058  33.70058
Angles:   90.00000  90.00000  90.00000
Rectangular boundary conditions

net charge:   0.00000000

component   0 (CO2) lambda:  0 occupancy:  1 (1.000000)
    net charge:   0.00000000 [e]

Amount of molecules per component :
-------------------------------------------------------------------------------
Component 0 (CO2)
    molecules:         1.100000e+01 molecules
    number density:    2.873958e-04 molec/A^3
    density:           2.099763e+01 kg/m^3

Total potential energy/kʙ       -9.239563e+02 [K]
-------------------------------------------------------------------------------
    external field VDW/kʙ        0.000000e+00 [K]
    external field Real/kʙ       0.000000e+00 [K]
    framework-molecule VDW/kʙ    0.000000e+00 [K]
    framework-molecule Real/kʙ   0.000000e+00 [K]
    molecule-molecule VDW/kʙ    -5.427466e+02 [K]
    molecule-molecule Real/kʙ   -4.203375e+02 [K]
    Van der Waals (Tail)/kʙ     -5.870963e+00 [K]
    Ewald Fourier/kʙ             6.918608e+02 [K]
    Ewald self/kʙ               -2.020346e+05 [K]
    Ewald exclusion/kʙ           2.013877e+05 [K]
    intra VDW/kʙ                 0.000000e+00 [K]
    intra Coulombic/kʙ           0.000000e+00 [K]
    polarization/kʙ              0.000000e+00 [K]
    dU/dlambda VDW/kʙ            0.000000e+00 [K]
    dU/dlambda Real/kʙ           0.000000e+00 [K]
    dU/dlambda Ewald/kʙ          0.000000e+00 [K]


Initialization: Current cycle: 1700 out of 2000
===============================================================================

Box:      33.71676   0.00000   0.00000
           0.00000  33.71676   0.00000
           0.00000   0.00000  33.71676
Lengths:  33.71676  33.71676  33.71676
Angles:   90.00000  90.00000  90.00000
Rectangular boundary conditions

net charge:   0.00000000

component   0 (CO2) lambda:  0 occupancy:  1 (1.000000)
    net charge:   0.00000000 [e]

Amount of molecules per component :
-------------------------------------------------------------------------------
Component 0 (CO2)
    molecules:         9.000000e+00 molecules
    number density:    2.348038e-04 molec/A^3
    density:           1.715517e+01 kg/m^3

Total potential energy/kʙ       -6.409454e+02 [K]
-------------------------------------------------------------------------------
    external field VDW/kʙ        0.000000e+00 [K]
    external field Real/kʙ       0.000000e+00 [K]
    framework-molecule VDW/kʙ    0.000000e+00 [K]
    framework-molecule Real/kʙ   0.000000e+00 [K]
    molecule-molecule VDW/kʙ    -2.175410e+02 [K]
    molecule-molecule Real/kʙ   -4.097168e+02 [K]
    Van der Waals (Tail)/kʙ     -3.924496e+00 [K]
    Ewald Fourier/kʙ             5.194877e+02 [K]
    Ewald self/kʙ               -1.653010e+05 [K]
    Ewald exclusion/kʙ           1.647718e+05 [K]
    intra VDW/kʙ                 0.000000e+00 [K]
    intra Coulombic/kʙ           0.000000e+00 [K]
    polarization/kʙ              0.000000e+00 [K]
    dU/dlambda VDW/kʙ            0.000000e+00 [K]
    dU/dlambda Real/kʙ           0.000000e+00 [K]
    dU/dlambda Ewald/kʙ          0.000000e+00 [K]


Initialization: Current cycle: 1800 out of 2000
===============================================================================

Box:      33.59669   0.00000   0.00000
           0.00000  33.59669   0.00000
           0.00000   0.00000  33.59669
Lengths:  33.59669  33.59669  33.59669
Angles:   90.00000  90.00000  90.00000
Rectangular boundary conditions

net charge:   0.00000000

component   0 (CO2) lambda:  0 occupancy:  1 (1.000000)
    net charge:   0.00000000 [e]

Amount of molecules per component :
-------------------------------------------------------------------------------
Component 0 (CO2)
    molecules:         8.000000e+00 molecules
    number density:    2.109602e-04 molec/A^3
    density:           1.541311e+01 kg/m^3

Total potential energy/kʙ       -3.038905e+01 [K]
-------------------------------------------------------------------------------
    external field VDW/kʙ        0.000000e+00 [K]
    external field Real/kʙ       0.000000e+00 [K]
    framework-molecule VDW/kʙ    0.000000e+00 [K]
    framework-molecule Real/kʙ   0.000000e+00 [K]
    molecule-molecule VDW/kʙ    -1.378948e+01 [K]
    molecule-molecule Real/kʙ   -1.050883e+00 [K]
    Van der Waals (Tail)/kʙ     -3.134200e+00 [K]
    Ewald Fourier/kʙ             4.580306e+02 [K]
    Ewald self/kʙ               -1.469343e+05 [K]
    Ewald exclusion/kʙ           1.464638e+05 [K]
    intra VDW/kʙ                 0.000000e+00 [K]
    intra Coulombic/kʙ           0.000000e+00 [K]
    polarization/kʙ              0.000000e+00 [K]
    dU/dlambda VDW/kʙ            0.000000e+00 [K]
    dU/dlambda Real/kʙ           0.000000e+00 [K]
    dU/dlambda Ewald/kʙ          0.000000e+00 [K]


Initialization: Current cycle: 1900 out of 2000
===============================================================================

Box:      33.55975   0.00000   0.00000
           0.00000  33.55975   0.00000
           0.00000   0.00000  33.55975
Lengths:  33.55975  33.55975  33.55975
Angles:   90.00000  90.00000  90.00000
Rectangular boundary conditions

net charge:   0.00000000

component   0 (CO2) lambda:  0 occupancy:  1 (1.000000)
    net charge:   0.00000000 [e]

Amount of molecules per component :
-------------------------------------------------------------------------------
Component 0 (CO2)
    molecules:         8.000000e+00 molecules
    number density:    2.116576e-04 molec/A^3
    density:           1.546407e+01 kg/m^3

Total potential energy/kʙ       -5.790242e+02 [K]
-------------------------------------------------------------------------------
    external field VDW/kʙ        0.000000e+00 [K]
    external field Real/kʙ       0.000000e+00 [K]
    framework-molecule VDW/kʙ    0.000000e+00 [K]
    framework-molecule Real/kʙ   0.000000e+00 [K]
    molecule-molecule VDW/kʙ    -5.261512e+02 [K]
    molecule-molecule Real/kʙ   -1.618324e+01 [K]
    Van der Waals (Tail)/kʙ     -3.144561e+00 [K]
    Ewald Fourier/kʙ             4.369000e+02 [K]
    Ewald self/kʙ               -1.469343e+05 [K]
    Ewald exclusion/kʙ           1.464638e+05 [K]
    intra VDW/kʙ                 0.000000e+00 [K]
    intra Coulombic/kʙ           0.000000e+00 [K]
    polarization/kʙ              0.000000e+00 [K]
    dU/dlambda VDW/kʙ            0.000000e+00 [K]
    dU/dlambda Real/kʙ           0.000000e+00 [K]
    dU/dlambda Ewald/kʙ          0.000000e+00 [K]


Current cycle: 0 out of 6000
===============================================================================

Box:      33.72681   0.00000   0.00000  Average:  33.72681   0.00000   0.00000
           0.00000  33.72681   0.00000             0.00000  33.72681   0.00000
           0.00000   0.00000  33.72681             0.00000   0.00000  33.72681
Lengths:  33.72681  33.72681  33.72681  Average:  33.72681  33.72681  33.72681
Angles:   90.00000  90.00000  90.00000  Average:  90.00000  90.00000  90.00000
Rectangular boundary conditions

net charge:   0.00000000

component 0 (CO2) lambda:  0 occupancy:  1 (1.000000)
    net charge:   0.00000000 [e]

Amount of molecules per component :
-------------------------------------------------------------------------------
Component 0 (CO2)
    molecules:      1.300000e+01 molecules  (1.300000e+01 +/- 0.000000e+00)
    number density: 3.388578e-04 molec./A^3 (3.388578e-04 +/- 0.000000e+00)
    density:        2.475753e+01 kg/m^3     (2.475753e+01 +/- 0.000000e+00)

Average pressure tensor: 
-------------------------------------------------------------------------------
 1.0760e+01  0.0000e+00  0.0000e+00 +/- 0.0000e+00 0.0000e+00 0.0000e+00 [bar]
 0.0000e+00  1.0760e+01  0.0000e+00 +/- 0.0000e+00 0.0000e+00 0.0000e+00 [bar]
 0.0000e+00  0.0000e+00  1.0760e+01 +/- 0.0000e+00 0.0000e+00 0.0000e+00 [bar]
Ideal-gas pressure:   1.076041e+01 +/ 0.000000e+00 [bar]
Excess pressure:      0.000000e+00 +/ 0.000000e+00 [bar]
Pressure:             1.076041e+01 +/ 0.000000e+00 [bar]

Total potential energy/kʙ  -1.081435e+03 (-1.081435e+03 +/- 0.000000e+00) [K]
-------------------------------------------------------------------------------
ExternalField-molecule
    Van der Waals/kʙ        0.000000e+00 ( 0.000000e+00 +/- 0.000000e+00) [K]
Framework-molecule
    Van der Waals/kʙ        0.000000e+00 ( 0.000000e+00 +/- 0.000000e+00) [K]
    Van der Waals (Tail)/kʙ 0.000000e+00 ( 0.000000e+00 +/- 0.000000e+00) [K]
    Coulombic Real/kʙ       0.000000e+00 ( 0.000000e+00 +/- 0.000000e+00) [K]
    Coulombic Fourier/kʙ    0.000000e+00 ( 0.000000e+00 +/- 0.000000e+00) [K]
Molecule-molecule
    Van der Waals/kʙ       -1.120357e+03 (-1.120357e+03 +/- 0.000000e+00) [K]
    Van der Waals (Tail)/kʙ-8.180823e+00 (-8.180823e+00 +/- 0.000000e+00) [K]
    Coulombic Real/kʙ       1.393347e+00 ( 1.393347e+00 +/- 0.000000e+00) [K]
    Coulombic Fourier/kʙ    4.571004e+01 ( 4.571004e+01 +/- 0.000000e+00) [K]
    Molecule Intra/kʙ       0.000000e+00 ( 0.000000e+00 +/- 0.000000e+00) [K]

Current cycle: 100 out of 6000
===============================================================================

Box:      33.70437   0.00000   0.00000  Average:  33.67305   0.00000   0.00000
           0.00000  33.70437   0.00000             0.00000  33.67305   0.00000
           0.00000   0.00000  33.70437             0.00000   0.00000  33.67305
Lengths:  33.70437  33.70437  33.70437  Average:  33.67305  33.67305  33.67305
Angles:   90.00000  90.00000  90.00000  Average:  90.00000  90.00000  90.00000
Rectangular boundary conditions

net charge:   0.00000000

component 0 (CO2) lambda:  0 occupancy:  1 (1.000000)
    net charge:   0.00000000 [e]

Amount of molecules per component :
-------------------------------------------------------------------------------
Component 0 (CO2)
    molecules:      1.600000e+01 molecules  (1.129703e+01 +/- 0.000000e+00)
    number density: 4.178896e-04 molec./A^3 (2.958824e-04 +/- 0.000000e+00)
    density:        3.053173e+01 kg/m^3     (2.161767e+01 +/- 0.000000e+00)

Average pressure tensor: 
-------------------------------------------------------------------------------
 8.8115e+00 -3.9170e-01  2.3683e-02 +/- 0.0000e+00 0.0000e+00 0.0000e+00 [bar]
-3.9170e-01  8.2258e+00 -2.3333e-01 +/- 0.0000e+00 0.0000e+00 0.0000e+00 [bar]
 2.3683e-02 -2.3333e-01  9.4787e+00 +/- 0.0000e+00 0.0000e+00 0.0000e+00 [bar]
Ideal-gas pressure:   9.395732e+00 +/ 0.000000e+00 [bar]
Excess pressure:     -5.570567e-01 +/ 0.000000e+00 [bar]
Pressure:             8.838675e+00 +/ 0.000000e+00 [bar]

Total potential energy/kʙ  -2.050430e+03 (-5.514896e+02 +/- 0.000000e+00) [K]
-------------------------------------------------------------------------------
ExternalField-molecule
    Van der Waals/kʙ        0.000000e+00 ( 0.000000e+00 +/- 0.000000e+00) [K]
Framework-molecule
    Van der Waals/kʙ        0.000000e+00 ( 0.000000e+00 +/- 0.000000e+00) [K]
    Van der Waals (Tail)/kʙ 0.000000e+00 ( 0.000000e+00 +/- 0.000000e+00) [K]
    Coulombic Real/kʙ       0.000000e+00 ( 0.000000e+00 +/- 0.000000e+00) [K]
    Coulombic Fourier/kʙ    0.000000e+00 ( 0.000000e+00 +/- 0.000000e+00) [K]
Molecule-molecule
    Van der Waals/kʙ       -1.187097e+03 (-4.060664e+02 +/- 0.000000e+00) [K]
    Van der Waals (Tail)/kʙ-1.241703e+01 (-6.779901e+00 +/- 0.000000e+00) [K]
    Coulombic Real/kʙ      -8.114894e+02 (-1.346686e+02 +/- 0.000000e+00) [K]
    Coulombic Fourier/kʙ   -3.942607e+01 (-3.974738e+00 +/- 0.000000e+00) [K]
    Molecule Intra/kʙ       0.000000e+00 ( 0.000000e+00 +/- 0.000000e+00) [K]

Current cycle: 200 out of 6000
===============================================================================

Box:      33.72548   0.00000   0.00000  Average:  33.65485   0.00000   0.00000
           0.00000  33.72548   0.00000             0.00000  33.65485   0.00000
           0.00000   0.00000  33.72548             0.00000   0.00000  33.65485
Lengths:  33.72548  33.72548  33.72548  Average:  33.65485  33.65485  33.65485
Angles:   90.00000  90.00000  90.00000  Average:  90.00000  90.00000  90.00000
Rectangular boundary conditions

net charge:   0.00000000

component 0 (CO2) lambda:  0 occupancy:  1 (1.000000)
    net charge:   0.00000000 [e]

Amount of molecules per component :
-------------------------------------------------------------------------------
Component 0 (CO2)
    molecules:      9.000000e+00 molecules  (1.102985e+01 +/- 0.000000e+00)
    number density: 2.346216e-04 molec./A^3 (2.893176e-04 +/- 0.000000e+00)
    density:        1.714186e+01 kg/m^3     (2.113804e+01 +/- 0.000000e+00)

Average pressure tensor: 
-------------------------------------------------------------------------------
 8.0789e+00  5.8208e-01  2.0335e-01 +/- 0.0000e+00 0.0000e+00 0.0000e+00 [bar]
 5.8208e-01  8.4723e+00 -6.0867e-01 +/- 0.0000e+00 0.0000e+00 0.0000e+00 [bar]
 2.0335e-01 -6.0867e-01  9.0068e+00 +/- 0.0000e+00 0.0000e+00 0.0000e+00 [bar]
Ideal-gas pressure:   9.187267e+00 +/ 0.000000e+00 [bar]
Excess pressure:     -6.679210e-01 +/ 0.000000e+00 [bar]
Pressure:             8.519346e+00 +/ 0.000000e+00 [bar]

Total potential energy/kʙ  -7.400800e+02 (-5.994433e+02 +/- 0.000000e+00) [K]
-------------------------------------------------------------------------------
ExternalField-molecule
    Van der Waals/kʙ        0.000000e+00 ( 0.000000e+00 +/- 0.000000e+00) [K]
Framework-molecule
    Van der Waals/kʙ        0.000000e+00 ( 0.000000e+00 +/- 0.000000e+00) [K]
    Van der Waals (Tail)/kʙ 0.000000e+00 ( 0.000000e+00 +/- 0.000000e+00) [K]
    Coulombic Real/kʙ       0.000000e+00 ( 0.000000e+00 +/- 0.000000e+00) [K]
    Coulombic Fourier/kʙ    0.000000e+00 ( 0.000000e+00 +/- 0.000000e+00) [K]
Molecule-molecule
    Van der Waals/kʙ       -6.228486e+02 (-4.267318e+02 +/- 0.000000e+00) [K]
    Van der Waals (Tail)/kʙ-3.921450e+00 (-6.518628e+00 +/- 0.000000e+00) [K]
    Coulombic Real/kʙ      -4.946559e+01 (-1.586007e+02 +/- 0.000000e+00) [K]
    Coulombic Fourier/kʙ   -6.384438e+01 (-7.592212e+00 +/- 0.000000e+00) [K]
    Molecule Intra/kʙ       0.000000e+00 ( 0.000000e+00 +/- 0.000000e+00) [K]

Current cycle: 300 out of 6000
===============================================================================

Box:      33.56986   0.00000   0.00000  Average:  33.64131   0.00000   0.00000
           0.00000  33.56986   0.00000             0.00000  33.64131   0.00000
           0.00000   0.00000  33.56986             0.00000   0.00000  33.64131
Lengths:  33.56986  33.56986  33.56986  Average:  33.64131  33.64131  33.64131
Angles:   90.00000  90.00000  90.00000  Average:  90.00000  90.00000  90.00000
Rectangular boundary conditions

net charge:   0.00000000

component 0 (CO2) lambda:  0 occupancy:  1 (1.000000)
    net charge:   0.00000000 [e]

Amount of molecules per component :
-------------------------------------------------------------------------------
Component 0 (CO2)
    molecules:      1.500000e+01 molecules  (1.104983e+01 +/- 0.000000e+00)
    number density: 3.964997e-04 molec./A^3 (2.902552e-04 +/- 0.000000e+00)
    density:        2.896894e+01 kg/m^3     (2.120654e+01 +/- 0.000000e+00)

Average pressure tensor: 
-------------------------------------------------------------------------------
 7.9222e+00  3.6559e-01  3.5900e-01 +/- 0.0000e+00 0.0000e+00 0.0000e+00 [bar]
 3.6559e-01  8.5974e+00 -1.0772e+00 +/- 0.0000e+00 0.0000e+00 0.0000e+00 [bar]
 3.5900e-01 -1.0772e+00  9.6851e+00 +/- 0.0000e+00 0.0000e+00 0.0000e+00 [bar]
Ideal-gas pressure:   9.217041e+00 +/ 0.000000e+00 [bar]
Excess pressure:     -4.821705e-01 +/ 0.000000e+00 [bar]
Pressure:             8.734871e+00 +/ 0.000000e+00 [bar]

Total potential energy/kʙ  -1.143806e+03 (-5.468708e+02 +/- 0.000000e+00) [K]
-------------------------------------------------------------------------------
ExternalField-molecule
    Van der Waals/kʙ        0.000000e+00 ( 0.000000e+00 +/- 0.000000e+00) [K]
Framework-molecule
    Van der Waals/kʙ        0.000000e+00 ( 0.000000e+00 +/- 0.000000e+00) [K]
    Van der Waals (Tail)/kʙ 0.000000e+00 ( 0.000000e+00 +/- 0.000000e+00) [K]
    Coulombic Real/kʙ       0.000000e+00 ( 0.000000e+00 +/- 0.000000e+00) [K]
    Coulombic Fourier/kʙ    0.000000e+00 ( 0.000000e+00 +/- 0.000000e+00) [K]
Molecule-molecule
    Van der Waals/kʙ       -6.845992e+02 (-3.916808e+02 +/- 0.000000e+00) [K]
    Van der Waals (Tail)/kʙ-1.104512e+01 (-6.333632e+00 +/- 0.000000e+00) [K]
    Coulombic Real/kʙ      -3.532895e+02 (-1.399691e+02 +/- 0.000000e+00) [K]
    Coulombic Fourier/kʙ   -9.487178e+01 (-8.887203e+00 +/- 0.000000e+00) [K]
    Molecule Intra/kʙ       0.000000e+00 ( 0.000000e+00 +/- 0.000000e+00) [K]

Current cycle: 400 out of 6000
===============================================================================

Box:      33.61626   0.00000   0.00000  Average:  33.62616   0.00000   0.00000
           0.00000  33.61626   0.00000             0.00000  33.62616   0.00000
           0.00000   0.00000  33.61626             0.00000   0.00000  33.62616
Lengths:  33.61626  33.61626  33.61626  Average:  33.62616  33.62616  33.62616
Angles:   90.00000  90.00000  90.00000  Average:  90.00000  90.00000  90.00000
Rectangular boundary conditions

net charge:   0.00000000

component 0 (CO2) lambda:  0 occupancy:  1 (1.000000)
    net charge:   0.00000000 [e]

Amount of molecules per component :
-------------------------------------------------------------------------------
Component 0 (CO2)
    molecules:      8.000000e+00 molecules  (1.052868e+01 +/- 0.000000e+00)
    number density: 2.105920e-04 molec./A^3 (2.768765e-04 +/- 0.000000e+00)
    density:        1.538621e+01 kg/m^3     (2.022907e+01 +/- 0.000000e+00)

Average pressure tensor: 
-------------------------------------------------------------------------------
 6.9830e+00  4.7071e-01  4.4350e-01 +/- 0.0000e+00 0.0000e+00 0.0000e+00 [bar]
 4.7071e-01  7.9248e+00 -9.0514e-01 +/- 0.0000e+00 0.0000e+00 0.0000e+00 [bar]
 4.4350e-01 -9.0514e-01  8.7718e+00 +/- 0.0000e+00 0.0000e+00 0.0000e+00 [bar]
Ideal-gas pressure:   8.792200e+00 +/ 0.000000e+00 [bar]
Excess pressure:     -8.990099e-01 +/ 0.000000e+00 [bar]
Pressure:             7.893190e+00 +/ 0.000000e+00 [bar]

Total potential energy/kʙ  -6.260384e+02 (-5.293545e+02 +/- 0.000000e+00) [K]
-------------------------------------------------------------------------------
ExternalField-molecule
    Van der Waals/kʙ        0.000000e+00 ( 0.000000e+00 +/- 0.000000e+00) [K]
Framework-molecule
    Van der Waals/kʙ        0.000000e+00 ( 0.000000e+00 +/- 0.000000e+00) [K]
    Van der Waals (Tail)/kʙ 0.000000e+00 ( 0.000000e+00 +/- 0.000000e+00) [K]
    Coulombic Real/kʙ       0.000000e+00 ( 0.000000e+00 +/- 0.000000e+00) [K]
    Coulombic Fourier/kʙ    0.000000e+00 ( 0.000000e+00 +/- 0.000000e+00) [K]
Molecule-molecule
    Van der Waals/kʙ       -6.074828e+02 (-3.858792e+02 +/- 0.000000e+00) [K]
    Van der Waals (Tail)/kʙ-3.128730e+00 (-5.803337e+00 +/- 0.000000e+00) [K]
    Coulombic Real/kʙ       1.560852e+01 (-1.292541e+02 +/- 0.000000e+00) [K]
    Coulombic Fourier/kʙ   -3.103542e+01 (-8.417786e+00 +/- 0.000000e+00) [K]
    Molecule Intra/kʙ       0.000000e+00 ( 0.000000e+00 +/- 0.000000e+00) [K]

Current cycle: 500 out of 6000
===============================================================================

Box:      33.59387   0.00000   0.00000  Average:  33.61711   0.00000   0.00000
           0.00000  33.59387   0.00000             0.00000  33.61711   0.00000
           0.00000   0.00000  33.59387             0.00000   0.00000  33.61711
Lengths:  33.59387  33.59387  33.59387  Average:  33.61711  33.61711  33.61711
Angles:   90.00000  90.00000  90.00000  Average:  90.00000  90.00000  90.00000
Rectangular boundary conditions

net charge:   0.00000000

component 0 (CO2) lambda:  0 occupancy:  1 (1.000000)
    net charge:   0.00000000 [e]

Amount of molecules per component :
-------------------------------------------------------------------------------
Component 0 (CO2)
    molecules:      1.000000e+01 molecules  (1.035928e+01 +/- 0.000000e+00)
    number density: 2.637665e-04 molec./A^3 (2.725858e-04 +/- 0.000000e+00)
    density:        1.927124e+01 kg/m^3     (1.991559e+01 +/- 0.000000e+00)

Average pressure tensor: 
-------------------------------------------------------------------------------
 7.3869e+00  3.7673e-01  7.5549e-01 +/- 0.0000e+00 0.0000e+00 0.0000e+00 [bar]
 3.7673e-01  9.0728e+00  1.0374e-01 +/- 0.0000e+00 0.0000e+00 0.0000e+00 [bar]
 7.5549e-01  1.0374e-01  8.9462e+00 +/- 0.0000e+00 0.0000e+00 0.0000e+00 [bar]
Ideal-gas pressure:   8.655951e+00 +/ 0.000000e+00 [bar]
Excess pressure:     -1.872918e-01 +/ 0.000000e+00 [bar]
Pressure:             8.468659e+00 +/ 0.000000e+00 [bar]

Total potential energy/kʙ  -9.481386e+01 (-5.196403e+02 +/- 0.000000e+00) [K]
-------------------------------------------------------------------------------
ExternalField-molecule
    Van der Waals/kʙ        0.000000e+00 ( 0.000000e+00 +/- 0.000000e+00) [K]
Framework-molecule
    Van der Waals/kʙ        0.000000e+00 ( 0.000000e+00 +/- 0.000000e+00) [K]
    Van der Waals (Tail)/kʙ 0.000000e+00 ( 0.000000e+00 +/- 0.000000e+00) [K]
    Coulombic Real/kʙ       0.000000e+00 ( 0.000000e+00 +/- 0.000000e+00) [K]
    Coulombic Fourier/kʙ    0.000000e+00 ( 0.000000e+00 +/- 0.000000e+00) [K]
Molecule-molecule
    Van der Waals/kʙ       -1.689793e+02 (-3.859232e+02 +/- 0.000000e+00) [K]
    Van der Waals (Tail)/kʙ-4.898419e+00 (-5.866814e+00 +/- 0.000000e+00) [K]
    Coulombic Real/kʙ       1.190830e+02 (-1.217765e+02 +/- 0.000000e+00) [K]
    Coulombic Fourier/kʙ   -4.001918e+01 (-6.073734e+00 +/- 0.000000e+00) [K]
    Molecule Intra/kʙ       0.000000e+00 ( 0.000000e+00 +/- 0.000000e+00) [K]

Current cycle: 600 out of 6000
===============================================================================

Box:      33.70824   0.00000   0.00000  Average:  33.61058   0.00000   0.00000
           0.00000  33.70824   0.00000             0.00000  33.61058   0.00000
           0.00000   0.00000  33.70824             0.00000   0.00000  33.61058
Lengths:  33.70824  33.70824  33.70824  Average:  33.61058  33.61058  33.61058
Angles:   90.00000  90.00000  90.00000  Average:  90.00000  90.00000  90.00000
Rectangular boundary conditions

net charge:   0.00000000

component 0 (CO2) lambda:  0 occupancy:  1 (1.000000)
    net charge:   0.00000000 [e]

Amount of molecules per component :
-------------------------------------------------------------------------------
Component 0 (CO2)
    molecules:      1.700000e+01 molecules  (1.031614e+01 +/- 0.000000e+00)
    number density: 4.438545e-04 molec./A^3 (2.716103e-04 +/- 0.000000e+00)
    density:        3.242877e+01 kg/m^3     (1.984431e+01 +/- 0.000000e+00)

Average pressure tensor: 
-------------------------------------------------------------------------------
 7.4381e+00  2.9375e-01  6.6619e-01 +/- 0.0000e+00 0.0000e+00 0.0000e+00 [bar]
 2.9375e-01  8.7465e+00  1.0850e-01 +/- 0.0000e+00 0.0000e+00 0.0000e+00 [bar]
 6.6619e-01  1.0850e-01  8.6654e+00 +/- 0.0000e+00 0.0000e+00 0.0000e+00 [bar]
Ideal-gas pressure:   8.624972e+00 +/ 0.000000e+00 [bar]
Excess pressure:     -3.416294e-01 +/ 0.000000e+00 [bar]
Pressure:             8.283343e+00 +/ 0.000000e+00 [bar]

Total potential energy/kʙ  -1.381188e+03 (-5.398809e+02 +/- 0.000000e+00) [K]
-------------------------------------------------------------------------------
ExternalField-molecule
    Van der Waals/kʙ        0.000000e+00 ( 0.000000e+00 +/- 0.000000e+00) [K]
Framework-molecule
    Van der Waals/kʙ        0.000000e+00 ( 0.000000e+00 +/- 0.000000e+00) [K]
    Van der Waals (Tail)/kʙ 0.000000e+00 ( 0.000000e+00 +/- 0.000000e+00) [K]
    Coulombic Real/kʙ       0.000000e+00 ( 0.000000e+00 +/- 0.000000e+00) [K]
    Coulombic Fourier/kʙ    0.000000e+00 ( 0.000000e+00 +/- 0.000000e+00) [K]
Molecule-molecule
    Van der Waals/kʙ       -9.438574e+02 (-4.016107e+02 +/- 0.000000e+00) [K]
    Van der Waals (Tail)/kʙ-1.401283e+01 (-5.921335e+00 +/- 0.000000e+00) [K]
    Coulombic Real/kʙ      -4.031398e+02 (-1.255918e+02 +/- 0.000000e+00) [K]
    Coulombic Fourier/kʙ   -2.017748e+01 (-6.757054e+00 +/- 0.000000e+00) [K]
    Molecule Intra/kʙ       0.000000e+00 ( 0.000000e+00 +/- 0.000000e+00) [K]

Current cycle: 700 out of 6000
===============================================================================

Box:      33.55589   0.00000   0.00000  Average:  33.61390   0.00000   0.00000
           0.00000  33.55589   0.00000             0.00000  33.61390   0.00000
           0.00000   0.00000  33.55589             0.00000   0.00000  33.61390
Lengths:  33.55589  33.55589  33.55589  Average:  33.61390  33.61390  33.61390
Angles:   90.00000  90.00000  90.00000  Average:  90.00000  90.00000  90.00000
Rectangular boundary conditions

net charge:   0.00000000

component 0 (CO2) lambda:  0 occupancy:  1 (1.000000)
    net charge:   0.00000000 [e]

Amount of molecules per component :
-------------------------------------------------------------------------------
Component 0 (CO2)
    molecules:      8.000000e+00 molecules  (1.050071e+01 +/- 0.000000e+00)
    number density: 2.117306e-04 molec./A^3 (2.763541e-04 +/- 0.000000e+00)
    density:        1.546940e+01 kg/m^3     (2.019090e+01 +/- 0.000000e+00)

Average pressure tensor: 
-------------------------------------------------------------------------------
 7.6073e+00  2.2582e-01  5.0051e-01 +/- 0.0000e+00 0.0000e+00 0.0000e+00 [bar]
 2.2582e-01  8.5269e+00  1.7791e-02 +/- 0.0000e+00 0.0000e+00 0.0000e+00 [bar]
 5.0051e-01  1.7791e-02  8.6397e+00 +/- 0.0000e+00 0.0000e+00 0.0000e+00 [bar]
Ideal-gas pressure:   8.775612e+00 +/ 0.000000e+00 [bar]
Excess pressure:     -5.176730e-01 +/ 0.000000e+00 [bar]
Pressure:             8.257939e+00 +/ 0.000000e+00 [bar]

Total potential energy/kʙ  -7.011299e+02 (-5.669290e+02 +/- 0.000000e+00) [K]
-------------------------------------------------------------------------------
ExternalField-molecule
    Van der Waals/kʙ        0.000000e+00 ( 0.000000e+00 +/- 0.000000e+00) [K]
Framework-molecule
    Van der Waals/kʙ        0.000000e+00 ( 0.000000e+00 +/- 0.000000e+00) [K]
    Van der Waals (Tail)/kʙ 0.000000e+00 ( 0.000000e+00 +/- 0.000000e+00) [K]
    Coulombic Real/kʙ       0.000000e+00 ( 0.000000e+00 +/- 0.000000e+00) [K]
    Coulombic Fourier/kʙ    0.000000e+00 ( 0.000000e+00 +/- 0.000000e+00) [K]
Molecule-molecule
    Van der Waals/kʙ       -4.471451e+02 (-4.186448e+02 +/- 0.000000e+00) [K]
    Van der Waals (Tail)/kʙ-3.145646e+00 (-5.969767e+00 +/- 0.000000e+00) [K]
    Coulombic Real/kʙ      -2.561827e+02 (-1.362698e+02 +/- 0.000000e+00) [K]
    Coulombic Fourier/kʙ    5.343505e+00 (-6.044637e+00 +/- 0.000000e+00) [K]
    Molecule Intra/kʙ       0.000000e+00 ( 0.000000e+00 +/- 0.000000e+00) [K]

Current cycle: 800 out of 6000
===============================================================================

Box:      33.46677   0.00000   0.00000  Average:  33.60356   0.00000   0.00000
           0.00000  33.46677   0.00000             0.00000  33.60356   0.00000
           0.00000   0.00000  33.46677             0.00000   0.00000  33.60356
Lengths:  33.46677  33.46677  33.46677  Average:  33.60356  33.60356  33.60356
Angles:   90.00000  90.00000  90.00000  Average:  90.00000  90.00000  90.00000
Rectangular boundary conditions

net charge:   0.00000000

component 0 (CO2) lambda:  0 occupancy:  1 (1.000000)
    net charge:   0.00000000 [e]

Amount of molecules per component :
-------------------------------------------------------------------------------
Component 0 (CO2)
    molecules:      7.000000e+00 molecules  (1.032459e+01 +/- 0.000000e+00)
    number density: 1.867483e-04 molec./A^3 (2.719392e-04 +/- 0.000000e+00)
    density:        1.364415e+01 kg/m^3     (1.986834e+01 +/- 0.000000e+00)

Average pressure tensor: 
-------------------------------------------------------------------------------
 7.2783e+00  1.8980e-01  4.4180e-01 +/- 0.0000e+00 0.0000e+00 0.0000e+00 [bar]
 1.8980e-01  8.2261e+00  1.7482e-02 +/- 0.0000e+00 0.0000e+00 0.0000e+00 [bar]
 4.4180e-01  1.7482e-02  8.2915e+00 +/- 0.0000e+00 0.0000e+00 0.0000e+00 [bar]
Ideal-gas pressure:   8.635417e+00 +/ 0.000000e+00 [bar]
Excess pressure:     -7.034449e-01 +/ 0.000000e+00 [bar]
Pressure:             7.931972e+00 +/ 0.000000e+00 [bar]

Total potential energy/kʙ  -6.987753e+01 (-5.410105e+02 +/- 0.000000e+00) [K]
-------------------------------------------------------------------------------
ExternalField-molecule
    Van der Waals/kʙ        0.000000e+00 ( 0.000000e+00 +/- 0.000000e+00) [K]
Framework-molecule
    Van der Waals/kʙ        0.000000e+00 ( 0.000000e+00 +/- 0.000000e+00) [K]
    Van der Waals (Tail)/kʙ 0.000000e+00 ( 0.000000e+00 +/- 0.000000e+00) [K]
    Coulombic Real/kʙ       0.000000e+00 ( 0.000000e+00 +/- 0.000000e+00) [K]
    Coulombic Fourier/kʙ    0.000000e+00 ( 0.000000e+00 +/- 0.000000e+00) [K]
Molecule-molecule
    Van der Waals/kʙ       -1.674046e+02 (-3.988571e+02 +/- 0.000000e+00) [K]
    Van der Waals (Tail)/kʙ-2.427677e+00 (-5.789183e+00 +/- 0.000000e+00) [K]
    Coulombic Real/kʙ       1.091622e+02 (-1.297399e+02 +/- 0.000000e+00) [K]
    Coulombic Fourier/kʙ   -9.207428e+00 (-6.624258e+00 +/- 0.000000e+00) [K]
    Molecule Intra/kʙ       0.000000e+00 ( 0.000000e+00 +/- 0.000000e+00) [K]

Current cycle: 900 out of 6000
===============================================================================

Box:      33.48504   0.00000   0.00000  Average:  33.59140   0.00000   0.00000
           0.00000  33.48504   0.00000             0.00000  33.59140   0.00000
           0.00000   0.00000  33.48504             0.00000   0.00000  33.59140
Lengths:  33.48504  33.48504  33.48504  Average:  33.59140  33.59140  33.59140
Angles:   90.00000  90.00000  90.00000  Average:  90.00000  90.00000  90.00000
Rectangular boundary conditions

net charge:   0.00000000

component 0 (CO2) lambda:  0 occupancy:  1 (1.000000)
    net charge:   0.00000000 [e]

Amount of molecules per component :
-------------------------------------------------------------------------------
Component 0 (CO2)
    molecules:      5.000000e+00 molecules  (9.992231e+00 +/- 0.000000e+00)
    number density: 1.331734e-04 molec./A^3 (2.634002e-04 +/- 0.000000e+00)
    density:        9.729880e+00 kg/m^3     (1.924447e+01 +/- 0.000000e+00)

Average pressure tensor: 
-------------------------------------------------------------------------------
 7.0746e+00  2.4186e-01  3.3287e-01 +/- 0.0000e+00 0.0000e+00 0.0000e+00 [bar]
 2.4186e-01  8.1211e+00 -7.1420e-02 +/- 0.0000e+00 0.0000e+00 0.0000e+00 [bar]
 3.3287e-01 -7.1420e-02  7.9371e+00 +/- 0.0000e+00 0.0000e+00 0.0000e+00 [bar]
Ideal-gas pressure:   8.364261e+00 +/ 0.000000e+00 [bar]
Excess pressure:     -6.533251e-01 +/ 0.000000e+00 [bar]
Pressure:             7.710936e+00 +/ 0.000000e+00 [bar]

Total potential energy/kʙ  -4.965191e+02 (-5.091518e+02 +/- 0.000000e+00) [K]
-------------------------------------------------------------------------------
ExternalField-molecule
    Van der Waals/kʙ        0.000000e+00 ( 0.000000e+00 +/- 0.000000e+00) [K]
Framework-molecule
    Van der Waals/kʙ        0.000000e+00 ( 0.000000e+00 +/- 0.000000e+00) [K]
    Van der Waals (Tail)/kʙ 0.000000e+00 ( 0.000000e+00 +/- 0.000000e+00) [K]
    Coulombic Real/kʙ       0.000000e+00 ( 0.000000e+00 +/- 0.000000e+00) [K]
    Coulombic Fourier/kʙ    0.000000e+00 ( 0.000000e+00 +/- 0.000000e+00) [K]
Molecule-molecule
    Van der Waals/kʙ       -4.634785e+02 (-3.776241e+02 +/- 0.000000e+00) [K]
    Van der Waals (Tail)/kʙ-1.236585e+00 (-5.458737e+00 +/- 0.000000e+00) [K]
    Coulombic Real/kʙ      -4.804998e+01 (-1.195039e+02 +/- 0.000000e+00) [K]
    Coulombic Fourier/kʙ    1.624593e+01 (-6.565090e+00 +/- 0.000000e+00) [K]
    Molecule Intra/kʙ       0.000000e+00 ( 0.000000e+00 +/- 0.000000e+00) [K]

Current cycle: 1000 out of 6000
===============================================================================

Box:      33.65864   0.00000   0.00000  Average:  33.59055   0.00000   0.00000
           0.00000  33.65864   0.00000             0.00000  33.59055   0.00000
           0.00000   0.00000  33.65864             0.00000   0.00000  33.59055
Lengths:  33.65864  33.65864  33.65864  Average:  33.59055  33.59055  33.59055
Angles:   90.00000  90.00000  90.00000  Average:  90.00000  90.00000  90.00000
Rectangular boundary conditions

net charge:   0.00000000

component 0 (CO2) lambda:  0 occupancy:  1 (1.000000)
    net charge:   0.00000000 [e]

Amount of molecules per component :
-------------------------------------------------------------------------------
Component 0 (CO2)
    molecules:      9.000000e+00 molecules  (9.734266e+00 +/- 0.000000e+00)
    number density: 2.360221e-04 molec./A^3 (2.566056e-04 +/- 0.000000e+00)
    density:        1.724418e+01 kg/m^3     (1.874804e+01 +/- 0.000000e+00)

Average pressure tensor: 
-------------------------------------------------------------------------------
 6.9382e+00  1.9972e-01  2.3549e-01 +/- 0.0000e+00 0.0000e+00 0.0000e+00 [bar]
 1.9972e-01  7.7702e+00 -3.0009e-02 +/- 0.0000e+00 0.0000e+00 0.0000e+00 [bar]
 2.3549e-01 -3.0009e-02  7.7562e+00 +/- 0.0000e+00 0.0000e+00 0.0000e+00 [bar]
Ideal-gas pressure:   8.148500e+00 +/ 0.000000e+00 [bar]
Excess pressure:     -6.603080e-01 +/ 0.000000e+00 [bar]
Pressure:             7.488191e+00 +/ 0.000000e+00 [bar]

Total potential energy/kʙ  -1.482408e+01 (-4.947495e+02 +/- 0.000000e+00) [K]
-------------------------------------------------------------------------------
ExternalField-molecule
    Van der Waals/kʙ        0.000000e+00 ( 0.000000e+00 +/- 0.000000e+00) [K]
Framework-molecule
    Van der Waals/kʙ        0.000000e+00 ( 0.000000e+00 +/- 0.000000e+00) [K]
    Van der Waals (Tail)/kʙ 0.000000e+00 ( 0.000000e+00 +/- 0.000000e+00) [K]
    Coulombic Real/kʙ       0.000000e+00 ( 0.000000e+00 +/- 0.000000e+00) [K]
    Coulombic Fourier/kʙ    0.000000e+00 ( 0.000000e+00 +/- 0.000000e+00) [K]
Molecule-molecule
    Van der Waals/kʙ       -6.530113e+00 (-3.674597e+02 +/- 0.000000e+00) [K]
    Van der Waals (Tail)/kʙ-3.944858e+00 (-5.269500e+00 +/- 0.000000e+00) [K]
    Coulombic Real/kʙ      -9.564690e-01 (-1.137948e+02 +/- 0.000000e+00) [K]
    Coulombic Fourier/kʙ   -3.392641e+00 (-8.225506e+00 +/- 0.000000e+00) [K]
    Molecule Intra/kʙ       0.000000e+00 ( 0.000000e+00 +/- 0.000000e+00) [K]

Current cycle: 1100 out of 6000
===============================================================================

Box:      33.78244   0.00000   0.00000  Average:  33.60407   0.00000   0.00000
           0.00000  33.78244   0.00000             0.00000  33.60407   0.00000
           0.00000   0.00000  33.78244             0.00000   0.00000  33.60407
Lengths:  33.78244  33.78244  33.78244  Average:  33.60407  33.60407  33.60407
Angles:   90.00000  90.00000  90.00000  Average:  90.00000  90.00000  90.00000
Rectangular boundary conditions

net charge:   0.00000000

component 0 (CO2) lambda:  0 occupancy:  1 (1.000000)
    net charge:   0.00000000 [e]

Amount of molecules per component :
-------------------------------------------------------------------------------
Component 0 (CO2)
    molecules:      8.000000e+00 molecules  (9.657584e+00 +/- 0.000000e+00)
    number density: 2.074994e-04 molec./A^3 (2.543234e-04 +/- 0.000000e+00)
    density:        1.516026e+01 kg/m^3     (1.858130e+01 +/- 0.000000e+00)

Average pressure tensor: 
-------------------------------------------------------------------------------
 7.1588e+00  3.0167e-01  7.5303e-02 +/- 0.0000e+00 0.0000e+00 0.0000e+00 [bar]
 3.0167e-01  7.6982e+00 -1.3673e-01 +/- 0.0000e+00 0.0000e+00 0.0000e+00 [bar]
 7.5303e-02 -1.3673e-01  7.7554e+00 +/- 0.0000e+00 0.0000e+00 0.0000e+00 [bar]
Ideal-gas pressure:   8.076029e+00 +/ 0.000000e+00 [bar]
Excess pressure:     -5.385842e-01 +/ 0.000000e+00 [bar]
Pressure:             7.537444e+00 +/ 0.000000e+00 [bar]

Total potential energy/kʙ  -9.608013e+00 (-4.698735e+02 +/- 0.000000e+00) [K]
-------------------------------------------------------------------------------
ExternalField-molecule
    Van der Waals/kʙ        0.000000e+00 ( 0.000000e+00 +/- 0.000000e+00) [K]
Framework-molecule
    Van der Waals/kʙ        0.000000e+00 ( 0.000000e+00 +/- 0.000000e+00) [K]
    Van der Waals (Tail)/kʙ 0.000000e+00 ( 0.000000e+00 +/- 0.000000e+00) [K]
    Coulombic Real/kʙ       0.000000e+00 ( 0.000000e+00 +/- 0.000000e+00) [K]
    Coulombic Fourier/kʙ    0.000000e+00 ( 0.000000e+00 +/- 0.000000e+00) [K]
Molecule-molecule
    Van der Waals/kʙ       -7.428693e+00 (-3.491087e+02 +/- 0.000000e+00) [K]
    Van der Waals (Tail)/kʙ-3.082784e+00 (-5.123162e+00 +/- 0.000000e+00) [K]
    Coulombic Real/kʙ      -1.240231e-01 (-1.077821e+02 +/- 0.000000e+00) [K]
    Coulombic Fourier/kʙ    1.027487e+00 (-7.859576e+00 +/- 0.000000e+00) [K]
    Molecule Intra/kʙ       0.000000e+00 ( 0.000000e+00 +/- 0.000000e+00) [K]

Current cycle: 1200 out of 6000
===============================================================================

Box:      33.71966   0.00000   0.00000  Average:  33.61741   0.00000   0.00000
           0.00000  33.71966   0.00000             0.00000  33.61741   0.00000
           0.00000   0.00000  33.71966             0.00000   0.00000  33.61741
Lengths:  33.71966  33.71966  33.71966  Average:  33.61741  33.61741  33.61741
Angles:   90.00000  90.00000  90.00000  Average:  90.00000  90.00000  90.00000
Rectangular boundary conditions

net charge:   0.00000000

component 0 (CO2) lambda:  0 occupancy:  1 (1.000000)
    net charge:   0.00000000 [e]

Amount of molecules per component :
-------------------------------------------------------------------------------
Component 0 (CO2)
    molecules:      5.000000e+00 molecules  (9.531224e+00 +/- 0.000000e+00)
    number density: 1.304128e-04 molec./A^3 (2.507481e-04 +/- 0.000000e+00)
    density:        9.528184e+00 kg/m^3     (1.832008e+01 +/- 0.000000e+00)

Average pressure tensor: 
-------------------------------------------------------------------------------
 7.1589e+00  3.1376e-01 -1.2264e-02 +/- 0.0000e+00 0.0000e+00 0.0000e+00 [bar]
 3.1376e-01  7.5817e+00 -1.2511e-01 +/- 0.0000e+00 0.0000e+00 0.0000e+00 [bar]
-1.2264e-02 -1.2511e-01  7.5697e+00 +/- 0.0000e+00 0.0000e+00 0.0000e+00 [bar]
Ideal-gas pressure:   7.962494e+00 +/ 0.000000e+00 [bar]
Excess pressure:     -5.257194e-01 +/ 0.000000e+00 [bar]
Pressure:             7.436775e+00 +/ 0.000000e+00 [bar]

Total potential energy/kʙ  -2.228597e+02 (-4.598905e+02 +/- 0.000000e+00) [K]
-------------------------------------------------------------------------------
ExternalField-molecule
    Van der Waals/kʙ        0.000000e+00 ( 0.000000e+00 +/- 0.000000e+00) [K]
Framework-molecule
    Van der Waals/kʙ        0.000000e+00 ( 0.000000e+00 +/- 0.000000e+00) [K]
    Van der Waals (Tail)/kʙ 0.000000e+00 ( 0.000000e+00 +/- 0.000000e+00) [K]
    Coulombic Real/kʙ       0.000000e+00 ( 0.000000e+00 +/- 0.000000e+00) [K]
    Coulombic Fourier/kʙ    0.000000e+00 ( 0.000000e+00 +/- 0.000000e+00) [K]
Molecule-molecule
    Van der Waals/kʙ       -1.252034e+02 (-3.398013e+02 +/- 0.000000e+00) [K]
    Van der Waals (Tail)/kʙ-1.210951e+00 (-4.964322e+00 +/- 0.000000e+00) [K]
    Coulombic Real/kʙ      -7.445861e+01 (-1.073267e+02 +/- 0.000000e+00) [K]
    Coulombic Fourier/kʙ   -2.198676e+01 (-7.798279e+00 +/- 0.000000e+00) [K]
    Molecule Intra/kʙ       0.000000e+00 ( 0.000000e+00 +/- 0.000000e+00) [K]

Current cycle: 1300 out of 6000
===============================================================================

Box:      33.75654   0.00000   0.00000  Average:  33.62847   0.00000   0.00000
           0.00000  33.75654   0.00000             0.00000  33.62847   0.00000
           0.00000   0.00000  33.75654             0.00000   0.00000  33.62847
Lengths:  33.75654  33.75654  33.75654  Average:  33.62847  33.62847  33.62847
Angles:   90.00000  90.00000  90.00000  Average:  90.00000  90.00000  90.00000
Rectangular boundary conditions

net charge:   0.00000000

component 0 (CO2) lambda:  0 occupancy:  1 (1.000000)
    net charge:   0.00000000 [e]

Amount of molecules per component :
-------------------------------------------------------------------------------
Component 0 (CO2)
    molecules:      2.000000e+00 molecules  (9.252882e+00 +/- 0.000000e+00)
    number density: 5.199437e-05 molec./A^3 (2.432763e-04 +/- 0.000000e+00)
    density:        3.798798e+00 kg/m^3     (1.777418e+01 +/- 0.000000e+00)

Average pressure tensor: 
-------------------------------------------------------------------------------
 6.9027e+00  2.9780e-01 -8.4919e-03 +/- 0.0000e+00 0.0000e+00 0.0000e+00 [bar]
 2.9780e-01  7.3621e+00 -1.3681e-01 +/- 0.0000e+00 0.0000e+00 0.0000e+00 [bar]
-8.4919e-03 -1.3681e-01  7.2953e+00 +/- 0.0000e+00 0.0000e+00 0.0000e+00 [bar]
Ideal-gas pressure:   7.725229e+00 +/ 0.000000e+00 [bar]
Excess pressure:     -5.385318e-01 +/ 0.000000e+00 [bar]
Pressure:             7.186697e+00 +/ 0.000000e+00 [bar]

Total potential energy/kʙ  -1.906717e+02 (-4.405511e+02 +/- 0.000000e+00) [K]
-------------------------------------------------------------------------------
ExternalField-molecule
    Van der Waals/kʙ        0.000000e+00 ( 0.000000e+00 +/- 0.000000e+00) [K]
Framework-molecule
    Van der Waals/kʙ        0.000000e+00 ( 0.000000e+00 +/- 0.000000e+00) [K]
    Van der Waals (Tail)/kʙ 0.000000e+00 ( 0.000000e+00 +/- 0.000000e+00) [K]
    Coulombic Real/kʙ       0.000000e+00 ( 0.000000e+00 +/- 0.000000e+00) [K]
    Coulombic Fourier/kʙ    0.000000e+00 ( 0.000000e+00 +/- 0.000000e+00) [K]
Molecule-molecule
    Van der Waals/kʙ       -1.871670e+02 (-3.241170e+02 +/- 0.000000e+00) [K]
    Van der Waals (Tail)/kʙ-1.931179e-01 (-4.745421e+00 +/- 0.000000e+00) [K]
    Coulombic Real/kʙ      -5.525717e+00 (-1.042509e+02 +/- 0.000000e+00) [K]
    Coulombic Fourier/kʙ    2.214130e+00 (-7.437873e+00 +/- 0.000000e+00) [K]
    Molecule Intra/kʙ       0.000000e+00 ( 0.000000e+00 +/- 0.000000e+00) [K]

Current cycle: 1400 out of 6000
===============================================================================

Box:      33.68604   0.00000   0.00000  Average:  33.63917   0.00000   0.00000
           0.00000  33.68604   0.00000             0.00000  33.63917   0.00000
           0.00000   0.00000  33.68604             0.00000   0.00000  33.63917
Lengths:  33.68604  33.68604  33.68604  Average:  33.63917  33.63917  33.63917
Angles:   90.00000  90.00000  90.00000  Average:  90.00000  90.00000  90.00000
Rectangular boundary conditions

net charge:   0.00000000

component 0 (CO2) lambda:  0 occupancy:  1 (1.000000)
    net charge:   0.00000000 [e]

Amount of molecules per component :
-------------------------------------------------------------------------------
Component 0 (CO2)
    molecules:      9.000000e+00 molecules  (9.087081e+00 +/- 0.000000e+00)
    number density: 2.354467e-04 molec./A^3 (2.387408e-04 +/- 0.000000e+00)
    density:        1.720214e+01 kg/m^3     (1.744281e+01 +/- 0.000000e+00)

Average pressure tensor: 
-------------------------------------------------------------------------------
 6.8868e+00  2.7213e-01  7.6583e-02 +/- 0.0000e+00 0.0000e+00 0.0000e+00 [bar]
 2.7213e-01  7.2045e+00 -1.4850e-01 +/- 0.0000e+00 0.0000e+00 0.0000e+00 [bar]
 7.6583e-02 -1.4850e-01  7.2186e+00 +/- 0.0000e+00 0.0000e+00 0.0000e+00 [bar]
Ideal-gas pressure:   7.581203e+00 +/ 0.000000e+00 [bar]
Excess pressure:     -4.778958e-01 +/ 0.000000e+00 [bar]
Pressure:             7.103308e+00 +/ 0.000000e+00 [bar]

Total potential energy/kʙ  -1.083722e+02 (-4.212955e+02 +/- 0.000000e+00) [K]
-------------------------------------------------------------------------------
ExternalField-molecule
    Van der Waals/kʙ        0.000000e+00 ( 0.000000e+00 +/- 0.000000e+00) [K]
Framework-molecule
    Van der Waals/kʙ        0.000000e+00 ( 0.000000e+00 +/- 0.000000e+00) [K]
    Van der Waals (Tail)/kʙ 0.000000e+00 ( 0.000000e+00 +/- 0.000000e+00) [K]
    Coulombic Real/kʙ       0.000000e+00 ( 0.000000e+00 +/- 0.000000e+00) [K]
    Coulombic Fourier/kʙ    0.000000e+00 ( 0.000000e+00 +/- 0.000000e+00) [K]
Molecule-molecule
    Van der Waals/kʙ       -1.888688e+02 (-3.095085e+02 +/- 0.000000e+00) [K]
    Van der Waals (Tail)/kʙ-3.935240e+00 (-4.567499e+00 +/- 0.000000e+00) [K]
    Coulombic Real/kʙ       1.081925e+02 (-1.002154e+02 +/- 0.000000e+00) [K]
    Coulombic Fourier/kʙ   -2.376060e+01 (-7.004146e+00 +/- 0.000000e+00) [K]
    Molecule Intra/kʙ       0.000000e+00 ( 0.000000e+00 +/- 0.000000e+00) [K]

Current cycle: 1500 out of 6000
===============================================================================

Box:      33.78771   0.00000   0.00000  Average:  33.64590   0.00000   0.00000
           0.00000  33.78771   0.00000             0.00000  33.64590   0.00000
           0.00000   0.00000  33.78771             0.00000   0.00000  33.64590
[...]
    number density: 3.656103e-04 molec./A^3 (2.792964e-04 +/- 5.144229e-05)
    density:        2.671211e+01 kg/m^3     (2.040587e+01 +/- 3.758462e+00)

Average pressure tensor: 
-------------------------------------------------------------------------------
 8.1615e+00  7.5712e-02 -3.7523e-02 +/- 2.6159e+00 3.8641e-01 4.5740e-01 [bar]
 7.5712e-02  8.1949e+00  1.0808e-01 +/- 3.8641e-01 1.7554e+00 3.2480e-01 [bar]
-3.7523e-02  1.0808e-01  8.1864e+00 +/- 4.5740e-01 3.2480e-01 1.6408e+00 [bar]
Ideal-gas pressure:   8.869044e+00 +/ 1.633548e+00 [bar]
Excess pressure:     -6.881050e-01 +/ 4.661031e-01 [bar]
Pressure:             8.180939e+00 +/ 1.985903e+00 [bar]

Total potential energy/kʙ  -7.895739e+02 (-5.429897e+02 +/- 2.051589e+02) [K]
-------------------------------------------------------------------------------
ExternalField-molecule
    Van der Waals/kʙ        0.000000e+00 ( 0.000000e+00 +/- 0.000000e+00) [K]
Framework-molecule
    Van der Waals/kʙ        0.000000e+00 ( 0.000000e+00 +/- 0.000000e+00) [K]
    Van der Waals (Tail)/kʙ 0.000000e+00 ( 0.000000e+00 +/- 0.000000e+00) [K]
    Coulombic Real/kʙ       0.000000e+00 ( 0.000000e+00 +/- 0.000000e+00) [K]
    Coulombic Fourier/kʙ    0.000000e+00 ( 0.000000e+00 +/- 0.000000e+00) [K]
Molecule-molecule
    Van der Waals/kʙ       -5.633949e+02 (-3.891979e+02 +/- 1.388716e+02) [K]
    Van der Waals (Tail)/kʙ-9.505668e+00 (-6.010864e+00 +/- 2.106582e+00) [K]
    Coulombic Real/kʙ      -1.573779e+02 (-1.363132e+02 +/- 6.073007e+01) [K]
    Coulombic Fourier/kʙ   -5.929547e+01 (-1.146778e+01 +/- 6.200569e+00) [K]
    Molecule Intra/kʙ       0.000000e+00 ( 0.000000e+00 +/- 0.000000e+00) [K]

Current cycle: 5800 out of 6000
===============================================================================

Box:      33.77763   0.00000   0.00000  Average:  33.71982   0.00000   0.00000
           0.00000  33.77763   0.00000             0.00000  33.71982   0.00000
           0.00000   0.00000  33.77763             0.00000   0.00000  33.71982
Lengths:  33.77763  33.77763  33.77763  Average:  33.71982  33.71982  33.71982
Angles:   90.00000  90.00000  90.00000  Average:  90.00000  90.00000  90.00000
Rectangular boundary conditions

net charge:   0.00000000

component 0 (CO2) lambda:  0 occupancy:  1 (1.000000)
    net charge:   0.00000000 [e]

Amount of molecules per component :
-------------------------------------------------------------------------------
Component 0 (CO2)
    molecules:      1.400000e+01 molecules  (1.072005e+01 +/- 1.902769e+00)
    number density: 3.632793e-04 molec./A^3 (2.792236e-04 +/- 4.749453e-05)
    density:        2.654181e+01 kg/m^3     (2.040056e+01 +/- 3.470032e+00)

Average pressure tensor: 
-------------------------------------------------------------------------------
 8.1447e+00  7.6947e-02 -2.6637e-02 +/- 2.3414e+00 3.7745e-01 3.9114e-01 [bar]
 7.6947e-02  8.1971e+00  1.1352e-01 +/- 3.7745e-01 1.6264e+00 3.1993e-01 [bar]
-2.6637e-02  1.1352e-01  8.1841e+00 +/- 3.9114e-01 3.1993e-01 1.5201e+00 [bar]
Ideal-gas pressure:   8.866735e+00 +/ 1.508187e+00 [bar]
Excess pressure:     -6.914535e-01 +/ 4.265302e-01 [bar]
Pressure:             8.175281e+00 +/ 1.810323e+00 [bar]

Total potential energy/kʙ  -9.124781e+02 (-5.427713e+02 +/- 1.925536e+02) [K]
-------------------------------------------------------------------------------
ExternalField-molecule
    Van der Waals/kʙ        0.000000e+00 ( 0.000000e+00 +/- 0.000000e+00) [K]
Framework-molecule
    Van der Waals/kʙ        0.000000e+00 ( 0.000000e+00 +/- 0.000000e+00) [K]
    Van der Waals (Tail)/kʙ 0.000000e+00 ( 0.000000e+00 +/- 0.000000e+00) [K]
    Coulombic Real/kʙ       0.000000e+00 ( 0.000000e+00 +/- 0.000000e+00) [K]
    Coulombic Fourier/kʙ    0.000000e+00 ( 0.000000e+00 +/- 0.000000e+00) [K]
Molecule-molecule
    Van der Waals/kʙ       -5.494626e+02 (-3.886584e+02 +/- 1.301264e+02) [K]
    Van der Waals (Tail)/kʙ-9.445063e+00 (-6.017032e+00 +/- 1.969895e+00) [K]
    Coulombic Real/kʙ      -3.431985e+02 (-1.364958e+02 +/- 5.735983e+01) [K]
    Coulombic Fourier/kʙ   -1.037204e+01 (-1.160008e+01 +/- 6.132793e+00) [K]
    Molecule Intra/kʙ       0.000000e+00 ( 0.000000e+00 +/- 0.000000e+00) [K]

Current cycle: 5900 out of 6000
===============================================================================

Box:      33.75916   0.00000   0.00000  Average:  33.72152   0.00000   0.00000
           0.00000  33.75916   0.00000             0.00000  33.72152   0.00000
           0.00000   0.00000  33.75916             0.00000   0.00000  33.72152
Lengths:  33.75916  33.75916  33.75916  Average:  33.72152  33.72152  33.72152
Angles:   90.00000  90.00000  90.00000  Average:  90.00000  90.00000  90.00000
Rectangular boundary conditions

net charge:   0.00000000

component 0 (CO2) lambda:  0 occupancy:  1 (1.000000)
    net charge:   0.00000000 [e]

Amount of molecules per component :
-------------------------------------------------------------------------------
Component 0 (CO2)
    molecules:      1.200000e+01 molecules  (1.073293e+01 +/- 1.819242e+00)
    number density: 3.118934e-04 molec./A^3 (2.795189e-04 +/- 4.533073e-05)
    density:        2.278746e+01 kg/m^3     (2.042213e+01 +/- 3.311941e+00)

Average pressure tensor: 
-------------------------------------------------------------------------------
 8.1415e+00  7.4597e-02 -3.3021e-02 +/- 2.1583e+00 3.6505e-01 3.8379e-01 [bar]
 7.4597e-02  8.1858e+00  1.1276e-01 +/- 3.6505e-01 1.4867e+00 3.1964e-01 [bar]
-3.3021e-02  1.1276e-01  8.1648e+00 +/- 3.8379e-01 3.1964e-01 1.3813e+00 [bar]
Ideal-gas pressure:   8.876111e+00 +/ 1.439475e+00 [bar]
Excess pressure:     -7.120766e-01 +/ 3.546140e-01 [bar]
Pressure:             8.164034e+00 +/ 1.653705e+00 [bar]

Total potential energy/kʙ  -8.888050e+02 (-5.425488e+02 +/- 1.826506e+02) [K]
-------------------------------------------------------------------------------
ExternalField-molecule
    Van der Waals/kʙ        0.000000e+00 ( 0.000000e+00 +/- 0.000000e+00) [K]
Framework-molecule
    Van der Waals/kʙ        0.000000e+00 ( 0.000000e+00 +/- 0.000000e+00) [K]
    Van der Waals (Tail)/kʙ 0.000000e+00 ( 0.000000e+00 +/- 0.000000e+00) [K]
    Coulombic Real/kʙ       0.000000e+00 ( 0.000000e+00 +/- 0.000000e+00) [K]
    Coulombic Fourier/kʙ    0.000000e+00 ( 0.000000e+00 +/- 0.000000e+00) [K]
Molecule-molecule
    Van der Waals/kʙ       -3.195169e+02 (-3.886891e+02 +/- 1.245421e+02) [K]
    Van der Waals (Tail)/kʙ-6.950621e+00 (-6.030167e+00 +/- 1.880195e+00) [K]
    Coulombic Real/kʙ      -5.081739e+02 (-1.360731e+02 +/- 5.323409e+01) [K]
    Coulombic Fourier/kʙ   -5.416354e+01 (-1.175634e+01 +/- 6.159869e+00) [K]
    Molecule Intra/kʙ       0.000000e+00 ( 0.000000e+00 +/- 0.000000e+00) [K]


Energy statistics             |  Energy [K]   | Recomputed [K]|  Drift [K]    |
===============================================================================
Total potential energy/kʙ     | -1.490785e+03 | -1.490785e+03 |  5.245028e-12 |
    external field VDW/kʙ     |  0.000000e+00 |  0.000000e+00 |  0.000000e+00 |
    external field Real/kʙ    |  0.000000e+00 |  0.000000e+00 |  0.000000e+00 |
    framework-molecule VDW/kʙ |  0.000000e+00 |  0.000000e+00 |  0.000000e+00 |
    framework-molecule Real/kʙ|  0.000000e+00 |  0.000000e+00 |  0.000000e+00 |
    molecule-molecule VDW/kʙ  | -1.502328e+03 | -1.502328e+03 |  1.914275e-12 |
    molecule-molecule Real/kʙ |  8.264869e+01 |  8.264869e+01 |  6.477769e-12 |
    Van der Waals (Tail)/kʙ   | -1.369982e+01 | -1.369982e+01 | -2.136468e-15 |
    Ewald Fourier/kʙ          |  9.422898e+02 |  9.422898e+02 | -3.144880e-12 |
    Ewald self/kʙ             | -3.122353e+05 | -3.122353e+05 |  0.000000e+00 |
    Ewald exclusion/kʙ        |  3.112356e+05 |  3.112356e+05 |  0.000000e+00 |
    intra VDW/kʙ              |  0.000000e+00 |  0.000000e+00 |  0.000000e+00 |
    intra Coulombic/kʙ        |  0.000000e+00 |  0.000000e+00 |  0.000000e+00 |
    polarization/kʙ           |  0.000000e+00 |  0.000000e+00 |  0.000000e+00 |
    dU/dlambda VDW/kʙ         |  0.000000e+00 |  0.000000e+00 |  0.000000e+00 |
    dU/dlambda Real/kʙ        |  0.000000e+00 |  0.000000e+00 |  0.000000e+00 |
    dU/dlambda Ewald/kʙ       |  0.000000e+00 |  0.000000e+00 |  0.000000e+00 |
-------------------------------------------------------------------------------


Monte-Carlo moves statistics
===============================================================================

    Gibbs volume         all:                2913
    Gibbs volume         total:              5930
    Gibbs volume         constructed:        5930
    Gibbs volume         accepted:           1810
    Gibbs volume         fraction:       0.305228
    Gibbs volume         max-change:     0.036080

Component 0 [CO2]
    Reinsertion (CBMC)   all:              149342
    Reinsertion (CBMC)   total:            149337
    Reinsertion (CBMC)   constructed:      149337
    Reinsertion (CBMC)   accepted:         124206
    Reinsertion (CBMC)   fraction:       0.831716
    Reinsertion (CBMC)   max-change:     0.000000

    Gibbs swap (CBMC)    all:              299420
    Gibbs swap (CBMC)    total:            598423
    Gibbs swap (CBMC)    constructed:      540669
    Gibbs swap (CBMC)    accepted:          16251
    Gibbs swap (CBMC)    fraction:       0.027156
    Gibbs swap (CBMC)    max-change:     0.000000

    Translation          all:              149453
    Translation          total:             50178      49511      49750
    Translation          constructed:       50144      49490      49716
    Translation          accepted:          46479      46079      46160
    Translation          fraction:       0.926282   0.930682   0.927839
    Translation          max-change:     1.500000   1.500000   1.500000

    Rotation             all:              149265
    Rotation             total:             49623      50008      49630
    Rotation             constructed:       49616      50001      49620
    Rotation             accepted:          45811      46243      45836
    Rotation             fraction:       0.923181   0.924712   0.923554
    Rotation             max-change:     1.500000   1.500000   1.500000



Production run counting of the MC moves summed over systems and components
===============================================================================

Reinsertion (CBMC)                   298396 (19.8931 [%])
Gibbs volume                           5930 (0.3953 [%])
Gibbs swap (CBMC)                    598432 (39.8955 [%])
Translation                          298379 (19.8919 [%])
Rotation                             298863 (19.9242 [%])

Production count MC-steps:          1500000 [-]
               All summed:          1500000 [-]
               difference:                0 [-]


Production run CPU timings of the MC moves
===============================================================================

Component 0 CO2

Rotation                              6.299661 [s]
    Ewald                             5.246046 [s]
    ExternalField-Molecule            0.008300 [s]
    Framework-Molecule                0.008061 [s]
    Molecule-Molecule                 0.430283 [s]
    Overhead                          0.606971 [s]

Reinsertion (CBMC)                   11.941033 [s]
    Ewald                             5.252034 [s]
    NonEwald                          6.197295 [s]
    Overhead                          0.491704 [s]

Translation                           6.308887 [s]
    Ewald                             5.256673 [s]
    ExternalField-Molecule            0.008263 [s]
    Framework-Molecule                0.012799 [s]
    Molecule-Molecule                 0.438092 [s]
    Overhead                          0.593060 [s]



Gibbs swap (CBMC)                   183.217557 [s]
    Ewald                            17.040585 [s]
    NonEwald                        164.167234 [s]
    Tail                              1.510651 [s]

Gibbs volume                         29.471745 [s]
    Ewald                             6.076991 [s]
    NonEwald                         22.161541 [s]
    Tail                              1.107479 [s]

Property sampling                     0.312873 [s]
Energy/pressure sampling:             0.227057 [s]


Production run CPU timings of the MC moves summed over systems and components
===============================================================================


Translation                          29.859818 [s]
    Ewald                            10.519324 [s]
    ExternalField-Molecule            0.016566 [s]
    Framework-Molecule                0.025335 [s]
    Molecule-Molecule                18.238560 [s]
    Overhead                          1.060033 [s]

Rotation                             29.912653 [s]
    Ewald                            10.536225 [s]
    ExternalField-Molecule            0.015914 [s]
    Framework-Molecule                0.016206 [s]
    Molecule-Molecule                18.285379 [s]
    Overhead                          1.058929 [s]

Reinsertion (CBMC)                  128.708752 [s]
    Ewald                             9.668829 [s]
    NonEwald                        118.418621 [s]
    Overhead                          0.621302 [s]

Gibbs volume                         60.039034 [s]
    Ewald                            12.383224 [s]
    NonEwald                         45.140678 [s]
    Tail                              2.254355 [s]
    Overhead                          0.260777 [s]

Gibbs swap (CBMC)                   336.401007 [s]
    Ewald                            30.849463 [s]
    NonEwald                        302.109733 [s]
    Tail                              2.521940 [s]
    Overhead                          0.919871 [s]

Property sampling:                    0.643662 [s]
Energy/pressure sampling:            11.281774 [s]

Production simulation time:         597.970857 [s]
                All summed:         596.846700 [s]
                  Overhead:           1.124157 [s]


Initalization simulation time:      191.348724 [s]
Equilibration simulation time:        0.000000 [s]
Production simulation time:         597.970857 [s]
Total simulation time:              789.319581 [s]


Energy averages and statistics:
===============================================================================

Framework-molecule energy:
-------------------------------------------------------------------------------



Framework-molecule energy contributions per energy type:
-------------------------------------------------------------------------------



Inter-molecular energy:
-------------------------------------------------------------------------------

    Inter-molecular energy/kʙ 0-0 [CO2-CO2]:
    ---------------------------------------------------------------------------
        Block[  0] -4.618658e+02
        Block[  1] -6.268490e+02
        Block[  2] -5.146369e+02
        Block[  3] -3.736001e+02
        Block[  4] -7.830949e+02
        -----------------------------------------------------------------------
        Average  -5.520093e+02 +/-  1.966399e+02 [K]



Inter-molecular energy contributions per energy type:
-------------------------------------------------------------------------------

    Van der Waals energy/kʙ 0-0 [CO2-CO2]:
    ---------------------------------------------------------------------------
        Block[  0] -3.415896e+02
        Block[  1] -4.570325e+02
        Block[  2] -3.649881e+02
        Block[  3] -2.670314e+02
        Block[  4] -5.423919e+02
        -----------------------------------------------------------------------
        Average  -3.946067e+02 +/-  1.326989e+02 [K]

    VDW Tail-Correction energy/kʙ 0-0 [CO2-CO2]:
    ---------------------------------------------------------------------------
        Block[  0] -4.995600e+00
        Block[  1] -6.508383e+00
        Block[  2] -5.387670e+00
        Block[  3] -4.920088e+00
        Block[  4] -8.818449e+00
        -----------------------------------------------------------------------
        Average  -6.126038e+00 +/-  2.027873e+00 [K]

    Coulomb Real energy/kʙ 0-0 [CO2-CO2]:
    ---------------------------------------------------------------------------
        Block[  0] -1.076006e+02
        Block[  1] -1.549462e+02
        Block[  2] -1.323843e+02
        Block[  3] -9.028998e+01
        Block[  4] -2.101697e+02
        -----------------------------------------------------------------------
        Average  -1.390782e+02 +/-  5.797036e+01 [K]

    Coulomb Fourier energy/kʙ 0-0 [CO2-CO2]:
    ---------------------------------------------------------------------------
        Block[  0] -7.680042e+00
        Block[  1] -8.361834e+00
        Block[  2] -1.187670e+01
        Block[  3] -1.135857e+01
        Block[  4] -2.171483e+01
        -----------------------------------------------------------------------
        Average  -1.219840e+01 +/-  6.981683e+00 [K]


Total energy/kʙ
-------------------------------------------------------------------------------
    Block[  0] -4.618658e+02
    Block[  1] -6.268490e+02
    Block[  2] -5.146369e+02
    Block[  3] -3.736001e+02
    Block[  4] -7.830949e+02
    ---------------------------------------------------------------------------
    Average  -5.520093e+02 +/-  1.966399e+02 [K]

Pressure averages and statistics:
===============================================================================

Average pressure tensor: 
-------------------------------------------------------------------------------
 8.1670e+00  8.6323e-02 -2.2646e-02 +/- 2.0873e+00 3.7564e-01 3.3759e-01 [bar]
 8.6323e-02  8.2589e+00  1.0930e-01 +/- 3.7564e-01 1.5889e+00 3.2068e-01 [bar]
-2.2646e-02  1.0930e-01  8.1838e+00 +/- 3.3759e-01 3.2068e-01 1.3583e+00 [bar]

    Block[  0]  7.965679e+05
    Block[  1]  9.247533e+05
    Block[  2]  8.576763e+05
    Block[  3]  7.989409e+05
    Block[  4]  1.093969e+06
    ---------------------------------------------------------------------------
    Ideal gas pressure   8.943815e+05 +/-  9.215946e-03 [Pa]
                         8.943815e+00 +/-  1.530345e+00 [bar]


    Block[  0] -5.261111e+04
    Block[  1] -9.877377e+04
    Block[  2] -7.471547e+04
    Block[  3] -9.512563e+04
    Block[  4] -4.907094e+04
    ---------------------------------------------------------------------------
    Excess pressure  -7.405938e+04 +/-  2.871161e+04 [Pa]
                     -7.405938e-01 +/-  2.871161e-01 [bar]


    Block[  0]  7.439568e+05
    Block[  1]  8.259796e+05
    Block[  2]  7.829609e+05
    Block[  3]  7.038153e+05
    Block[  4]  1.044898e+06
    ---------------------------------------------------------------------------
    Pressure average   8.203221e+05 +/-  1.657108e+05 [Pa]
                       8.203221e+00 +/-  1.657108e+00 [bar]


Enthalpy of adsorption
===============================================================================

Component 0 [CO2]
-------------------------------------------------------------------------------
    Block[  0] -3.128259e+02
    Block[  1] -3.299367e+02
    Block[  2] -3.223678e+02
    Block[  3] -3.129043e+02
    Block[  4] -3.634728e+02
    ---------------------------------------------------------------------------
    Enthalpy of adsorption: -3.283015e+02 +/-  2.597800e+01 [K]
                            -2.729651e+00 +/-  2.159932e-01 [kJ/mol]
    Warning: need to subtract the ideal-gas energy.


Densities
===============================================================================

Component 0 (CO2)
    Block[  0] 9.535
    Block[  1] 11.22
    Block[  2] 10.3275
    Block[  3] 9.672500000000001
    Block[  4] 13.335833333333333
    -----------------------------------------------------------------------
    Density average   1.081817e+01 +/-  1.933254e+00 [molecules]
    Density average   2.816510e-04 +/-  4.819231e-05 [molec/A^3]
    Density average   2.057790e+01 +/-  3.521013e+00 [kg.m⁻³]

